 Gaussian 16, Revision C.01,

 ----------------------------------------------------------------------
 #t hf aug-cc-pvdz symm=none int=(grid=ultrafine) guess=(read,tcheck) s
 table=(opt,rrhf)
 ----------------------------------------------------------------------
 -----
 title
 -----
 Symbolic Z-matrix:
 Charge =  0 Multiplicity = 1

 SCF Done:  E(RHF) =  -266.865783491     A.U. after   13 cycles
 Normal termination of Gaussian 16 at Sat Apr  5 23:00:29 2025.
 Gaussian 16:  ES64L-G16RevC.01  3-Jul-2019

 ----------------------------------------------------------------------
 #t hf aug-cc-pvdz iop(5/13=1,5/36=2,99/5=2) pseudo=read geom=check gue
 ss=(read,tcheck) scf=(maxcycle=1)
 ----------------------------------------------------------------------
 -----
 title
 -----
 Structure from the checkpoint file:  "ethylformate.chk"
 Charge =  0 Multiplicity = 1

                         Standard orientation:
 ---------------------------------------------------------------------
 Center     Atomic      Atomic             Coordinates (Angstroms)
 Number     Number       Type             X           Y           Z
 ---------------------------------------------------------------------
      1          6           0        1.335737    0.637655    0.000000
      2          6           0       -2.183624   -0.287568    0.000000
      3          6           0       -0.700940   -0.578325    0.000000
      4          8           0        2.002533   -0.361066    0.000000
      5          8           0        0.000000    0.693290    0.000000
      6          1           0        1.739533    1.657904    0.000000
      7          1           0       -2.739422   -1.225778    0.000000
      8          1           0       -2.471547    0.280474    0.884202
      9          1           0       -2.471547    0.280474   -0.884202
     10          1           0       -0.392160   -1.140715   -0.880841
     11          1           0       -0.392160   -1.140715    0.880841
 ---------------------------------------------------------------------

 SCF Done:  E(RHF) =  -267.137664800     A.U. after    2 cycles

 The electronic state is 1-A'.
 Alpha  occ. eigenvalues --  -20.59599 -20.54327 -11.39277 -11.30393 -11.24026
 Alpha  occ. eigenvalues --   -1.54726  -1.45792  -1.05398  -0.90195  -0.81479
 Alpha  occ. eigenvalues --   -0.73632  -0.68891  -0.68398  -0.59226  -0.58048
 Alpha  occ. eigenvalues --   -0.56245  -0.52209  -0.52172  -0.45781  -0.45189
 Alpha virt. eigenvalues --    0.03618   0.04015   0.04594   0.04812   0.06587
 Alpha virt. eigenvalues --    0.07785   0.10110   0.10210   0.12257   0.14046
 Alpha virt. eigenvalues --    0.14914   0.15740   0.16081   0.16206   0.17160

 Mulliken charges:
               1
     1  C    1.310491
     2  C   -0.500035
     3  C    0.442375
     4  O   -0.951557
     5  O   -1.087970
     6  H    0.090219
     7  H    0.172891
     8  H    0.168509
     9  H    0.168509
    10  H    0.093284
    11  H    0.093284
 Sum of Mulliken charges =  -0.00000

 Dipole moment (field-independent basis, Debye):
    X=             -2.1520    Y=              0.7117    Z=              0.0000  Tot=              2.2667

 Test job not archived.
 1\1\GINC-SE129\SP\RHF\Aug-CC-pVDZ\C3H6O2\OHZDE\05-Apr-2025\0\\#t hf au
 g-cc-pvdz iop(5/13=1,5/36=2,99/5=2) pseudo=read geom=check guess=(read
 ,tcheck) scf=(maxcycle=1)\\title\\0,1\C,0,1.335737,0.637655,0.\C,0,-2.
 183624,-0.287568,0.\C,0,-0.70094,-0.578325,0.\O,0,2.002533,-0.361066,0
 .\O,0,0.,0.69329,0.\H,0,1.739533,1.657904,0.\H,0,-2.739422,-1.225778,0
 .\H,0,-2.471547,0.280474,0.884202\H,0,-2.471547,0.280474,-0.884202\H,0
 ,-0.39216,-1.140715,-0.880841\H,0,-0.39216,-1.140715,0.880841\\Version
 =ES64L-G16RevC.01\State=1-A'\HF=-267.1376648\RMSD=8.189e-03\Dipole=-0.

 Normal termination of Gaussian 16 at Sat Apr  5 23:00:33 2025.
