 Gaussian 16, Revision C.01,

 ----------------------------------------------------------------------
 #t hf aug-cc-pvdz symm=none int=(grid=ultrafine) guess=(read,tcheck) s
 table=(opt,rrhf)
 ----------------------------------------------------------------------
 -----
 title
 -----
 Symbolic Z-matrix:
 Charge =  0 Multiplicity = 1

 SCF Done:  E(RHF) =  -1057.77191509     A.U. after   14 cycles
 Normal termination of Gaussian 16 at Sat Apr  5 23:00:26 2025.
 Gaussian 16:  ES64L-G16RevC.01  3-Jul-2019

 ----------------------------------------------------------------------
 #t hf aug-cc-pvdz iop(5/13=1,5/36=2,99/5=2) pseudo=read geom=check gue
 ss=(read,tcheck) scf=(maxcycle=1)
 ----------------------------------------------------------------------
 -----
 title
 -----
 Structure from the checkpoint file:  "ethylenediisothiocyanate.chk"
 Charge =  0 Multiplicity = 1

                         Standard orientation:
 ---------------------------------------------------------------------
 Center     Atomic      Atomic             Coordinates (Angstroms)
 Number     Number       Type             X           Y           Z
 ---------------------------------------------------------------------
      1         16           0       -4.596838   -0.003107   -0.000137
      2         16           0        4.596838    0.003103   -0.000056
      3          7           0       -1.832054   -0.149686    0.000108
      4          7           0        1.832054    0.149689    0.000098
      5          6           0       -0.565103    0.514998    0.000097
      6          6           0        0.565103   -0.514994    0.000093
      7          6           0       -3.015809   -0.039311   -0.000005
      8          6           0        3.015809    0.039311    0.000027
      9          1           0       -0.483266    1.151721    0.883482
     10          1           0       -0.483277    1.151723   -0.883288
     11          1           0        0.483272   -1.151716   -0.883294
     12          1           0        0.483270   -1.151720    0.883476
 ---------------------------------------------------------------------

 SCF Done:  E(RHF) =  -1058.14776246     A.U. after    2 cycles

 The electronic state is 1-A.
 Alpha  occ. eigenvalues --  -93.95522 -93.95522 -15.56154 -15.56110 -11.39573
 Alpha  occ. eigenvalues --  -11.39570 -11.33443 -11.33423  -8.23800  -8.23800
 Alpha  occ. eigenvalues --   -6.21698  -6.21698  -6.21268  -6.21268  -6.21234
 Alpha  occ. eigenvalues --   -6.21234  -1.32236  -1.30982  -1.13054  -1.08828
 Alpha  occ. eigenvalues --   -1.06515  -0.97894  -0.80316  -0.75899  -0.72820
 Alpha  occ. eigenvalues --   -0.68053  -0.65455  -0.62191  -0.61870  -0.60571
 Alpha  occ. eigenvalues --   -0.57569  -0.54484  -0.53906  -0.39577  -0.39374
 Alpha  occ. eigenvalues --   -0.38636  -0.38357
 Alpha virt. eigenvalues --    0.02378   0.04202   0.04405   0.05215   0.06060
 Alpha virt. eigenvalues --    0.06775   0.07422   0.07961   0.08847   0.08852
 Alpha virt. eigenvalues --    0.09678   0.10022   0.10497   0.11557   0.12932

 Mulliken charges:
               1
     1  S    0.296973
     2  S    0.296974
     3  N    0.844527
     4  N    0.844527
     5  C   -0.193382
     6  C   -0.193381
     7  C   -1.109115
     8  C   -1.109116
     9  H    0.080507
    10  H    0.080490
    11  H    0.080492
    12  H    0.080505
 Sum of Mulliken charges =   0.00000

 Dipole moment (field-independent basis, Debye):
    X=              0.0000    Y=              0.0000    Z=              0.0001  Tot=              0.0001

 Test job not archived.
 1\1\GINC-SE151\SP\RHF\Aug-CC-pVDZ\C4H4N2S2\OHZDE\05-Apr-2025\0\\#t hf
 aug-cc-pvdz iop(5/13=1,5/36=2,99/5=2) pseudo=read geom=check guess=(re
 ad,tcheck) scf=(maxcycle=1)\\title\\0,1\S,0,-4.596838,-0.003107,-0.000
 137\S,0,4.596838,0.003103,-0.000056\N,0,-1.832054,-0.149686,0.000108\N
 ,0,1.832054,0.149689,0.000098\C,0,-0.565103,0.514998,0.000097\C,0,0.56
 5103,-0.514994,0.000093\C,0,-3.015809,-0.039311,-0.000005\C,0,3.015809
 ,0.039311,0.000027\H,0,-0.483266,1.151721,0.883482\H,0,-0.483277,1.151
 723,-0.883288\H,0,0.483272,-1.151716,-0.883294\H,0,0.48327,-1.15172,0.

 Normal termination of Gaussian 16 at Sat Apr  5 23:00:32 2025.
