 Gaussian 16, Revision C.01,

 ----------------------------------------------------------------------
 #t hf aug-cc-pvdz symm=none int=(grid=ultrafine) guess=(read,tcheck) s
 table=(opt,rrhf)
 ----------------------------------------------------------------------
 -----
 title
 -----
 Symbolic Z-matrix:
 Charge =  0 Multiplicity = 1

 SCF Done:  E(RHF) =  -134.272361615     A.U. after   12 cycles
 Normal termination of Gaussian 16 at Sat Apr  5 23:00:04 2025.
 Gaussian 16:  ES64L-G16RevC.01  3-Jul-2019

 ----------------------------------------------------------------------
 #t hf aug-cc-pvdz iop(5/13=1,5/36=2,99/5=2) pseudo=read geom=check gue
 ss=(read,tcheck) scf=(maxcycle=1)
 ----------------------------------------------------------------------
 -----
 title
 -----
 Structure from the checkpoint file:  "ethylamine.chk"
 Charge =  0 Multiplicity = 1

                         Standard orientation:
 ---------------------------------------------------------------------
 Center     Atomic      Atomic             Coordinates (Angstroms)
 Number     Number       Type             X           Y           Z
 ---------------------------------------------------------------------
      1          6           0        1.217924   -0.353536    0.000000
      2          6           0        0.000000    0.571510    0.000000
      3          7           0       -1.306888   -0.088652    0.000000
      4          1           0        1.220384   -0.996853    0.882589
      5          1           0        1.220384   -0.996853   -0.882589
      6          1           0        2.148415    0.218943    0.000000
      7          1           0        0.037134    1.227011   -0.872854
      8          1           0        0.037134    1.227011    0.872854
      9          1           0       -1.411390   -0.683272    0.813701
     10          1           0       -1.411390   -0.683272   -0.813701
 ---------------------------------------------------------------------

 SCF Done:  E(RHF) =  -134.424535223     A.U. after    2 cycles

 The electronic state is 1-A'.
 Alpha  occ. eigenvalues --  -15.47951 -11.25405 -11.22349  -1.17480  -0.99175
 Alpha  occ. eigenvalues --   -0.84033  -0.69815  -0.62252  -0.58572  -0.58392
 Alpha  occ. eigenvalues --   -0.51990  -0.49184  -0.42264
 Alpha virt. eigenvalues --    0.03704   0.04562   0.04844   0.04881   0.07227
 Alpha virt. eigenvalues --    0.07558   0.07840   0.11330   0.12672   0.14685
 Alpha virt. eigenvalues --    0.16475   0.16977   0.16999   0.18182   0.18954

 Mulliken charges:
               1
     1  C   -0.328181
     2  C   -0.762953
     3  N    0.113214
     4  H    0.143823
     5  H    0.143823
     6  H    0.149176
     7  H    0.124955
     8  H    0.124955
     9  H    0.145593
    10  H    0.145593
 Sum of Mulliken charges =   0.00000

 Dipole moment (field-independent basis, Debye):
    X=              1.1044    Y=             -0.9266    Z=             -0.0000  Tot=              1.4416

 Test job not archived.
 1\1\GINC-SE011\SP\RHF\Aug-CC-pVDZ\C2H7N1\OHZDE\05-Apr-2025\0\\#t hf au
 g-cc-pvdz iop(5/13=1,5/36=2,99/5=2) pseudo=read geom=check guess=(read
 ,tcheck) scf=(maxcycle=1)\\title\\0,1\C,0,1.217924,-0.353536,0.\C,0,0.
 ,0.57151,0.\N,0,-1.306888,-0.088652,0.\H,0,1.220384,-0.996853,0.882589
 \H,0,1.220384,-0.996853,-0.882589\H,0,2.148415,0.218943,0.\H,0,0.03713
 4,1.227011,-0.872854\H,0,0.037134,1.227011,0.872854\H,0,-1.41139,-0.68
 3272,0.813701\H,0,-1.41139,-0.683272,-0.813701\\Version=ES64L-G16RevC.
 01\State=1-A'\HF=-134.4245352\RMSD=1.069e-02\Dipole=0.434496,-0.364569

 Normal termination of Gaussian 16 at Sat Apr  5 23:00:08 2025.
