 Gaussian 16, Revision C.01,

 ----------------------------------------------------------------------
 #t hf aug-cc-pvdz symm=none int=(grid=ultrafine) guess=(read,tcheck) s
 table=(opt,rrhf)
 ----------------------------------------------------------------------
 -----
 title
 -----
 Symbolic Z-matrix:
 Charge =  0 Multiplicity = 1

 SCF Done:  E(RHF) =  -383.994789542     A.U. after   13 cycles

 1\1\GINC-SE222\Stability\RHF\Aug-CC-pVDZ\C6H12O2\OHZDE\05-Apr-2025\0\\
 #t hf aug-cc-pvdz symm=none int=(grid=ultrafine) guess=(read,tcheck) s
 table=(opt,rrhf)\\title\\0,1\C,0,0.075104,0.3591,0.000098\C,0,-3.70178
 9,-0.60267,-0.000001\C,0,3.556061,-0.733886,-0.000152\C,0,-1.1689,-0.4
 99935,0.000212\C,0,-2.468473,0.298186,-0.000293\C,0,2.452426,0.299222,
 0.000029\O,0,0.097456,1.565027,0.000074\O,0,1.188412,-0.404077,0.00005
 9\H,0,-4.618593,-0.01246,-0.000388\H,0,-3.723582,-1.248219,-0.880573\H
 ,0,-3.723777,-1.24737,0.881188\H,0,4.525714,-0.234679,-0.000156\H,0,3.

 Normal termination of Gaussian 16 at Sat Apr  5 23:01:07 2025.
 Gaussian 16:  ES64L-G16RevC.01  3-Jul-2019

 ----------------------------------------------------------------------
 #t hf aug-cc-pvdz iop(5/13=1,5/36=2,99/5=2) pseudo=read geom=check gue
 ss=(read,tcheck) scf=(maxcycle=1)
 ----------------------------------------------------------------------
 -----
 title
 -----
 Structure from the checkpoint file:  "ethyl_butanoate.chk"
 Charge =  0 Multiplicity = 1

                         Standard orientation:
 ---------------------------------------------------------------------
 Center     Atomic      Atomic             Coordinates (Angstroms)
 Number     Number       Type             X           Y           Z
 ---------------------------------------------------------------------
      1          6           0        0.075104    0.359100    0.000098
      2          6           0       -3.701789   -0.602670   -0.000001
      3          6           0        3.556061   -0.733886   -0.000152
      4          6           0       -1.168900   -0.499935    0.000212
      5          6           0       -2.468473    0.298186   -0.000293
      6          6           0        2.452426    0.299222    0.000029
      7          8           0        0.097456    1.565027    0.000074
      8          8           0        1.188412   -0.404077    0.000059
      9          1           0       -4.618593   -0.012460   -0.000388
     10          1           0       -3.723582   -1.248219   -0.880573
     11          1           0       -3.723777   -1.247370    0.881188
     12          1           0        4.525714   -0.234679   -0.000156
     13          1           0        3.498825   -1.368972    0.883727
     14          1           0        3.498716   -1.368774   -0.884166
     15          1           0       -1.114011   -1.161253   -0.869006
     16          1           0       -1.114289   -1.160543    0.869994
     17          1           0       -2.485329    0.956406    0.869828
     18          1           0       -2.485160    0.955591   -0.871038
     19          1           0        2.493919    0.941368   -0.879840
     20          1           0        2.494054    0.941198    0.880017
 ---------------------------------------------------------------------

 SCF Done:  E(RHF) =  -384.398339212     A.U. after    2 cycles

 The electronic state is 1-A.
 Alpha  occ. eigenvalues --  -20.58193 -20.52847 -11.38170 -11.29509 -11.24737
 Alpha  occ. eigenvalues --  -11.23449 -11.23145 -11.22666  -1.53560  -1.44385
 Alpha  occ. eigenvalues --   -1.08688  -1.04270  -0.96906  -0.87312  -0.82373
 Alpha  occ. eigenvalues --   -0.77487  -0.70063  -0.68830  -0.66960  -0.64751
 Alpha  occ. eigenvalues --   -0.58981  -0.58649  -0.57330  -0.55892  -0.54634
 Alpha  occ. eigenvalues --   -0.52028  -0.50681  -0.50463  -0.49422  -0.48269
 Alpha  occ. eigenvalues --   -0.44837  -0.43435
 Alpha virt. eigenvalues --    0.03579   0.03734   0.03978   0.04225   0.05167
 Alpha virt. eigenvalues --    0.05417   0.05604   0.07026   0.07637   0.08762
 Alpha virt. eigenvalues --    0.08870   0.09071   0.11089   0.12830   0.13274

 Mulliken charges:
               1
     1  C    2.183163
     2  C   -0.424476
     3  C   -0.461811
     4  C   -0.742443
     5  C   -0.099644
     6  C    0.308137
     7  O   -1.228203
     8  O   -1.372940
     9  H    0.115348
    10  H    0.162811
    11  H    0.162797
    12  H    0.150812
    13  H    0.186588
    14  H    0.186574
    15  H    0.178927
    16  H    0.179112
    17  H    0.119441
    18  H    0.119396
    19  H    0.138207
    20  H    0.138203
 Sum of Mulliken charges =   0.00000

 Dipole moment (field-independent basis, Debye):
    X=              0.5320    Y=             -1.8213    Z=              0.0001  Tot=              1.8974

 Test job not archived.
 1\1\GINC-SE222\SP\RHF\Aug-CC-pVDZ\C6H12O2\OHZDE\05-Apr-2025\0\\#t hf a
 ug-cc-pvdz iop(5/13=1,5/36=2,99/5=2) pseudo=read geom=check guess=(rea
 d,tcheck) scf=(maxcycle=1)\\title\\0,1\C,0,0.075104,0.3591,0.000098\C,
 0,-3.701789,-0.60267,-0.000001\C,0,3.556061,-0.733886,-0.000152\C,0,-1
 .1689,-0.499935,0.000212\C,0,-2.468473,0.298186,-0.000293\C,0,2.452426
 ,0.299222,0.000029\O,0,0.097456,1.565027,0.000074\O,0,1.188412,-0.4040
 77,0.000059\H,0,-4.618593,-0.01246,-0.000388\H,0,-3.723582,-1.248219,-
 0.880573\H,0,-3.723777,-1.24737,0.881188\H,0,4.525714,-0.234679,-0.000

 Normal termination of Gaussian 16 at Sat Apr  5 23:02:20 2025.
