 Gaussian 16, Revision C.01,

 ----------------------------------------------------------------------
 #t hf aug-cc-pvdz symm=none int=(grid=ultrafine) guess=(read,tcheck) s
 table=(opt,rrhf)
 ----------------------------------------------------------------------
 -----
 title
 -----
 Symbolic Z-matrix:
 Charge =  0 Multiplicity = 1

 SCF Done:  E(RHF) =  -76.8286872110     A.U. after    9 cycles
 Normal termination of Gaussian 16 at Sat Apr  5 23:00:36 2025.
 Gaussian 16:  ES64L-G16RevC.01  3-Jul-2019

 ----------------------------------------------------------------------
 #t hf aug-cc-pvdz iop(5/13=1,5/36=2,99/5=2) pseudo=read geom=check gue
 ss=(read,tcheck) scf=(maxcycle=1)
 ----------------------------------------------------------------------
 -----
 title
 -----
 Structure from the checkpoint file:  "ethyne.chk"
 Charge =  0 Multiplicity = 1

                         Standard orientation:
 ---------------------------------------------------------------------
 Center     Atomic      Atomic             Coordinates (Angstroms)
 Number     Number       Type             X           Y           Z
 ---------------------------------------------------------------------
      1          6           0        0.000000    0.000000    0.598150
      2          6           0        0.000000    0.000000   -0.598150
      3          1           0        0.000000    0.000000    1.659779
      4          1           0        0.000000    0.000000   -1.659779
 ---------------------------------------------------------------------

 SCF Done:  E(RHF) =  -76.9093796914     A.U. after    2 cycles

 The electronic state is 1-SGG.
 Alpha  occ. eigenvalues --  -11.25369 -11.25015  -1.03673  -0.77094  -0.69457
 Alpha  occ. eigenvalues --   -0.42207  -0.42207
 Alpha virt. eigenvalues --    0.03783   0.03799   0.10701   0.10701   0.12012
 Alpha virt. eigenvalues --    0.12012   0.12980   0.13721   0.17495   0.22805
 Alpha virt. eigenvalues --    0.22805   0.25935   0.33197   0.35710   0.38927

 Mulliken charges:
               1
     1  C    0.200878
     2  C    0.200878
     3  H   -0.200878
     4  H   -0.200878
 Sum of Mulliken charges =  -0.00000

 Dipole moment (field-independent basis, Debye):
    X=             -0.0000    Y=             -0.0000    Z=              0.0000  Tot=              0.0000

 Test job not archived.
 1\1\GINC-SE053\SP\RHF\Aug-CC-pVDZ\C2H2\OHZDE\05-Apr-2025\0\\#t hf aug-
 cc-pvdz iop(5/13=1,5/36=2,99/5=2) pseudo=read geom=check guess=(read,t
 check) scf=(maxcycle=1)\\title\\0,1\C,0,0.,0.,0.59815\C,0,0.,0.,-0.598
 15\H,0,0.,0.,1.659779\H,0,0.,0.,-1.659779\\Version=ES64L-G16RevC.01\St
 ate=1-SGG\HF=-76.9093797\RMSD=3.642e-02\Dipole=0.,0.,0.\Quadrupole=-1.
 8424988,-1.8424988,3.6849977,0.,0.,0.\PG=D*H [C*(H1C1.C1H1)]\\@

 Normal termination of Gaussian 16 at Sat Apr  5 23:00:54 2025.
