 Gaussian 16, Revision C.01,

 ----------------------------------------------------------------------
 #t hf aug-cc-pvdz symm=none int=(grid=ultrafine) guess=(read,tcheck) s
 table=(opt,rrhf)
 ----------------------------------------------------------------------
 -----
 title
 -----
 Symbolic Z-matrix:
 Charge =  0 Multiplicity = 1

 SCF Done:  E(RHF) =  -725.784140155     A.U. after   13 cycles
 Normal termination of Gaussian 16 at Sat Apr  5 23:00:33 2025.
 Gaussian 16:  ES64L-G16RevC.01  3-Jul-2019

 ----------------------------------------------------------------------
 #t hf aug-cc-pvdz iop(5/13=1,5/36=2,99/5=2) pseudo=read geom=check gue
 ss=(read,tcheck) scf=(maxcycle=1)
 ----------------------------------------------------------------------
 -----
 title
 -----
 Structure from the checkpoint file:  "ethylestercarbonochloridic_acid.chk"
 Charge =  0 Multiplicity = 1

                         Standard orientation:
 ---------------------------------------------------------------------
 Center     Atomic      Atomic             Coordinates (Angstroms)
 Number     Number       Type             X           Y           Z
 ---------------------------------------------------------------------
      1          8           0        0.000000    0.875253    0.000000
      2          1           0       -1.597409   -0.112403    0.885605
      3          1           0       -1.597409   -0.112403   -0.885605
      4          6           0       -1.403897    0.489442    0.000000
      5          1           0       -1.992692    2.365984    0.884747
      6          1           0       -3.270428    1.523039    0.000000
      7          1           0       -1.992692    2.365984   -0.884747
      8          6           0       -2.208098    1.768537    0.000000
      9          8           0        2.148853    0.326496    0.000000
     10         17           0        0.523259   -1.724654    0.000000
     11          6           0        1.006061    0.021175    0.000000
 ---------------------------------------------------------------------

 SCF Done:  E(RHF) =  -726.127565497     A.U. after    2 cycles

 The electronic state is 1-A'.
 Alpha  occ. eigenvalues -- -105.59308 -20.62336 -20.56753 -11.46667 -11.32888
 Alpha  occ. eigenvalues --  -11.25394 -10.64147  -7.81075  -7.80690  -7.80686
 Alpha  occ. eigenvalues --   -1.58075  -1.49763  -1.09850  -1.07098  -0.90743
 Alpha  occ. eigenvalues --   -0.81855  -0.72949  -0.71763  -0.70011  -0.63058
 Alpha  occ. eigenvalues --   -0.59872  -0.58214  -0.54984  -0.53891  -0.49972
 Alpha  occ. eigenvalues --   -0.49900  -0.46976  -0.46230
 Alpha virt. eigenvalues --    0.03009   0.04149   0.04216   0.05285   0.07285
 Alpha virt. eigenvalues --    0.09150   0.09889   0.10631   0.11729   0.12575
 Alpha virt. eigenvalues --    0.13724   0.14115   0.15094   0.15908   0.15940

 Mulliken charges:
               1
     1  O   -1.063737
     2  H    0.131909
     3  H    0.131909
     4  C    0.478715
     5  H    0.178469
     6  H    0.185023
     7  H    0.178469
     8  C   -0.489336
     9  O   -0.987903
    10  Cl  -0.113525
    11  C    1.370007
 Sum of Mulliken charges =  -0.00000

 Dipole moment (field-independent basis, Debye):
    X=             -4.2661    Y=              0.2619    Z=              0.0000  Tot=              4.2741

 Test job not archived.
 1\1\GINC-SE050\SP\RHF\Aug-CC-pVDZ\C3H5Cl1O2\OHZDE\05-Apr-2025\0\\#t hf
  aug-cc-pvdz iop(5/13=1,5/36=2,99/5=2) pseudo=read geom=check guess=(r
 ead,tcheck) scf=(maxcycle=1)\\title\\0,1\O,0,0.,0.875253,0.\H,0,-1.597
 409,-0.112403,0.885605\H,0,-1.597409,-0.112403,-0.885605\C,0,-1.403897
 ,0.489442,0.\H,0,-1.992692,2.365984,0.884747\H,0,-3.270428,1.523039,0.
 \H,0,-1.992692,2.365984,-0.884747\C,0,-2.208098,1.768537,0.\O,0,2.1488
 53,0.326496,0.\Cl,0,0.523259,-1.724654,0.\C,0,1.006061,0.021175,0.\\Ve
 rsion=ES64L-G16RevC.01\State=1-A'\HF=-726.1275655\RMSD=8.167e-03\Dipol

 Normal termination of Gaussian 16 at Sat Apr  5 23:00:39 2025.
