 Gaussian 16, Revision C.01,

 ----------------------------------------------------------------------
 #t hf aug-cc-pvdz symm=none int=(grid=ultrafine) guess=(read,tcheck) s
 table=(opt,rrhf)
 ----------------------------------------------------------------------
 -----
 title
 -----
 Symbolic Z-matrix:
 Charge =  0 Multiplicity = 1

 SCF Done:  E(RHF) =  -189.307336118     A.U. after   11 cycles
 Normal termination of Gaussian 16 at Sat Apr  5 23:00:11 2025.
 Gaussian 16:  ES64L-G16RevC.01  3-Jul-2019

 ----------------------------------------------------------------------
 #t hf aug-cc-pvdz iop(5/13=1,5/36=2,99/5=2) pseudo=read geom=check gue
 ss=(read,tcheck) scf=(maxcycle=1)
 ----------------------------------------------------------------------
 -----
 title
 -----
 Structure from the checkpoint file:  "ethylenediamine.chk"
 Charge =  0 Multiplicity = 1

                         Standard orientation:
 ---------------------------------------------------------------------
 Center     Atomic      Atomic             Coordinates (Angstroms)
 Number     Number       Type             X           Y           Z
 ---------------------------------------------------------------------
      1          6           0        0.397467    0.657442    0.000000
      2          6           0       -0.397467   -0.657442    0.000000
      3          7           0       -0.397467    1.884333    0.000000
      4          7           0        0.397467   -1.884333    0.000000
      5          1           0        0.996875   -1.932923    0.815009
      6          1           0        0.996875   -1.932923   -0.815009
      7          1           0       -0.996875    1.932923    0.815009
      8          1           0       -0.996875    1.932923   -0.815009
      9          1           0       -1.053507   -0.679296    0.874859
     10          1           0       -1.053507   -0.679296   -0.874859
     11          1           0        1.053507    0.679296    0.874859
     12          1           0        1.053507    0.679296   -0.874859
 ---------------------------------------------------------------------

 SCF Done:  E(RHF) =  -189.515980193     A.U. after    2 cycles

 The electronic state is 1-AG.
 Alpha  occ. eigenvalues --  -15.48547 -15.48490 -11.25487 -11.25476  -1.19411
 Alpha  occ. eigenvalues --   -1.16151  -0.95869  -0.84270  -0.71625  -0.68649
 Alpha  occ. eigenvalues --   -0.63397  -0.63283  -0.56985  -0.54670  -0.49269
 Alpha  occ. eigenvalues --   -0.47379  -0.40166
 Alpha virt. eigenvalues --    0.03655   0.04040   0.04822   0.05306   0.06238
 Alpha virt. eigenvalues --    0.07030   0.07152   0.10148   0.10341   0.12470
 Alpha virt. eigenvalues --    0.13214   0.15396   0.16232   0.16569   0.17755

 Mulliken charges:
               1
     1  C   -0.747996
     2  C   -0.747996
     3  N    0.176916
     4  N    0.176916
     5  H    0.155622
     6  H    0.155622
     7  H    0.155622
     8  H    0.155622
     9  H    0.129918
    10  H    0.129918
    11  H    0.129918
    12  H    0.129918
 Sum of Mulliken charges =  -0.00000

 Dipole moment (field-independent basis, Debye):
    X=              0.0000    Y=             -0.0000    Z=              0.0000  Tot=              0.0000

 Test job not archived.
 1\1\GINC-SE212\SP\RHF\Aug-CC-pVDZ\C2H8N2\OHZDE\05-Apr-2025\0\\#t hf au
 g-cc-pvdz iop(5/13=1,5/36=2,99/5=2) pseudo=read geom=check guess=(read
 ,tcheck) scf=(maxcycle=1)\\title\\0,1\C,0,0.397467,0.657442,0.\C,0,-0.
 397467,-0.657442,0.\N,0,-0.397467,1.884333,0.\N,0,0.397467,-1.884333,0
 .\H,0,0.996875,-1.932923,0.815009\H,0,0.996875,-1.932923,-0.815009\H,0
 ,-0.996875,1.932923,0.815009\H,0,-0.996875,1.932923,-0.815009\H,0,-1.0
 53507,-0.679296,0.874859\H,0,-1.053507,-0.679296,-0.874859\H,0,1.05350
 7,0.679296,0.874859\H,0,1.053507,0.679296,-0.874859\\Version=ES64L-G16

 Normal termination of Gaussian 16 at Sat Apr  5 23:00:14 2025.
