 Gaussian 16, Revision C.01,

 ----------------------------------------------------------------------
 #t hf aug-cc-pvdz symm=none int=(grid=ultrafine) guess=(read,tcheck) s
 table=(opt,rrhf)
 ----------------------------------------------------------------------
 -----
 title
 -----
 Symbolic Z-matrix:
 Charge =  0 Multiplicity = 1

 SCF Done:  E(RHF) =  -264.432684992     A.U. after   15 cycles
 Normal termination of Gaussian 16 at Sat Apr  5 23:00:38 2025.
 Gaussian 16:  ES64L-G16RevC.01  3-Jul-2019

 ----------------------------------------------------------------------
 #t hf aug-cc-pvdz iop(5/13=1,5/36=2,99/5=2) pseudo=read geom=check gue
 ss=(read,tcheck) scf=(maxcycle=1)
 ----------------------------------------------------------------------
 -----
 title
 -----
 Structure from the checkpoint file:  "ethynylformate.chk"
 Charge =  0 Multiplicity = 1

                         Standard orientation:
 ---------------------------------------------------------------------
 Center     Atomic      Atomic             Coordinates (Angstroms)
 Number     Number       Type             X           Y           Z
 ---------------------------------------------------------------------
      1          8           0       -0.029545   -0.591156   -0.000011
      2          8           0       -2.183481    0.034844   -0.000001
      3          6           0       -1.049749    0.363965    0.000007
      4          6           0        1.205881   -0.154845   -0.000002
      5          6           0        2.343204    0.213694    0.000005
      6          1           0       -0.647409    1.384949    0.000027
      7          1           0        3.355602    0.528657    0.000011
 ---------------------------------------------------------------------

 SCF Done:  E(RHF) =  -264.689401760     A.U. after    2 cycles

 The electronic state is 1-A.
 Alpha  occ. eigenvalues --  -20.65882 -20.58813 -11.43625 -11.32947 -11.26180
 Alpha  occ. eigenvalues --   -1.60447  -1.51879  -1.05938  -0.93373  -0.83744
 Alpha  occ. eigenvalues --   -0.73771  -0.71521  -0.68856  -0.64789  -0.55373
 Alpha  occ. eigenvalues --   -0.50081  -0.42901  -0.40928
 Alpha virt. eigenvalues --    0.03022   0.04290   0.07571   0.07848   0.09116
 Alpha virt. eigenvalues --    0.10691   0.11186   0.13349   0.13474   0.14551
 Alpha virt. eigenvalues --    0.15081   0.15558   0.15784   0.19793   0.21037

 Mulliken charges:
               1
     1  O   -1.234790
     2  O   -0.971818
     3  C    1.352037
     4  C    0.339318
     5  C    0.638435
     6  H    0.186215
     7  H   -0.309397
 Sum of Mulliken charges =  -0.00000

 Dipole moment (field-independent basis, Debye):
    X=              2.1665    Y=              1.9286    Z=              0.0000  Tot=              2.9005

 Test job not archived.
 1\1\GINC-SE190\SP\RHF\Aug-CC-pVDZ\C3H2O2\OHZDE\05-Apr-2025\0\\#t hf au
 g-cc-pvdz iop(5/13=1,5/36=2,99/5=2) pseudo=read geom=check guess=(read
 ,tcheck) scf=(maxcycle=1)\\title\\0,1\O,0,-0.029545,-0.591156,-0.00001
 1\O,0,-2.183481,0.034844,-0.000001\C,0,-1.049749,0.363965,0.000007\C,0
 ,1.205881,-0.154845,-0.000002\C,0,2.343204,0.213694,0.000005\H,0,-0.64
 7409,1.384949,0.000027\H,0,3.355602,0.528657,0.000011\\Version=ES64L-G
 16RevC.01\State=1-A\HF=-264.6894018\RMSD=2.264e-02\Dipole=0.8523556,0.
 7587735,0.0000157\Quadrupole=-0.6380898,0.6396492,-0.0015594,0.1480628

 Normal termination of Gaussian 16 at Sat Apr  5 23:00:54 2025.
