 Gaussian 16, Revision C.01,

 ----------------------------------------------------------------------
 #t hf aug-cc-pvdz symm=none int=(grid=ultrafine) guess=(read,tcheck) s
 table=(opt,rrhf)
 ----------------------------------------------------------------------
 -----
 title
 -----
 Symbolic Z-matrix:
 Charge =  0 Multiplicity = 1

 SCF Done:  E(RHF) =  -357.567176836     A.U. after   15 cycles
 Normal termination of Gaussian 16 at Sat Apr  5 23:00:32 2025.
 Gaussian 16:  ES64L-G16RevC.01  3-Jul-2019

 ----------------------------------------------------------------------
 #t hf aug-cc-pvdz iop(5/13=1,5/36=2,99/5=2) pseudo=read geom=check gue
 ss=(read,tcheck) scf=(maxcycle=1)
 ----------------------------------------------------------------------
 -----
 title
 -----
 Structure from the checkpoint file:  "ethylnitrate.chk"
 Charge =  0 Multiplicity = 1

                         Standard orientation:
 ---------------------------------------------------------------------
 Center     Atomic      Atomic             Coordinates (Angstroms)
 Number     Number       Type             X           Y           Z
 ---------------------------------------------------------------------
      1          7           0       -1.111550   -0.313232    0.000000
      2          8           0        0.000000    0.559326    0.000000
      3          8           0       -2.159770    0.267327    0.000000
      4          8           0       -0.888584   -1.499078    0.000000
      5          6           0        2.325207    0.990121    0.000000
      6          6           0        1.286493   -0.110502    0.000000
      7          1           0        3.318360    0.540497    0.000000
      8          1           0        2.232623    1.618133    0.884918
      9          1           0        2.232623    1.618133   -0.884918
     10          1           0        1.356935   -0.741228    0.885089
     11          1           0        1.356935   -0.741228   -0.885089
 ---------------------------------------------------------------------

 SCF Done:  E(RHF) =  -357.920515683     A.U. after    2 cycles

 The electronic state is 1-A'.
 Alpha  occ. eigenvalues --  -20.65198 -20.61629 -20.61467 -15.85830 -11.32437
 Alpha  occ. eigenvalues --  -11.25607  -1.73451  -1.55776  -1.52228  -1.08055
 Alpha  occ. eigenvalues --   -0.95680  -0.87292  -0.83023  -0.80644  -0.78235
 Alpha  occ. eigenvalues --   -0.68235  -0.63653  -0.59840  -0.56679  -0.55681
 Alpha  occ. eigenvalues --   -0.51937  -0.50667  -0.50490  -0.47716
 Alpha virt. eigenvalues --    0.03192   0.04290   0.04306   0.05328   0.06929
 Alpha virt. eigenvalues --    0.07160   0.10404   0.11817   0.12530   0.14434
 Alpha virt. eigenvalues --    0.14771   0.15827   0.15959   0.16169   0.16881

 Mulliken charges:
               1
     1  N    2.790585
     2  O   -1.240371
     3  O   -1.149548
     4  O   -1.125289
     5  C   -0.482620
     6  C    0.420364
     7  H    0.172650
     8  H    0.177054
     9  H    0.177054
    10  H    0.130061
    11  H    0.130061
 Sum of Mulliken charges =  -0.00000

 Dipole moment (field-independent basis, Debye):
    X=              3.8065    Y=              0.3163    Z=             -0.0000  Tot=              3.8196

 Test job not archived.
 1\1\GINC-SE107\SP\RHF\Aug-CC-pVDZ\C2H5N1O3\OHZDE\05-Apr-2025\0\\#t hf
 aug-cc-pvdz iop(5/13=1,5/36=2,99/5=2) pseudo=read geom=check guess=(re
 ad,tcheck) scf=(maxcycle=1)\\title\\0,1\N,0,-1.11155,-0.313232,0.\O,0,
 0.,0.559326,0.\O,0,-2.15977,0.267328,0.\O,0,-0.888584,-1.499078,0.\C,0
 ,2.325207,0.990121,0.\C,0,1.286493,-0.110502,0.\H,0,3.31836,0.540496,0
 .\H,0,2.232623,1.618133,0.884918\H,0,2.232623,1.618133,-0.884918\H,0,1
 .356935,-0.741228,0.885089\H,0,1.356935,-0.741228,-0.885089\\Version=E
 S64L-G16RevC.01\State=1-A'\HF=-357.9205157\RMSD=1.378e-02\Dipole=1.497

 Normal termination of Gaussian 16 at Sat Apr  5 23:00:36 2025.
