 Gaussian 16, Revision C.01,

 ----------------------------------------------------------------------
 #t hf aug-cc-pvdz symm=none int=(grid=ultrafine) guess=(read,tcheck) s
 table=(opt,rrhf)
 ----------------------------------------------------------------------
 -----
 title
 -----
 Symbolic Z-matrix:
 Charge =  0 Multiplicity = 1

 SCF Done:  E(RHF) =  -228.875114248     A.U. after   13 cycles
 Normal termination of Gaussian 16 at Sat Apr  5 23:00:26 2025.
 Gaussian 16:  ES64L-G16RevC.01  3-Jul-2019

 ----------------------------------------------------------------------
 #t hf aug-cc-pvdz iop(5/13=1,5/36=2,99/5=2) pseudo=read geom=check gue
 ss=(read,tcheck) scf=(maxcycle=1)
 ----------------------------------------------------------------------
 -----
 title
 -----
 Structure from the checkpoint file:  "ethylhydroperoxide.chk"
 Charge =  0 Multiplicity = 1

                         Standard orientation:
 ---------------------------------------------------------------------
 Center     Atomic      Atomic             Coordinates (Angstroms)
 Number     Number       Type             X           Y           Z
 ---------------------------------------------------------------------
      1          6           0        0.459938    0.519040    0.021772
      2          8           0       -0.510152   -0.525067   -0.027869
      3          8           0       -1.815721    0.108175   -0.095134
      4          6           0        1.818413   -0.154922    0.004015
      5          1           0        0.327982    1.173442   -0.843321
      6          1           0        0.318113    1.110577    0.931373
      7          1           0       -2.200256   -0.182756    0.742877
      8          1           0        1.942232   -0.811711    0.864757
      9          1           0        2.600069    0.604443    0.037023
     10          1           0        1.948740   -0.743562   -0.903410
 ---------------------------------------------------------------------

 SCF Done:  E(RHF) =  -229.110873670     A.U. after    2 cycles

 The electronic state is 1-A.
 Alpha  occ. eigenvalues --  -20.61004 -20.60805 -11.29054 -11.23437  -1.57641
 Alpha  occ. eigenvalues --   -1.29127  -1.01503  -0.84882  -0.71766  -0.66593
 Alpha  occ. eigenvalues --   -0.64667  -0.60642  -0.54933  -0.53375  -0.51126
 Alpha  occ. eigenvalues --   -0.48123  -0.43871
 Alpha virt. eigenvalues --    0.03764   0.04170   0.04756   0.05147   0.07047
 Alpha virt. eigenvalues --    0.07870   0.12039   0.13649   0.14394   0.15384
 Alpha virt. eigenvalues --    0.15976   0.16900   0.17534   0.18129   0.20103

 Mulliken charges:
               1
     1  C    0.599063
     2  O   -0.732665
     3  O   -0.493876
     4  C   -0.484829
     5  H    0.110803
     6  H    0.103006
     7  H    0.397604
     8  H    0.154980
     9  H    0.173306
    10  H    0.172608
 Sum of Mulliken charges =  -0.00000

 Dipole moment (field-independent basis, Debye):
    X=              0.8469    Y=              0.6881    Z=              1.4459  Tot=              1.8114

 Test job not archived.
 1\1\GINC-SE158\SP\RHF\Aug-CC-pVDZ\C2H6O2\OHZDE\05-Apr-2025\0\\#t hf au
 g-cc-pvdz iop(5/13=1,5/36=2,99/5=2) pseudo=read geom=check guess=(read
 ,tcheck) scf=(maxcycle=1)\\title\\0,1\C,0,0.459938,0.51904,0.021772\O,
 0,-0.510152,-0.525067,-0.027869\O,0,-1.815721,0.108175,-0.095134\C,0,1
 .818413,-0.154922,0.004015\H,0,0.327982,1.173442,-0.843321\H,0,0.31811
 3,1.110577,0.931373\H,0,-2.200256,-0.182756,0.742877\H,0,1.942232,-0.8
 11711,0.864757\H,0,2.600069,0.604443,0.037023\H,0,1.94874,-0.743562,-0
 .90341\\Version=ES64L-G16RevC.01\State=1-A\HF=-229.1108737\RMSD=8.344e

 Normal termination of Gaussian 16 at Sat Apr  5 23:00:29 2025.
