 Gaussian 16, Revision C.01,

 ----------------------------------------------------------------------
 #t hf aug-cc-pvdz symm=none int=(grid=ultrafine) guess=(read,tcheck) s
 table=(opt,rrhf)
 ----------------------------------------------------------------------
 -----
 title
 -----
 Symbolic Z-matrix:
 Charge =  0 Multiplicity = 1

 SCF Done:  E(RHF) =  -302.099183444     A.U. after   13 cycles
 Normal termination of Gaussian 16 at Sat Apr  5 23:01:06 2025.
 Gaussian 16:  ES64L-G16RevC.01  3-Jul-2019

 ----------------------------------------------------------------------
 #t hf aug-cc-pvdz iop(5/13=1,5/36=2,99/5=2) pseudo=read geom=check gue
 ss=(read,tcheck) scf=(maxcycle=1)
 ----------------------------------------------------------------------
 -----
 title
 -----
 Structure from the checkpoint file:  "ethylurea.chk"
 Charge =  0 Multiplicity = 1

                         Standard orientation:
 ---------------------------------------------------------------------
 Center     Atomic      Atomic             Coordinates (Angstroms)
 Number     Number       Type             X           Y           Z
 ---------------------------------------------------------------------
      1          6           0       -2.624091   -0.223414    0.002412
      2          1           0       -2.704638   -0.964618    0.799272
      3          1           0       -3.440588    0.487321    0.123953
      4          1           0       -2.754705   -0.730974   -0.953978
      5          6           0       -1.283867    0.494871    0.060801
      6          1           0       -1.250407    1.248579   -0.732964
      7          1           0       -1.188350    1.024473    1.014316
      8          7           0       -0.191108   -0.449863   -0.112715
      9          1           0       -0.395796   -1.431081   -0.024719
     10          7           0        1.480161    1.166240    0.046537
     11          1           0        2.460546    1.348304   -0.083400
     12          1           0        0.852393    1.859667   -0.321530
     13          6           0        1.149206   -0.174524   -0.013340
     14          8           0        1.993836   -1.054739    0.042882
 ---------------------------------------------------------------------

 SCF Done:  E(RHF) =  -302.414516522     A.U. after    2 cycles

 The electronic state is 1-A.
 Alpha  occ. eigenvalues --  -20.48964 -15.52114 -15.51731 -11.37700 -11.28783
 Alpha  occ. eigenvalues --  -11.24762  -1.44999  -1.25499  -1.19298  -1.04213
 Alpha  occ. eigenvalues --   -0.88604  -0.85292  -0.77508  -0.71133  -0.67790
 Alpha  occ. eigenvalues --   -0.66547  -0.61208  -0.60297  -0.56625  -0.54311
 Alpha  occ. eigenvalues --   -0.53320  -0.46056  -0.42956  -0.40930
 Alpha virt. eigenvalues --    0.02906   0.03680   0.04195   0.04353   0.05837
 Alpha virt. eigenvalues --    0.06575   0.07816   0.08119   0.10708   0.11536
 Alpha virt. eigenvalues --    0.12591   0.13388   0.14185   0.15542   0.16199

 Mulliken charges:
               1
     1  C   -0.588335
     2  H    0.155286
     3  H    0.128341
     4  H    0.181016
     5  C   -0.104936
     6  H    0.028428
     7  H    0.035042
     8  N    0.423880
     9  H    0.250710
    10  N    0.405776
    11  H    0.204045
    12  H    0.058855
    13  C    0.051930
    14  O   -1.230040
 Sum of Mulliken charges =  -0.00000

 Dipole moment (field-independent basis, Debye):
    X=             -3.5339    Y=              2.9407    Z=             -0.5524  Tot=              4.6305

 Test job not archived.
 1\1\GINC-SE209\SP\RHF\Aug-CC-pVDZ\C3H8N2O1\OHZDE\05-Apr-2025\0\\#t hf
 aug-cc-pvdz iop(5/13=1,5/36=2,99/5=2) pseudo=read geom=check guess=(re
 ad,tcheck) scf=(maxcycle=1)\\title\\0,1\C,0,-2.624091,-0.223414,0.0024
 12\H,0,-2.704638,-0.964618,0.799272\H,0,-3.440588,0.487321,0.123953\H,
 0,-2.754705,-0.730974,-0.953978\C,0,-1.283867,0.494871,0.060801\H,0,-1
 .250407,1.248579,-0.732964\H,0,-1.18835,1.024473,1.014316\N,0,-0.19110
 8,-0.449863,-0.112715\H,0,-0.395796,-1.431081,-0.024719\N,0,1.480161,1
 .16624,0.046537\H,0,2.460546,1.348304,-0.0834\H,0,0.852393,1.859667,-0

 Normal termination of Gaussian 16 at Sat Apr  5 23:02:16 2025.
