 Gaussian 16, Revision C.01,

 ----------------------------------------------------------------------
 #t hf aug-cc-pvdz symm=none int=(grid=ultrafine) guess=(read,tcheck) s
 table=(opt,rrhf)
 ----------------------------------------------------------------------
 -----
 title
 -----
 Symbolic Z-matrix:
 Charge =  0 Multiplicity = 1

 SCF Done:  E(RHF) =  -230.792719189     A.U. after   13 cycles
 Normal termination of Gaussian 16 at Sat Apr  5 23:00:37 2025.
 Gaussian 16:  ES64L-G16RevC.01  3-Jul-2019

 ----------------------------------------------------------------------
 #t hf aug-cc-pvdz iop(5/13=1,5/36=2,99/5=2) pseudo=read geom=check gue
 ss=(read,tcheck) scf=(maxcycle=1)
 ----------------------------------------------------------------------
 -----
 title
 -----
 Structure from the checkpoint file:  "fluoroacetonitrile.chk"
 Charge =  0 Multiplicity = 1

                         Standard orientation:
 ---------------------------------------------------------------------
 Center     Atomic      Atomic             Coordinates (Angstroms)
 Number     Number       Type             X           Y           Z
 ---------------------------------------------------------------------
      1          9           0        0.332657   -1.506812    0.000000
      2          7           0        0.468461    1.859310    0.000000
      3          6           0       -0.629654   -0.510772    0.000000
      4          6           0        0.000000    0.810536    0.000000
      5          1           0       -1.247608   -0.626221    0.891185
      6          1           0       -1.247608   -0.626221   -0.891185
 ---------------------------------------------------------------------

 SCF Done:  E(RHF) =  -231.013421929     A.U. after    2 cycles

 The electronic state is 1-A'.
 Alpha  occ. eigenvalues --  -26.49214 -15.54089 -11.39537 -11.30239  -1.61443
 Alpha  occ. eigenvalues --   -1.25925  -1.04795  -0.78586  -0.74717  -0.72613
 Alpha  occ. eigenvalues --   -0.64116  -0.59661  -0.59399  -0.53044  -0.51743
 Alpha virt. eigenvalues --    0.02772   0.04439   0.06580   0.07728   0.11722
 Alpha virt. eigenvalues --    0.12471   0.13067   0.13698   0.14347   0.15212
 Alpha virt. eigenvalues --    0.15899   0.20524   0.23039   0.23993   0.25127

 Mulliken charges:
               1
     1  F   -0.651717
     2  N    0.697737
     3  C    0.927173
     4  C   -1.313564
     5  H    0.170186
     6  H    0.170186
 Sum of Mulliken charges =  -0.00000

 Dipole moment (field-independent basis, Debye):
    X=             -3.0366    Y=             -2.5534    Z=              0.0000  Tot=              3.9674

 Test job not archived.
 1\1\GINC-SE188\SP\RHF\Aug-CC-pVDZ\C2H2F1N1\OHZDE\05-Apr-2025\0\\#t hf
 aug-cc-pvdz iop(5/13=1,5/36=2,99/5=2) pseudo=read geom=check guess=(re
 ad,tcheck) scf=(maxcycle=1)\\title\\0,1\F,0,0.332657,-1.506812,0.\N,0,
 0.468461,1.85931,0.\C,0,-0.629654,-0.510772,0.\C,0,0.,0.810536,0.\H,0,
 -1.247608,-0.626221,0.891185\H,0,-1.247608,-0.626221,-0.891185\\Versio
 n=ES64L-G16RevC.01\State=1-A'\HF=-231.0134219\RMSD=1.871e-02\Dipole=-1
 .1946833,-1.004571,0.\Quadrupole=2.5310345,-5.0733037,2.5422691,-0.239
 7584,0.,0.\PG=CS [SG(C2F1N1),X(H2)]\\@

 Normal termination of Gaussian 16 at Sat Apr  5 23:00:54 2025.
