 Gaussian 16, Revision C.01,

 ----------------------------------------------------------------------
 #t hf aug-cc-pvdz symm=none int=(grid=ultrafine) guess=(read,tcheck) s
 table=(opt,rrhf)
 ----------------------------------------------------------------------
 -----
 title
 -----
 Symbolic Z-matrix:
 Charge =  0 Multiplicity = 1

 SCF Done:  E(RHF) =  -178.103511083     A.U. after   11 cycles
 Normal termination of Gaussian 16 at Sat Apr  5 23:00:37 2025.
 Gaussian 16:  ES64L-G16RevC.01  3-Jul-2019

 ----------------------------------------------------------------------
 #t hf aug-cc-pvdz iop(5/13=1,5/36=2,99/5=2) pseudo=read geom=check gue
 ss=(read,tcheck) scf=(maxcycle=1)
 ----------------------------------------------------------------------
 -----
 title
 -----
 Structure from the checkpoint file:  "fluoroethane.chk"
 Charge =  0 Multiplicity = 1

                         Standard orientation:
 ---------------------------------------------------------------------
 Center     Atomic      Atomic             Coordinates (Angstroms)
 Number     Number       Type             X           Y           Z
 ---------------------------------------------------------------------
      1          6           0        0.000000    0.557702    0.000000
      2          6           0        1.131396   -0.441623    0.000000
      3          9           0       -1.231732   -0.112505    0.000000
      4          1           0        0.016530    1.191540    0.888182
      5          1           0        0.016530    1.191540   -0.888182
      6          1           0        2.088160    0.083889    0.000000
      7          1           0        1.087998   -1.075450    0.885435
      8          1           0        1.087998   -1.075450   -0.885435
 ---------------------------------------------------------------------

 SCF Done:  E(RHF) =  -178.285354540     A.U. after    2 cycles

 The electronic state is 1-A'.
 Alpha  occ. eigenvalues --  -26.43608 -11.31829 -11.23773  -1.55456  -1.03539
 Alpha  occ. eigenvalues --   -0.86171  -0.69302  -0.67875  -0.63719  -0.57425
 Alpha  occ. eigenvalues --   -0.55374  -0.51000  -0.49772
 Alpha virt. eigenvalues --    0.03627   0.04422   0.04573   0.05730   0.07950
 Alpha virt. eigenvalues --    0.11365   0.12102   0.14294   0.14406   0.15980
 Alpha virt. eigenvalues --    0.17110   0.17189   0.20273   0.25065   0.28343

 Mulliken charges:
               1
     1  C    0.482150
     2  C   -0.464768
     3  F   -0.703876
     4  H    0.090888
     5  H    0.090888
     6  H    0.174617
     7  H    0.165050
     8  H    0.165050
 Sum of Mulliken charges =  -0.00000

 Dipole moment (field-independent basis, Debye):
    X=              1.8906    Y=              0.7953    Z=             -0.0000  Tot=              2.0510

 Test job not archived.
 1\1\GINC-SE220\SP\RHF\Aug-CC-pVDZ\C2H5F1\OHZDE\05-Apr-2025\0\\#t hf au
 g-cc-pvdz iop(5/13=1,5/36=2,99/5=2) pseudo=read geom=check guess=(read
 ,tcheck) scf=(maxcycle=1)\\title\\0,1\C,0,0.,0.557702,0.\C,0,1.131396,
 -0.441623,0.\F,0,-1.231732,-0.112505,0.\H,0,0.01653,1.19154,0.888182\H
 ,0,0.01653,1.19154,-0.888182\H,0,2.08816,0.08389,0.\H,0,1.087998,-1.07
 545,0.885435\H,0,1.087998,-1.07545,-0.885435\\Version=ES64L-G16RevC.01
 \State=1-A'\HF=-178.2853545\RMSD=7.185e-03\Dipole=0.7438153,0.3128804,
 0.\Quadrupole=-1.445066,0.7261617,0.7189042,-0.3119322,0.,0.\PG=CS [SG

 Normal termination of Gaussian 16 at Sat Apr  5 23:00:54 2025.
