 Gaussian 16, Revision C.01,

 ----------------------------------------------------------------------
 #t hf aug-cc-pvdz symm=none int=(grid=ultrafine) guess=(read,tcheck) s
 table=(opt,rrhf)
 ----------------------------------------------------------------------
 -----
 title
 -----
 Symbolic Z-matrix:
 Charge =  0 Multiplicity = 1

 SCF Done:  E(RHF) =  -175.665235039     A.U. after   12 cycles
 Normal termination of Gaussian 16 at Sat Apr  5 23:00:52 2025.
 Gaussian 16:  ES64L-G16RevC.01  3-Jul-2019

 ----------------------------------------------------------------------
 #t hf aug-cc-pvdz iop(5/13=1,5/36=2,99/5=2) pseudo=read geom=check gue
 ss=(read,tcheck) scf=(maxcycle=1)
 ----------------------------------------------------------------------
 -----
 title
 -----
 Structure from the checkpoint file:  "fluoroacetylene.chk"
 Charge =  0 Multiplicity = 1

                         Standard orientation:
 ---------------------------------------------------------------------
 Center     Atomic      Atomic             Coordinates (Angstroms)
 Number     Number       Type             X           Y           Z
 ---------------------------------------------------------------------
      1          6           0        0.000000    0.000000   -0.095596
      2          6           0        0.000000    0.000000   -1.287136
      3          9           0        0.000000    0.000000    1.182582
      4          1           0        0.000000    0.000000   -2.346846
 ---------------------------------------------------------------------

 SCF Done:  E(RHF) =  -175.832703622     A.U. after    2 cycles

 The electronic state is 1-SG.
 Alpha  occ. eigenvalues --  -26.55032 -11.35153 -11.25973  -1.68621  -1.05692
 Alpha  occ. eigenvalues --   -0.84835  -0.73788  -0.73788  -0.73277  -0.42646
 Alpha  occ. eigenvalues --   -0.42646
 Alpha virt. eigenvalues --    0.03426   0.06729   0.11157   0.11157   0.11822
 Alpha virt. eigenvalues --    0.11822   0.13002   0.15236   0.21612   0.23735
 Alpha virt. eigenvalues --    0.23735   0.29492   0.31431   0.32472   0.32472

 Mulliken charges:
               1
     1  C    0.048508
     2  C    0.804076
     3  F   -0.628154
     4  H   -0.224429
 Sum of Mulliken charges =   0.00000

 Dipole moment (field-independent basis, Debye):
    X=             -0.0000    Y=              0.0000    Z=             -0.7587  Tot=              0.7587

 Test job not archived.
 1\1\GINC-SE198\SP\RHF\Aug-CC-pVDZ\C2H1F1\OHZDE\05-Apr-2025\0\\#t hf au
 g-cc-pvdz iop(5/13=1,5/36=2,99/5=2) pseudo=read geom=check guess=(read
 ,tcheck) scf=(maxcycle=1)\\title\\0,1\C,0,0.,0.,-0.095596\C,0,0.,0.,-1
 .287136\F,0,0.,0.,1.182582\H,0,0.,0.,-2.346846\\Version=ES64L-G16RevC.
 01\State=1-SG\HF=-175.8327036\RMSD=2.002e-02\Dipole=0.,0.,-0.2984824\Q
 uadrupole=-1.1588528,-1.1588528,2.3177057,0.,0.,0.\PG=C*V [C*(H1C1C1F1
 )]\\@

 Normal termination of Gaussian 16 at Sat Apr  5 23:00:55 2025.
