 Gaussian 16, Revision C.01,

 ----------------------------------------------------------------------
 #t hf aug-cc-pvdz symm=none int=(grid=ultrafine) guess=(read,tcheck) s
 table=(opt,rrhf)
 ----------------------------------------------------------------------
 -----
 title
 -----
 Symbolic Z-matrix:
 Charge =  0 Multiplicity = 1

 SCF Done:  E(RHF) =  -176.908084479     A.U. after   12 cycles
 Normal termination of Gaussian 16 at Sat Apr  5 23:00:36 2025.
 Gaussian 16:  ES64L-G16RevC.01  3-Jul-2019

 ----------------------------------------------------------------------
 #t hf aug-cc-pvdz iop(5/13=1,5/36=2,99/5=2) pseudo=read geom=check gue
 ss=(read,tcheck) scf=(maxcycle=1)
 ----------------------------------------------------------------------
 -----
 title
 -----
 Structure from the checkpoint file:  "fluoroethene.chk"
 Charge =  0 Multiplicity = 1

                         Standard orientation:
 ---------------------------------------------------------------------
 Center     Atomic      Atomic             Coordinates (Angstroms)
 Number     Number       Type             X           Y           Z
 ---------------------------------------------------------------------
      1          6           0        0.000000    0.434774    0.000000
      2          6           0        1.185792   -0.138856    0.000000
      3          9           0       -1.143002   -0.282121    0.000000
      4          1           0       -0.195129    1.498103    0.000000
      5          1           0        1.296848   -1.213206    0.000000
      6          1           0        2.070547    0.478682    0.000000
 ---------------------------------------------------------------------

 SCF Done:  E(RHF) =  -177.081657897     A.U. after    2 cycles

 The electronic state is 1-A'.
 Alpha  occ. eigenvalues --  -26.47413 -11.33838 -11.24693  -1.60295  -1.05424
 Alpha  occ. eigenvalues --   -0.83227  -0.73115  -0.68287  -0.66612  -0.58663
 Alpha  occ. eigenvalues --   -0.55985  -0.39236
 Alpha virt. eigenvalues --    0.03775   0.04477   0.05411   0.10344   0.10653
 Alpha virt. eigenvalues --    0.11181   0.12312   0.15244   0.16721   0.18290
 Alpha virt. eigenvalues --    0.19609   0.21895   0.25144   0.28363   0.29700

 Mulliken charges:
               1
     1  C    0.949948
     2  C   -0.175490
     3  F   -0.723025
     4  H    0.020689
     5  H   -0.032643
     6  H   -0.039481
 Sum of Mulliken charges =  -0.00000

 Dipole moment (field-independent basis, Debye):
    X=              1.2344    Y=              0.8353    Z=              0.0000  Tot=              1.4905

 Test job not archived.
 1\1\GINC-SE226\SP\RHF\Aug-CC-pVDZ\C2H3F1\OHZDE\05-Apr-2025\0\\#t hf au
 g-cc-pvdz iop(5/13=1,5/36=2,99/5=2) pseudo=read geom=check guess=(read
 ,tcheck) scf=(maxcycle=1)\\title\\0,1\C,0,0.,0.434774,0.\C,0,1.185792,
 -0.138856,0.\F,0,-1.143002,-0.282121,0.\H,0,-0.195129,1.498103,0.\H,0,
 1.296848,-1.213206,0.\H,0,2.070547,0.478682,0.\\Version=ES64L-G16RevC.
 01\State=1-A'\HF=-177.0816579\RMSD=1.080e-02\Dipole=0.4856661,0.328642
 3,0.\Quadrupole=-0.0503604,1.5109443,-1.4605839,-0.7869835,0.,0.\PG=CS
  [SG(C2H3F1)]\\@

 Normal termination of Gaussian 16 at Sat Apr  5 23:00:54 2025.
