 Gaussian 16, Revision C.01,

 ----------------------------------------------------------------------
 #t hf aug-cc-pvdz symm=none int=(grid=ultrafine) guess=(read,tcheck) s
 table=(opt,rrhf)
 ----------------------------------------------------------------------
 -----
 title
 -----
 Symbolic Z-matrix:
 Charge =  0 Multiplicity = 1

 SCF Done:  E(RHF) =  -329.592716437     A.U. after   14 cycles
 Normal termination of Gaussian 16 at Sat Apr  5 23:00:48 2025.
 Gaussian 16:  ES64L-G16RevC.01  3-Jul-2019

 ----------------------------------------------------------------------
 #t hf aug-cc-pvdz iop(5/13=1,5/36=2,99/5=2) pseudo=read geom=check gue
 ss=(read,tcheck) scf=(maxcycle=1)
 ----------------------------------------------------------------------
 -----
 title
 -----
 Structure from the checkpoint file:  "fluorobenzene.chk"
 Charge =  0 Multiplicity = 1

                         Standard orientation:
 ---------------------------------------------------------------------
 Center     Atomic      Atomic             Coordinates (Angstroms)
 Number     Number       Type             X           Y           Z
 ---------------------------------------------------------------------
      1          6           0        0.000000    0.000000   -1.828651
      2          6           0        0.000000    1.203661   -1.131682
      3          6           0       -0.000000   -1.203661   -1.131682
      4          6           0        0.000000    1.212801    0.259047
      5          6           0       -0.000000   -1.212801    0.259047
      6          6           0        0.000000   -0.000000    0.924672
      7          9           0        0.000000   -0.000000    2.277491
      8          1           0        0.000000    0.000000   -2.909624
      9          1           0        0.000000    2.141917   -1.669399
     10          1           0       -0.000000   -2.141917   -1.669399
     11          1           0        0.000000    2.134302    0.823249
     12          1           0       -0.000000   -2.134302    0.823249
 ---------------------------------------------------------------------

 SCF Done:  E(RHF) =  -329.921693321     A.U. after    2 cycles

 The electronic state is 1-A1.
 Alpha  occ. eigenvalues --  -26.47447 -11.33658 -11.25829 -11.25818 -11.25244
 Alpha  occ. eigenvalues --  -11.25227 -11.24844  -1.60318  -1.16873  -1.03711
 Alpha  occ. eigenvalues --   -1.02425  -0.86531  -0.84538  -0.74931  -0.69918
 Alpha  occ. eigenvalues --   -0.69291  -0.67110  -0.63469  -0.61898  -0.59497
 Alpha  occ. eigenvalues --   -0.54301  -0.51821  -0.51782  -0.36237  -0.34960
 Alpha virt. eigenvalues --    0.03375   0.03614   0.04208   0.05332   0.05909
 Alpha virt. eigenvalues --    0.09350   0.10437   0.10680   0.11867   0.13693
 Alpha virt. eigenvalues --    0.13971   0.14009   0.14255   0.14431   0.14490

 Mulliken charges:
               1
     1  C    0.054624
     2  C    0.566705
     3  C    0.566705
     4  C   -0.255219
     5  C   -0.255219
     6  C    1.264832
     7  F   -0.988838
     8  H   -0.209955
     9  H   -0.204112
    10  H   -0.204112
    11  H   -0.167706
    12  H   -0.167706
 Sum of Mulliken charges =  -0.00000

 Dipole moment (field-independent basis, Debye):
    X=              0.0000    Y=             -0.0000    Z=             -1.6726  Tot=              1.6726

 Test job not archived.
 1\1\GINC-SE199\SP\RHF\Aug-CC-pVDZ\C6H5F1\OHZDE\05-Apr-2025\0\\#t hf au
 g-cc-pvdz iop(5/13=1,5/36=2,99/5=2) pseudo=read geom=check guess=(read
 ,tcheck) scf=(maxcycle=1)\\title\\0,1\C,0,0.,0.,-1.828651\C,0,0.,1.203
 661,-1.131682\C,0,0.,-1.203661,-1.131682\C,0,0.,1.212801,0.259047\C,0,
 0.,-1.212801,0.259047\C,0,0.,0.,0.924672\F,0,0.,0.,2.277491\H,0,0.,0.,
 -2.909624\H,0,0.,2.141917,-1.669399\H,0,0.,-2.141917,-1.669399\H,0,0.,
 2.134302,0.823249\H,0,0.,-2.134302,0.823249\\Version=ES64L-G16RevC.01\
 State=1-A1\HF=-329.9216933\RMSD=3.225e-02\Dipole=0.,0.,-0.6580367\Quad

 Normal termination of Gaussian 16 at Sat Apr  5 23:00:57 2025.
