 Gaussian 16, Revision C.01,

 ----------------------------------------------------------------------
 #t hf aug-cc-pvdz symm=none int=(grid=ultrafine) guess=(read,tcheck) s
 table=(opt,rrhf)
 ----------------------------------------------------------------------
 -----
 title
 -----
 Symbolic Z-matrix:
 Charge =  0 Multiplicity = 1

 SCF Done:  E(RHF) =  -139.057395301     A.U. after   10 cycles
 Normal termination of Gaussian 16 at Sat Apr  5 23:00:36 2025.
 Gaussian 16:  ES64L-G16RevC.01  3-Jul-2019

 ----------------------------------------------------------------------
 #t hf aug-cc-pvdz iop(5/13=1,5/36=2,99/5=2) pseudo=read geom=check gue
 ss=(read,tcheck) scf=(maxcycle=1)
 ----------------------------------------------------------------------
 -----
 title
 -----
 Structure from the checkpoint file:  "fluoromethane.chk"
 Charge =  0 Multiplicity = 1

                         Standard orientation:
 ---------------------------------------------------------------------
 Center     Atomic      Atomic             Coordinates (Angstroms)
 Number     Number       Type             X           Y           Z
 ---------------------------------------------------------------------
      1          6           0        0.000000   -0.637684    0.000000
      2          9           0        0.000000    0.754062    0.000000
      3          1           0        1.032068   -0.986819    0.000000
      4          1           0       -0.516034   -0.986819    0.893797
      5          1           0       -0.516034   -0.986819   -0.893797
 ---------------------------------------------------------------------

 SCF Done:  E(RHF) =  -139.195077619     A.U. after    2 cycles

 The electronic state is 1-A'.
 Alpha  occ. eigenvalues --  -26.44365 -11.32002  -1.56243  -0.95112  -0.68287
 Alpha  occ. eigenvalues --   -0.68287  -0.66065  -0.52429  -0.52429
 Alpha virt. eigenvalues --    0.03525   0.05580   0.05580   0.08934   0.14573
 Alpha virt. eigenvalues --    0.14573   0.16701   0.25098   0.27234   0.27234
 Alpha virt. eigenvalues --    0.28856   0.29183   0.29183   0.37818   0.41022

 Mulliken charges:
               1
     1  C    0.349390
     2  F   -0.644937
     3  H    0.098516
     4  H    0.098516
     5  H    0.098516
 Sum of Mulliken charges =  -0.00000

 Dipole moment (field-independent basis, Debye):
    X=             -0.0000    Y=             -1.9468    Z=              0.0000  Tot=              1.9468

 Test job not archived.
 1\1\GINC-SE225\SP\RHF\Aug-CC-pVDZ\C1H3F1\OHZDE\05-Apr-2025\0\\#t hf au
 g-cc-pvdz iop(5/13=1,5/36=2,99/5=2) pseudo=read geom=check guess=(read
 ,tcheck) scf=(maxcycle=1)\\title\\0,1\C,0,0.,0.,-0.637684\F,0,0.,0.,0.
 754062\H,0,0.,1.032068,-0.986819\H,0,0.893797,-0.516034,-0.986819\H,0,
 -0.893797,-0.516034,-0.986819\\Version=ES64L-G16RevC.01\State=1-A'\HF=
 -139.1950776\RMSD=6.357e-03\Dipole=0.,0.,-0.7659403\Quadrupole=0.22636
 71,0.2263674,-0.4527346,0.,0.,0.\PG=CS [SG(C1H1F1),X(H2)]\\@

 Normal termination of Gaussian 16 at Sat Apr  5 23:00:54 2025.
