 Gaussian 16, Revision C.01,

 ----------------------------------------------------------------------
 #t hf aug-cc-pvdz symm=none int=(grid=ultrafine) guess=(read,tcheck) s
 table=(opt,rrhf)
 ----------------------------------------------------------------------
 -----
 title
 -----
 Symbolic Z-matrix:
 Charge =  0 Multiplicity = 1

 SCF Done:  E(RHF) =  -168.963862079     A.U. after   12 cycles
 Normal termination of Gaussian 16 at Sat Apr  5 23:00:36 2025.
 Gaussian 16:  ES64L-G16RevC.01  3-Jul-2019

 ----------------------------------------------------------------------
 #t hf aug-cc-pvdz iop(5/13=1,5/36=2,99/5=2) pseudo=read geom=check gue
 ss=(read,tcheck) scf=(maxcycle=1)
 ----------------------------------------------------------------------
 -----
 title
 -----
 Structure from the checkpoint file:  "formamide.chk"
 Charge =  0 Multiplicity = 1

                         Standard orientation:
 ---------------------------------------------------------------------
 Center     Atomic      Atomic             Coordinates (Angstroms)
 Number     Number       Type             X           Y           Z
 ---------------------------------------------------------------------
      1          6           0        0.000000    0.418868   -0.000000
      2          7           0       -0.937301   -0.562370   -0.000000
      3          8           0        1.196475    0.233416    0.000000
      4          1           0       -0.446374    1.428379   -0.000000
      5          1           0       -0.646661   -1.526108   -0.000000
      6          1           0       -1.917653   -0.346221   -0.000000
 ---------------------------------------------------------------------

 SCF Done:  E(RHF) =  -169.133747106     A.U. after    2 cycles

 The electronic state is 1-A'.
 Alpha  occ. eigenvalues --  -20.51885 -15.53866 -11.36647  -1.46466  -1.23177
 Alpha  occ. eigenvalues --   -0.87887  -0.78634  -0.70004  -0.61835  -0.59258
 Alpha  occ. eigenvalues --   -0.44371  -0.43416
 Alpha virt. eigenvalues --    0.02557   0.04732   0.05827   0.09683   0.11127
 Alpha virt. eigenvalues --    0.11805   0.14845   0.15913   0.17304   0.18731
 Alpha virt. eigenvalues --    0.19708   0.23069   0.26203   0.27380   0.28077

 Mulliken charges:
               1
     1  C    0.461854
     2  N    0.379515
     3  O   -1.027648
     4  H    0.073956
     5  H    0.058127
     6  H    0.054196
 Sum of Mulliken charges =  -0.00000

 Dipole moment (field-independent basis, Debye):
    X=             -3.9501    Y=             -0.3857    Z=             -0.0000  Tot=              3.9689

 Test job not archived.
 1\1\GINC-SE040\SP\RHF\Aug-CC-pVDZ\C1H3N1O1\OHZDE\05-Apr-2025\0\\#t hf
 aug-cc-pvdz iop(5/13=1,5/36=2,99/5=2) pseudo=read geom=check guess=(re
 ad,tcheck) scf=(maxcycle=1)\\title\\0,1\C,0,0.,0.418868,0.\N,0,-0.9373
 01,-0.56237,0.\O,0,1.196475,0.233417,0.\H,0,-0.446375,1.428379,0.\H,0,
 -0.64666,-1.526108,0.\H,0,-1.917653,-0.346222,0.\\Version=ES64L-G16Rev
 C.01\State=1-A'\HF=-169.1337471\RMSD=1.343e-02\Dipole=-1.5540866,-0.15
 17633,0.\Quadrupole=-0.9189993,2.1588923,-1.239893,-0.2255146,0.,0.\PG
 =CS [SG(C1H3N1O1)]\\@

 Normal termination of Gaussian 16 at Sat Apr  5 23:00:54 2025.
