 Gaussian 16, Revision C.01,

 ----------------------------------------------------------------------
 #t hf aug-cc-pvdz symm=none int=(grid=ultrafine) guess=(read,tcheck) s
 table=(opt,rrhf)
 ----------------------------------------------------------------------
 -----
 title
 -----
 Symbolic Z-matrix:
 Charge =  0 Multiplicity = 1

 SCF Done:  E(RHF) =  -212.778121729     A.U. after   12 cycles
 Normal termination of Gaussian 16 at Sat Apr  5 23:00:35 2025.
 Gaussian 16:  ES64L-G16RevC.01  3-Jul-2019

 ----------------------------------------------------------------------
 #t hf aug-cc-pvdz iop(5/13=1,5/36=2,99/5=2) pseudo=read geom=check gue
 ss=(read,tcheck) scf=(maxcycle=1)
 ----------------------------------------------------------------------
 -----
 title
 -----
 Structure from the checkpoint file:  "formyl_fluoride.chk"
 Charge =  0 Multiplicity = 1

                         Standard orientation:
 ---------------------------------------------------------------------
 Center     Atomic      Atomic             Coordinates (Angstroms)
 Number     Number       Type             X           Y           Z
 ---------------------------------------------------------------------
      1          6           0        0.000000    0.400163    0.000000
      2          8           0        1.146373    0.135369    0.000000
      3          9           0       -0.967416   -0.541572   -0.000000
      4          1           0       -0.464239    1.390219    0.000000
 ---------------------------------------------------------------------

 SCF Done:  E(RHF) =  -212.976853222     A.U. after    2 cycles

 The electronic state is 1-A'.
 Alpha  occ. eigenvalues --  -26.51070 -20.59373 -11.45140  -1.65311  -1.53031
 Alpha  occ. eigenvalues --   -0.91057  -0.78893  -0.72937  -0.71140  -0.62503
 Alpha  occ. eigenvalues --   -0.55365  -0.50409
 Alpha virt. eigenvalues --    0.03309   0.07668   0.08934   0.09046   0.13886
 Alpha virt. eigenvalues --    0.15137   0.21578   0.22941   0.24972   0.25475
 Alpha virt. eigenvalues --    0.29849   0.30413   0.32872   0.33779   0.38908

 Mulliken charges:
               1
     1  C    1.280062
     2  O   -0.819681
     3  F   -0.585459
     4  H    0.125078
 Sum of Mulliken charges =  -0.00000

 Dipole moment (field-independent basis, Debye):
    X=             -1.4807    Y=              1.7954    Z=             -0.0000  Tot=              2.3272

 Test job not archived.
 1\1\GINC-SE045\SP\RHF\Aug-CC-pVDZ\C1H1F1O1\OHZDE\05-Apr-2025\0\\#t hf
 aug-cc-pvdz iop(5/13=1,5/36=2,99/5=2) pseudo=read geom=check guess=(re
 ad,tcheck) scf=(maxcycle=1)\\title\\0,1\C,0,0.,0.400163,0.\O,0,1.14637
 3,0.135369,0.\F,0,-0.967416,-0.541572,0.\H,0,-0.464239,1.390219,0.\\Ve
 rsion=ES64L-G16RevC.01\State=1-A'\HF=-212.9768532\RMSD=7.336e-03\Dipol
 e=-0.5825528,0.7063714,0.\Quadrupole=-2.1184062,1.269836,0.8485702,-1.
 0248927,0.,0.\PG=CS [SG(C1H1F1O1)]\\@

 Normal termination of Gaussian 16 at Sat Apr  5 23:00:54 2025.
