 Gaussian 16, Revision C.01,

 ----------------------------------------------------------------------
 #t hf aug-cc-pvdz symm=none int=(grid=ultrafine) guess=(read,tcheck) s
 table=(opt,rrhf)
 ----------------------------------------------------------------------
 -----
 title
 -----
 Symbolic Z-matrix:
 Charge =  0 Multiplicity = 1

 SCF Done:  E(RHF) =  -572.824694074     A.U. after   13 cycles
 Normal termination of Gaussian 16 at Sat Apr  5 23:00:37 2025.
 Gaussian 16:  ES64L-G16RevC.01  3-Jul-2019

 ----------------------------------------------------------------------
 #t hf aug-cc-pvdz iop(5/13=1,5/36=2,99/5=2) pseudo=read geom=check gue
 ss=(read,tcheck) scf=(maxcycle=1)
 ----------------------------------------------------------------------
 -----
 title
 -----
 Structure from the checkpoint file:  "formyl_chloride.chk"
 Charge =  0 Multiplicity = 1

                         Standard orientation:
 ---------------------------------------------------------------------
 Center     Atomic      Atomic             Coordinates (Angstroms)
 Number     Number       Type             X           Y           Z
 ---------------------------------------------------------------------
      1          6           0        0.000000    0.806204    0.000000
      2          8           0        1.118460    1.175635    0.000000
      3         17           0       -0.473479   -0.921920    0.000000
      4          1           0       -0.898535    1.430335    0.000000
 ---------------------------------------------------------------------

 SCF Done:  E(RHF) =  -573.009037470     A.U. after    2 cycles

 The electronic state is 1-A'.
 Alpha  occ. eigenvalues -- -105.59335 -20.60491 -11.43304 -10.64225  -7.81142
 Alpha  occ. eigenvalues --   -7.80771  -7.80745  -1.54966  -1.10759  -0.86532
 Alpha  occ. eigenvalues --   -0.72527  -0.67832  -0.61049  -0.49209  -0.48637
 Alpha  occ. eigenvalues --   -0.47106
 Alpha virt. eigenvalues --    0.03381   0.07448   0.07594   0.09419   0.11853
 Alpha virt. eigenvalues --    0.12403   0.14865   0.15760   0.16054   0.20571
 Alpha virt. eigenvalues --    0.23075   0.25758   0.27433   0.29577   0.32442

 Mulliken charges:
               1
     1  C    0.617978
     2  O   -0.795076
     3  Cl  -0.088230
     4  H    0.265329
 Sum of Mulliken charges =   0.00000

 Dipole moment (field-independent basis, Debye):
    X=             -1.8748    Y=              0.8565    Z=              0.0000  Tot=              2.0612

 Test job not archived.
 1\1\GINC-SE176\SP\RHF\Aug-CC-pVDZ\C1H1Cl1O1\OHZDE\05-Apr-2025\0\\#t hf
  aug-cc-pvdz iop(5/13=1,5/36=2,99/5=2) pseudo=read geom=check guess=(r
 ead,tcheck) scf=(maxcycle=1)\\title\\0,1\C,0,0.,0.806204,0.\O,0,1.1184
 6,1.175635,0.\Cl,0,-0.473479,-0.92192,0.\H,0,-0.898535,1.430335,0.\\Ve
 rsion=ES64L-G16RevC.01\State=1-A'\HF=-573.0090375\RMSD=7.165e-03\Dipol
 e=-0.7376183,0.3369877,0.\Quadrupole=-1.1848164,0.7401057,0.4447107,-2
 .2983659,0.,0.\PG=CS [SG(C1H1Cl1O1)]\\@

 Normal termination of Gaussian 16 at Sat Apr  5 23:00:55 2025.
