 Gaussian 16, Revision C.01,

 ----------------------------------------------------------------------
 #t hf aug-cc-pvdz symm=none int=(grid=ultrafine) guess=(read,tcheck) s
 table=(opt,rrhf)
 ----------------------------------------------------------------------
 -----
 title
 -----
 Symbolic Z-matrix:
 Charge =  0 Multiplicity = 1

 SCF Done:  E(RHF) =  -113.885508953     A.U. after   11 cycles
 Normal termination of Gaussian 16 at Sat Apr  5 23:00:36 2025.
 Gaussian 16:  ES64L-G16RevC.01  3-Jul-2019

 ----------------------------------------------------------------------
 #t hf aug-cc-pvdz iop(5/13=1,5/36=2,99/5=2) pseudo=read geom=check gue
 ss=(read,tcheck) scf=(maxcycle=1)
 ----------------------------------------------------------------------
 -----
 title
 -----
 Structure from the checkpoint file:  "formaldehyde.chk"
 Charge =  0 Multiplicity = 1

                         Standard orientation:
 ---------------------------------------------------------------------
 Center     Atomic      Atomic             Coordinates (Angstroms)
 Number     Number       Type             X           Y           Z
 ---------------------------------------------------------------------
      1          6           0        0.000000    0.000000   -0.526958
      2          8           0        0.000000   -0.000000    0.673270
      3          1           0        0.000000    0.938263   -1.112205
      4          1           0       -0.000000   -0.938263   -1.112205
 ---------------------------------------------------------------------

 SCF Done:  E(RHF) =  -113.998472723     A.U. after    2 cycles

 The electronic state is 1-A1.
 Alpha  occ. eigenvalues --  -20.56699 -11.35431  -1.49294  -0.87712  -0.70017
 Alpha  occ. eigenvalues --   -0.65687  -0.53888  -0.43542
 Alpha virt. eigenvalues --    0.03336   0.04910   0.07052   0.09114   0.14698
 Alpha virt. eigenvalues --    0.15433   0.15867   0.21801   0.25639   0.26500
 Alpha virt. eigenvalues --    0.26657   0.32546   0.34065   0.35263   0.44643

 Mulliken charges:
               1
     1  C    0.594903
     2  O   -0.808646
     3  H    0.106872
     4  H    0.106872
 Sum of Mulliken charges =  -0.00000

 Dipole moment (field-independent basis, Debye):
    X=             -0.0000    Y=              0.0000    Z=             -2.6590  Tot=              2.6590

 Test job not archived.
 1\1\GINC-SE042\SP\RHF\Aug-CC-pVDZ\C1H2O1\OHZDE\05-Apr-2025\0\\#t hf au
 g-cc-pvdz iop(5/13=1,5/36=2,99/5=2) pseudo=read geom=check guess=(read
 ,tcheck) scf=(maxcycle=1)\\title\\0,1\C,0,0.,0.,-0.526958\O,0,0.,0.,0.
 67327\H,0,0.,0.938263,-1.112205\H,0,0.,-0.938263,-1.112205\\Version=ES
 64L-G16RevC.01\State=1-A1\HF=-113.9984727\RMSD=8.686e-03\Dipole=0.,0.,
 -1.0461395\Quadrupole=0.0096185,0.250444,-0.2600624,0.,0.,0.\PG=C02V [
 C2(C1O1),SGV(H2)]\\@

 Normal termination of Gaussian 16 at Sat Apr  5 23:00:54 2025.
