 Gaussian 16, Revision C.01,

 ----------------------------------------------------------------------
 #t hf aug-cc-pvdz symm=none int=(grid=ultrafine) guess=(read,tcheck) s
 table=(opt,rrhf)
 ----------------------------------------------------------------------
 -----
 title
 -----
 Symbolic Z-matrix:
 Charge =  0 Multiplicity = 1

 SCF Done:  E(RHF) =  -188.797503536     A.U. after   12 cycles
 Normal termination of Gaussian 16 at Sat Apr  5 23:00:36 2025.
 Gaussian 16:  ES64L-G16RevC.01  3-Jul-2019

 ----------------------------------------------------------------------
 #t hf aug-cc-pvdz iop(5/13=1,5/36=2,99/5=2) pseudo=read geom=check gue
 ss=(read,tcheck) scf=(maxcycle=1)
 ----------------------------------------------------------------------
 -----
 title
 -----
 Structure from the checkpoint file:  "formic_acid.chk"
 Charge =  0 Multiplicity = 1

                         Standard orientation:
 ---------------------------------------------------------------------
 Center     Atomic      Atomic             Coordinates (Angstroms)
 Number     Number       Type             X           Y           Z
 ---------------------------------------------------------------------
      1          6           0        0.000000    0.421048   -0.000000
      2          8           0       -1.028183   -0.446143   -0.000000
      3          8           0        1.158545    0.117343    0.000000
      4          1           0       -0.383251    1.447877   -0.000000
      5          1           0       -0.659643   -1.343762   -0.000000
 ---------------------------------------------------------------------

 SCF Done:  E(RHF) =  -188.981589271     A.U. after    2 cycles

 The electronic state is 1-A'.
 Alpha  occ. eigenvalues --  -20.61656 -20.55668 -11.40835  -1.56139  -1.47028
 Alpha  occ. eigenvalues --   -0.90260  -0.73089  -0.71751  -0.63614  -0.60204
 Alpha  occ. eigenvalues --   -0.49046  -0.46510
 Alpha virt. eigenvalues --    0.03842   0.04287   0.08696   0.09548   0.12349
 Alpha virt. eigenvalues --    0.15560   0.15952   0.19021   0.20609   0.22144
 Alpha virt. eigenvalues --    0.23377   0.27726   0.27961   0.29996   0.33098

 Mulliken charges:
               1
     1  C    1.418424
     2  O   -0.953079
     3  O   -0.919053
     4  H    0.117432
     5  H    0.336276
 Sum of Mulliken charges =   0.00000

 Dipole moment (field-independent basis, Debye):
    X=             -1.6343    Y=             -0.1712    Z=             -0.0000  Tot=              1.6433

 Test job not archived.
 1\1\GINC-SE177\SP\RHF\Aug-CC-pVDZ\C1H2O2\OHZDE\05-Apr-2025\0\\#t hf au
 g-cc-pvdz iop(5/13=1,5/36=2,99/5=2) pseudo=read geom=check guess=(read
 ,tcheck) scf=(maxcycle=1)\\title\\0,1\C,0,0.,0.421048,0.\O,0,-1.028183
 ,-0.446144,0.\O,0,1.158545,0.117343,0.\H,0,-0.383251,1.447877,0.\H,0,-
 0.659642,-1.343762,0.\\Version=ES64L-G16RevC.01\State=1-A'\HF=-188.981
 5893\RMSD=9.034e-03\Dipole=-0.6430004,-0.0673547,0.\Quadrupole=-3.8269
 21,3.6153752,0.2115458,-0.1641261,0.,0.\PG=CS [SG(C1H2O2)]\\@

 Normal termination of Gaussian 16 at Sat Apr  5 23:00:54 2025.
