 Gaussian 16, Revision C.01,

 ----------------------------------------------------------------------
 #t hf aug-cc-pvdz symm=none int=(grid=ultrafine) guess=(read,tcheck) s
 table=(opt,rrhf)
 ----------------------------------------------------------------------
 -----
 title
 -----
 Symbolic Z-matrix:
 Charge =  0 Multiplicity = 1

 SCF Done:  E(RHF) =  -167.656870559     A.U. after   11 cycles
 Normal termination of Gaussian 16 at Sat Apr  5 23:00:35 2025.
 Gaussian 16:  ES64L-G16RevC.01  3-Jul-2019

 ----------------------------------------------------------------------
 #t hf aug-cc-pvdz iop(5/13=1,5/36=2,99/5=2) pseudo=read geom=check gue
 ss=(read,tcheck) scf=(maxcycle=1)
 ----------------------------------------------------------------------
 -----
 title
 -----
 Structure from the checkpoint file:  "fulminic_acid.chk"
 Charge =  0 Multiplicity = 1

                         Standard orientation:
 ---------------------------------------------------------------------
 Center     Atomic      Atomic             Coordinates (Angstroms)
 Number     Number       Type             X           Y           Z
 ---------------------------------------------------------------------
      1          8           0        0.000000    0.000000    1.179618
      2          7           0        0.000000    0.000000   -0.020937
      3          6           0        0.000000    0.000000   -1.175868
      4          1           0        0.000000    0.000000   -2.235178
 ---------------------------------------------------------------------

 SCF Done:  E(RHF) =  -167.818117391     A.U. after    2 cycles

 The electronic state is 1-SG.
 Alpha  occ. eigenvalues --  -20.57197 -15.70113 -11.32842  -1.58530  -1.27525
 Alpha  occ. eigenvalues --   -0.83079  -0.75573  -0.70947  -0.70947  -0.41685
 Alpha  occ. eigenvalues --   -0.41685
 Alpha virt. eigenvalues --    0.02563   0.07071   0.07071   0.07520   0.13587
 Alpha virt. eigenvalues --    0.15601   0.17135   0.17135   0.20332   0.20332
 Alpha virt. eigenvalues --    0.22906   0.26925   0.29077   0.29077   0.32893

 Mulliken charges:
               1
     1  O   -1.176668
     2  N    0.891051
     3  C    0.193425
     4  H    0.092191
 Sum of Mulliken charges =  -0.00000

 Dipole moment (field-independent basis, Debye):
    X=             -0.0000    Y=              0.0000    Z=             -4.3026  Tot=              4.3026

 Test job not archived.
 1\1\GINC-SE046\SP\RHF\Aug-CC-pVDZ\C1H1N1O1\OHZDE\05-Apr-2025\0\\#t hf
 aug-cc-pvdz iop(5/13=1,5/36=2,99/5=2) pseudo=read geom=check guess=(re
 ad,tcheck) scf=(maxcycle=1)\\title\\0,1\O,0,0.,0.,1.179618\N,0,0.,0.,-
 0.020937\C,0,0.,0.,-1.175868\H,0,0.,0.,-2.235178\\Version=ES64L-G16Rev
 C.01\State=1-SG\HF=-167.8181174\RMSD=2.167e-02\Dipole=0.,0.,-1.6927696
 \Quadrupole=-1.0982175,-1.0982175,2.1964351,0.,0.,0.\PG=C*V [C*(H1C1N1
 O1)]\\@

 Normal termination of Gaussian 16 at Sat Apr  5 23:00:53 2025.
