 Gaussian 16, Revision C.01,

 ----------------------------------------------------------------------
 #t hf aug-cc-pvdz symm=none int=(grid=ultrafine) guess=(read,tcheck) s
 table=(opt,rrhf)
 ----------------------------------------------------------------------
 -----
 title
 -----
 Symbolic Z-matrix:
 Charge =  0 Multiplicity = 1

 SCF Done:  E(RHF) =  -230.672292185     A.U. after   13 cycles
 Normal termination of Gaussian 16 at Sat Apr  5 23:00:45 2025.
 Gaussian 16:  ES64L-G16RevC.01  3-Jul-2019

 ----------------------------------------------------------------------
 #t hf aug-cc-pvdz iop(5/13=1,5/36=2,99/5=2) pseudo=read geom=check gue
 ss=(read,tcheck) scf=(maxcycle=1)
 ----------------------------------------------------------------------
 -----
 title
 -----
 Structure from the checkpoint file:  "fulvene.chk"
 Charge =  0 Multiplicity = 1

                         Standard orientation:
 ---------------------------------------------------------------------
 Center     Atomic      Atomic             Coordinates (Angstroms)
 Number     Number       Type             X           Y           Z
 ---------------------------------------------------------------------
      1          6           0        0.000000    0.735787   -1.400081
      2          6           0       -0.000000   -0.735787   -1.400081
      3          6           0        0.000000    1.175419   -0.125488
      4          6           0       -0.000000   -1.175419   -0.125488
      5          6           0        0.000000    0.000000    0.758403
      6          6           0        0.000000    0.000000    2.096421
      7          1           0        0.000000    1.347657   -2.289398
      8          1           0       -0.000000   -1.347657   -2.289398
      9          1           0        0.000000    2.197794    0.217520
     10          1           0       -0.000000   -2.197794    0.217520
     11          1           0        0.000000   -0.923202    2.660823
     12          1           0        0.000000    0.923202    2.660823
 ---------------------------------------------------------------------

 SCF Done:  E(RHF) =  -230.913829393     A.U. after    2 cycles

 The electronic state is 1-A1.
 Alpha  occ. eigenvalues --  -11.25836 -11.24883 -11.23991 -11.23952 -11.23356
 Alpha  occ. eigenvalues --  -11.23329  -1.16719  -1.03048  -0.97290  -0.86583
 Alpha  occ. eigenvalues --   -0.75305  -0.73705  -0.70171  -0.61720  -0.57770
 Alpha  occ. eigenvalues --   -0.57216  -0.53327  -0.51236  -0.50211  -0.35454
 Alpha  occ. eigenvalues --   -0.31848
 Alpha virt. eigenvalues --    0.03590   0.03793   0.03926   0.04977   0.05231
 Alpha virt. eigenvalues --    0.05516   0.08222   0.09871   0.10973   0.13430
 Alpha virt. eigenvalues --    0.13707   0.14142   0.14207   0.14899   0.15099

 Mulliken charges:
               1
     1  C    0.072928
     2  C    0.072928
     3  C    0.149296
     4  C    0.149296
     5  C    0.476975
     6  C    0.177057
     7  H   -0.149291
     8  H   -0.149291
     9  H   -0.270093
    10  H   -0.270093
    11  H   -0.129855
    12  H   -0.129855
 Sum of Mulliken charges =  -0.00000

 Dipole moment (field-independent basis, Debye):
    X=              0.0000    Y=             -0.0000    Z=              0.5266  Tot=              0.5266

 Test job not archived.
 1\1\GINC-SE046\SP\RHF\Aug-CC-pVDZ\C6H6\OHZDE\05-Apr-2025\0\\#t hf aug-
 cc-pvdz iop(5/13=1,5/36=2,99/5=2) pseudo=read geom=check guess=(read,t
 check) scf=(maxcycle=1)\\title\\0,1\C,0,0.,0.735787,-1.400081\C,0,0.,-
 0.735787,-1.400081\C,0,0.,1.175419,-0.125488\C,0,0.,-1.175419,-0.12548
 8\C,0,0.,0.,0.758403\C,0,0.,0.,2.096421\H,0,0.,1.347657,-2.289398\H,0,
 0.,-1.347657,-2.289398\H,0,0.,2.197794,0.21752\H,0,0.,-2.197794,0.2175
 2\H,0,0.,-0.923202,2.660823\H,0,0.,0.923202,2.660823\\Version=ES64L-G1
 6RevC.01\State=1-A1\HF=-230.9138294\RMSD=2.788e-02\Dipole=0.,0.,0.2071

 Normal termination of Gaussian 16 at Sat Apr  5 23:00:56 2025.
