 Gaussian 16, Revision C.01,

 ----------------------------------------------------------------------
 #t hf aug-cc-pvdz symm=none int=(grid=ultrafine) guess=(read,tcheck) s
 table=(opt,rrhf)
 ----------------------------------------------------------------------
 -----
 title
 -----
 Symbolic Z-matrix:
 Charge =  0 Multiplicity = 1

 SCF Done:  E(RHF) =  -261.524556360     A.U. after   13 cycles
 Normal termination of Gaussian 16 at Sat Apr  5 23:00:41 2025.
 Gaussian 16:  ES64L-G16RevC.01  3-Jul-2019

 ----------------------------------------------------------------------
 #t hf aug-cc-pvdz iop(5/13=1,5/36=2,99/5=2) pseudo=read geom=check gue
 ss=(read,tcheck) scf=(maxcycle=1)
 ----------------------------------------------------------------------
 -----
 title
 -----
 Structure from the checkpoint file:  "fumaronitrile.chk"
 Charge =  0 Multiplicity = 1

                         Standard orientation:
 ---------------------------------------------------------------------
 Center     Atomic      Atomic             Coordinates (Angstroms)
 Number     Number       Type             X           Y           Z
 ---------------------------------------------------------------------
      1          6           0        0.123949   -1.862885    0.000000
      2          6           0       -0.123949    1.862885    0.000000
      3          6           0       -0.463693    0.483335    0.000000
      4          6           0        0.463693   -0.483335    0.000000
      5          7           0       -0.123949   -2.988322    0.000000
      6          7           0        0.123949    2.988322    0.000000
      7          1           0       -1.519242    0.244524    0.000000
      8          1           0        1.519242   -0.244524    0.000000
 ---------------------------------------------------------------------

 SCF Done:  E(RHF) =  -261.777945652     A.U. after    2 cycles

 The electronic state is 1-AG.
 Alpha  occ. eigenvalues --  -15.55224 -15.55192 -11.34828 -11.34703 -11.31591
 Alpha  occ. eigenvalues --  -11.31587  -1.27241  -1.26752  -1.16058  -0.98058
 Alpha  occ. eigenvalues --   -0.79332  -0.77882  -0.66794  -0.64249  -0.62721
 Alpha  occ. eigenvalues --   -0.59352  -0.55623  -0.54116  -0.53202  -0.44077
 Alpha virt. eigenvalues --   -0.00193   0.02678   0.03486   0.05746   0.08775
 Alpha virt. eigenvalues --    0.09830   0.10350   0.10731   0.10968   0.11332
 Alpha virt. eigenvalues --    0.11567   0.13470   0.13501   0.14781   0.15196

 Mulliken charges:
               1
     1  C   -2.208754
     2  C   -2.208754
     3  C    1.422825
     4  C    1.422825
     5  N    0.887935
     6  N    0.887935
     7  H   -0.102007
     8  H   -0.102007
 Sum of Mulliken charges =  -0.00000

 Dipole moment (field-independent basis, Debye):
    X=              0.0000    Y=              0.0000    Z=              0.0000  Tot=              0.0000

 Test job not archived.
 1\1\GINC-SE047\SP\RHF\Aug-CC-pVDZ\C4H2N2\OHZDE\05-Apr-2025\0\\#t hf au
 g-cc-pvdz iop(5/13=1,5/36=2,99/5=2) pseudo=read geom=check guess=(read
 ,tcheck) scf=(maxcycle=1)\\title\\0,1\C,0,0.123949,-1.862885,0.\C,0,-0
 .123949,1.862885,0.\C,0,-0.463693,0.483335,0.\C,0,0.463693,-0.483335,0
 .\N,0,-0.123949,-2.988322,0.\N,0,0.123949,2.988322,0.\H,0,-1.519242,0.
 244524,0.\H,0,1.519242,-0.244524,0.\\Version=ES64L-G16RevC.01\State=1-
 AG\HF=-261.7779457\RMSD=4.109e-02\Dipole=0.,0.,0.\Quadrupole=9.5081706
 ,-15.305781,5.7976104,-2.4663314,0.,0.\PG=C02H [SGH(C4H2N2)]\\@

 Normal termination of Gaussian 16 at Sat Apr  5 23:00:55 2025.
