 Gaussian 16, Revision C.01,

 ----------------------------------------------------------------------
 #t hf aug-cc-pvdz symm=none int=(grid=ultrafine) guess=(read,tcheck) s
 table=(opt,rrhf)
 ----------------------------------------------------------------------
 -----
 title
 -----
 Symbolic Z-matrix:
 Charge =  0 Multiplicity = 1

 SCF Done:  E(RHF) =  -228.654526815     A.U. after   13 cycles
 Normal termination of Gaussian 16 at Sat Apr  5 23:00:42 2025.
 Gaussian 16:  ES64L-G16RevC.01  3-Jul-2019

 ----------------------------------------------------------------------
 #t hf aug-cc-pvdz iop(5/13=1,5/36=2,99/5=2) pseudo=read geom=check gue
 ss=(read,tcheck) scf=(maxcycle=1)
 ----------------------------------------------------------------------
 -----
 title
 -----
 Structure from the checkpoint file:  "furan.chk"
 Charge =  0 Multiplicity = 1

                         Standard orientation:
 ---------------------------------------------------------------------
 Center     Atomic      Atomic             Coordinates (Angstroms)
 Number     Number       Type             X           Y           Z
 ---------------------------------------------------------------------
      1          6           0        0.000000    0.716076   -0.955449
      2          6           0       -0.000000   -0.716076   -0.955449
      3          6           0        0.000000    1.093572    0.345603
      4          6           0       -0.000000   -1.093572    0.345603
      5          8           0        0.000000   -0.000000    1.157159
      6          1           0        0.000000    1.369847   -1.810079
      7          1           0       -0.000000   -1.369847   -1.810079
      8          1           0        0.000000    2.047381    0.840519
      9          1           0       -0.000000   -2.047381    0.840519
 ---------------------------------------------------------------------

 SCF Done:  E(RHF) =  -228.887471790     A.U. after    2 cycles

 The electronic state is 1-A1.
 Alpha  occ. eigenvalues --  -20.60917 -11.29598 -11.29528 -11.23851 -11.23807
 Alpha  occ. eigenvalues --   -1.54383  -1.09434  -1.00771  -0.81397  -0.78910
 Alpha  occ. eigenvalues --   -0.75010  -0.63208  -0.61675  -0.59050  -0.56961
 Alpha  occ. eigenvalues --   -0.54938  -0.40179  -0.33038
 Alpha virt. eigenvalues --    0.03689   0.03987   0.04297   0.05514   0.09444
 Alpha virt. eigenvalues --    0.10536   0.12203   0.12731   0.13428   0.13971
 Alpha virt. eigenvalues --    0.14068   0.14914   0.15310   0.16257   0.16349

 Mulliken charges:
               1
     1  C    0.295965
     2  C    0.295965
     3  C    0.576583
     4  C    0.576583
     5  O   -1.252595
     6  H   -0.122594
     7  H   -0.122594
     8  H   -0.123657
     9  H   -0.123657
 Sum of Mulliken charges =  -0.00000

 Dipole moment (field-independent basis, Debye):
    X=             -0.0000    Y=              0.0000    Z=             -0.6789  Tot=              0.6789

 Test job not archived.
 1\1\GINC-SE012\SP\RHF\Aug-CC-pVDZ\C4H4O1\OHZDE\05-Apr-2025\0\\#t hf au
 g-cc-pvdz iop(5/13=1,5/36=2,99/5=2) pseudo=read geom=check guess=(read
 ,tcheck) scf=(maxcycle=1)\\title\\0,1\C,0,0.,0.716076,-0.955449\C,0,0.
 ,-0.716076,-0.955449\C,0,0.,1.093572,0.345603\C,0,0.,-1.093572,0.34560
 3\O,0,0.,0.,1.157159\H,0,0.,1.369847,-1.810079\H,0,0.,-1.369847,-1.810
 079\H,0,0.,2.047381,0.840519\H,0,0.,-2.047381,0.840519\\Version=ES64L-
 G16RevC.01\State=1-A1\HF=-228.8874718\RMSD=2.320e-02\Dipole=0.,0.,-0.2
 671172\Quadrupole=-3.3860407,3.1669195,0.2191212,0.,0.,0.\PG=C02V [C2(

 Normal termination of Gaussian 16 at Sat Apr  5 23:00:56 2025.
