 Gaussian 16, Revision C.01,

 ----------------------------------------------------------------------
 #t hf aug-cc-pvdz symm=none int=(grid=ultrafine) guess=(read,tcheck) s
 table=(opt,rrhf)
 ----------------------------------------------------------------------
 -----
 title
 -----
 Symbolic Z-matrix:
 Charge =  0 Multiplicity = 1

 SCF Done:  E(RHF) =  -341.399614849     A.U. after   15 cycles
 Normal termination of Gaussian 16 at Sat Apr  5 23:00:47 2025.
 Gaussian 16:  ES64L-G16RevC.01  3-Jul-2019

 ----------------------------------------------------------------------
 #t hf aug-cc-pvdz iop(5/13=1,5/36=2,99/5=2) pseudo=read geom=check gue
 ss=(read,tcheck) scf=(maxcycle=1)
 ----------------------------------------------------------------------
 -----
 title
 -----
 Structure from the checkpoint file:  "furan-2-carbaldehyde.chk"
 Charge =  0 Multiplicity = 1

                         Standard orientation:
 ---------------------------------------------------------------------
 Center     Atomic      Atomic             Coordinates (Angstroms)
 Number     Number       Type             X           Y           Z
 ---------------------------------------------------------------------
      1          6           0       -0.300615   -1.924790    0.000000
      2          6           0       -0.970523   -0.674797    0.000000
      3          6           0        1.032092   -1.640070    0.000000
      4          6           0        0.000000    0.288032    0.000000
      5          6           0       -0.029988    1.739577    0.000000
      6          8           0       -1.049576    2.396115    0.000000
      7          8           0        1.237658   -0.307636    0.000000
      8          1           0       -0.741738   -2.906165    0.000000
      9          1           0       -2.030305   -0.489429    0.000000
     10          1           0        1.913638   -2.256025    0.000000
     11          1           0        0.967952    2.216073    0.000000
 ---------------------------------------------------------------------

 SCF Done:  E(RHF) =  -341.738921958     A.U. after    2 cycles

 The electronic state is 1-A'.
 Alpha  occ. eigenvalues --  -20.63504 -20.54739 -11.35202 -11.32690 -11.30793
 Alpha  occ. eigenvalues --  -11.27063 -11.25892  -1.57140  -1.47495  -1.12072
 Alpha  occ. eigenvalues --   -1.05598  -0.90446  -0.83663  -0.79469  -0.74581
 Alpha  occ. eigenvalues --   -0.68073  -0.66265  -0.63555  -0.60897  -0.59802
 Alpha  occ. eigenvalues --   -0.57454  -0.53802  -0.43371  -0.42311  -0.34727
 Alpha virt. eigenvalues --    0.02892   0.03650   0.04520   0.05356   0.05430
 Alpha virt. eigenvalues --    0.09431   0.09447   0.10896   0.11785   0.12084
 Alpha virt. eigenvalues --    0.12413   0.12558   0.14342   0.14986   0.15255

 Mulliken charges:
               1
     1  C    0.474854
     2  C   -0.111139
     3  C    0.588308
     4  C    1.406703
     5  C    0.753483
     6  O   -1.222854
     7  O   -1.528140
     8  H   -0.116676
     9  H   -0.151097
    10  H   -0.133292
    11  H    0.039849
 Sum of Mulliken charges =  -0.00000

 Dipole moment (field-independent basis, Debye):
    X=              1.5842    Y=             -3.3063    Z=              0.0000  Tot=              3.6662

 Test job not archived.
 1\1\GINC-SE010\SP\RHF\Aug-CC-pVDZ\C5H4O2\OHZDE\05-Apr-2025\0\\#t hf au
 g-cc-pvdz iop(5/13=1,5/36=2,99/5=2) pseudo=read geom=check guess=(read
 ,tcheck) scf=(maxcycle=1)\\title\\0,1\C,0,-0.300615,-1.92479,0.\C,0,-0
 .970523,-0.674797,0.\C,0,1.032092,-1.64007,0.\C,0,0.,0.288032,0.\C,0,-
 0.029988,1.739577,0.\O,0,-1.049576,2.396115,0.\O,0,1.237658,-0.307636,
 0.\H,0,-0.741739,-2.906165,0.\H,0,-2.030305,-0.489429,0.\H,0,1.913637,
 -2.256025,0.\H,0,0.967952,2.216073,0.\\Version=ES64L-G16RevC.01\State=
 1-A'\HF=-341.738922\RMSD=2.587e-02\Dipole=0.6232719,-1.3007945,0.\Quad

 Normal termination of Gaussian 16 at Sat Apr  5 23:00:57 2025.
