 Gaussian 16, Revision C.01,

 ----------------------------------------------------------------------
 #t hf aug-cc-pvdz symm=none int=(grid=ultrafine) guess=(read,tcheck) s
 table=(opt,rrhf)
 ----------------------------------------------------------------------
 -----
 title
 -----
 Symbolic Z-matrix:
 Charge =  0 Multiplicity = 1

 SCF Done:  E(RHF) =  -304.745852858     A.U. after   13 cycles
 Normal termination of Gaussian 16 at Sat Apr  5 23:00:46 2025.
 Gaussian 16:  ES64L-G16RevC.01  3-Jul-2019

 ----------------------------------------------------------------------
 #t hf aug-cc-pvdz iop(5/13=1,5/36=2,99/5=2) pseudo=read geom=check gue
 ss=(read,tcheck) scf=(maxcycle=1)
 ----------------------------------------------------------------------
 -----
 title
 -----
 Structure from the checkpoint file:  "gamma-butyrolactone.chk"
 Charge =  0 Multiplicity = 1

                         Standard orientation:
 ---------------------------------------------------------------------
 Center     Atomic      Atomic             Coordinates (Angstroms)
 Number     Number       Type             X           Y           Z
 ---------------------------------------------------------------------
      1          1           0       -0.333393    2.025670   -0.458487
      2          1           0        1.594629    0.802016   -1.272848
      3          1           0        1.833367   -1.474019   -0.539014
      4          1           0       -0.033158    1.529153    1.201325
      5          6           0        0.022543    1.205712    0.159355
      6          1           0        2.219734    1.139183    0.340551
      7          6           0        1.405703    0.669565   -0.207531
      8          1           0        1.546271   -1.040846    1.156693
      9          6           0        1.270591   -0.821030    0.123306
     10          8           0       -2.082550   -0.030352   -0.067109
     11          6           0       -0.888795   -0.002092    0.002806
     12          8           0       -0.128412   -1.131408   -0.044870
 ---------------------------------------------------------------------

 SCF Done:  E(RHF) =  -305.056086575     A.U. after    2 cycles

 The electronic state is 1-A.
 Alpha  occ. eigenvalues --  -20.58867 -20.52983 -11.38678 -11.31290 -11.26519
 Alpha  occ. eigenvalues --  -11.26299  -1.53871  -1.45437  -1.10147  -0.99673
 Alpha  occ. eigenvalues --   -0.86268  -0.78551  -0.71813  -0.70377  -0.65240
 Alpha  occ. eigenvalues --   -0.61788  -0.60048  -0.58575  -0.54295  -0.52497
 Alpha  occ. eigenvalues --   -0.50555  -0.44759  -0.43079
 Alpha virt. eigenvalues --    0.02828   0.03576   0.03826   0.04862   0.06257
 Alpha virt. eigenvalues --    0.06558   0.09634   0.10678   0.10954   0.13339
 Alpha virt. eigenvalues --    0.13846   0.14404   0.14913   0.15063   0.15181

 Mulliken charges:
               1
     1  H    0.167869
     2  H    0.104327
     3  H    0.068780
     4  H    0.228313
     5  C   -0.485331
     6  H    0.168854
     7  C   -0.273458
     8  H    0.094422
     9  C    0.610651
    10  O   -1.300528
    11  C    1.906350
    12  O   -1.290249
 Sum of Mulliken charges =  -0.00000

 Dipole moment (field-independent basis, Debye):
    X=              4.7387    Y=              1.6731    Z=              0.4119  Tot=              5.0422

 Test job not archived.
 1\1\GINC-SE013\SP\RHF\Aug-CC-pVDZ\C4H6O2\OHZDE\05-Apr-2025\0\\#t hf au
 g-cc-pvdz iop(5/13=1,5/36=2,99/5=2) pseudo=read geom=check guess=(read
 ,tcheck) scf=(maxcycle=1)\\title\\0,1\H,0,-0.333392,2.02567,-0.458487\
 H,0,1.594629,0.802015,-1.272848\H,0,1.833366,-1.47402,-0.539014\H,0,-0
 .033157,1.529153,1.201325\C,0,0.022543,1.205712,0.159355\H,0,2.219734,
 1.139182,0.340551\C,0,1.405703,0.669564,-0.207531\H,0,1.54627,-1.04084
 7,1.156693\C,0,1.270591,-0.821031,0.123306\O,0,-2.08255,-0.030351,-0.0
 67109\C,0,-0.888795,-0.002092,0.002806\O,0,-0.128413,-1.131408,-0.0448

 Normal termination of Gaussian 16 at Sat Apr  5 23:00:57 2025.
