 Gaussian 16, Revision C.01,

 ----------------------------------------------------------------------
 #t hf aug-cc-pvdz symm=none int=(grid=ultrafine) guess=(read,tcheck) s
 table=(opt,rrhf)
 ----------------------------------------------------------------------
 -----
 title
 -----
 Symbolic Z-matrix:
 Charge =  0 Multiplicity = 1

 SCF Done:  E(RHF) =  -683.460945034     A.U. after   12 cycles

 1\1\GINC-SE010\Stability\RHF\Aug-CC-pVDZ\C6H12O6\OHZDE\05-Apr-2025\0\\
 #t hf aug-cc-pvdz symm=none int=(grid=ultrafine) guess=(read,tcheck) s
 table=(opt,rrhf)\\title\\0,1\C,0,1.115853,0.989979,0.20106\C,0,-0.3144
 74,1.262685,-0.24486\C,0,1.590049,-0.399146,-0.223279\C,0,-1.222885,0.
 133264,0.240191\C,0,0.581955,-1.449023,0.245268\C,0,-2.647642,0.247392
 ,-0.273872\O,0,-0.712544,-1.117915,-0.238783\O,0,1.938737,2.012668,-0.
 343122\O,0,-0.797977,2.486634,0.288\O,0,2.916634,-0.629266,0.240675\O,
 0,0.944839,-2.68659,-0.268393\O,0,-3.47743,-0.790535,0.223836\H,0,1.14

 Normal termination of Gaussian 16 at Sat Apr  5 23:06:27 2025.
 Gaussian 16:  ES64L-G16RevC.01  3-Jul-2019

 ----------------------------------------------------------------------
 #t hf aug-cc-pvdz iop(5/13=1,5/36=2,99/5=2) pseudo=read geom=check gue
 ss=(read,tcheck) scf=(maxcycle=1)
 ----------------------------------------------------------------------
 -----
 title
 -----
 Structure from the checkpoint file:  "glucose.chk"
 Charge =  0 Multiplicity = 1

                         Standard orientation:
 ---------------------------------------------------------------------
 Center     Atomic      Atomic             Coordinates (Angstroms)
 Number     Number       Type             X           Y           Z
 ---------------------------------------------------------------------
      1          6           0        1.115853    0.989979    0.201060
      2          6           0       -0.314474    1.262685   -0.244860
      3          6           0        1.590049   -0.399146   -0.223279
      4          6           0       -1.222885    0.133264    0.240191
      5          6           0        0.581955   -1.449023    0.245268
      6          6           0       -2.647642    0.247392   -0.273872
      7          8           0       -0.712544   -1.117915   -0.238783
      8          8           0        1.938737    2.012668   -0.343122
      9          8           0       -0.797977    2.486634    0.288000
     10          8           0        2.916634   -0.629266    0.240675
     11          8           0        0.944839   -2.686590   -0.268393
     12          8           0       -3.477430   -0.790535    0.223836
     13          1           0        1.140111    1.046893    1.299737
     14          1           0       -0.336642    1.288486   -1.341217
     15          1           0        1.646637   -0.454256   -1.310960
     16          1           0       -1.241659    0.127736    1.337503
     17          1           0        0.545143   -1.472520    1.349105
     18          1           0       -2.633844    0.247751   -1.369821
     19          1           0       -3.076579    1.187253    0.065541
     20          1           0        2.858515    1.774040   -0.179127
     21          1           0       -0.153038    3.172141    0.080576
     22          1           0        2.899013   -0.846682    1.179337
     23          1           0        0.327548   -3.352594    0.052774
     24          1           0       -3.090410   -1.629125   -0.048206
 ---------------------------------------------------------------------

 SCF Done:  E(RHF) =  -684.151580862     A.U. after    2 cycles

 The electronic state is 1-A.
 Alpha  occ. eigenvalues --  -20.57609 -20.57482 -20.57272 -20.56642 -20.56107
 Alpha  occ. eigenvalues --  -20.54827 -11.36709 -11.30761 -11.30577 -11.30378
 Alpha  occ. eigenvalues --  -11.30331 -11.28687  -1.52641  -1.48377  -1.47188
 Alpha  occ. eigenvalues --   -1.45826  -1.45252  -1.44188  -1.08400  -1.05572
 Alpha  occ. eigenvalues --   -0.95292  -0.88928  -0.85849  -0.82905  -0.76007
 Alpha  occ. eigenvalues --   -0.73760  -0.73036  -0.71805  -0.68714  -0.67378
 Alpha  occ. eigenvalues --   -0.66746  -0.63846  -0.63300  -0.60261  -0.59788
 Alpha  occ. eigenvalues --   -0.59101  -0.57142  -0.55381  -0.54598  -0.52364
 Alpha  occ. eigenvalues --   -0.51561  -0.51092  -0.49254  -0.48062  -0.46012
 Alpha  occ. eigenvalues --   -0.44991  -0.43873  -0.43025
 Alpha virt. eigenvalues --    0.02473   0.03146   0.03990   0.04531   0.05374
 Alpha virt. eigenvalues --    0.05753   0.06027   0.06544   0.06753   0.08294
 Alpha virt. eigenvalues --    0.09044   0.09483   0.11773   0.12876   0.12892

 Mulliken charges:
               1
     1  C    1.244449
     2  C    0.848824
     3  C    0.608925
     4  C    0.623951
     5  C    2.021121
     6  C    0.793969
     7  O   -1.788213
     8  O   -1.574193
     9  O   -1.487242
    10  O   -1.433576
    11  O   -1.405990
    12  O   -1.230136
    13  H    0.166773
    14  H    0.257332
    15  H    0.166876
    16  H    0.179775
    17  H    0.185291
    18  H    0.136541
    19  H    0.145242
    20  H    0.330484
    21  H    0.311123
    22  H    0.253792
    23  H    0.313854
    24  H    0.331030
 Sum of Mulliken charges =   0.00000

 Dipole moment (field-independent basis, Debye):
    X=              1.6452    Y=             -0.7886    Z=              1.6103  Tot=              2.4334

 Test job not archived.
 1\1\GINC-SE010\SP\RHF\Aug-CC-pVDZ\C6H12O6\OHZDE\05-Apr-2025\0\\#t hf a
 ug-cc-pvdz iop(5/13=1,5/36=2,99/5=2) pseudo=read geom=check guess=(rea
 d,tcheck) scf=(maxcycle=1)\\title\\0,1\C,0,1.115853,0.989979,0.20106\C
 ,0,-0.314474,1.262685,-0.24486\C,0,1.590049,-0.399146,-0.223279\C,0,-1
 .222885,0.133264,0.240191\C,0,0.581955,-1.449023,0.245268\C,0,-2.64764
 2,0.247392,-0.273872\O,0,-0.712544,-1.117915,-0.238783\O,0,1.938737,2.
 012668,-0.343122\O,0,-0.797977,2.486634,0.288\O,0,2.916634,-0.629266,0
 .240675\O,0,0.944839,-2.68659,-0.268393\O,0,-3.47743,-0.790535,0.22383

 Normal termination of Gaussian 16 at Sat Apr  5 23:06:46 2025.
