 Gaussian 16, Revision C.01,

 ----------------------------------------------------------------------
 #t hf aug-cc-pvdz symm=none int=(grid=ultrafine) guess=(read,tcheck) s
 table=(opt,rrhf)
 ----------------------------------------------------------------------
 -----
 title
 -----
 Symbolic Z-matrix:
 Charge =  0 Multiplicity = 1

 SCF Done:  E(RHF) =  -548.609588181     A.U. after   14 cycles
 Normal termination of Gaussian 16 at Sat Apr  5 23:05:05 2025.
 Gaussian 16:  ES64L-G16RevC.01  3-Jul-2019

 ----------------------------------------------------------------------
 #t hf aug-cc-pvdz iop(5/13=1,5/36=2,99/5=2) pseudo=read geom=check gue
 ss=(read,tcheck) scf=(maxcycle=1)
 ----------------------------------------------------------------------
 -----
 title
 -----
 Structure from the checkpoint file:  "glutamic_acid.chk"
 Charge =  0 Multiplicity = 1

                         Standard orientation:
 ---------------------------------------------------------------------
 Center     Atomic      Atomic             Coordinates (Angstroms)
 Number     Number       Type             X           Y           Z
 ---------------------------------------------------------------------
      1          7           0        0.630582    1.427132    0.497820
      2          6           0        0.942174   -0.008642    0.479325
      3          6           0        2.405547   -0.219182    0.025066
      4          8           0        2.939125   -1.297716    0.031446
      5          8           0        3.012778    0.899944   -0.375393
      6          1           0        2.332608    1.605804   -0.257569
      7          6           0        0.024429   -0.827843   -0.440883
      8          6           0       -1.389805   -1.084945    0.084499
      9          6           0       -2.385902    0.029375   -0.119800
     10          8           0       -2.158654    1.123873   -0.578738
     11          8           0       -3.623769   -0.339435    0.271599
     12          1           0        0.891335   -0.439220    1.483407
     13          1           0       -0.025257   -0.346028   -1.419975
     14          1           0        0.508995   -1.791744   -0.586679
     15          1           0       -1.813631   -1.966586   -0.401442
     16          1           0       -1.380996   -1.327411    1.150793
     17          1           0       -0.248077    1.634248    0.037933
     18          1           0        0.602211    1.803939    1.434644
     19          1           0       -4.215760    0.411176    0.113596
 ---------------------------------------------------------------------

 SCF Done:  E(RHF) =  -549.160537066     A.U. after    2 cycles

 The electronic state is 1-A.
 Alpha  occ. eigenvalues --  -20.62338 -20.58004 -20.56517 -20.52106 -15.51403
 Alpha  occ. eigenvalues --  -11.42154 -11.37890 -11.29941 -11.28017 -11.26387
 Alpha  occ. eigenvalues --   -1.57372  -1.53024  -1.47848  -1.44209  -1.21773
 Alpha  occ. eigenvalues --   -1.10101  -1.00654  -0.90829  -0.82195  -0.80327
 Alpha  occ. eigenvalues --   -0.74631  -0.74228  -0.73861  -0.70561  -0.69848
 Alpha  occ. eigenvalues --   -0.66790  -0.63281  -0.62422  -0.61423  -0.60057
 Alpha  occ. eigenvalues --   -0.57320  -0.55181  -0.53442  -0.52070  -0.50547
 Alpha  occ. eigenvalues --   -0.48868  -0.47026  -0.45386  -0.41778
 Alpha virt. eigenvalues --    0.02507   0.03276   0.03783   0.04279   0.05962
 Alpha virt. eigenvalues --    0.06395   0.06759   0.07120   0.07764   0.10706
 Alpha virt. eigenvalues --    0.11046   0.11399   0.12592   0.12848   0.13528

 Mulliken charges:
               1
     1  N    0.286202
     2  C   -1.724172
     3  C    2.631700
     4  O   -1.391095
     5  O   -1.353968
     6  H    0.529637
     7  C   -0.067220
     8  C   -0.394881
     9  C    2.134053
    10  O   -1.263832
    11  O   -1.310902
    12  H    0.249086
    13  H    0.161794
    14  H    0.123880
    15  H    0.219893
    16  H    0.238622
    17  H    0.267342
    18  H    0.274499
    19  H    0.389362
 Sum of Mulliken charges =   0.00000

 Dipole moment (field-independent basis, Debye):
    X=             -5.6699    Y=              0.8881    Z=              1.8143  Tot=              6.0190

 Test job not archived.
 1\1\GINC-SE050\SP\RHF\Aug-CC-pVDZ\C5H9N1O4\OHZDE\05-Apr-2025\0\\#t hf
 aug-cc-pvdz iop(5/13=1,5/36=2,99/5=2) pseudo=read geom=check guess=(re
 ad,tcheck) scf=(maxcycle=1)\\title\\0,1\N,0,0.630582,1.427132,0.49782\
 C,0,0.942174,-0.008642,0.479325\C,0,2.405547,-0.219182,0.025066\O,0,2.
 939125,-1.297716,0.031446\O,0,3.012778,0.899944,-0.375393\H,0,2.332608
 ,1.605804,-0.257569\C,0,0.024429,-0.827843,-0.440883\C,0,-1.389805,-1.
 084945,0.084499\C,0,-2.385902,0.029375,-0.1198\O,0,-2.158654,1.123873,
 -0.578738\O,0,-3.623769,-0.339435,0.271599\H,0,0.891335,-0.43922,1.483

 Normal termination of Gaussian 16 at Sat Apr  5 23:06:21 2025.
