 Gaussian 16, Revision C.01,

 ----------------------------------------------------------------------
 #t hf aug-cc-pvdz symm=none int=(grid=ultrafine) guess=(read,tcheck) s
 table=(opt,rrhf)
 ----------------------------------------------------------------------
 -----
 title
 -----
 Symbolic Z-matrix:
 Charge =  0 Multiplicity = 1

 SCF Done:  E(RHF) =  -528.771712851     A.U. after   14 cycles
 Normal termination of Gaussian 16 at Sat Apr  5 23:03:50 2025.
 Gaussian 16:  ES64L-G16RevC.01  3-Jul-2019

 ----------------------------------------------------------------------
 #t hf aug-cc-pvdz iop(5/13=1,5/36=2,99/5=2) pseudo=read geom=check gue
 ss=(read,tcheck) scf=(maxcycle=1)
 ----------------------------------------------------------------------
 -----
 title
 -----
 Structure from the checkpoint file:  "glutamine.chk"
 Charge =  0 Multiplicity = 1

                         Standard orientation:
 ---------------------------------------------------------------------
 Center     Atomic      Atomic             Coordinates (Angstroms)
 Number     Number       Type             X           Y           Z
 ---------------------------------------------------------------------
      1          7           0       -1.424042    1.687954   -0.315662
      2          6           0       -1.175219    0.248620   -0.494595
      3          6           0       -2.365563   -0.567051    0.058790
      4          8           0       -2.366240   -1.768365    0.103385
      5          8           0       -3.404107    0.178411    0.450947
      6          1           0       -3.124488    1.108651    0.299481
      7          6           0        0.140646   -0.242894    0.117615
      8          6           0        1.376852    0.225616   -0.655543
      9          6           0        2.649673    0.036162    0.158499
     10          8           0        2.767995    0.503567    1.276755
     11          7           0        3.647934   -0.665145   -0.444780
     12          1           0       -1.174045    0.033000   -1.566491
     13          1           0        0.210972    0.115142    1.147316
     14          1           0        0.114142   -1.330876    0.160468
     15          1           0        1.436071   -0.283556   -1.619729
     16          1           0        1.310231    1.297639   -0.858898
     17          1           0        3.536523   -1.093206   -1.344786
     18          1           0        4.500031   -0.822115    0.066469
     19          1           0       -0.866188    2.078023    0.433662
     20          1           0       -1.250015    2.226005   -1.151686
 ---------------------------------------------------------------------

 SCF Done:  E(RHF) =  -529.307328541     A.U. after    2 cycles

 The electronic state is 1-A.
 Alpha  occ. eigenvalues --  -20.58494 -20.52501 -20.51697 -15.54088 -15.53043
 Alpha  occ. eigenvalues --  -11.38412 -11.37126 -11.30474 -11.26731 -11.25705
 Alpha  occ. eigenvalues --   -1.53472  -1.46714  -1.44654  -1.23587  -1.22861
 Alpha  occ. eigenvalues --   -1.08750  -0.99702  -0.89467  -0.83259  -0.81028
 Alpha  occ. eigenvalues --   -0.77364  -0.75551  -0.73017  -0.70848  -0.68167
 Alpha  occ. eigenvalues --   -0.65050  -0.63566  -0.62441  -0.61024  -0.59710
 Alpha  occ. eigenvalues --   -0.57102  -0.54281  -0.52339  -0.52277  -0.49732
 Alpha  occ. eigenvalues --   -0.45906  -0.44462  -0.43632  -0.42078
 Alpha virt. eigenvalues --    0.01980   0.02493   0.03771   0.04897   0.05545
 Alpha virt. eigenvalues --    0.06386   0.06567   0.07055   0.07436   0.07896
 Alpha virt. eigenvalues --    0.10295   0.10915   0.12349   0.12761   0.12936

 Mulliken charges:
               1
     1  N    0.027717
     2  C   -1.512491
     3  C    2.605346
     4  O   -1.363595
     5  O   -1.357827
     6  H    0.493308
     7  C    0.041359
     8  C   -0.421540
     9  C    0.507993
    10  O   -1.333580
    11  N    0.757070
    12  H    0.281069
    13  H    0.162019
    14  H    0.072049
    15  H    0.059226
    16  H    0.232888
    17  H    0.044721
    18  H    0.084437
    19  H    0.307396
    20  H    0.312432
 Sum of Mulliken charges =  -0.00000

 Dipole moment (field-independent basis, Debye):
    X=              3.4541    Y=              2.5658    Z=             -4.5227  Tot=              6.2425

 Test job not archived.
 1\1\GINC-SE053\SP\RHF\Aug-CC-pVDZ\C5H10N2O3\OHZDE\05-Apr-2025\0\\#t hf
  aug-cc-pvdz iop(5/13=1,5/36=2,99/5=2) pseudo=read geom=check guess=(r
 ead,tcheck) scf=(maxcycle=1)\\title\\0,1\N,0,-1.424042,1.687954,-0.315
 662\C,0,-1.175219,0.24862,-0.494595\C,0,-2.365563,-0.567051,0.05879\O,
 0,-2.36624,-1.768365,0.103385\O,0,-3.404107,0.178411,0.450947\H,0,-3.1
 24488,1.108651,0.299481\C,0,0.140646,-0.242894,0.117615\C,0,1.376852,0
 .225616,-0.655543\C,0,2.649673,0.036162,0.158499\O,0,2.767995,0.503567
 ,1.276755\N,0,3.647934,-0.665145,-0.44478\H,0,-1.174045,0.033,-1.56649

 Normal termination of Gaussian 16 at Sat Apr  5 23:04:20 2025.
