 Gaussian 16, Revision C.01,

 ----------------------------------------------------------------------
 #t hf aug-cc-pvdz symm=none int=(grid=ultrafine) guess=(read,tcheck) s
 table=(opt,rrhf)
 ----------------------------------------------------------------------
 -----
 title
 -----
 Symbolic Z-matrix:
 Charge =  0 Multiplicity = 1

 SCF Done:  E(RHF) =  -282.885044295     A.U. after   13 cycles
 Normal termination of Gaussian 16 at Sat Apr  5 23:03:23 2025.
 Gaussian 16:  ES64L-G16RevC.01  3-Jul-2019

 ----------------------------------------------------------------------
 #t hf aug-cc-pvdz iop(5/13=1,5/36=2,99/5=2) pseudo=read geom=check gue
 ss=(read,tcheck) scf=(maxcycle=1)
 ----------------------------------------------------------------------
 -----
 title
 -----
 Structure from the checkpoint file:  "glycine.chk"
 Charge =  0 Multiplicity = 1

                         Standard orientation:
 ---------------------------------------------------------------------
 Center     Atomic      Atomic             Coordinates (Angstroms)
 Number     Number       Type             X           Y           Z
 ---------------------------------------------------------------------
      1          6           0        0.000000    0.554399    0.000000
      2          8           0        1.166268    0.850486    0.000000
      3          8           0       -0.993246    1.475442    0.000000
      4          6           0       -0.558650   -0.860872    0.000000
      5          7           0        0.418261   -1.927134    0.000000
      6          1           0       -0.577661    2.350468    0.000000
      7          1           0       -1.213149   -0.954876    0.869365
      8          1           0       -1.213149   -0.954876   -0.869365
      9          1           0        1.021928   -1.859686    0.809956
     10          1           0        1.021928   -1.859686   -0.809956
 ---------------------------------------------------------------------

 SCF Done:  E(RHF) =  -283.171743887     A.U. after    2 cycles

 The electronic state is 1-A'.
 Alpha  occ. eigenvalues --  -20.60714 -20.54617 -15.49748 -11.39752 -11.28764
 Alpha  occ. eigenvalues --   -1.55383  -1.46022  -1.19900  -0.98913  -0.82597
 Alpha  occ. eigenvalues --   -0.72092  -0.71638  -0.71039  -0.63825  -0.62736
 Alpha  occ. eigenvalues --   -0.59585  -0.54813  -0.48437  -0.47590  -0.43806
 Alpha virt. eigenvalues --    0.03486   0.04323   0.05146   0.05709   0.07456
 Alpha virt. eigenvalues --    0.09875   0.11115   0.11341   0.11574   0.14446
 Alpha virt. eigenvalues --    0.15544   0.16366   0.17176   0.18660   0.19480

 Mulliken charges:
               1
     1  C    2.056197
     2  O   -1.178172
     3  O   -1.223515
     4  C   -1.038191
     5  N    0.180421
     6  H    0.383642
     7  H    0.211603
     8  H    0.211603
     9  H    0.198206
    10  H    0.198206
 Sum of Mulliken charges =  -0.00000

 Dipole moment (field-independent basis, Debye):
    X=             -0.9757    Y=              0.8016    Z=              0.0000  Tot=              1.2627

 Test job not archived.
 1\1\GINC-SE146\SP\RHF\Aug-CC-pVDZ\C2H5N1O2\OHZDE\05-Apr-2025\0\\#t hf
 aug-cc-pvdz iop(5/13=1,5/36=2,99/5=2) pseudo=read geom=check guess=(re
 ad,tcheck) scf=(maxcycle=1)\\title\\0,1\C,0,0.,0.554399,0.\O,0,1.16626
 8,0.850486,0.\O,0,-0.993246,1.475442,0.\C,0,-0.55865,-0.860872,0.\N,0,
 0.418261,-1.927134,0.\H,0,-0.577661,2.350468,0.\H,0,-1.213149,-0.95487
 6,0.869365\H,0,-1.213149,-0.954876,-0.869365\H,0,1.021928,-1.859686,0.
 809956\H,0,1.021928,-1.859686,-0.809956\\Version=ES64L-G16RevC.01\Stat
 e=1-A'\HF=-283.1717439\RMSD=1.368e-02\Dipole=-0.3838657,0.315374,0.\Qu

 Normal termination of Gaussian 16 at Sat Apr  5 23:03:39 2025.
