 Gaussian 16, Revision C.01,

 ----------------------------------------------------------------------
 #t hf aug-cc-pvdz symm=none int=(grid=ultrafine) guess=(read,tcheck) s
 table=(opt,rrhf)
 ----------------------------------------------------------------------
 -----
 title
 -----
 Symbolic Z-matrix:
 Charge =  0 Multiplicity = 1

 SCF Done:  E(RHF) =  -342.887774761     A.U. after   12 cycles
 Normal termination of Gaussian 16 at Sat Apr  5 23:03:26 2025.
 Gaussian 16:  ES64L-G16RevC.01  3-Jul-2019

 ----------------------------------------------------------------------
 #t hf aug-cc-pvdz iop(5/13=1,5/36=2,99/5=2) pseudo=read geom=check gue
 ss=(read,tcheck) scf=(maxcycle=1)
 ----------------------------------------------------------------------
 -----
 title
 -----
 Structure from the checkpoint file:  "glycerine.chk"
 Charge =  0 Multiplicity = 1

                         Standard orientation:
 ---------------------------------------------------------------------
 Center     Atomic      Atomic             Coordinates (Angstroms)
 Number     Number       Type             X           Y           Z
 ---------------------------------------------------------------------
      1          8           0       -2.417963    0.047987   -0.123897
      2          1           0       -1.254547   -0.774720    1.304580
      3          1           0       -1.302489   -1.718686   -0.195314
      4          6           0       -1.251091   -0.706463    0.216624
      5          8           0        0.061919    1.328254    0.263126
      6          1           0        0.015456    0.038391   -1.353421
      7          6           0        0.012297    0.000165   -0.254588
      8          1           0        1.281639   -0.756010    1.300499
      9          1           0        1.324011   -1.707294   -0.195753
     10          6           0        1.283432   -0.694142    0.205599
     11          1           0        2.364208    0.899324   -0.013832
     12          8           0        2.446879   -0.029282   -0.258813
     13          1           0       -0.816557    1.714063    0.164460
     14          1           0       -2.606229   -0.068088   -1.060358
 ---------------------------------------------------------------------

 SCF Done:  E(RHF) =  -343.241739021     A.U. after    2 cycles

 The electronic state is 1-A.
 Alpha  occ. eigenvalues --  -20.56992 -20.55431 -20.54452 -11.30061 -11.29478
 Alpha  occ. eigenvalues --  -11.28808  -1.47568  -1.45539  -1.43624  -1.04942
 Alpha  occ. eigenvalues --   -0.92754  -0.83171  -0.73685  -0.71025  -0.68380
 Alpha  occ. eigenvalues --   -0.64934  -0.62937  -0.58912  -0.58074  -0.53663
 Alpha  occ. eigenvalues --   -0.52896  -0.50630  -0.48103  -0.44133  -0.43546
 Alpha virt. eigenvalues --    0.02967   0.03854   0.04469   0.04905   0.06702
 Alpha virt. eigenvalues --    0.06886   0.06943   0.08390   0.11093   0.12839
 Alpha virt. eigenvalues --    0.13736   0.15048   0.15532   0.15667   0.16366

 Mulliken charges:
               1
     1  O   -1.164902
     2  H    0.091499
     3  H    0.143428
     4  C    0.821969
     5  O   -1.348680
     6  H    0.125288
     7  C    0.363295
     8  H    0.142802
     9  H    0.099488
    10  C    0.977955
    11  H    0.340340
    12  O   -1.218744
    13  H    0.339079
    14  H    0.287184
 Sum of Mulliken charges =  -0.00000

 Dipole moment (field-independent basis, Debye):
    X=             -1.9878    Y=             -0.9887    Z=             -0.8797  Tot=              2.3881

 Test job not archived.
 1\1\GINC-SE129\SP\RHF\Aug-CC-pVDZ\C3H8O3\OHZDE\05-Apr-2025\0\\#t hf au
 g-cc-pvdz iop(5/13=1,5/36=2,99/5=2) pseudo=read geom=check guess=(read
 ,tcheck) scf=(maxcycle=1)\\title\\0,1\O,0,-2.417963,0.047987,-0.123897
 \H,0,-1.254547,-0.77472,1.30458\H,0,-1.302489,-1.718686,-0.195314\C,0,
 -1.251091,-0.706463,0.216624\O,0,0.061919,1.328254,0.263126\H,0,0.0154
 56,0.038391,-1.353421\C,0,0.012297,0.000165,-0.254588\H,0,1.281639,-0.
 75601,1.300499\H,0,1.324011,-1.707294,-0.195753\C,0,1.283432,-0.694142
 ,0.205599\H,0,2.364208,0.899324,-0.013832\O,0,2.446879,-0.029282,-0.25

 Normal termination of Gaussian 16 at Sat Apr  5 23:03:41 2025.
