 Gaussian 16, Revision C.01,

 ----------------------------------------------------------------------
 #t hf aug-cc-pvdz symm=none int=(grid=ultrafine) guess=(read,tcheck) s
 table=(opt,rrhf)
 ----------------------------------------------------------------------
 -----
 title
 -----
 Symbolic Z-matrix:
 Charge =  0 Multiplicity = 1

 SCF Done:  E(RHF) =  -302.716200845     A.U. after   13 cycles
 Normal termination of Gaussian 16 at Sat Apr  5 23:03:11 2025.
 Gaussian 16:  ES64L-G16RevC.01  3-Jul-2019

 ----------------------------------------------------------------------
 #t hf aug-cc-pvdz iop(5/13=1,5/36=2,99/5=2) pseudo=read geom=check gue
 ss=(read,tcheck) scf=(maxcycle=1)
 ----------------------------------------------------------------------
 -----
 title
 -----
 Structure from the checkpoint file:  "glycolic_acid.chk"
 Charge =  0 Multiplicity = 1

                         Standard orientation:
 ---------------------------------------------------------------------
 Center     Atomic      Atomic             Coordinates (Angstroms)
 Number     Number       Type             X           Y           Z
 ---------------------------------------------------------------------
      1          6           0       -0.738863   -0.744609    0.000092
      2          6           0        0.514163    0.098603    0.000027
      3          8           0        1.636178   -0.642445   -0.000068
      4          8           0        0.505631    1.304270    0.000046
      5          8           0       -1.893095    0.053803   -0.000097
      6          1           0       -0.715438   -1.394908   -0.880519
      7          1           0       -0.715500   -1.394600    0.880937
      8          1           0       -1.602727    0.976905   -0.000086
      9          1           0        2.392158   -0.036384   -0.000096
 ---------------------------------------------------------------------

 SCF Done:  E(RHF) =  -303.017423663     A.U. after    2 cycles

 The electronic state is 1-A.
 Alpha  occ. eigenvalues --  -20.62269 -20.56199 -20.55909 -11.41441 -11.31701
 Alpha  occ. eigenvalues --   -1.57187  -1.48397  -1.45840  -1.01910  -0.84222
 Alpha  occ. eigenvalues --   -0.75164  -0.73251  -0.69064  -0.64868  -0.61289
 Alpha  occ. eigenvalues --   -0.61259  -0.54175  -0.49909  -0.47119  -0.45978
 Alpha virt. eigenvalues --    0.03214   0.04670   0.05129   0.06110   0.09883
 Alpha virt. eigenvalues --    0.11072   0.11286   0.12135   0.14332   0.15280
 Alpha virt. eigenvalues --    0.16090   0.16152   0.18954   0.20618   0.22212

 Mulliken charges:
               1
     1  C    0.717029
     2  C    1.718007
     3  O   -1.209233
     4  O   -1.146817
     5  O   -1.151780
     6  H    0.192582
     7  H    0.192634
     8  H    0.336127
     9  H    0.351450
 Sum of Mulliken charges =  -0.00000

 Dipole moment (field-independent basis, Debye):
    X=              2.0340    Y=             -1.1219    Z=              0.0002  Tot=              2.3229

 Test job not archived.
 1\1\GINC-SE180\SP\RHF\Aug-CC-pVDZ\C2H4O3\OHZDE\05-Apr-2025\0\\#t hf au
 g-cc-pvdz iop(5/13=1,5/36=2,99/5=2) pseudo=read geom=check guess=(read
 ,tcheck) scf=(maxcycle=1)\\title\\0,1\C,0,-0.738863,-0.744609,0.000092
 \C,0,0.514163,0.098603,0.000027\O,0,1.636178,-0.642444,-0.000068\O,0,0
 .50563,1.30427,0.000046\O,0,-1.893095,0.053802,-0.000097\H,0,-0.715437
 ,-1.394908,-0.880519\H,0,-0.715499,-1.3946,0.880937\H,0,-1.602727,0.97
 6904,-0.000086\H,0,2.392158,-0.036383,-0.000096\\Version=ES64L-G16RevC
 .01\State=1-A\HF=-303.0174237\RMSD=1.050e-02\Dipole=0.8002459,-0.44138

 Normal termination of Gaussian 16 at Sat Apr  5 23:03:17 2025.
