 Gaussian 16, Revision C.01,

 ----------------------------------------------------------------------
 #t hf aug-cc-pvdz symm=none int=(grid=ultrafine) guess=(read,tcheck) s
 table=(opt,rrhf)
 ----------------------------------------------------------------------
 -----
 title
 -----
 Symbolic Z-matrix:
 Charge =  0 Multiplicity = 1

 SCF Done:  E(RHF) =  -336.586315073     A.U. after   13 cycles
 Normal termination of Gaussian 16 at Sat Apr  5 23:03:12 2025.
 Gaussian 16:  ES64L-G16RevC.01  3-Jul-2019

 ----------------------------------------------------------------------
 #t hf aug-cc-pvdz iop(5/13=1,5/36=2,99/5=2) pseudo=read geom=check gue
 ss=(read,tcheck) scf=(maxcycle=1)
 ----------------------------------------------------------------------
 -----
 title
 -----
 Structure from the checkpoint file:  "glyoxime.chk"
 Charge =  0 Multiplicity = 1

                         Standard orientation:
 ---------------------------------------------------------------------
 Center     Atomic      Atomic             Coordinates (Angstroms)
 Number     Number       Type             X           Y           Z
 ---------------------------------------------------------------------
      1          8           0        1.166590    2.672477    0.000000
      2          8           0       -1.166590   -2.672477    0.000000
      3          7           0        1.166590    1.298532    0.000000
      4          7           0       -1.166590   -1.298532    0.000000
      5          6           0        0.027863    0.723227    0.000000
      6          6           0       -0.027863   -0.723227    0.000000
      7          1           0        0.248784    2.997834    0.000000
      8          1           0       -0.248784   -2.997834    0.000000
      9          1           0       -0.917383    1.269774    0.000000
     10          1           0        0.917383   -1.269774    0.000000
 ---------------------------------------------------------------------

 SCF Done:  E(RHF) =  -336.918921145     A.U. after    2 cycles

 The electronic state is 1-AG.
 Alpha  occ. eigenvalues --  -20.61379 -20.61377 -15.59907 -15.59863 -11.31229
 Alpha  occ. eigenvalues --  -11.31181  -1.53574  -1.53425  -1.23318  -1.18308
 Alpha  occ. eigenvalues --   -0.93580  -0.85338  -0.78078  -0.77087  -0.69382
 Alpha  occ. eigenvalues --   -0.64476  -0.62441  -0.62254  -0.56874  -0.52517
 Alpha  occ. eigenvalues --   -0.51932  -0.48558  -0.39993
 Alpha virt. eigenvalues --    0.03172   0.03663   0.04798   0.05982   0.06369
 Alpha virt. eigenvalues --    0.09105   0.09993   0.11181   0.11258   0.14151
 Alpha virt. eigenvalues --    0.14834   0.16795   0.17171   0.17666   0.18877

 Mulliken charges:
               1
     1  O   -1.241559
     2  O   -1.241559
     3  N    1.519982
     4  N    1.519982
     5  C   -0.466380
     6  C   -0.466380
     7  H    0.345151
     8  H    0.345151
     9  H   -0.157194
    10  H   -0.157194
 Sum of Mulliken charges =  -0.00000

 Dipole moment (field-independent basis, Debye):
    X=             -0.0000    Y=              0.0000    Z=              0.0000  Tot=              0.0000

 Test job not archived.
 1\1\GINC-SE185\SP\RHF\Aug-CC-pVDZ\C2H4N2O2\OHZDE\05-Apr-2025\0\\#t hf
 aug-cc-pvdz iop(5/13=1,5/36=2,99/5=2) pseudo=read geom=check guess=(re
 ad,tcheck) scf=(maxcycle=1)\\title\\0,1\O,0,1.16659,2.672477,0.\O,0,-1
 .16659,-2.672477,0.\N,0,1.16659,1.298532,0.\N,0,-1.16659,-1.298532,0.\
 C,0,0.027863,0.723227,0.\C,0,-0.027863,-0.723227,0.\H,0,0.248784,2.997
 834,0.\H,0,-0.248784,-2.997834,0.\H,0,-0.917383,1.269774,0.\H,0,0.9173
 83,-1.269774,0.\\Version=ES64L-G16RevC.01\State=1-AG\HF=-336.9189211\R
 MSD=2.420e-02\Dipole=0.,0.,0.\Quadrupole=-5.1749225,5.0032065,0.171716

 Normal termination of Gaussian 16 at Sat Apr  5 23:03:17 2025.
