 Gaussian 16, Revision C.01,

 ----------------------------------------------------------------------
 #t hf aug-cc-pvdz symm=none int=(grid=ultrafine) guess=(read,tcheck) s
 table=(opt,rrhf)
 ----------------------------------------------------------------------
 -----
 title
 -----
 Symbolic Z-matrix:
 Charge =  0 Multiplicity = 1

 SCF Done:  E(RHF) =  -204.167999322     A.U. after   13 cycles
 Normal termination of Gaussian 16 at Sat Apr  5 23:02:17 2025.
 Gaussian 16:  ES64L-G16RevC.01  3-Jul-2019

 ----------------------------------------------------------------------
 #t hf aug-cc-pvdz iop(5/13=1,5/36=2,99/5=2) pseudo=read geom=check gue
 ss=(read,tcheck) scf=(maxcycle=1)
 ----------------------------------------------------------------------
 -----
 title
 -----
 Structure from the checkpoint file:  "guanidine.chk"
 Charge =  0 Multiplicity = 1

                         Standard orientation:
 ---------------------------------------------------------------------
 Center     Atomic      Atomic             Coordinates (Angstroms)
 Number     Number       Type             X           Y           Z
 ---------------------------------------------------------------------
      1          6           0       -0.017918    0.121480    0.000209
      2          7           0       -0.222839    1.381238    0.009408
      3          7           0       -0.973010   -0.891051    0.074673
      4          7           0        1.277017   -0.374144   -0.080092
      5          1           0       -1.210359    1.609787   -0.043242
      6          1           0       -1.924503   -0.586110   -0.046428
      7          1           0       -0.761142   -1.727615   -0.447294
      8          1           0        1.968808    0.351335    0.024724
      9          1           0        1.466533   -1.188580    0.483063
 ---------------------------------------------------------------------

 SCF Done:  E(RHF) =  -204.382503163     A.U. after    2 cycles

 The electronic state is 1-A.
 Alpha  occ. eigenvalues --  -15.52274 -15.51196 -15.45311 -11.34816  -1.29130
 Alpha  occ. eigenvalues --   -1.17430  -1.14263  -0.84704  -0.77145  -0.74913
 Alpha  occ. eigenvalues --   -0.67130  -0.65545  -0.60043  -0.48087  -0.46681
 Alpha  occ. eigenvalues --   -0.40809
 Alpha virt. eigenvalues --    0.02647   0.04761   0.05227   0.06437   0.07000
 Alpha virt. eigenvalues --    0.11581   0.12295   0.14440   0.14697   0.15607
 Alpha virt. eigenvalues --    0.17156   0.17706   0.17893   0.19041   0.21034

 Mulliken charges:
               1
     1  C   -1.753677
     2  N    0.460915
     3  N    0.261495
     4  N    0.368040
     5  H    0.111639
     6  H    0.179401
     7  H    0.064837
     8  H    0.166932
     9  H    0.140419
 Sum of Mulliken charges =  -0.00000

 Dipole moment (field-independent basis, Debye):
    X=             -0.8833    Y=             -3.0622    Z=             -0.0517  Tot=              3.1875

 Test job not archived.
 1\1\GINC-SE190\SP\RHF\Aug-CC-pVDZ\C1H5N3\OHZDE\05-Apr-2025\0\\#t hf au
 g-cc-pvdz iop(5/13=1,5/36=2,99/5=2) pseudo=read geom=check guess=(read
 ,tcheck) scf=(maxcycle=1)\\title\\0,1\C,0,-0.017919,0.12148,0.000209\N
 ,0,-0.222845,1.381237,0.009408\N,0,-0.973006,-0.891055,0.074673\N,0,1.
 277018,-0.374139,-0.080092\H,0,-1.210366,1.609782,-0.043242\H,0,-1.924
 501,-0.586118,-0.046428\H,0,-0.761135,-1.727618,-0.447294\H,0,1.968806
 ,0.351343,0.024724\H,0,1.466538,-1.188574,0.483063\\Version=ES64L-G16R
 evC.01\State=1-A\HF=-204.3825032\RMSD=2.350e-02\Dipole=-0.3475,-1.2047

 Normal termination of Gaussian 16 at Sat Apr  5 23:03:05 2025.
