 Gaussian 16, Revision C.01,

 ----------------------------------------------------------------------
 #t hf aug-cc-pvdz symm=none int=(grid=ultrafine) guess=(read,tcheck) s
 table=(opt,rrhf)
 ----------------------------------------------------------------------
 -----
 title
 -----
 Symbolic Z-matrix:
 Charge =  0 Multiplicity = 1

 SCF Done:  E(RHF) =  -274.431613280     A.U. after   11 cycles
 Normal termination of Gaussian 16 at Sat Apr  5 23:04:48 2025.
 Gaussian 16:  ES64L-G16RevC.01  3-Jul-2019

 ----------------------------------------------------------------------
 #t hf aug-cc-pvdz iop(5/13=1,5/36=2,99/5=2) pseudo=read geom=check gue
 ss=(read,tcheck) scf=(maxcycle=1)
 ----------------------------------------------------------------------
 -----
 title
 -----
 Structure from the checkpoint file:  "heptane.chk"
 Charge =  0 Multiplicity = 1

                         Standard orientation:
 ---------------------------------------------------------------------
 Center     Atomic      Atomic             Coordinates (Angstroms)
 Number     Number       Type             X           Y           Z
 ---------------------------------------------------------------------
      1          6           0        0.000000    3.833474   -0.352624
      2          6           0       -0.000000   -3.833474   -0.352624
      3          6           0        0.000000    2.560916    0.492939
      4          6           0       -0.000000   -2.560916    0.492939
      5          6           0        0.000000    1.279918   -0.342345
      6          6           0       -0.000000   -1.279918   -0.342345
      7          6           0       -0.000000   -0.000000    0.494121
      8          1           0        0.000000    4.728440    0.271238
      9          1           0       -0.880595    3.878602   -0.996848
     10          1           0        0.880595    3.878602   -0.996848
     11          1           0       -0.880595   -3.878602   -0.996848
     12          1           0        0.880595   -3.878602   -0.996848
     13          1           0       -0.000000   -4.728440    0.271238
     14          1           0       -0.873897    2.560727    1.151361
     15          1           0        0.873897    2.560727    1.151361
     16          1           0        0.873897   -2.560727    1.151361
     17          1           0       -0.873897   -2.560727    1.151361
     18          1           0       -0.874400    1.280845   -1.001938
     19          1           0        0.874400    1.280845   -1.001938
     20          1           0        0.874400   -1.280845   -1.001938
     21          1           0       -0.874400   -1.280845   -1.001938
     22          1           0        0.874450   -0.000000    1.153429
     23          1           0       -0.874450    0.000000    1.153429
 ---------------------------------------------------------------------

 SCF Done:  E(RHF) =  -274.744781581     A.U. after    2 cycles

 The electronic state is 1-A1.
 Alpha  occ. eigenvalues --  -11.22216 -11.22209 -11.21978 -11.21968 -11.21943
 Alpha  occ. eigenvalues --  -11.21861 -11.21856  -1.09243  -1.05202  -0.99108
 Alpha  occ. eigenvalues --   -0.91683  -0.83992  -0.79076  -0.78869  -0.66005
 Alpha  occ. eigenvalues --   -0.62715  -0.59986  -0.59202  -0.58025  -0.56129
 Alpha  occ. eigenvalues --   -0.53054  -0.52465  -0.51092  -0.48984  -0.48023
 Alpha  occ. eigenvalues --   -0.46724  -0.46413  -0.46189  -0.44518
 Alpha virt. eigenvalues --    0.03440   0.03445   0.03601   0.04257   0.04944
 Alpha virt. eigenvalues --    0.05355   0.05635   0.06472   0.07533   0.07901
 Alpha virt. eigenvalues --    0.08432   0.08737   0.10533   0.10692   0.11173

 Mulliken charges:
               1
     1  C   -0.393233
     2  C   -0.393233
     3  C   -0.195556
     4  C   -0.195556
     5  C   -0.286649
     6  C   -0.286649
     7  C   -0.170856
     8  H    0.108735
     9  H    0.156745
    10  H    0.156745
    11  H    0.156745
    12  H    0.156745
    13  H    0.108735
    14  H    0.112576
    15  H    0.112576
    16  H    0.112576
    17  H    0.112576
    18  H    0.106237
    19  H    0.106237
    20  H    0.106237
    21  H    0.106237
    22  H    0.101015
    23  H    0.101015
 Sum of Mulliken charges =  -0.00000

 Dipole moment (field-independent basis, Debye):
    X=             -0.0000    Y=              0.0000    Z=              0.0868  Tot=              0.0868

 Test job not archived.
 1\1\GINC-SE176\SP\RHF\Aug-CC-pVDZ\C7H16\OHZDE\05-Apr-2025\0\\#t hf aug
 -cc-pvdz iop(5/13=1,5/36=2,99/5=2) pseudo=read geom=check guess=(read,
 tcheck) scf=(maxcycle=1)\\title\\0,1\C,0,0.,3.833474,-0.352624\C,0,0.,
 -3.833474,-0.352624\C,0,0.,2.560916,0.492939\C,0,0.,-2.560916,0.492939
 \C,0,0.,1.279918,-0.342345\C,0,0.,-1.279918,-0.342345\C,0,0.,0.,0.4941
 21\H,0,0.,4.72844,0.271238\H,0,-0.880595,3.878602,-0.996848\H,0,0.8805
 95,3.878602,-0.996848\H,0,-0.880595,-3.878602,-0.996848\H,0,0.880595,-
 3.878602,-0.996848\H,0,0.,-4.72844,0.271238\H,0,-0.873897,2.560727,1.1

 Normal termination of Gaussian 16 at Sat Apr  5 23:05:10 2025.
