 Gaussian 16, Revision C.01,

 ----------------------------------------------------------------------
 #t hf aug-cc-pvdz symm=none int=(grid=ultrafine) guess=(read,tcheck) s
 table=(opt,rrhf)
 ----------------------------------------------------------------------
 -----
 title
 -----
 Symbolic Z-matrix:
 Charge =  0 Multiplicity = 1

 SCF Done:  E(RHF) =  -348.144382175     A.U. after   13 cycles

 1\1\GINC-SE223\Stability\RHF\Aug-CC-pVDZ\C7H14O1\OHZDE\05-Apr-2025\0\\
 #t hf aug-cc-pvdz symm=none int=(grid=ultrafine) guess=(read,tcheck) s
 table=(opt,rrhf)\\title\\0,1\C,0,2.331625,0.140596,-0.002766\C,0,3.562
 671,-0.742228,0.006967\C,0,-4.097798,-0.269419,-0.00178\C,0,0.990909,-
 0.574254,-0.007194\C,0,-2.775391,0.495292,0.007306\C,0,-0.224164,0.345
 462,0.004932\C,0,-1.548821,-0.417709,-0.003855\O,0,2.419096,1.348033,-
 0.005792\H,0,3.571661,-1.365777,0.903608\H,0,3.553384,-1.419544,-0.849
 424\H,0,4.460036,-0.129875,-0.019314\H,0,-4.18373,-0.919977,0.871115\H

 Normal termination of Gaussian 16 at Sat Apr  5 23:04:19 2025.
 Gaussian 16:  ES64L-G16RevC.01  3-Jul-2019

 ----------------------------------------------------------------------
 #t hf aug-cc-pvdz iop(5/13=1,5/36=2,99/5=2) pseudo=read geom=check gue
 ss=(read,tcheck) scf=(maxcycle=1)
 ----------------------------------------------------------------------
 -----
 title
 -----
 Structure from the checkpoint file:  "heptan-2-one.chk"
 Charge =  0 Multiplicity = 1

                         Standard orientation:
 ---------------------------------------------------------------------
 Center     Atomic      Atomic             Coordinates (Angstroms)
 Number     Number       Type             X           Y           Z
 ---------------------------------------------------------------------
      1          6           0        2.331625    0.140596   -0.002766
      2          6           0        3.562671   -0.742228    0.006967
      3          6           0       -4.097798   -0.269419   -0.001780
      4          6           0        0.990909   -0.574254   -0.007194
      5          6           0       -2.775391    0.495292    0.007306
      6          6           0       -0.224164    0.345462    0.004932
      7          6           0       -1.548821   -0.417709   -0.003855
      8          8           0        2.419096    1.348033   -0.005792
      9          1           0        3.571661   -1.365777    0.903608
     10          1           0        3.553384   -1.419544   -0.849424
     11          1           0        4.460036   -0.129875   -0.019314
     12          1           0       -4.183730   -0.919977    0.871115
     13          1           0       -4.951146    0.409944    0.006808
     14          1           0       -4.184176   -0.898252   -0.890409
     15          1           0        0.972256   -1.232580   -0.883480
     16          1           0        0.975011   -1.253830    0.852590
     17          1           0       -2.733388    1.141611    0.888893
     18          1           0       -2.733543    1.162627   -0.858464
     19          1           0       -0.175148    1.014310   -0.856999
     20          1           0       -0.174496    0.992679    0.883335
     21          1           0       -1.591964   -1.065480   -0.886410
     22          1           0       -1.591700   -1.086565    0.862830
 ---------------------------------------------------------------------

 SCF Done:  E(RHF) =  -348.520505421     A.U. after    2 cycles

 The electronic state is 1-A.
 Alpha  occ. eigenvalues --  -20.53125 -11.33586 -11.24379 -11.24293 -11.22683
 Alpha  occ. eigenvalues --  -11.22659 -11.22555 -11.22157  -1.46610  -1.09629
 Alpha  occ. eigenvalues --   -1.04938  -1.00556  -0.93826  -0.84570  -0.79621
 Alpha  occ. eigenvalues --   -0.74010  -0.66545  -0.65865  -0.63104  -0.62775
 Alpha  occ. eigenvalues --   -0.59045  -0.58963  -0.56659  -0.55414  -0.54483
 Alpha  occ. eigenvalues --   -0.51211  -0.49513  -0.48237  -0.47812  -0.47241
 Alpha  occ. eigenvalues --   -0.46911  -0.40447
 Alpha virt. eigenvalues --    0.02957   0.03520   0.03607   0.04184   0.05049
 Alpha virt. eigenvalues --    0.05360   0.05918   0.06910   0.07690   0.07810
 Alpha virt. eigenvalues --    0.08131   0.10349   0.10491   0.10716   0.11695

 Mulliken charges:
               1
     1  C    1.351552
     2  C   -0.597254
     3  C   -0.375343
     4  C   -0.647348
     5  C   -0.200305
     6  C   -0.033142
     7  C   -0.285832
     8  O   -1.400238
     9  H    0.251716
    10  H    0.247825
    11  H    0.135773
    12  H    0.155849
    13  H    0.111769
    14  H    0.155780
    15  H    0.234606
    16  H    0.232560
    17  H    0.112062
    18  H    0.112332
    19  H    0.119632
    20  H    0.116784
    21  H    0.100888
    22  H    0.100333
 Sum of Mulliken charges =  -0.00000

 Dipole moment (field-independent basis, Debye):
    X=             -0.3883    Y=             -2.9144    Z=              0.0107  Tot=              2.9402

 Test job not archived.
 1\1\GINC-SE223\SP\RHF\Aug-CC-pVDZ\C7H14O1\OHZDE\05-Apr-2025\0\\#t hf a
 ug-cc-pvdz iop(5/13=1,5/36=2,99/5=2) pseudo=read geom=check guess=(rea
 d,tcheck) scf=(maxcycle=1)\\title\\0,1\C,0,2.331625,0.140596,-0.002766
 \C,0,3.562671,-0.742228,0.006967\C,0,-4.097798,-0.269419,-0.00178\C,0,
 0.990909,-0.574254,-0.007194\C,0,-2.775391,0.495292,0.007306\C,0,-0.22
 4164,0.345462,0.004932\C,0,-1.548821,-0.417709,-0.003855\O,0,2.419096,
 1.348033,-0.005792\H,0,3.571661,-1.365777,0.903608\H,0,3.553384,-1.419
 544,-0.849424\H,0,4.460036,-0.129875,-0.019314\H,0,-4.18373,-0.919977,

 Normal termination of Gaussian 16 at Sat Apr  5 23:04:56 2025.
