 Gaussian 16, Revision C.01,

 ----------------------------------------------------------------------
 #t hf aug-cc-pvdz symm=none int=(grid=ultrafine) guess=(read,tcheck) s
 table=(opt,rrhf)
 ----------------------------------------------------------------------
 -----
 title
 -----
 Symbolic Z-matrix:
 Charge =  0 Multiplicity = 1

 SCF Done:  E(RHF) =  -460.197887758     A.U. after   16 cycles
 Normal termination of Gaussian 16 at Sat Apr  5 23:07:00 2025.
 Gaussian 16:  ES64L-G16RevC.01  3-Jul-2019

 ----------------------------------------------------------------------
 #t hf aug-cc-pvdz iop(5/13=1,5/36=2,99/5=2) pseudo=read geom=check gue
 ss=(read,tcheck) scf=(maxcycle=1)
 ----------------------------------------------------------------------
 -----
 title
 -----
 Structure from the checkpoint file:  "heptalene.chk"
 Charge =  0 Multiplicity = 1

                         Standard orientation:
 ---------------------------------------------------------------------
 Center     Atomic      Atomic             Coordinates (Angstroms)
 Number     Number       Type             X           Y           Z
 ---------------------------------------------------------------------
      1          6           0        1.510583    1.057959   -0.207635
      2          6           0        1.131202    2.378179   -0.627087
      3          6           0       -0.031282    3.021695   -0.376287
      4          6           0       -1.131202    2.495684    0.390765
      5          6           0       -1.415623    1.207590    0.659413
      6          6           0       -0.736352    0.000021    0.155956
      7          6           0        0.736352   -0.000021    0.155956
      8          6           0        1.415623   -1.207590    0.659413
      9          6           0        1.131202   -2.495684    0.390765
     10          6           0        0.031282   -3.021695   -0.376287
     11          6           0       -1.131202   -2.378179   -0.627087
     12          6           0       -1.510583   -1.057959   -0.207635
     13          1           0        2.580111    0.874669   -0.203910
     14          1           0        1.905624    2.939917   -1.136925
     15          1           0       -0.119386    4.051335   -0.699854
     16          1           0       -1.817588    3.233906    0.791454
     17          1           0       -2.284527    1.012644    1.278492
     18          1           0        2.284527   -1.012644    1.278492
     19          1           0        1.817588   -3.233906    0.791454
     20          1           0        0.119386   -4.051335   -0.699854
     21          1           0       -1.905624   -2.939917   -1.136925
     22          1           0       -2.580111   -0.874669   -0.203910
 ---------------------------------------------------------------------

 SCF Done:  E(RHF) =  -460.669834796     A.U. after    2 cycles

 The electronic state is 1-A.
 Alpha  occ. eigenvalues --  -11.26549 -11.26496 -11.24905 -11.24898 -11.24842
 Alpha  occ. eigenvalues --  -11.24839 -11.24750 -11.24748 -11.24222 -11.24218
 Alpha  occ. eigenvalues --  -11.23832 -11.23821  -1.16291  -1.11088  -1.07528
 Alpha  occ. eigenvalues --   -1.05465  -1.02449  -0.94775  -0.90373  -0.86992
 Alpha  occ. eigenvalues --   -0.81385  -0.74977  -0.74047  -0.71356  -0.68004
 Alpha  occ. eigenvalues --   -0.67418  -0.63349  -0.62714  -0.60386  -0.59155
 Alpha  occ. eigenvalues --   -0.56558  -0.53608  -0.53414  -0.52133  -0.48718
 Alpha  occ. eigenvalues --   -0.48374  -0.46153  -0.40471  -0.37716  -0.35025
 Alpha  occ. eigenvalues --   -0.25730
 Alpha virt. eigenvalues --    0.03247   0.03401   0.03502   0.03986   0.04436
 Alpha virt. eigenvalues --    0.04445   0.05707   0.05885   0.06085   0.07696
 Alpha virt. eigenvalues --    0.07895   0.08470   0.10147   0.10637   0.11136

 Mulliken charges:
               1
     1  C   -0.305093
     2  C   -0.025414
     3  C   -0.277986
     4  C    0.386667
     5  C   -0.240494
     6  C    1.858376
     7  C    1.858376
     8  C   -0.240494
     9  C    0.386667
    10  C   -0.277986
    11  C   -0.025414
    12  C   -0.305093
    13  H   -0.302252
    14  H   -0.263986
    15  H   -0.248499
    16  H   -0.252238
    17  H   -0.329080
    18  H   -0.329080
    19  H   -0.252238
    20  H   -0.248499
    21  H   -0.263986
    22  H   -0.302252
 Sum of Mulliken charges =  -0.00000

 Dipole moment (field-independent basis, Debye):
    X=             -0.0000    Y=             -0.0000    Z=              0.1834  Tot=              0.1834

 Test job not archived.
 1\1\GINC-SE196\SP\RHF\Aug-CC-pVDZ\C12H10\OHZDE\05-Apr-2025\0\\#t hf au
 g-cc-pvdz iop(5/13=1,5/36=2,99/5=2) pseudo=read geom=check guess=(read
 ,tcheck) scf=(maxcycle=1)\\title\\0,1\C,0,1.510583,1.057959,-0.207635\
 C,0,1.131202,2.378179,-0.627087\C,0,-0.031282,3.021695,-0.376287\C,0,-
 1.131202,2.495684,0.390765\C,0,-1.415623,1.20759,0.659413\C,0,-0.73635
 2,0.000021,0.155956\C,0,0.736352,-0.000021,0.155956\C,0,1.415623,-1.20
 759,0.659413\C,0,1.131202,-2.495684,0.390765\C,0,0.031282,-3.021695,-0
 .376287\C,0,-1.131202,-2.378179,-0.627087\C,0,-1.510583,-1.057959,-0.2

 Normal termination of Gaussian 16 at Sat Apr  5 23:07:34 2025.
