 Gaussian 16, Revision C.01,

 ----------------------------------------------------------------------
 #t hf aug-cc-pvdz symm=none int=(grid=ultrafine) guess=(read,tcheck) s
 table=(opt,rrhf)
 ----------------------------------------------------------------------
 -----
 title
 -----
 Symbolic Z-matrix:
 Charge =  0 Multiplicity = 1

 SCF Done:  E(RHF) =  -348.133716155     A.U. after   13 cycles

 1\1\GINC-SE107\Stability\RHF\Aug-CC-pVDZ\C7H14O1\OHZDE\05-Apr-2025\0\\
 #t hf aug-cc-pvdz symm=none int=(grid=ultrafine) guess=(read,tcheck) s
 table=(opt,rrhf)\\title\\0,1\C,0,2.934907,-1.847531,0.\C,0,-3.741441,1
 .922109,0.\C,0,2.204069,-0.532137,0.\C,0,-2.216713,2.017532,0.\C,0,0.6
 83613,-0.629266,0.\C,0,-1.526489,0.65337,0.\C,0,0.,0.738127,0.\O,0,2.4
 12916,-2.933644,0.\H,0,4.042127,-1.761298,0.\H,0,-4.203476,2.910263,0.
 \H,0,-4.102888,1.387142,0.88065\H,0,-4.102888,1.387142,-0.88065\H,0,2.
 570407,0.032064,0.867377\H,0,2.570407,0.032064,-0.867377\H,0,-1.88739,

 Normal termination of Gaussian 16 at Sat Apr  5 23:03:36 2025.
 Gaussian 16:  ES64L-G16RevC.01  3-Jul-2019

 ----------------------------------------------------------------------
 #t hf aug-cc-pvdz iop(5/13=1,5/36=2,99/5=2) pseudo=read geom=check gue
 ss=(read,tcheck) scf=(maxcycle=1)
 ----------------------------------------------------------------------
 -----
 title
 -----
 Structure from the checkpoint file:  "heptanal.chk"
 Charge =  0 Multiplicity = 1

                         Standard orientation:
 ---------------------------------------------------------------------
 Center     Atomic      Atomic             Coordinates (Angstroms)
 Number     Number       Type             X           Y           Z
 ---------------------------------------------------------------------
      1          6           0        2.934907   -1.847531    0.000000
      2          6           0       -3.741441    1.922109    0.000000
      3          6           0        2.204069   -0.532137    0.000000
      4          6           0       -2.216713    2.017532    0.000000
      5          6           0        0.683613   -0.629266    0.000000
      6          6           0       -1.526489    0.653370    0.000000
      7          6           0        0.000000    0.738127    0.000000
      8          8           0        2.412916   -2.933644    0.000000
      9          1           0        4.042127   -1.761298    0.000000
     10          1           0       -4.203476    2.910263    0.000000
     11          1           0       -4.102888    1.387142    0.880650
     12          1           0       -4.102888    1.387142   -0.880650
     13          1           0        2.570407    0.032064    0.867377
     14          1           0        2.570407    0.032064   -0.867377
     15          1           0       -1.887390    2.587509    0.874110
     16          1           0       -1.887390    2.587509   -0.874110
     17          1           0        0.362464   -1.205426   -0.870679
     18          1           0        0.362464   -1.205426    0.870679
     19          1           0       -1.856331    0.082600    0.874379
     20          1           0       -1.856331    0.082600   -0.874379
     21          1           0        0.328909    1.309595   -0.874725
     22          1           0        0.328909    1.309595    0.874725
 ---------------------------------------------------------------------

 SCF Done:  E(RHF) =  -348.509469378     A.U. after    2 cycles

 The electronic state is 1-A'.
 Alpha  occ. eigenvalues --  -20.54497 -11.34060 -11.24994 -11.23205 -11.23009
 Alpha  occ. eigenvalues --  -11.22684 -11.22547 -11.22186  -1.47611  -1.10249
 Alpha  occ. eigenvalues --   -1.05946  -0.99326  -0.91232  -0.83372  -0.79642
 Alpha  occ. eigenvalues --   -0.77511  -0.68048  -0.66953  -0.63581  -0.63421
 Alpha  occ. eigenvalues --   -0.59583  -0.58317  -0.56519  -0.54415  -0.53030
 Alpha  occ. eigenvalues --   -0.50173  -0.49916  -0.48106  -0.47574  -0.46948
 Alpha  occ. eigenvalues --   -0.46884  -0.41310
 Alpha virt. eigenvalues --    0.02924   0.03446   0.03468   0.04128   0.04750
 Alpha virt. eigenvalues --    0.05548   0.06164   0.06662   0.07231   0.08151
 Alpha virt. eigenvalues --    0.08861   0.09769   0.10377   0.10453   0.11767

 Mulliken charges:
               1
     1  C    1.085632
     2  C   -0.394324
     3  C   -0.479965
     4  C   -0.176688
     5  C   -0.161414
     6  C   -0.323495
     7  C   -0.154762
     8  O   -1.161703
     9  H    0.099577
    10  H    0.109762
    11  H    0.158563
    12  H    0.158563
    13  H    0.197079
    14  H    0.197079
    15  H    0.111628
    16  H    0.111628
    17  H    0.110762
    18  H    0.110762
    19  H    0.105096
    20  H    0.105096
    21  H    0.095561
    22  H    0.095561
 Sum of Mulliken charges =  -0.00000

 Dipole moment (field-independent basis, Debye):
    X=              0.5757    Y=              2.8947    Z=             -0.0000  Tot=              2.9514

 Test job not archived.
 1\1\GINC-SE107\SP\RHF\Aug-CC-pVDZ\C7H14O1\OHZDE\05-Apr-2025\0\\#t hf a
 ug-cc-pvdz iop(5/13=1,5/36=2,99/5=2) pseudo=read geom=check guess=(rea
 d,tcheck) scf=(maxcycle=1)\\title\\0,1\C,0,2.934907,-1.847531,0.\C,0,-
 3.741441,1.922109,0.\C,0,2.204069,-0.532137,0.\C,0,-2.216713,2.017532,
 0.\C,0,0.683613,-0.629266,0.\C,0,-1.526489,0.65337,0.\C,0,0.,0.738127,
 0.\O,0,2.412916,-2.933644,0.\H,0,4.042127,-1.761298,0.\H,0,-4.203476,2
 .910263,0.\H,0,-4.102888,1.387142,0.88065\H,0,-4.102888,1.387142,-0.88
 065\H,0,2.570407,0.032064,0.867377\H,0,2.570407,0.032064,-0.867377\H,0

 Normal termination of Gaussian 16 at Sat Apr  5 23:03:46 2025.
