 Gaussian 16, Revision C.01,

 ----------------------------------------------------------------------
 #t hf aug-cc-pvdz symm=none int=(grid=ultrafine) guess=(read,tcheck) s
 table=(opt,rrhf)
 ----------------------------------------------------------------------
 -----
 title
 -----
 Symbolic Z-matrix:
 Charge =  0 Multiplicity = 1

 SCF Done:  E(RHF) =  -364.168125505     A.U. after   13 cycles
 Normal termination of Gaussian 16 at Sat Apr  5 23:04:14 2025.
 Gaussian 16:  ES64L-G16RevC.01  3-Jul-2019

 ----------------------------------------------------------------------
 #t hf aug-cc-pvdz iop(5/13=1,5/36=2,99/5=2) pseudo=read geom=check gue
 ss=(read,tcheck) scf=(maxcycle=1)
 ----------------------------------------------------------------------
 -----
 title
 -----
 Structure from the checkpoint file:  "hexanamide.chk"
 Charge =  0 Multiplicity = 1

                         Standard orientation:
 ---------------------------------------------------------------------
 Center     Atomic      Atomic             Coordinates (Angstroms)
 Number     Number       Type             X           Y           Z
 ---------------------------------------------------------------------
      1          6           0       -2.341682    0.111370    0.062323
      2          6           0        4.074930   -0.182147    0.064954
      3          6           0       -1.005389   -0.584989    0.280499
      4          6           0        2.730567    0.451968   -0.287379
      5          6           0        0.185855    0.257397   -0.174608
      6          6           0        1.531563   -0.380318    0.168545
      7          7           0       -3.379576   -0.706845   -0.277643
      8          8           0       -2.490867    1.311718    0.200335
      9          1           0        4.179038   -0.312677    1.144121
     10          1           0        4.907792    0.434652   -0.275258
     11          1           0        4.181268   -1.165989   -0.397058
     12          1           0       -0.928223   -0.779637    1.355244
     13          1           0       -0.998311   -1.560235   -0.212711
     14          1           0        2.671429    0.604297   -1.369128
     15          1           0        2.667243    1.447267    0.161800
     16          1           0        0.120409    0.418511   -1.254432
     17          1           0        0.107976    1.243573    0.284716
     18          1           0        1.592586   -0.535216    1.251266
     19          1           0        1.594355   -1.376608   -0.283106
     20          1           0       -4.296353   -0.304735   -0.373362
     21          1           0       -3.270304   -1.698720   -0.377277
 ---------------------------------------------------------------------

 SCF Done:  E(RHF) =  -364.556611274     A.U. after    2 cycles

 The electronic state is 1-A.
 Alpha  occ. eigenvalues --  -20.50344 -15.52659 -11.35587 -11.24682 -11.22840
 Alpha  occ. eigenvalues --  -11.22697 -11.22566 -11.22155  -1.45300  -1.22063
 Alpha  occ. eigenvalues --   -1.09393  -1.03584  -0.95094  -0.86143  -0.81201
 Alpha  occ. eigenvalues --   -0.79537  -0.75266  -0.68429  -0.66024  -0.62376
 Alpha  occ. eigenvalues --   -0.60757  -0.58708  -0.57801  -0.56430  -0.53658
 Alpha  occ. eigenvalues --   -0.51260  -0.48981  -0.47922  -0.47201  -0.46967
 Alpha  occ. eigenvalues --   -0.43224  -0.41686
 Alpha virt. eigenvalues --    0.02537   0.03695   0.03771   0.04120   0.05366
 Alpha virt. eigenvalues --    0.05762   0.06364   0.07015   0.07644   0.08053
 Alpha virt. eigenvalues --    0.09716   0.10174   0.10535   0.11175   0.12811

 Mulliken charges:
               1
     1  C    0.498893
     2  C   -0.375666
     3  C   -0.488574
     4  C   -0.158996
     5  C   -0.122703
     6  C   -0.262234
     7  N    0.729059
     8  O   -1.345298
     9  H    0.158501
    10  H    0.112636
    11  H    0.152629
    12  H    0.247203
    13  H    0.104512
    14  H    0.109959
    15  H    0.116507
    16  H    0.101400
    17  H    0.124681
    18  H    0.089859
    19  H    0.091885
    20  H    0.082691
    21  H    0.033055
 Sum of Mulliken charges =  -0.00000

 Dipole moment (field-independent basis, Debye):
    X=              0.1444    Y=             -3.5955    Z=             -0.4433  Tot=              3.6256

 Test job not archived.
 1\1\GINC-SE214\SP\RHF\Aug-CC-pVDZ\C6H13N1O1\OHZDE\05-Apr-2025\0\\#t hf
  aug-cc-pvdz iop(5/13=1,5/36=2,99/5=2) pseudo=read geom=check guess=(r
 ead,tcheck) scf=(maxcycle=1)\\title\\0,1\C,0,-2.341682,0.11137,0.06232
 3\C,0,4.07493,-0.182147,0.064954\C,0,-1.005389,-0.584989,0.280499\C,0,
 2.730567,0.451968,-0.287379\C,0,0.185855,0.257397,-0.174608\C,0,1.5315
 63,-0.380318,0.168545\N,0,-3.379576,-0.706845,-0.277643\O,0,-2.490867,
 1.311718,0.200335\H,0,4.179038,-0.312677,1.144121\H,0,4.907792,0.43465
 2,-0.275258\H,0,4.181268,-1.165989,-0.397058\H,0,-0.928223,-0.779637,1

 Normal termination of Gaussian 16 at Sat Apr  5 23:04:55 2025.
