 Gaussian 16, Revision C.01,

 ----------------------------------------------------------------------
 #t hf aug-cc-pvdz symm=none int=(grid=ultrafine) guess=(read,tcheck) s
 table=(opt,rrhf)
 ----------------------------------------------------------------------
 -----
 title
 -----
 Symbolic Z-matrix:
 Charge =  0 Multiplicity = 1

 SCF Done:  E(RHF) =  -230.623938769     A.U. after   15 cycles
 Normal termination of Gaussian 16 at Sat Apr  5 23:03:16 2025.
 Gaussian 16:  ES64L-G16RevC.01  3-Jul-2019

 ----------------------------------------------------------------------
 #t hf aug-cc-pvdz iop(5/13=1,5/36=2,99/5=2) pseudo=read geom=check gue
 ss=(read,tcheck) scf=(maxcycle=1)
 ----------------------------------------------------------------------
 -----
 title
 -----
 Structure from the checkpoint file:  "hexa-1-3-diene-5-yne.chk"
 Charge =  0 Multiplicity = 1

                         Standard orientation:
 ---------------------------------------------------------------------
 Center     Atomic      Atomic             Coordinates (Angstroms)
 Number     Number       Type             X           Y           Z
 ---------------------------------------------------------------------
      1          6           0        3.128267   -0.342469   -0.000004
      2          6           0        1.993557    0.059429   -0.000007
      3          6           0        0.675269    0.570452   -0.000011
      4          6           0       -0.435926   -0.189337    0.000004
      5          6           0       -1.776186    0.350545    0.000000
      6          6           0       -2.884737   -0.395944    0.000015
      7          1           0        4.125512   -0.705141   -0.000001
      8          1           0        0.578120    1.651724   -0.000027
      9          1           0       -0.335274   -1.269130    0.000020
     10          1           0       -1.864320    1.432522   -0.000016
     11          1           0       -2.837239   -1.477747    0.000031
     12          1           0       -3.868261    0.051719    0.000011
 ---------------------------------------------------------------------

 SCF Done:  E(RHF) =  -230.864605706     A.U. after    2 cycles

 The electronic state is 1-A.
 Alpha  occ. eigenvalues --  -11.26691 -11.26357 -11.25596 -11.25031 -11.24866
 Alpha  occ. eigenvalues --  -11.24060  -1.12166  -1.05780  -0.99866  -0.87189
 Alpha  occ. eigenvalues --   -0.78053  -0.73708  -0.69027  -0.66891  -0.59948
 Alpha  occ. eigenvalues --   -0.57829  -0.52234  -0.49313  -0.42342  -0.40609
 Alpha  occ. eigenvalues --   -0.32047
 Alpha virt. eigenvalues --    0.03486   0.03747   0.03831   0.05003   0.06026
 Alpha virt. eigenvalues --    0.06443   0.07734   0.10243   0.11050   0.11064
 Alpha virt. eigenvalues --    0.11678   0.12833   0.12868   0.13866   0.14726

 Mulliken charges:
               1
     1  C    0.078741
     2  C    0.235755
     3  C    0.077586
     4  C    0.583793
     5  C    0.483751
     6  C   -0.207588
     7  H   -0.369811
     8  H   -0.217783
     9  H   -0.211944
    10  H   -0.225025
    11  H   -0.088648
    12  H   -0.138828
 Sum of Mulliken charges =  -0.00000

 Dipole moment (field-independent basis, Debye):
    X=             -0.8455    Y=             -0.0442    Z=              0.0000  Tot=              0.8466

 Test job not archived.
 1\1\GINC-SE198\SP\RHF\Aug-CC-pVDZ\C6H6\OHZDE\05-Apr-2025\0\\#t hf aug-
 cc-pvdz iop(5/13=1,5/36=2,99/5=2) pseudo=read geom=check guess=(read,t
 check) scf=(maxcycle=1)\\title\\0,1\C,0,3.128267,-0.342469,-0.000004\C
 ,0,1.993557,0.059429,-0.000007\C,0,0.675269,0.570452,-0.000011\C,0,-0.
 435926,-0.189337,0.000004\C,0,-1.776186,0.350545,0.\C,0,-2.884737,-0.3
 95944,0.000015\H,0,4.125512,-0.705141,-0.000001\H,0,0.57812,1.651724,-
 0.000027\H,0,-0.335274,-1.26913,0.00002\H,0,-1.86432,1.432522,-0.00001
 6\H,0,-2.837239,-1.477747,0.000031\H,0,-3.868261,0.051719,0.000011\\Ve

 Normal termination of Gaussian 16 at Sat Apr  5 23:03:41 2025.
