 Gaussian 16, Revision C.01,

 ----------------------------------------------------------------------
 #t hf aug-cc-pvdz symm=none int=(grid=ultrafine) guess=(read,tcheck) s
 table=(opt,rrhf)
 ----------------------------------------------------------------------
 -----
 title
 -----
 Symbolic Z-matrix:
 Charge =  0 Multiplicity = 1

 SCF Done:  E(RHF) =  -339.971246630     A.U. after   12 cycles
 Normal termination of Gaussian 16 at Sat Apr  5 23:03:46 2025.
 Gaussian 16:  ES64L-G16RevC.01  3-Jul-2019

 ----------------------------------------------------------------------
 #t hf aug-cc-pvdz iop(5/13=1,5/36=2,99/5=2) pseudo=read geom=check gue
 ss=(read,tcheck) scf=(maxcycle=1)
 ----------------------------------------------------------------------
 -----
 title
 -----
 Structure from the checkpoint file:  "hexahydropyrimidin-2-one.chk"
 Charge =  0 Multiplicity = 1

                         Standard orientation:
 ---------------------------------------------------------------------
 Center     Atomic      Atomic             Coordinates (Angstroms)
 Number     Number       Type             X           Y           Z
 ---------------------------------------------------------------------
      1          6           0       -0.164367    1.106122    0.000000
      2          6           0        0.630174   -1.644396   -0.000000
      3          6           0       -0.028352   -1.065946    1.246291
      4          6           0       -0.028352   -1.065946   -1.246291
      5          7           0       -0.028352    0.386872    1.163911
      6          7           0       -0.028352    0.386872   -1.163911
      7          8           0       -0.348128    2.315601    0.000000
      8          1           0        1.692401   -1.394346   -0.000000
      9          1           0        0.538186   -2.730567   -0.000000
     10          1           0       -1.047815   -1.460098    1.343027
     11          1           0        0.519860   -1.364705    2.140522
     12          1           0        0.519860   -1.364705   -2.140522
     13          1           0       -1.047815   -1.460098   -1.343027
     14          1           0       -0.223673    0.927248    1.988963
     15          1           0       -0.223673    0.927248   -1.988963
 ---------------------------------------------------------------------

 SCF Done:  E(RHF) =  -340.323158009     A.U. after    2 cycles

 The electronic state is 1-A'.
 Alpha  occ. eigenvalues --  -20.48352 -15.51511 -15.51394 -11.37117 -11.28525
 Alpha  occ. eigenvalues --  -11.28500 -11.25146  -1.44385  -1.26621  -1.20023
 Alpha  occ. eigenvalues --   -1.07108  -0.95222  -0.89552  -0.80355  -0.72371
 Alpha  occ. eigenvalues --   -0.71595  -0.67828  -0.67003  -0.62570  -0.60778
 Alpha  occ. eigenvalues --   -0.60357  -0.54774  -0.51402  -0.51171  -0.43402
 Alpha  occ. eigenvalues --   -0.41974  -0.40222
 Alpha virt. eigenvalues --    0.03042   0.03603   0.03882   0.04001   0.05667
 Alpha virt. eigenvalues --    0.05765   0.06193   0.07753   0.10707   0.12392
 Alpha virt. eigenvalues --    0.12773   0.13015   0.13823   0.14095   0.14400

 Mulliken charges:
               1
     1  C    0.021203
     2  C   -0.336740
     3  C   -0.312717
     4  C   -0.312717
     5  N    0.580553
     6  N    0.580553
     7  O   -1.226214
     8  H    0.125585
     9  H    0.186160
    10  H    0.075181
    11  H    0.076533
    12  H    0.076533
    13  H    0.075181
    14  H    0.195454
    15  H    0.195454
 Sum of Mulliken charges =  -0.00000

 Dipole moment (field-independent basis, Debye):
    X=              0.0632    Y=             -5.0122    Z=             -0.0000  Tot=              5.0126

 Test job not archived.
 1\1\GINC-SE046\SP\RHF\Aug-CC-pVDZ\C4H8N2O1\OHZDE\05-Apr-2025\0\\#t hf
 aug-cc-pvdz iop(5/13=1,5/36=2,99/5=2) pseudo=read geom=check guess=(re
 ad,tcheck) scf=(maxcycle=1)\\title\\0,1\C,0,-0.164367,1.106122,0.\C,0,
 0.630174,-1.644396,0.\C,0,-0.028352,-1.065946,1.246291\C,0,-0.028352,-
 1.065946,-1.246291\N,0,-0.028352,0.386872,1.163911\N,0,-0.028352,0.386
 872,-1.163911\O,0,-0.348128,2.315601,0.\H,0,1.692401,-1.394346,0.\H,0,
 0.538186,-2.730567,0.\H,0,-1.047815,-1.460098,1.343027\H,0,0.51986,-1.
 364705,2.140522\H,0,0.51986,-1.364705,-2.140522\H,0,-1.047815,-1.46009

 Normal termination of Gaussian 16 at Sat Apr  5 23:04:13 2025.
