 Gaussian 16, Revision C.01,

 ----------------------------------------------------------------------
 #t hf aug-cc-pvdz symm=none int=(grid=ultrafine) guess=(read,tcheck) s
 table=(opt,rrhf)
 ----------------------------------------------------------------------
 -----
 title
 -----
 Symbolic Z-matrix:
 Charge =  0 Multiplicity = 1

 SCF Done:  E(RHF) =  -235.389619149     A.U. after   11 cycles
 Normal termination of Gaussian 16 at Sat Apr  5 23:03:50 2025.
 Gaussian 16:  ES64L-G16RevC.01  3-Jul-2019

 ----------------------------------------------------------------------
 #t hf aug-cc-pvdz iop(5/13=1,5/36=2,99/5=2) pseudo=read geom=check gue
 ss=(read,tcheck) scf=(maxcycle=1)
 ----------------------------------------------------------------------
 -----
 title
 -----
 Structure from the checkpoint file:  "hexane.chk"
 Charge =  0 Multiplicity = 1

                         Standard orientation:
 ---------------------------------------------------------------------
 Center     Atomic      Atomic             Coordinates (Angstroms)
 Number     Number       Type             X           Y           Z
 ---------------------------------------------------------------------
      1          6           0        1.752978    0.132983    0.595759
      2          6           0        2.270241   -1.006545   -0.282683
      3          6           0        0.797724    1.099291   -0.117681
      4          6           0       -0.524607    0.497784   -0.611141
      5          6           0       -1.447868   -0.017439    0.494787
      6          6           0       -2.787022   -0.527764   -0.035684
      7          1           0       -2.645338   -1.354700   -0.734820
      8          1           0        2.766819   -0.619752   -1.175521
      9          1           0       -3.427267   -0.884472    0.772434
     10          1           0        2.992417   -1.620604    0.257299
     11          1           0        1.465980   -1.665190   -0.613039
     12          1           0       -3.327819    0.259908   -0.564432
     13          1           0        1.267957   -0.282455    1.482703
     14          1           0       -0.954091   -0.819080    1.049556
     15          1           0        2.605211    0.708606    0.966413
     16          1           0       -1.624471    0.786112    1.216882
     17          1           0        0.573150    1.931568    0.556617
     18          1           0        1.322016    1.537463   -0.972764
     19          1           0       -0.325283   -0.311677   -1.319828
     20          1           0       -1.057960    1.264417   -1.181643
 ---------------------------------------------------------------------

 SCF Done:  E(RHF) =  -235.659052549     A.U. after    2 cycles

 The electronic state is 1-A.
 Alpha  occ. eigenvalues --  -11.22190 -11.22165 -11.22062 -11.21931 -11.21865
 Alpha  occ. eigenvalues --  -11.21818  -1.08825  -1.03327  -0.95980  -0.88054
 Alpha  occ. eigenvalues --   -0.82016  -0.76234  -0.64785  -0.62918  -0.59927
 Alpha  occ. eigenvalues --   -0.58701  -0.56259  -0.54028  -0.53395  -0.50083
 Alpha  occ. eigenvalues --   -0.49412  -0.48164  -0.45895  -0.45473  -0.44953
 Alpha virt. eigenvalues --    0.03467   0.03529   0.03780   0.04155   0.05867
 Alpha virt. eigenvalues --    0.05984   0.06036   0.06585   0.07144   0.08799
 Alpha virt. eigenvalues --    0.09180   0.09484   0.09652   0.11504   0.13507

 Mulliken charges:
               1
     1  C   -0.323452
     2  C   -0.300760
     3  C   -0.262943
     4  C   -0.286550
     5  C   -0.285661
     6  C   -0.356702
     7  H    0.168251
     8  H    0.154343
     9  H    0.111982
    10  H    0.096981
    11  H    0.130731
    12  H    0.167204
    13  H    0.154883
    14  H    0.101513
    15  H    0.114994
    16  H    0.111252
    17  H    0.123738
    18  H    0.125445
    19  H    0.130712
    20  H    0.124041
 Sum of Mulliken charges =  -0.00000

 Dipole moment (field-independent basis, Debye):
    X=              0.0459    Y=              0.0670    Z=              0.0778  Tot=              0.1125

 Test job not archived.
 1\1\GINC-SE214\SP\RHF\Aug-CC-pVDZ\C6H14\OHZDE\05-Apr-2025\0\\#t hf aug
 -cc-pvdz iop(5/13=1,5/36=2,99/5=2) pseudo=read geom=check guess=(read,
 tcheck) scf=(maxcycle=1)\\title\\0,1\C,0,1.752978,0.132983,0.595759\C,
 0,2.270241,-1.006545,-0.282683\C,0,0.797724,1.099291,-0.117681\C,0,-0.
 524607,0.497784,-0.611141\C,0,-1.447868,-0.017439,0.494787\C,0,-2.7870
 22,-0.527764,-0.035684\H,0,-2.645338,-1.3547,-0.73482\H,0,2.766819,-0.
 619752,-1.175521\H,0,-3.427267,-0.884472,0.772434\H,0,2.992417,-1.6206
 04,0.257299\H,0,1.46598,-1.66519,-0.613039\H,0,-3.327819,0.259908,-0.5

 Normal termination of Gaussian 16 at Sat Apr  5 23:04:16 2025.
