 Gaussian 16, Revision C.01,

 ----------------------------------------------------------------------
 #t hf aug-cc-pvdz symm=none int=(grid=ultrafine) guess=(read,tcheck) s
 table=(opt,rrhf)
 ----------------------------------------------------------------------
 -----
 title
 -----
 Symbolic Z-matrix:
 Charge =  0 Multiplicity = 1

 SCF Done:  E(RHF) =  -228.196578938     A.U. after   12 cycles
 Normal termination of Gaussian 16 at Sat Apr  5 23:03:43 2025.
 Gaussian 16:  ES64L-G16RevC.01  3-Jul-2019

 ----------------------------------------------------------------------
 #t hf aug-cc-pvdz iop(5/13=1,5/36=2,99/5=2) pseudo=read geom=check gue
 ss=(read,tcheck) scf=(maxcycle=1)
 ----------------------------------------------------------------------
 -----
 title
 -----
 Structure from the checkpoint file:  "hexatriyne.chk"
 Charge =  0 Multiplicity = 1

                         Standard orientation:
 ---------------------------------------------------------------------
 Center     Atomic      Atomic             Coordinates (Angstroms)
 Number     Number       Type             X           Y           Z
 ---------------------------------------------------------------------
      1          6           0       -0.000000    0.607495    0.000000
      2          6           0       -0.022300   -0.607096   -0.000000
      3          6           0        0.032288    1.961729    0.000000
      4          6           0       -0.037787   -1.961626   -0.000000
      5          6           0        0.067261    3.167962    0.000000
      6          6           0       -0.047216   -3.168328   -0.000000
      7          1           0        0.098665    4.228824    0.000000
      8          1           0       -0.052142   -4.229643   -0.000000
 ---------------------------------------------------------------------

 SCF Done:  E(RHF) =  -228.423619928     A.U. after    2 cycles

 The electronic state is 1-A'.
 Alpha  occ. eigenvalues --  -11.29161 -11.28839 -11.28164 -11.28163 -11.27691
 Alpha  occ. eigenvalues --  -11.27683  -1.11918  -1.07604  -1.02553  -0.90120
 Alpha  occ. eigenvalues --   -0.82613  -0.73989  -0.73247  -0.53580  -0.53580
 Alpha  occ. eigenvalues --   -0.46171  -0.46171  -0.35915  -0.35915
 Alpha virt. eigenvalues --    0.03099   0.03327   0.05200   0.05200   0.06985
 Alpha virt. eigenvalues --    0.09053   0.10066   0.10067   0.11325   0.11325
 Alpha virt. eigenvalues --    0.13146   0.13432   0.13434   0.14569   0.15825

 Mulliken charges:
               1
     1  C    1.365365
     2  C    1.365326
     3  C    0.209293
     4  C    0.208664
     5  C   -0.914513
     6  C   -0.913814
     7  H   -0.660155
     8  H   -0.660167
 Sum of Mulliken charges =   0.00000

 Dipole moment (field-independent basis, Debye):
    X=              0.0355    Y=             -0.0006    Z=              0.0000  Tot=              0.0355

 Test job not archived.
 1\1\GINC-SE152\SP\RHF\Aug-CC-pVDZ\C6H2\OHZDE\05-Apr-2025\0\\#t hf aug-
 cc-pvdz iop(5/13=1,5/36=2,99/5=2) pseudo=read geom=check guess=(read,t
 check) scf=(maxcycle=1)\\title\\0,1\C,0,0.,0.607495,0.\C,0,-0.0223,-0.
 607096,0.\C,0,0.032288,1.961729,0.\C,0,-0.037787,-1.961626,0.\C,0,0.06
 7261,3.167962,0.\C,0,-0.047216,-3.168328,0.\H,0,0.098665,4.228824,0.\H
 ,0,-0.052142,-4.229643,0.\\Version=ES64L-G16RevC.01\State=1-A'\HF=-228
 .4236199\RMSD=1.288e-01\Dipole=0.013969,-0.0002172,0.\Quadrupole=-5.69
 54633,11.3973248,-5.7018615,0.3027922,0.,0.\PG=CS [SG(C6H2)]\\@

 Normal termination of Gaussian 16 at Sat Apr  5 23:04:12 2025.
