 Gaussian 16, Revision C.01,

 ----------------------------------------------------------------------
 #t hf aug-cc-pvdz symm=none int=(grid=ultrafine) guess=(read,tcheck) s
 table=(opt,rrhf)
 ----------------------------------------------------------------------
 -----
 title
 -----
 Symbolic Z-matrix:
 Charge =  0 Multiplicity = 1

 SCF Done:  E(RHF) =  -464.946113198     A.U. after   11 cycles
 Normal termination of Gaussian 16 at Sat Apr  5 23:08:29 2025.
 Gaussian 16:  ES64L-G16RevC.01  3-Jul-2019

 ----------------------------------------------------------------------
 #t hf aug-cc-pvdz iop(5/13=1,5/36=2,99/5=2) pseudo=read geom=check gue
 ss=(read,tcheck) scf=(maxcycle=1)
 ----------------------------------------------------------------------
 -----
 title
 -----
 Structure from the checkpoint file:  "hexamethylbenzene.chk"
 Charge =  0 Multiplicity = 1

                         Standard orientation:
 ---------------------------------------------------------------------
 Center     Atomic      Atomic             Coordinates (Angstroms)
 Number     Number       Type             X           Y           Z
 ---------------------------------------------------------------------
      1          6           0       -0.011190    1.402717    0.000000
      2          6           0        0.011190    0.701358    1.214788
      3          6           0        0.011190    0.701358   -1.214788
      4          6           0       -0.011190   -0.701358    1.214788
      5          6           0       -0.011190   -0.701358   -1.214788
      6          6           0        0.011190   -1.402717   -0.000000
      7          6           0       -0.082337    2.914685    0.000000
      8          6           0        0.082337    1.457342    2.524191
      9          6           0        0.082337    1.457342   -2.524191
     10          6           0       -0.082337   -1.457342    2.524191
     11          6           0       -0.082337   -1.457342   -2.524191
     12          6           0        0.082337   -2.914685   -0.000000
     13          1           0       -0.610244    3.289820   -0.873575
     14          1           0       -0.610244    3.289820    0.873575
     15          1           0        0.910531    3.376329    0.000000
     16          1           0       -0.910531    1.688164    2.923987
     17          1           0        0.610244    0.888372    3.285855
     18          1           0        0.610244    2.401448    2.412280
     19          1           0        0.610244    0.888372   -3.285855
     20          1           0       -0.910531    1.688164   -2.923987
     21          1           0        0.610244    2.401448   -2.412280
     22          1           0       -0.610244   -2.401448    2.412280
     23          1           0        0.910531   -1.688164    2.923987
     24          1           0       -0.610244   -0.888372    3.285855
     25          1           0        0.910531   -1.688164   -2.923987
     26          1           0       -0.610244   -2.401448   -2.412280
     27          1           0       -0.610244   -0.888372   -3.285855
     28          1           0        0.610244   -3.289820   -0.873575
     29          1           0        0.610244   -3.289820    0.873575
     30          1           0       -0.910531   -3.376329   -0.000000
 ---------------------------------------------------------------------

 SCF Done:  E(RHF) =  -465.445630862     A.U. after    2 cycles

 The electronic state is 1-AG.
 Alpha  occ. eigenvalues --  -11.22732 -11.22732 -11.22700 -11.22602 -11.22602
 Alpha  occ. eigenvalues --  -11.22600 -11.22267 -11.22258 -11.22258 -11.22250
 Alpha  occ. eigenvalues --  -11.22250 -11.22237  -1.15824  -1.06853  -1.06853
 Alpha  occ. eigenvalues --   -0.97915  -0.97915  -0.95110  -0.93953  -0.87279
 Alpha  occ. eigenvalues --   -0.87279  -0.75824  -0.75824  -0.69326  -0.63223
 Alpha  occ. eigenvalues --   -0.60745  -0.58235  -0.57997  -0.57997  -0.57921
 Alpha  occ. eigenvalues --   -0.57920  -0.55369  -0.55369  -0.54512  -0.54322
 Alpha  occ. eigenvalues --   -0.54322  -0.53162  -0.53162  -0.52515  -0.50502
 Alpha  occ. eigenvalues --   -0.46377  -0.46376  -0.44791  -0.30495  -0.30495
 Alpha virt. eigenvalues --    0.03257   0.03257   0.03595   0.03828   0.04316
 Alpha virt. eigenvalues --    0.04316   0.05208   0.05208   0.06887   0.07439
 Alpha virt. eigenvalues --    0.07568   0.08199   0.08199   0.10172   0.10172

 Mulliken charges:
               1
     1  C    0.081296
     2  C    0.081281
     3  C    0.081281
     4  C    0.081281
     5  C    0.081281
     6  C    0.081296
     7  C   -0.803924
     8  C   -0.803933
     9  C   -0.803933
    10  C   -0.803933
    11  C   -0.803933
    12  C   -0.803924
    13  H    0.175067
    14  H    0.175067
    15  H    0.372511
    16  H    0.372511
    17  H    0.175066
    18  H    0.175067
    19  H    0.175066
    20  H    0.372511
    21  H    0.175067
    22  H    0.175067
    23  H    0.372511
    24  H    0.175066
    25  H    0.372511
    26  H    0.175067
    27  H    0.175066
    28  H    0.175067
    29  H    0.175067
    30  H    0.372511
 Sum of Mulliken charges =  -0.00000

 Dipole moment (field-independent basis, Debye):
    X=              0.0000    Y=             -0.0000    Z=              0.0000  Tot=              0.0000

 Test job not archived.
 1\1\GINC-SE212\SP\RHF\Aug-CC-pVDZ\C12H18\OHZDE\05-Apr-2025\0\\#t hf au
 g-cc-pvdz iop(5/13=1,5/36=2,99/5=2) pseudo=read geom=check guess=(read
 ,tcheck) scf=(maxcycle=1)\\title\\0,1\C,0,0.,1.402717,0.01119\C,0,1.21
 4788,0.701358,-0.01119\C,0,-1.214788,0.701358,-0.01119\C,0,1.214788,-0
 .701358,0.01119\C,0,-1.214788,-0.701358,0.01119\C,0,0.,-1.402717,-0.01
 119\C,0,0.,2.914685,0.082337\C,0,2.524191,1.457342,-0.082337\C,0,-2.52
 4191,1.457342,-0.082337\C,0,2.524191,-1.457342,0.082337\C,0,-2.524191,
 -1.457342,0.082337\C,0,0.,-2.914685,-0.082337\H,0,-0.873575,3.28982,0.

 Normal termination of Gaussian 16 at Sat Apr  5 23:08:41 2025.
