 Gaussian 16, Revision C.01,

 ----------------------------------------------------------------------
 #t hf aug-cc-pvdz symm=none int=(grid=ultrafine) guess=(read,tcheck) s
 table=(opt,rrhf)
 ----------------------------------------------------------------------
 -----
 title
 -----
 Symbolic Z-matrix:
 Charge =  0 Multiplicity = 1

 SCF Done:  E(RHF) =  -2832.71294284     A.U. after   12 cycles
 Normal termination of Gaussian 16 at Sat Apr  5 23:03:20 2025.
 Gaussian 16:  ES64L-G16RevC.01  3-Jul-2019

 ----------------------------------------------------------------------
 #t hf aug-cc-pvdz iop(5/13=1,5/36=2,99/5=2) pseudo=read geom=check gue
 ss=(read,tcheck) scf=(maxcycle=1)
 ----------------------------------------------------------------------
 -----
 title
 -----
 Structure from the checkpoint file:  "hexachloroethane.chk"
 Charge =  0 Multiplicity = 1

                         Standard orientation:
 ---------------------------------------------------------------------
 Center     Atomic      Atomic             Coordinates (Angstroms)
 Number     Number       Type             X           Y           Z
 ---------------------------------------------------------------------
      1          6           0        0.227058    0.759035    0.000000
      2          6           0       -0.227058   -0.759035   -0.000000
      3         17           0       -1.206603    1.825782    0.000000
      4         17           0        1.206603    1.103896    1.454268
      5         17           0        1.206603    1.103896   -1.454268
      6         17           0        1.206603   -1.825782    0.000000
      7         17           0       -1.206603   -1.103896    1.454268
      8         17           0       -1.206603   -1.103896   -1.454268
 ---------------------------------------------------------------------

 SCF Done:  E(RHF) =  -2833.23669884     A.U. after    2 cycles

 The electronic state is 1-AG.
 Alpha  occ. eigenvalues -- -105.60949-105.60949-105.60948-105.60948-105.60948
 Alpha  occ. eigenvalues -- -105.60948 -11.48258 -11.48245 -10.65788 -10.65788
 Alpha  occ. eigenvalues --  -10.65785 -10.65785 -10.65777 -10.65765  -7.82739
 Alpha  occ. eigenvalues --   -7.82739  -7.82736  -7.82736  -7.82728  -7.82723
 Alpha  occ. eigenvalues --   -7.82289  -7.82288  -7.82288  -7.82287  -7.82287
 Alpha  occ. eigenvalues --   -7.82284  -7.82283  -7.82278  -7.82278  -7.82278
 Alpha  occ. eigenvalues --   -7.82275  -7.82275  -1.27455  -1.18857  -1.09752
 Alpha  occ. eigenvalues --   -1.09752  -1.07149  -1.07149  -0.93360  -0.79095
 Alpha  occ. eigenvalues --   -0.70392  -0.68256  -0.68256  -0.62673  -0.62673
 Alpha  occ. eigenvalues --   -0.53466  -0.53466  -0.52164  -0.51763  -0.51763
 Alpha  occ. eigenvalues --   -0.50111  -0.50111  -0.49014  -0.48203  -0.46445
 Alpha  occ. eigenvalues --   -0.46445  -0.45962
 Alpha virt. eigenvalues --    0.05383   0.07039   0.07441   0.07441   0.08978
 Alpha virt. eigenvalues --    0.09010   0.09010   0.10688   0.11646   0.11646
 Alpha virt. eigenvalues --    0.13907   0.13907   0.14942   0.16191   0.17126

 Mulliken charges:
               1
     1  C   -0.459773
     2  C   -0.459773
     3  Cl   0.153258
     4  Cl   0.153258
     5  Cl   0.153258
     6  Cl   0.153258
     7  Cl   0.153258
     8  Cl   0.153258
 Sum of Mulliken charges =  -0.00000

 Dipole moment (field-independent basis, Debye):
    X=              0.0000    Y=              0.0000    Z=             -0.0000  Tot=              0.0000

 Test job not archived.
 1\1\GINC-SE013\SP\RHF\Aug-CC-pVDZ\C2Cl6\OHZDE\05-Apr-2025\0\\#t hf aug
 -cc-pvdz iop(5/13=1,5/36=2,99/5=2) pseudo=read geom=check guess=(read,
 tcheck) scf=(maxcycle=1)\\title\\0,1\C,0,0.,0.,0.792268\C,0,0.,0.,-0.7
 92268\Cl,0,0.,1.679244,1.403393\Cl,0,-1.454268,-0.839622,1.403393\Cl,0
 ,1.454268,-0.839622,1.403393\Cl,0,0.,-1.679244,-1.403393\Cl,0,-1.45426
 8,0.839622,-1.403393\Cl,0,1.454268,0.839622,-1.403393\\Version=ES64L-G
 16RevC.01\State=1-AG\HF=-2833.2366988\RMSD=6.048e-03\Dipole=0.,0.,0.\Q
 uadrupole=0.6057781,0.605778,-1.2115561,0.,0.,0.0000002\PG=C02H [SGH(C

 Normal termination of Gaussian 16 at Sat Apr  5 23:03:40 2025.
