 Gaussian 16, Revision C.01,

 ----------------------------------------------------------------------
 #t hf aug-cc-pvdz symm=none int=(grid=ultrafine) guess=(read,tcheck) s
 table=(opt,rrhf)
 ----------------------------------------------------------------------
 -----
 title
 -----
 Symbolic Z-matrix:
 Charge =  0 Multiplicity = 1

 SCF Done:  E(RHF) =  -823.859767590     A.U. after   11 cycles
 Normal termination of Gaussian 16 at Sat Apr  5 23:02:51 2025.
 Gaussian 16:  ES64L-G16RevC.01  3-Jul-2019

 ----------------------------------------------------------------------
 #t hf aug-cc-pvdz iop(5/13=1,5/36=2,99/5=2) pseudo=read geom=check gue
 ss=(read,tcheck) scf=(maxcycle=1)
 ----------------------------------------------------------------------
 -----
 title
 -----
 Structure from the checkpoint file:  "hexafluorobenzene.chk"
 Charge =  0 Multiplicity = 1

                         Standard orientation:
 ---------------------------------------------------------------------
 Center     Atomic      Atomic             Coordinates (Angstroms)
 Number     Number       Type             X           Y           Z
 ---------------------------------------------------------------------
      1          6           0       -0.000000   -0.000000    1.388365
      2          6           0        0.000000    1.202359    0.694182
      3          6           0       -0.000000   -1.202359    0.694182
      4          6           0        0.000000    1.202359   -0.694182
      5          6           0       -0.000000   -1.202359   -0.694182
      6          6           0        0.000000   -0.000000   -1.388365
      7          9           0       -0.000000   -0.000000    2.719949
      8          9           0        0.000000    2.355545    1.359975
      9          9           0       -0.000000   -2.355545    1.359975
     10          9           0        0.000000    2.355545   -1.359975
     11          9           0       -0.000000   -2.355545   -1.359975
     12          9           0        0.000000   -0.000000   -2.719949
 ---------------------------------------------------------------------

 SCF Done:  E(RHF) =  -824.620390720     A.U. after    2 cycles

 The electronic state is 1-AG.
 Alpha  occ. eigenvalues --  -26.52942 -26.52939 -26.52939 -26.52938 -26.52938
 Alpha  occ. eigenvalues --  -26.52938 -11.39813 -11.39801 -11.39801 -11.39694
 Alpha  occ. eigenvalues --  -11.39694 -11.39683  -1.67826  -1.66975  -1.66975
 Alpha  occ. eigenvalues --   -1.65434  -1.65434  -1.64599  -1.23239  -1.08873
 Alpha  occ. eigenvalues --   -1.08873  -0.94208  -0.94208  -0.86685  -0.83013
 Alpha  occ. eigenvalues --   -0.81439  -0.76890  -0.76828  -0.76828  -0.76273
 Alpha  occ. eigenvalues --   -0.76273  -0.73499  -0.73499  -0.70536  -0.70536
 Alpha  occ. eigenvalues --   -0.69739  -0.68397  -0.68397  -0.67117  -0.62990
 Alpha  occ. eigenvalues --   -0.62990  -0.59837  -0.54438  -0.39558  -0.39558
 Alpha virt. eigenvalues --    0.05399   0.07079   0.07079   0.08673   0.08673
 Alpha virt. eigenvalues --    0.08698   0.08698   0.09486   0.11501   0.12064
 Alpha virt. eigenvalues --    0.12064   0.12841   0.14941   0.15247   0.15247

 Mulliken charges:
               1
     1  C    0.940578
     2  C    0.940586
     3  C    0.940586
     4  C    0.940586
     5  C    0.940586
     6  C    0.940578
     7  F   -0.940582
     8  F   -0.940584
     9  F   -0.940584
    10  F   -0.940584
    11  F   -0.940584
    12  F   -0.940582
 Sum of Mulliken charges =  -0.00000

 Dipole moment (field-independent basis, Debye):
    X=              0.0000    Y=              0.0000    Z=              0.0000  Tot=              0.0000

 Test job not archived.
 1\1\GINC-SE014\SP\RHF\Aug-CC-pVDZ\C6F6\OHZDE\05-Apr-2025\0\\#t hf aug-
 cc-pvdz iop(5/13=1,5/36=2,99/5=2) pseudo=read geom=check guess=(read,t
 check) scf=(maxcycle=1)\\title\\0,1\C,0,0.,1.388365,0.\C,0,1.202359,0.
 694182,0.\C,0,-1.202359,0.694182,0.\C,0,1.202359,-0.694182,0.\C,0,-1.2
 02359,-0.694182,0.\C,0,0.,-1.388365,0.\F,0,0.,2.719949,0.\F,0,2.355545
 ,1.359975,0.\F,0,-2.355545,1.359975,0.\F,0,2.355545,-1.359975,0.\F,0,-
 2.355545,-1.359975,0.\F,0,0.,-2.719949,0.\\Version=ES64L-G16RevC.01\St
 ate=1-AG\HF=-824.6203907\RMSD=2.739e-02\Dipole=0.,0.,0.\Quadrupole=-1.

 Normal termination of Gaussian 16 at Sat Apr  5 23:03:08 2025.
