 Gaussian 16, Revision C.01,

 ----------------------------------------------------------------------
 #t hf aug-cc-pvdz symm=none int=(grid=ultrafine) guess=(read,tcheck) s
 table=(opt,rrhf)
 ----------------------------------------------------------------------
 -----
 title
 -----
 Symbolic Z-matrix:
 Charge =  0 Multiplicity = 1

 SCF Done:  E(RHF) =  -309.094906257     A.U. after   13 cycles

 1\1\GINC-SE211\Stability\RHF\Aug-CC-pVDZ\C6H12O1\OHZDE\05-Apr-2025\0\\
 #t hf aug-cc-pvdz symm=none int=(grid=ultrafine) guess=(read,tcheck) s
 table=(opt,rrhf)\\title\\0,1\C,0,1.730475,2.260799,0.\C,0,-1.877092,-3
 .067542,0.\C,0,1.469179,0.778822,0.\C,0,-1.675526,-1.553237,0.\C,0,0.,
 0.375846,0.\C,0,-0.203783,-1.139524,0.\O,0,0.882361,3.116832,0.\H,0,2.
 805089,2.541058,0.\H,0,-2.936193,-3.328318,0.\H,0,-1.423356,-3.526632,
 0.880821\H,0,-1.423356,-3.526632,-0.880821\H,0,1.999279,0.36497,0.8674
 25\H,0,1.999279,0.36497,-0.867425\H,0,-2.170087,-1.119104,0.87384\H,0,

 Normal termination of Gaussian 16 at Sat Apr  5 23:03:54 2025.
 Gaussian 16:  ES64L-G16RevC.01  3-Jul-2019

 ----------------------------------------------------------------------
 #t hf aug-cc-pvdz iop(5/13=1,5/36=2,99/5=2) pseudo=read geom=check gue
 ss=(read,tcheck) scf=(maxcycle=1)
 ----------------------------------------------------------------------
 -----
 title
 -----
 Structure from the checkpoint file:  "hexanal.chk"
 Charge =  0 Multiplicity = 1

                         Standard orientation:
 ---------------------------------------------------------------------
 Center     Atomic      Atomic             Coordinates (Angstroms)
 Number     Number       Type             X           Y           Z
 ---------------------------------------------------------------------
      1          6           0        1.730475    2.260799    0.000000
      2          6           0       -1.877093   -3.067542    0.000000
      3          6           0        1.469179    0.778822    0.000000
      4          6           0       -1.675526   -1.553237    0.000000
      5          6           0        0.000000    0.375846    0.000000
      6          6           0       -0.203783   -1.139524    0.000000
      7          8           0        0.882362    3.116832    0.000000
      8          1           0        2.805089    2.541057    0.000000
      9          1           0       -2.936194   -3.328318    0.000000
     10          1           0       -1.423357   -3.526632    0.880821
     11          1           0       -1.423357   -3.526632   -0.880821
     12          1           0        1.999279    0.364970    0.867425
     13          1           0        1.999279    0.364970   -0.867425
     14          1           0       -2.170087   -1.119104    0.873840
     15          1           0       -2.170087   -1.119104   -0.873840
     16          1           0       -0.491084    0.816415    0.870631
     17          1           0       -0.491084    0.816415   -0.870631
     18          1           0        0.291599   -1.574837   -0.874744
     19          1           0        0.291599   -1.574837    0.874744
 ---------------------------------------------------------------------

 SCF Done:  E(RHF) =  -309.427081950     A.U. after    2 cycles

 The electronic state is 1-A'.
 Alpha  occ. eigenvalues --  -20.54509 -11.34072 -11.25010 -11.23220 -11.23026
 Alpha  occ. eigenvalues --  -11.22821 -11.22358  -1.47626  -1.09955  -1.04385
 Alpha  occ. eigenvalues --   -0.96055  -0.86643  -0.80217  -0.77640  -0.68110
 Alpha  occ. eigenvalues --   -0.66721  -0.63502  -0.62187  -0.58719  -0.57191
 Alpha  occ. eigenvalues --   -0.56037  -0.51645  -0.51005  -0.48827  -0.48396
 Alpha  occ. eigenvalues --   -0.47776  -0.47255  -0.41348
 Alpha virt. eigenvalues --    0.03022   0.03604   0.03611   0.04217   0.05203
 Alpha virt. eigenvalues --    0.05948   0.06503   0.06841   0.08069   0.09123
 Alpha virt. eigenvalues --    0.09421   0.10302   0.10703   0.12346   0.12853

 Mulliken charges:
               1
     1  C    1.076009
     2  C   -0.378283
     3  C   -0.489064
     4  C   -0.223505
     5  C   -0.135717
     6  C   -0.248979
     7  O   -1.158457
     8  H    0.100616
     9  H    0.113915
    10  H    0.156344
    11  H    0.156344
    12  H    0.198830
    13  H    0.198830
    14  H    0.112948
    15  H    0.112948
    16  H    0.108800
    17  H    0.108800
    18  H    0.094809
    19  H    0.094809
 Sum of Mulliken charges =  -0.00000

 Dipole moment (field-independent basis, Debye):
    X=              1.4446    Y=             -2.4836    Z=             -0.0000  Tot=              2.8732

 Test job not archived.
 1\1\GINC-SE211\SP\RHF\Aug-CC-pVDZ\C6H12O1\OHZDE\05-Apr-2025\0\\#t hf a
 ug-cc-pvdz iop(5/13=1,5/36=2,99/5=2) pseudo=read geom=check guess=(rea
 d,tcheck) scf=(maxcycle=1)\\title\\0,1\C,0,1.730475,2.260799,0.\C,0,-1
 .877092,-3.067542,0.\C,0,1.469179,0.778822,0.\C,0,-1.675526,-1.553237,
 0.\C,0,0.,0.375846,0.\C,0,-0.203783,-1.139524,0.\O,0,0.882361,3.116832
 ,0.\H,0,2.805089,2.541058,0.\H,0,-2.936193,-3.328318,0.\H,0,-1.423356,
 -3.526632,0.880821\H,0,-1.423356,-3.526632,-0.880821\H,0,1.999279,0.36
 497,0.867425\H,0,1.999279,0.36497,-0.867425\H,0,-2.170087,-1.119104,0.

 Normal termination of Gaussian 16 at Sat Apr  5 23:04:14 2025.
