 Gaussian 16, Revision C.01,

 ----------------------------------------------------------------------
 #t hf aug-cc-pvdz symm=none int=(grid=ultrafine) guess=(read,tcheck) s
 table=(opt,rrhf)
 ----------------------------------------------------------------------
 -----
 title
 -----
 Symbolic Z-matrix:
 Charge =  0 Multiplicity = 1

 SCF Done:  E(RHF) =  -384.005603982     A.U. after   13 cycles

 1\1\GINC-SE151\Stability\RHF\Aug-CC-pVDZ\C6H12O2\OHZDE\05-Apr-2025\0\\
 #t hf aug-cc-pvdz symm=none int=(grid=ultrafine) guess=(read,tcheck) s
 table=(opt,rrhf)\\title\\0,1\C,0,-2.062686,-1.102443,0.\C,0,3.632108,1
 .858226,0.\C,0,-0.556479,-1.037078,0.\C,0,2.104874,1.82966,0.\C,0,0.,0
 .382472,0.\C,0,1.528055,0.413443,0.\O,0,-2.819045,-0.165656,0.\O,0,-2.
 503459,-2.387142,0.\H,0,4.011459,2.880818,0.\H,0,4.036027,1.354785,0.8
 80787\H,0,4.036027,1.354785,-0.880787\H,0,-0.205394,-1.600622,0.869012
 \H,0,-0.205394,-1.600622,-0.869012\H,0,1.729349,2.370062,0.87383\H,0,1

 Normal termination of Gaussian 16 at Sat Apr  5 23:04:09 2025.
 Gaussian 16:  ES64L-G16RevC.01  3-Jul-2019

 ----------------------------------------------------------------------
 #t hf aug-cc-pvdz iop(5/13=1,5/36=2,99/5=2) pseudo=read geom=check gue
 ss=(read,tcheck) scf=(maxcycle=1)
 ----------------------------------------------------------------------
 -----
 title
 -----
 Structure from the checkpoint file:  "hexanoic_acid.chk"
 Charge =  0 Multiplicity = 1

                         Standard orientation:
 ---------------------------------------------------------------------
 Center     Atomic      Atomic             Coordinates (Angstroms)
 Number     Number       Type             X           Y           Z
 ---------------------------------------------------------------------
      1          6           0       -2.062686   -1.102443    0.000000
      2          6           0        3.632108    1.858225    0.000000
      3          6           0       -0.556479   -1.037078    0.000000
      4          6           0        2.104874    1.829660    0.000000
      5          6           0        0.000000    0.382472    0.000000
      6          6           0        1.528055    0.413443    0.000000
      7          8           0       -2.819045   -0.165656    0.000000
      8          8           0       -2.503459   -2.387142    0.000000
      9          1           0        4.011459    2.880817    0.000000
     10          1           0        4.036027    1.354784    0.880787
     11          1           0        4.036027    1.354784   -0.880787
     12          1           0       -0.205394   -1.600622    0.869012
     13          1           0       -0.205394   -1.600622   -0.869012
     14          1           0        1.729349    2.370062    0.873830
     15          1           0        1.729349    2.370062   -0.873830
     16          1           0       -0.381981    0.918569    0.871350
     17          1           0       -0.381981    0.918569   -0.871350
     18          1           0        1.904359   -0.128002   -0.874719
     19          1           0        1.904359   -0.128002    0.874719
     20          1           0       -3.471375   -2.353691    0.000000
 ---------------------------------------------------------------------

 SCF Done:  E(RHF) =  -384.409438092     A.U. after    2 cycles

 The electronic state is 1-A'.
 Alpha  occ. eigenvalues --  -20.59873 -20.53826 -11.39342 -11.25438 -11.23358
 Alpha  occ. eigenvalues --  -11.23060 -11.22855 -11.22358  -1.54589  -1.45132
 Alpha  occ. eigenvalues --   -1.10186  -1.04617  -0.96246  -0.86934  -0.80432
 Alpha  occ. eigenvalues --   -0.79082  -0.70711  -0.69004  -0.67610  -0.64024
 Alpha  occ. eigenvalues --   -0.60115  -0.59485  -0.57812  -0.57469  -0.54319
 Alpha  occ. eigenvalues --   -0.51993  -0.49424  -0.48253  -0.47728  -0.47638
 Alpha  occ. eigenvalues --   -0.47185  -0.44273
 Alpha virt. eigenvalues --    0.03429   0.03677   0.03746   0.04060   0.05065
 Alpha virt. eigenvalues --    0.06226   0.06460   0.06813   0.07821   0.09487
 Alpha virt. eigenvalues --    0.09574   0.10319   0.10721   0.12075   0.13469

 Mulliken charges:
               1
     1  C    2.444591
     2  C   -0.366933
     3  C   -0.686396
     4  C   -0.194365
     5  C   -0.135567
     6  C   -0.336421
     7  O   -1.254822
     8  O   -1.409993
     9  H    0.110472
    10  H    0.156404
    11  H    0.156404
    12  H    0.213850
    13  H    0.213850
    14  H    0.112470
    15  H    0.112470
    16  H    0.110413
    17  H    0.110413
    18  H    0.093727
    19  H    0.093727
    20  H    0.455708
 Sum of Mulliken charges =  -0.00000

 Dipole moment (field-independent basis, Debye):
    X=              1.2911    Y=             -1.0653    Z=             -0.0000  Tot=              1.6739

 Test job not archived.
 1\1\GINC-SE151\SP\RHF\Aug-CC-pVDZ\C6H12O2\OHZDE\05-Apr-2025\0\\#t hf a
 ug-cc-pvdz iop(5/13=1,5/36=2,99/5=2) pseudo=read geom=check guess=(rea
 d,tcheck) scf=(maxcycle=1)\\title\\0,1\C,0,-2.062686,-1.102443,0.\C,0,
 3.632108,1.858226,0.\C,0,-0.556479,-1.037078,0.\C,0,2.104874,1.82966,0
 .\C,0,0.,0.382472,0.\C,0,1.528055,0.413443,0.\O,0,-2.819045,-0.165656,
 0.\O,0,-2.503459,-2.387142,0.\H,0,4.011459,2.880818,0.\H,0,4.036027,1.
 354785,0.880787\H,0,4.036027,1.354785,-0.880787\H,0,-0.205394,-1.60062
 2,0.869012\H,0,-0.205394,-1.600622,-0.869012\H,0,1.729349,2.370062,0.8

 Normal termination of Gaussian 16 at Sat Apr  5 23:04:53 2025.
