 Gaussian 16, Revision C.01,

 ----------------------------------------------------------------------
 #t hf aug-cc-pvdz symm=none int=(grid=ultrafine) guess=(read,tcheck) s
 table=(opt,rrhf)
 ----------------------------------------------------------------------
 -----
 title
 -----
 Symbolic Z-matrix:
 Charge =  0 Multiplicity = 1

 SCF Done:  E(RHF) =  -672.462964595     A.U. after   10 cycles
 Normal termination of Gaussian 16 at Sat Apr  5 23:02:24 2025.
 Gaussian 16:  ES64L-G16RevC.01  3-Jul-2019

 ----------------------------------------------------------------------
 #t hf aug-cc-pvdz iop(5/13=1,5/36=2,99/5=2) pseudo=read geom=check gue
 ss=(read,tcheck) scf=(maxcycle=1)
 ----------------------------------------------------------------------
 -----
 title
 -----
 Structure from the checkpoint file:  "hexafluoroethane.chk"
 Charge =  0 Multiplicity = 1

                         Standard orientation:
 ---------------------------------------------------------------------
 Center     Atomic      Atomic             Coordinates (Angstroms)
 Number     Number       Type             X           Y           Z
 ---------------------------------------------------------------------
      1          6           0        0.000000    0.000000    0.778102
      2          6           0        0.000000    0.000000   -0.778102
      3          9           0        0.000000    1.254581    1.232191
      4          9           0       -1.086499   -0.627290    1.232191
      5          9           0        1.086499   -0.627291    1.232191
      6          9           0        0.000000   -1.254581   -1.232191
      7          9           0       -1.086499    0.627291   -1.232191
      8          9           0        1.086499    0.627290   -1.232191
 ---------------------------------------------------------------------

 SCF Done:  E(RHF) =  -673.072560374     A.U. after    2 cycles

 The electronic state is 1-AG.
 Alpha  occ. eigenvalues --  -26.54491 -26.54491 -26.54491 -26.54491 -26.54485
 Alpha  occ. eigenvalues --  -26.54485 -11.56841 -11.56839  -1.76925  -1.74446
 Alpha  occ. eigenvalues --   -1.66123  -1.66123  -1.65068  -1.65068  -1.08457
 Alpha  occ. eigenvalues --   -0.95676  -0.89883  -0.86809  -0.86809  -0.83408
 Alpha  occ. eigenvalues --   -0.83408  -0.74335  -0.72191  -0.72191  -0.71954
 Alpha  occ. eigenvalues --   -0.71954  -0.68310  -0.68310  -0.66348  -0.66348
 Alpha  occ. eigenvalues --   -0.66123  -0.65183  -0.58345
 Alpha virt. eigenvalues --    0.07480   0.08287   0.08911   0.08911   0.12103
 Alpha virt. eigenvalues --    0.12103   0.12188   0.20741   0.20836   0.20836
 Alpha virt. eigenvalues --    0.24189   0.24189   0.28464   0.29724   0.29724

 Mulliken charges:
               1
     1  C    2.026480
     2  C    2.026480
     3  F   -0.675493
     4  F   -0.675493
     5  F   -0.675494
     6  F   -0.675493
     7  F   -0.675494
     8  F   -0.675493
 Sum of Mulliken charges =  -0.00000

 Dipole moment (field-independent basis, Debye):
    X=             -0.0000    Y=              0.0000    Z=             -0.0000  Tot=              0.0000

 Test job not archived.
 1\1\GINC-SE226\SP\RHF\Aug-CC-pVDZ\C2F6\OHZDE\05-Apr-2025\0\\#t hf aug-
 cc-pvdz iop(5/13=1,5/36=2,99/5=2) pseudo=read geom=check guess=(read,t
 check) scf=(maxcycle=1)\\title\\0,1\C,0,0.,0.,0.778102\C,0,0.,0.,-0.77
 8102\F,0,0.,1.254581,1.232191\F,0,-1.086499,-0.62729,1.232191\F,0,1.08
 6499,-0.627291,1.232191\F,0,0.,-1.254581,-1.232191\F,0,-1.086499,0.627
 291,-1.232191\F,0,1.086499,0.62729,-1.232191\\Version=ES64L-G16RevC.01
 \State=1-AG\HF=-673.0725604\RMSD=4.502e-03\Dipole=0.,0.,0.\Quadrupole=
 -0.0681827,-0.0681829,0.1363656,0.0000018,-0.000002,0.\PG=CI [X(C2F6)]

 Normal termination of Gaussian 16 at Sat Apr  5 23:03:05 2025.
