 Gaussian 16, Revision C.01,

 ----------------------------------------------------------------------
 #t hf aug-cc-pvdz symm=none int=(grid=ultrafine) guess=(read,tcheck) s
 table=(opt,rrhf)
 ----------------------------------------------------------------------
 -----
 title
 -----
 Symbolic Z-matrix:
 Charge =  0 Multiplicity = 1

 SCF Done:  E(RHF) =  -2984.21134579     A.U. after   11 cycles
 Normal termination of Gaussian 16 at Sat Apr  5 23:03:57 2025.
 Gaussian 16:  ES64L-G16RevC.01  3-Jul-2019

 ----------------------------------------------------------------------
 #t hf aug-cc-pvdz iop(5/13=1,5/36=2,99/5=2) pseudo=read geom=check gue
 ss=(read,tcheck) scf=(maxcycle=1)
 ----------------------------------------------------------------------
 -----
 title
 -----
 Structure from the checkpoint file:  "hexachlorobenzene.chk"
 Charge =  0 Multiplicity = 1

                         Standard orientation:
 ---------------------------------------------------------------------
 Center     Atomic      Atomic             Coordinates (Angstroms)
 Number     Number       Type             X           Y           Z
 ---------------------------------------------------------------------
      1          6           0       -0.000000   -0.000000    1.397768
      2          6           0        0.000000    1.210502    0.698884
      3          6           0       -0.000000   -1.210502    0.698884
      4          6           0        0.000000    1.210502   -0.698884
      5          6           0       -0.000000   -1.210502   -0.698884
      6          6           0        0.000000   -0.000000   -1.397768
      7         17           0       -0.000000   -0.000000    3.126245
      8         17           0        0.000000    2.707407    1.563122
      9         17           0       -0.000000   -2.707407    1.563122
     10         17           0        0.000000    2.707407   -1.563122
     11         17           0       -0.000000   -2.707407   -1.563122
     12         17           0        0.000000   -0.000000   -3.126245
 ---------------------------------------------------------------------

 SCF Done:  E(RHF) =  -2984.88246795     A.U. after    2 cycles

 The electronic state is 1-AG.
 Alpha  occ. eigenvalues -- -105.60520-105.60520-105.60520-105.60520-105.60520
 Alpha  occ. eigenvalues -- -105.60518 -11.36552 -11.36552 -11.36546 -11.36440
 Alpha  occ. eigenvalues --  -11.36440 -11.36438 -10.65356 -10.65356 -10.65355
 Alpha  occ. eigenvalues --  -10.65355 -10.65354 -10.65354  -7.82348  -7.82336
 Alpha  occ. eigenvalues --   -7.82336  -7.82325  -7.82325  -7.82315  -7.81893
 Alpha  occ. eigenvalues --   -7.81891  -7.81891  -7.81884  -7.81884  -7.81882
 Alpha  occ. eigenvalues --   -7.81880  -7.81880  -7.81879  -7.81879  -7.81877
 Alpha  occ. eigenvalues --   -7.81877  -1.27996  -1.19930  -1.19930  -1.12427
 Alpha  occ. eigenvalues --   -1.12427  -1.09245  -1.08125  -0.98946  -0.98946
 Alpha  occ. eigenvalues --   -0.85905  -0.85905  -0.78066  -0.70654  -0.66351
 Alpha  occ. eigenvalues --   -0.65546  -0.63666  -0.63666  -0.59966  -0.59966
 Alpha  occ. eigenvalues --   -0.57461  -0.57461  -0.51894  -0.51875  -0.51875
 Alpha  occ. eigenvalues --   -0.51849  -0.51849  -0.50474  -0.48830  -0.48830
 Alpha  occ. eigenvalues --   -0.46671  -0.45427  -0.37294  -0.37294
 Alpha virt. eigenvalues --    0.04753   0.05410   0.05410   0.06558   0.06558
 Alpha virt. eigenvalues --    0.08338   0.08338   0.08439   0.10024   0.11149
 Alpha virt. eigenvalues --    0.11438   0.11438   0.12651   0.13435   0.13435

 Mulliken charges:
               1
     1  C    0.203336
     2  C    0.203332
     3  C    0.203332
     4  C    0.203332
     5  C    0.203332
     6  C    0.203336
     7  Cl  -0.203333
     8  Cl  -0.203333
     9  Cl  -0.203333
    10  Cl  -0.203333
    11  Cl  -0.203333
    12  Cl  -0.203333
 Sum of Mulliken charges =   0.00000

 Dipole moment (field-independent basis, Debye):
    X=              0.0000    Y=              0.0000    Z=             -0.0000  Tot=              0.0000

 Test job not archived.
 1\1\GINC-SE199\SP\RHF\Aug-CC-pVDZ\C6Cl6\OHZDE\05-Apr-2025\0\\#t hf aug
 -cc-pvdz iop(5/13=1,5/36=2,99/5=2) pseudo=read geom=check guess=(read,
 tcheck) scf=(maxcycle=1)\\title\\0,1\C,0,0.,1.397768,0.\C,0,1.210502,0
 .698884,0.\C,0,-1.210502,0.698884,0.\C,0,1.210502,-0.698884,0.\C,0,-1.
 210502,-0.698884,0.\C,0,0.,-1.397768,0.\Cl,0,0.,3.126245,0.\Cl,0,2.707
 407,1.563122,0.\Cl,0,-2.707407,1.563122,0.\Cl,0,2.707407,-1.563122,0.\
 Cl,0,-2.707407,-1.563122,0.\Cl,0,0.,-3.126245,0.\\Version=ES64L-G16Rev
 C.01\State=1-AG\HF=-2984.882468\RMSD=4.284e-02\Dipole=0.,0.,0.\Quadrup

 Normal termination of Gaussian 16 at Sat Apr  5 23:04:16 2025.
