 Gaussian 16, Revision C.01,

 ----------------------------------------------------------------------
 #t hf aug-cc-pvdz symm=none int=(grid=ultrafine) guess=(read,tcheck) s
 table=(opt,rrhf)
 ----------------------------------------------------------------------
 -----
 title
 -----
 Symbolic Z-matrix:
 Charge =  0 Multiplicity = 1

 SCF Done:  E(RHF) =  -545.617033985     A.U. after   15 cycles
 Normal termination of Gaussian 16 at Sat Apr  5 23:05:37 2025.
 Gaussian 16:  ES64L-G16RevC.01  3-Jul-2019

 ----------------------------------------------------------------------
 #t hf aug-cc-pvdz iop(5/13=1,5/36=2,99/5=2) pseudo=read geom=check gue
 ss=(read,tcheck) scf=(maxcycle=1)
 ----------------------------------------------------------------------
 -----
 title
 -----
 Structure from the checkpoint file:  "histidine.chk"
 Charge =  0 Multiplicity = 1

                         Standard orientation:
 ---------------------------------------------------------------------
 Center     Atomic      Atomic             Coordinates (Angstroms)
 Number     Number       Type             X           Y           Z
 ---------------------------------------------------------------------
      1          7           0       -1.201957    1.645890    0.152460
      2          6           0       -1.122137    0.221629   -0.199424
      3          6           0       -2.533221   -0.393283   -0.152217
      4          8           0       -2.748314   -1.574901   -0.095497
      5          8           0       -3.514020    0.517294   -0.229519
      6          1           0       -3.060866    1.389226   -0.232101
      7          6           0       -0.112058   -0.609453    0.605562
      8          6           0        1.310812   -0.315666    0.248158
      9          7           0        1.798228    0.972889    0.135796
     10          6           0        3.064823    0.857017   -0.182550
     11          7           0        3.431444   -0.446678   -0.283277
     12          6           0        2.315898   -1.207793   -0.013417
     13          1           0       -0.839634    0.175548   -1.255509
     14          1           0       -0.281816   -0.417857    1.670751
     15          1           0       -0.320702   -1.665837    0.443593
     16          1           0        3.752508    1.668827   -0.350821
     17          1           0        4.345579   -0.792723   -0.516050
     18          1           0        2.335670   -2.282388   -0.032339
     19          1           0       -1.210332    1.750849    1.162273
     20          1           0       -0.360429    2.115801   -0.161192
 ---------------------------------------------------------------------

 SCF Done:  E(RHF) =  -546.170089748     A.U. after    2 cycles

 The electronic state is 1-A.
 Alpha  occ. eigenvalues --  -20.57690 -20.51916 -15.57515 -15.50711 -15.49935
 Alpha  occ. eigenvalues --  -11.37689 -11.31830 -11.28895 -11.27580 -11.26734
 Alpha  occ. eigenvalues --  -11.24768  -1.52661  -1.43921  -1.35567  -1.21189
 Alpha  occ. eigenvalues --   -1.18983  -1.06819  -1.00792  -0.92181  -0.87443
 Alpha  occ. eigenvalues --   -0.82267  -0.80306  -0.78000  -0.75137  -0.69470
 Alpha  occ. eigenvalues --   -0.67040  -0.66106  -0.64604  -0.63710  -0.63195
 Alpha  occ. eigenvalues --   -0.61508  -0.59400  -0.56702  -0.53955  -0.53487
 Alpha  occ. eigenvalues --   -0.50214  -0.46609  -0.45444  -0.45203  -0.42010
 Alpha  occ. eigenvalues --   -0.34444
 Alpha virt. eigenvalues --    0.01949   0.03654   0.04241   0.04340   0.04970
 Alpha virt. eigenvalues --    0.05601   0.06823   0.07046   0.08092   0.08677
 Alpha virt. eigenvalues --    0.09988   0.10597   0.11688   0.12154   0.12663

 Mulliken charges:
               1
     1  N    0.303477
     2  C   -1.590055
     3  C    2.503437
     4  O   -1.340766
     5  O   -1.372131
     6  H    0.502529
     7  C   -0.261707
     8  C   -0.023014
     9  N    1.014574
    10  C   -0.834282
    11  N    0.674734
    12  C   -0.397869
    13  H    0.251186
    14  H    0.280877
    15  H    0.159444
    16  H   -0.117906
    17  H   -0.010174
    18  H   -0.272536
    19  H    0.267100
    20  H    0.263082
 Sum of Mulliken charges =  -0.00000

 Dipole moment (field-independent basis, Debye):
    X=              7.3706    Y=              1.0922    Z=             -0.1725  Tot=              7.4531

 Test job not archived.
 1\1\GINC-SE152\SP\RHF\Aug-CC-pVDZ\C6H9N3O2\OHZDE\05-Apr-2025\0\\#t hf
 aug-cc-pvdz iop(5/13=1,5/36=2,99/5=2) pseudo=read geom=check guess=(re
 ad,tcheck) scf=(maxcycle=1)\\title\\0,1\N,0,-1.201957,1.64589,0.15246\
 C,0,-1.122137,0.221629,-0.199424\C,0,-2.533221,-0.393283,-0.152217\O,0
 ,-2.748314,-1.574901,-0.095497\O,0,-3.51402,0.517294,-0.229519\H,0,-3.
 060866,1.389226,-0.232101\C,0,-0.112058,-0.609453,0.605562\C,0,1.31081
 2,-0.315666,0.248158\N,0,1.798228,0.972889,0.135796\C,0,3.064823,0.857
 017,-0.18255\N,0,3.431444,-0.446678,-0.283277\C,0,2.315898,-1.207793,-

 Normal termination of Gaussian 16 at Sat Apr  5 23:06:23 2025.
