 Gaussian 16, Revision C.01,

 ----------------------------------------------------------------------
 #t hf aug-cc-pvdz symm=none int=(grid=ultrafine) guess=(read,tcheck) s
 table=(opt,rrhf)
 ----------------------------------------------------------------------
 -----
 title
 -----
 Symbolic Z-matrix:
 Charge =  0 Multiplicity = 1

 SCF Done:  E(RHF) =  -92.8880547786     A.U. after   10 cycles
 Normal termination of Gaussian 16 at Sat Apr  5 23:05:05 2025.
 Gaussian 16:  ES64L-G16RevC.01  3-Jul-2019

 ----------------------------------------------------------------------
 #t hf aug-cc-pvdz iop(5/13=1,5/36=2,99/5=2) pseudo=read geom=check gue
 ss=(read,tcheck) scf=(maxcycle=1)
 ----------------------------------------------------------------------
 -----
 title
 -----
 Structure from the checkpoint file:  "hydrogen_cyanide.chk"
 Charge =  0 Multiplicity = 1

                         Standard orientation:
 ---------------------------------------------------------------------
 Center     Atomic      Atomic             Coordinates (Angstroms)
 Number     Number       Type             X           Y           Z
 ---------------------------------------------------------------------
      1          6           0        0.000000    0.000000   -0.496902
      2          7           0        0.000000    0.000000    0.649125
      3          1           0        0.000000    0.000000   -1.562463
 ---------------------------------------------------------------------

 SCF Done:  E(RHF) =  -92.9777413963     A.U. after    2 cycles

 The electronic state is 1-SG.
 Alpha  occ. eigenvalues --  -15.54021 -11.30035  -1.25540  -0.81945  -0.62850
 Alpha  occ. eigenvalues --   -0.53382  -0.53382
 Alpha virt. eigenvalues --    0.02969   0.07903   0.08051   0.08051   0.15672
 Alpha virt. eigenvalues --    0.15828   0.15828   0.17870   0.23471   0.23471
 Alpha virt. eigenvalues --    0.26378   0.33409   0.41224   0.41224   0.42712

 Mulliken charges:
               1
     1  C   -0.640418
     2  N    0.496831
     3  H    0.143587
 Sum of Mulliken charges =  -0.00000

 Dipole moment (field-independent basis, Debye):
    X=              0.0000    Y=              0.0000    Z=             -3.7691  Tot=              3.7691

 Test job not archived.
 1\1\GINC-SE153\SP\RHF\Aug-CC-pVDZ\C1H1N1\OHZDE\05-Apr-2025\0\\#t hf au
 g-cc-pvdz iop(5/13=1,5/36=2,99/5=2) pseudo=read geom=check guess=(read
 ,tcheck) scf=(maxcycle=1)\\title\\0,1\C,0,0.,0.,-0.496902\N,0,0.,0.,0.
 649125\H,0,0.,0.,-1.562463\\Version=ES64L-G16RevC.01\State=1-SG\HF=-92
 .9777414\RMSD=2.320e-02\Dipole=0.,0.,-1.4828766\Quadrupole=-0.6153631,
 -0.6153631,1.2307261,0.,0.,0.\PG=C*V [C*(H1C1N1)]\\@

 Normal termination of Gaussian 16 at Sat Apr  5 23:06:12 2025.
