 Gaussian 16, Revision C.01,

 ----------------------------------------------------------------------
 #t hf aug-cc-pvdz symm=none int=(grid=ultrafine) guess=(read,tcheck) s
 table=(opt,rrhf)
 ----------------------------------------------------------------------
 -----
 title
 -----
 Symbolic Z-matrix:
 Charge =  0 Multiplicity = 1

 SCF Done:  E(RHF) =  -168.945035407     A.U. after   13 cycles
 Normal termination of Gaussian 16 at Sat Apr  5 23:02:15 2025.
 Gaussian 16:  ES64L-G16RevC.01  3-Jul-2019

 ----------------------------------------------------------------------
 #t hf aug-cc-pvdz iop(5/13=1,5/36=2,99/5=2) pseudo=read geom=check gue
 ss=(read,tcheck) scf=(maxcycle=1)
 ----------------------------------------------------------------------
 -----
 title
 -----
 Structure from the checkpoint file:  "hydroxymethylimine.chk"
 Charge =  0 Multiplicity = 1

                         Standard orientation:
 ---------------------------------------------------------------------
 Center     Atomic      Atomic             Coordinates (Angstroms)
 Number     Number       Type             X           Y           Z
 ---------------------------------------------------------------------
      1          6           0        0.000000    0.416584    0.000000
      2          8           0       -1.110472   -0.343382    0.000000
      3          7           0        1.156625   -0.083800    0.000000
      4          1           0       -0.263473    1.473242    0.000000
      5          1           0       -0.825628   -1.270023    0.000000
      6          1           0        1.876503    0.630934    0.000000
 ---------------------------------------------------------------------

 SCF Done:  E(RHF) =  -169.115390100     A.U. after    2 cycles

 The electronic state is 1-A'.
 Alpha  occ. eigenvalues --  -20.59372 -15.49196 -11.35663  -1.51708  -1.21227
 Alpha  occ. eigenvalues --   -0.87413  -0.76821  -0.68515  -0.60579  -0.59173
 Alpha  occ. eigenvalues --   -0.48748  -0.44563
 Alpha virt. eigenvalues --    0.03517   0.04933   0.05807   0.09351   0.10986
 Alpha virt. eigenvalues --    0.12371   0.14784   0.16013   0.17733   0.20311
 Alpha virt. eigenvalues --    0.20954   0.21240   0.25189   0.25383   0.27602

 Mulliken charges:
               1
     1  C    0.200064
     2  O   -1.077507
     3  N    0.389359
     4  H    0.046157
     5  H    0.351250
     6  H    0.090677
 Sum of Mulliken charges =   0.00000

 Dipole moment (field-independent basis, Debye):
    X=             -0.3699    Y=              1.2916    Z=              0.0000  Tot=              1.3435

 Test job not archived.
 1\1\GINC-SE206\SP\RHF\Aug-CC-pVDZ\C1H3N1O1\OHZDE\05-Apr-2025\0\\#t hf
 aug-cc-pvdz iop(5/13=1,5/36=2,99/5=2) pseudo=read geom=check guess=(re
 ad,tcheck) scf=(maxcycle=1)\\title\\0,1\C,0,0.,0.416584,0.\O,0,-1.1104
 72,-0.343382,0.\N,0,1.156625,-0.0838,0.\H,0,-0.263473,1.473242,0.\H,0,
 -0.825628,-1.270023,0.\H,0,1.876503,0.630934,0.\\Version=ES64L-G16RevC
 .01\State=1-A'\HF=-169.1153901\RMSD=1.522e-02\Dipole=-0.145532,0.50815
 33,0.\Quadrupole=-1.7303974,2.8590375,-1.1286401,2.4669922,0.,0.\PG=CS
  [SG(C1H3N1O1)]\\@

 Normal termination of Gaussian 16 at Sat Apr  5 23:03:04 2025.
