 Gaussian 16, Revision C.01,

 ----------------------------------------------------------------------
 #t hf aug-cc-pvdz symm=none int=(grid=ultrafine) guess=(read,tcheck) s
 table=(opt,rrhf)
 ----------------------------------------------------------------------
 -----
 title
 -----
 Symbolic Z-matrix:
 Charge =  0 Multiplicity = 1

 SCF Done:  E(RHF) =  -1024.03839656     A.U. after   13 cycles
 Normal termination of Gaussian 16 at Sat Apr  5 23:02:27 2025.
 Gaussian 16:  ES64L-G16RevC.01  3-Jul-2019

 ----------------------------------------------------------------------
 #t hf aug-cc-pvdz iop(5/13=1,5/36=2,99/5=2) pseudo=read geom=check gue
 ss=(read,tcheck) scf=(maxcycle=1)
 ----------------------------------------------------------------------
 -----
 title
 -----
 Structure from the checkpoint file:  "hydroxymethyldisulfanylmethanol.chk"
 Charge =  0 Multiplicity = 1

                         Standard orientation:
 ---------------------------------------------------------------------
 Center     Atomic      Atomic             Coordinates (Angstroms)
 Number     Number       Type             X           Y           Z
 ---------------------------------------------------------------------
      1         16           0       -0.588948   -0.854750   -0.597619
      2         16           0        0.588932    0.854989   -0.597326
      3          8           0       -2.696710    0.623868    0.346427
      4          8           0        2.696697   -0.624032    0.346082
      5          6           0       -1.855232   -0.435708    0.688286
      6          6           0        1.855275    0.435453    0.688361
      7          1           0       -1.332873   -0.262522    1.630730
      8          1           0       -2.466770   -1.333392    0.769900
      9          1           0        1.332960    0.261952    1.630771
     10          1           0        2.466846    1.333087    0.770258
     11          1           0       -2.164171    1.423911    0.259063
     12          1           0        2.164119   -1.424019    0.258442
 ---------------------------------------------------------------------

 SCF Done:  E(RHF) =  -1024.39335327     A.U. after    2 cycles

 The electronic state is 1-A.
 Alpha  occ. eigenvalues --  -93.98294 -93.98289 -20.57351 -20.57348 -11.34040
 Alpha  occ. eigenvalues --  -11.34035  -8.26301  -8.26280  -6.24102  -6.24060
 Alpha  occ. eigenvalues --   -6.23880  -6.23872  -6.23665  -6.23664  -1.48061
 Alpha  occ. eigenvalues --   -1.47968  -1.11508  -1.01228  -0.92188  -0.83256
 Alpha  occ. eigenvalues --   -0.72515  -0.71547  -0.65629  -0.64497  -0.61865
 Alpha  occ. eigenvalues --   -0.61277  -0.53917  -0.52011  -0.48908  -0.45675
 Alpha  occ. eigenvalues --   -0.45256  -0.38222  -0.37926
 Alpha virt. eigenvalues --    0.03262   0.03665   0.04915   0.05042   0.05806
 Alpha virt. eigenvalues --    0.07606   0.08770   0.09226   0.10422   0.11573
 Alpha virt. eigenvalues --    0.13621   0.13675   0.15333   0.15400   0.15526

 Mulliken charges:
               1
     1  S    0.122620
     2  S    0.122623
     3  O   -1.019158
     4  O   -1.019161
     5  C    0.243771
     6  C    0.243780
     7  H    0.160064
     8  H    0.109214
     9  H    0.160065
    10  H    0.109211
    11  H    0.383482
    12  H    0.383489
 Sum of Mulliken charges =  -0.00000

 Dipole moment (field-independent basis, Debye):
    X=              0.0000    Y=             -0.0004    Z=              2.4617  Tot=              2.4617

 Test job not archived.
 1\1\GINC-SE204\SP\RHF\Aug-CC-pVDZ\C2H6O2S2\OHZDE\05-Apr-2025\0\\#t hf
 aug-cc-pvdz iop(5/13=1,5/36=2,99/5=2) pseudo=read geom=check guess=(re
 ad,tcheck) scf=(maxcycle=1)\\title\\0,1\S,0,-0.588948,-0.85475,-0.5976
 19\S,0,0.588932,0.854989,-0.597326\O,0,-2.69671,0.623868,0.346427\O,0,
 2.696697,-0.624032,0.346082\C,0,-1.855232,-0.435708,0.688286\C,0,1.855
 275,0.435453,0.688361\H,0,-1.332873,-0.262522,1.63073\H,0,-2.46677,-1.
 333392,0.7699\H,0,1.33296,0.261952,1.630771\H,0,2.466846,1.333087,0.77
 0258\H,0,-2.164171,1.423911,0.259063\H,0,2.164119,-1.424019,0.258442\\

 Normal termination of Gaussian 16 at Sat Apr  5 23:03:07 2025.
