 Gaussian 16, Revision C.01,

 ----------------------------------------------------------------------
 #t hf aug-cc-pvdz symm=none int=(grid=ultrafine) guess=(read,tcheck) s
 table=(opt,rrhf)
 ----------------------------------------------------------------------
 -----
 title
 -----
 Symbolic Z-matrix:
 Charge =  0 Multiplicity = 1

 SCF Done:  E(RHF) =  -549.206036026     A.U. after   15 cycles
 Normal termination of Gaussian 16 at Sat Apr  5 23:03:09 2025.
 Gaussian 16:  ES64L-G16RevC.01  3-Jul-2019

 ----------------------------------------------------------------------
 #t hf aug-cc-pvdz iop(5/13=1,5/36=2,99/5=2) pseudo=read geom=check gue
 ss=(read,tcheck) scf=(maxcycle=1)
 ----------------------------------------------------------------------
 -----
 title
 -----
 Structure from the checkpoint file:  "hydroxysulfanylethyne.chk"
 Charge =  0 Multiplicity = 1

                         Standard orientation:
 ---------------------------------------------------------------------
 Center     Atomic      Atomic             Coordinates (Angstroms)
 Number     Number       Type             X           Y           Z
 ---------------------------------------------------------------------
      1         16           0       -0.560952   -0.610114    0.012357
      2          8           0       -1.476085    0.795532   -0.118724
      3          6           0        1.020613   -0.035441    0.000928
      4          6           0        2.177382    0.307670   -0.001983
      5          1           0       -1.598128    1.151695    0.770681
      6          1           0        3.194069    0.612498   -0.012273
 ---------------------------------------------------------------------

 SCF Done:  E(RHF) =  -549.414702280     A.U. after    2 cycles

 The electronic state is 1-A.
 Alpha  occ. eigenvalues --  -94.03970 -20.60372 -11.27631 -11.26616  -8.31291
 Alpha  occ. eigenvalues --   -6.29143  -6.28917  -6.28643  -1.48502  -1.09418
 Alpha  occ. eigenvalues --   -0.99206  -0.75881  -0.71799  -0.64862  -0.58925
 Alpha  occ. eigenvalues --   -0.49961  -0.48574  -0.43005  -0.35813
 Alpha virt. eigenvalues --    0.03435   0.03954   0.07125   0.07571   0.09679
 Alpha virt. eigenvalues --    0.09804   0.11593   0.13211   0.15351   0.15860
 Alpha virt. eigenvalues --    0.16524   0.16729   0.18347   0.20246   0.21806

 Mulliken charges:
               1
     1  S    0.859831
     2  O   -1.030223
     3  C    0.003867
     4  C    0.016009
     5  H    0.395412
     6  H   -0.244897
 Sum of Mulliken charges =   0.00000

 Dipole moment (field-independent basis, Debye):
    X=              0.7740    Y=              0.6512    Z=              1.4166  Tot=              1.7406

 Test job not archived.
 1\1\GINC-SE168\SP\RHF\Aug-CC-pVDZ\C2H2O1S1\OHZDE\05-Apr-2025\0\\#t hf
 aug-cc-pvdz iop(5/13=1,5/36=2,99/5=2) pseudo=read geom=check guess=(re
 ad,tcheck) scf=(maxcycle=1)\\title\\0,1\S,0,-0.560952,-0.610114,0.0123
 57\O,0,-1.476085,0.795532,-0.118724\C,0,1.020613,-0.035441,0.000928\C,
 0,2.177382,0.30767,-0.001983\H,0,-1.598128,1.151695,0.770681\H,0,3.194
 069,0.612498,-0.012273\\Version=ES64L-G16RevC.01\State=1-A\HF=-549.414
 7023\RMSD=1.993e-02\Dipole=0.3045099,0.2562034,0.5573175\Quadrupole=3.
 3416802,-1.0679427,-2.2737375,0.5860496,-2.0257604,1.5699869\PG=C01 [X

 Normal termination of Gaussian 16 at Sat Apr  5 23:03:17 2025.
