 Gaussian 16, Revision C.01,

 ----------------------------------------------------------------------
 #t hf aug-cc-pvdz symm=none int=(grid=ultrafine) guess=(read,tcheck) s
 table=(opt,rrhf)
 ----------------------------------------------------------------------
 -----
 title
 -----
 Symbolic Z-matrix:
 Charge =  0 Multiplicity = 1

 SCF Done:  E(RHF) =  -336.398337666     A.U. after   16 cycles
 Normal termination of Gaussian 16 at Sat Apr  5 23:05:15 2025.
 Gaussian 16:  ES64L-G16RevC.01  3-Jul-2019

 ----------------------------------------------------------------------
 #t hf aug-cc-pvdz iop(5/13=1,5/36=2,99/5=2) pseudo=read geom=check gue
 ss=(read,tcheck) scf=(maxcycle=1)
 ----------------------------------------------------------------------
 -----
 title
 -----
 Structure from the checkpoint file:  "hydroxymethylenemalononitrile.chk"
 Charge =  0 Multiplicity = 1

                         Standard orientation:
 ---------------------------------------------------------------------
 Center     Atomic      Atomic             Coordinates (Angstroms)
 Number     Number       Type             X           Y           Z
 ---------------------------------------------------------------------
      1          8           0        1.964875   -1.028829    0.000000
      2          7           0       -2.725203   -0.414146    0.000000
      3          7           0        0.766731    2.336947   -0.000002
      4          6           0       -0.171149   -0.063923    0.000000
      5          6           0        0.638308   -1.147035    0.000000
      6          6           0       -1.584579   -0.252310    0.000000
      7          6           0        0.348128    1.264198   -0.000001
      8          1           0        2.392732   -1.891508    0.000000
      9          1           0        0.213330   -2.143050    0.000002
 ---------------------------------------------------------------------

 SCF Done:  E(RHF) =  -336.722933106     A.U. after    2 cycles

 The electronic state is 1-A.
 Alpha  occ. eigenvalues --  -20.66025 -15.53536 -15.53350 -11.40789 -11.33511
 Alpha  occ. eigenvalues --  -11.30744 -11.30336  -1.58154  -1.26181  -1.24927
 Alpha  occ. eigenvalues --   -1.15023  -0.94980  -0.86727  -0.77378  -0.76648
 Alpha  occ. eigenvalues --   -0.66142  -0.63056  -0.62502  -0.61056  -0.57972
 Alpha  occ. eigenvalues --   -0.53288  -0.53253  -0.51916  -0.41023
 Alpha virt. eigenvalues --    0.00692   0.03608   0.03626   0.06433   0.07540
 Alpha virt. eigenvalues --    0.09102   0.10100   0.10259   0.11865   0.12763
 Alpha virt. eigenvalues --    0.13095   0.13707   0.14542   0.14810   0.15845

 Mulliken charges:
               1
     1  O   -1.468027
     2  N    0.958288
     3  N    0.913427
     4  C    1.944726
     5  C    1.830259
     6  C   -2.260808
     7  C   -2.285990
     8  H    0.468614
     9  H   -0.100489
 Sum of Mulliken charges =  -0.00000

 Dipole moment (field-independent basis, Debye):
    X=              4.2507    Y=             -6.6572    Z=              0.0000  Tot=              7.8985

 Test job not archived.
 1\1\GINC-SE205\SP\RHF\Aug-CC-pVDZ\C4H2N2O1\OHZDE\05-Apr-2025\0\\#t hf
 aug-cc-pvdz iop(5/13=1,5/36=2,99/5=2) pseudo=read geom=check guess=(re
 ad,tcheck) scf=(maxcycle=1)\\title\\0,1\O,0,1.964875,-1.028829,0.\N,0,
 -2.725203,-0.414146,0.\N,0,0.766731,2.336947,-0.000002\C,0,-0.171149,-
 0.063923,0.\C,0,0.638308,-1.147035,0.\C,0,-1.584579,-0.25231,0.\C,0,0.
 348128,1.264198,-0.000001\H,0,2.392732,-1.891508,0.\H,0,0.21333,-2.143
 05,0.000002\\Version=ES64L-G16RevC.01\State=1-A\HF=-336.7229331\RMSD=3
 .088e-02\Dipole=1.6723628,-2.6191346,0.0000016\Quadrupole=-5.0764114,2

 Normal termination of Gaussian 16 at Sat Apr  5 23:06:14 2025.
