 Gaussian 16, Revision C.01,

 ----------------------------------------------------------------------
 #t hf aug-cc-pvdz symm=none int=(grid=ultrafine) guess=(read,tcheck) s
 table=(opt,rrhf)
 ----------------------------------------------------------------------
 -----
 title
 -----
 Symbolic Z-matrix:
 Charge =  0 Multiplicity = 1

 SCF Done:  E(RHF) =  -227.806591451     A.U. after   13 cycles
 Normal termination of Gaussian 16 at Sat Apr  5 23:05:07 2025.
 Gaussian 16:  ES64L-G16RevC.01  3-Jul-2019

 ----------------------------------------------------------------------
 #t hf aug-cc-pvdz iop(5/13=1,5/36=2,99/5=2) pseudo=read geom=check gue
 ss=(read,tcheck) scf=(maxcycle=1)
 ----------------------------------------------------------------------
 -----
 title
 -----
 Structure from the checkpoint file:  "hydroxyacetaldehyde.chk"
 Charge =  0 Multiplicity = 1

                         Standard orientation:
 ---------------------------------------------------------------------
 Center     Atomic      Atomic             Coordinates (Angstroms)
 Number     Number       Type             X           Y           Z
 ---------------------------------------------------------------------
      1          6           0        0.000000    0.928126    0.000000
      2          6           0        0.925344   -0.256408    0.000000
      3          8           0       -1.349713    0.557465    0.000000
      4          8           0        0.516462   -1.391513    0.000000
      5          1           0       -1.374140   -0.411223    0.000000
      6          1           0        0.240237    1.542269    0.879378
      7          1           0        0.240237    1.542269   -0.879378
      8          1           0        2.007614   -0.031238    0.000000
 ---------------------------------------------------------------------

 SCF Done:  E(RHF) =  -228.036144271     A.U. after    2 cycles

 The electronic state is 1-A'.
 Alpha  occ. eigenvalues --  -20.57069 -20.55873 -11.36229 -11.31256  -1.50767
 Alpha  occ. eigenvalues --   -1.45945  -1.01602  -0.82334  -0.73893  -0.68818
 Alpha  occ. eigenvalues --   -0.66807  -0.61367  -0.55155  -0.53816  -0.45793
 Alpha  occ. eigenvalues --   -0.44449
 Alpha virt. eigenvalues --    0.03069   0.04762   0.04789   0.06063   0.09549
 Alpha virt. eigenvalues --    0.10105   0.11265   0.12093   0.14203   0.14777
 Alpha virt. eigenvalues --    0.15938   0.16111   0.19856   0.22771   0.23903

 Mulliken charges:
               1
     1  C    0.583897
     2  C    0.809881
     3  O   -1.137823
     4  O   -1.086074
     5  H    0.355193
     6  H    0.174408
     7  H    0.174408
     8  H    0.126111
 Sum of Mulliken charges =  -0.00000

 Dipole moment (field-independent basis, Debye):
    X=              2.1164    Y=              1.6418    Z=             -0.0000  Tot=              2.6785

 Test job not archived.
 1\1\GINC-SE202\SP\RHF\Aug-CC-pVDZ\C2H4O2\OHZDE\05-Apr-2025\0\\#t hf au
 g-cc-pvdz iop(5/13=1,5/36=2,99/5=2) pseudo=read geom=check guess=(read
 ,tcheck) scf=(maxcycle=1)\\title\\0,1\C,0,0.,0.928126,0.\C,0,0.925344,
 -0.256408,0.\O,0,-1.349713,0.557465,0.\O,0,0.516462,-1.391513,0.\H,0,-
 1.37414,-0.411223,0.\H,0,0.240237,1.542269,0.879378\H,0,0.240237,1.542
 269,-0.879378\H,0,2.007614,-0.031238,0.\\Version=ES64L-G16RevC.01\Stat
 e=1-A'\HF=-228.0361443\RMSD=9.219e-03\Dipole=0.8326422,0.6459156,0.\Qu
 adrupole=0.4666563,-1.4537395,0.9870832,3.1289468,0.,0.\PG=CS [SG(C2H2

 Normal termination of Gaussian 16 at Sat Apr  5 23:06:13 2025.
