 Gaussian 16, Revision C.01,

 ----------------------------------------------------------------------
 #t hf aug-cc-pvdz symm=none int=(grid=ultrafine) guess=(read,tcheck) s
 table=(opt,rrhf)
 ----------------------------------------------------------------------
 -----
 title
 -----
 Symbolic Z-matrix:
 Charge =  0 Multiplicity = 1

 SCF Done:  E(RHF) =  -226.444916537     A.U. after   15 cycles
 Normal termination of Gaussian 16 at Sat Apr  5 23:02:15 2025.
 Gaussian 16:  ES64L-G16RevC.01  3-Jul-2019

 ----------------------------------------------------------------------
 #t hf aug-cc-pvdz iop(5/13=1,5/36=2,99/5=2) pseudo=read geom=check gue
 ss=(read,tcheck) scf=(maxcycle=1)
 ----------------------------------------------------------------------
 -----
 title
 -----
 Structure from the checkpoint file:  "hydroperoxyacetylene.chk"
 Charge =  0 Multiplicity = 1

                         Standard orientation:
 ---------------------------------------------------------------------
 Center     Atomic      Atomic             Coordinates (Angstroms)
 Number     Number       Type             X           Y           Z
 ---------------------------------------------------------------------
      1          8           0        0.500202    0.649433   -0.012191
      2          8           0        1.498887   -0.464552   -0.099113
      3          6           0       -0.689930    0.150600    0.001728
      4          6           0       -1.824334   -0.241903    0.015562
      5          1           0        1.923095   -0.355188    0.766050
      6          1           0       -2.830223   -0.576039    0.020646
 ---------------------------------------------------------------------

 SCF Done:  E(RHF) =  -226.664919746     A.U. after    2 cycles

 The electronic state is 1-A.
 Alpha  occ. eigenvalues --  -20.67906 -20.66530 -11.31240 -11.24903  -1.62805
 Alpha  occ. eigenvalues --   -1.37251  -1.03255  -0.79191  -0.74879  -0.71798
 Alpha  occ. eigenvalues --   -0.67030  -0.59027  -0.53925  -0.41343  -0.39102
 Alpha virt. eigenvalues --    0.03273   0.04098   0.08294   0.09632   0.11723
 Alpha virt. eigenvalues --    0.12174   0.12848   0.14769   0.15488   0.16531
 Alpha virt. eigenvalues --    0.19044   0.20859   0.23007   0.23748   0.25035

 Mulliken charges:
               1
     1  O   -0.736755
     2  O   -0.433912
     3  C    0.406299
     4  C    0.608272
     5  H    0.436413
     6  H   -0.280317
 Sum of Mulliken charges =  -0.00000

 Dipole moment (field-independent basis, Debye):
    X=              0.5014    Y=             -0.5006    Z=              1.4816  Tot=              1.6423

 Test job not archived.
 1\1\GINC-SE153\SP\RHF\Aug-CC-pVDZ\C2H2O2\OHZDE\05-Apr-2025\0\\#t hf au
 g-cc-pvdz iop(5/13=1,5/36=2,99/5=2) pseudo=read geom=check guess=(read
 ,tcheck) scf=(maxcycle=1)\\title\\0,1\O,0,0.500202,0.649433,-0.012191\
 O,0,1.498887,-0.464552,-0.099113\C,0,-0.68993,0.1506,0.001728\C,0,-1.8
 24334,-0.241903,0.015562\H,0,1.923095,-0.355188,0.76605\H,0,-2.830223,
 -0.576039,0.020646\\Version=ES64L-G16RevC.01\State=1-A\HF=-226.6649197
 \RMSD=2.129e-02\Dipole=0.1972803,-0.1969652,0.5829115\Quadrupole=3.909
 7564,-2.39753,-1.5122264,0.5191153,2.4880609,-0.4024471\PG=C01 [X(C2H2

 Normal termination of Gaussian 16 at Sat Apr  5 23:03:04 2025.
