 Gaussian 16, Revision C.01,

 ----------------------------------------------------------------------
 #t hf aug-cc-pvdz symm=none int=(grid=ultrafine) guess=(read,tcheck) s
 table=(opt,rrhf)
 ----------------------------------------------------------------------
 -----
 title
 -----
 Symbolic Z-matrix:
 Charge =  0 Multiplicity = 1

 SCF Done:  E(RHF) =  -151.690666760     A.U. after   13 cycles
 Normal termination of Gaussian 16 at Sat Apr  5 23:03:04 2025.
 Gaussian 16:  ES64L-G16RevC.01  3-Jul-2019

 ----------------------------------------------------------------------
 #t hf aug-cc-pvdz iop(5/13=1,5/36=2,99/5=2) pseudo=read geom=check gue
 ss=(read,tcheck) scf=(maxcycle=1)
 ----------------------------------------------------------------------
 -----
 title
 -----
 Structure from the checkpoint file:  "hydroxyacetylene.chk"
 Charge =  0 Multiplicity = 1

                         Standard orientation:
 ---------------------------------------------------------------------
 Center     Atomic      Atomic             Coordinates (Angstroms)
 Number     Number       Type             X           Y           Z
 ---------------------------------------------------------------------
      1          8           0        1.180945   -0.108391   -0.000024
      2          6           0       -0.123542   -0.002551    0.000003
      3          6           0       -1.320286    0.013531    0.000025
      4          1           0        1.594854    0.763873   -0.000012
      5          1           0       -2.379443    0.037377    0.000043
 ---------------------------------------------------------------------

 SCF Done:  E(RHF) =  -151.842511185     A.U. after    2 cycles

 The electronic state is 1-A.
 Alpha  occ. eigenvalues --  -20.62755 -11.30833 -11.23405  -1.54119  -1.03034
 Alpha  occ. eigenvalues --   -0.82486  -0.71534  -0.66532  -0.61848  -0.40573
 Alpha  occ. eigenvalues --   -0.38545
 Alpha virt. eigenvalues --    0.02913   0.04286   0.09836   0.11744   0.11960
 Alpha virt. eigenvalues --    0.12357   0.12535   0.14344   0.16675   0.20425
 Alpha virt. eigenvalues --    0.23314   0.24403   0.25623   0.27088   0.28345

 Mulliken charges:
               1
     1  O   -1.072315
     2  C    0.375400
     3  C    0.570869
     4  H    0.384208
     5  H   -0.258162
 Sum of Mulliken charges =   0.00000

 Dipole moment (field-independent basis, Debye):
    X=              0.5973    Y=              1.5466    Z=              0.0000  Tot=              1.6579

 Test job not archived.
 1\1\GINC-SE202\SP\RHF\Aug-CC-pVDZ\C2H2O1\OHZDE\05-Apr-2025\0\\#t hf au
 g-cc-pvdz iop(5/13=1,5/36=2,99/5=2) pseudo=read geom=check guess=(read
 ,tcheck) scf=(maxcycle=1)\\title\\0,1\O,0,1.180945,-0.108391,-0.000024
 \C,0,-0.123542,-0.002551,0.000003\C,0,-1.320286,0.013531,0.000025\H,0,
 1.594854,0.763873,-0.000012\H,0,-2.379443,0.037377,0.000043\\Version=E
 S64L-G16RevC.01\State=1-A\HF=-151.8425112\RMSD=2.612e-02\Dipole=0.2350
 019,0.6084612,0.0000083\Quadrupole=3.0383069,-0.8420079,-2.1962991,2.1
 956216,-0.0000413,-0.0000103\PG=C01 [X(C2H2O1)]\\@

 Normal termination of Gaussian 16 at Sat Apr  5 23:03:16 2025.
