 Gaussian 16, Revision C.01,

 ----------------------------------------------------------------------
 #t hf aug-cc-pvdz symm=none int=(grid=ultrafine) guess=(read,tcheck) s
 table=(opt,rrhf)
 ----------------------------------------------------------------------
 -----
 title
 -----
 Symbolic Z-matrix:
 Charge =  0 Multiplicity = 1

 SCF Done:  E(RHF) =  -380.471737828     A.U. after   12 cycles
 Normal termination of Gaussian 16 at Sat Apr  5 23:02:44 2025.
 Gaussian 16:  ES64L-G16RevC.01  3-Jul-2019

 ----------------------------------------------------------------------
 #t hf aug-cc-pvdz iop(5/13=1,5/36=2,99/5=2) pseudo=read geom=check gue
 ss=(read,tcheck) scf=(maxcycle=1)
 ----------------------------------------------------------------------
 -----
 title
 -----
 Structure from the checkpoint file:  "hydroquinone.chk"
 Charge =  0 Multiplicity = 1

                         Standard orientation:
 ---------------------------------------------------------------------
 Center     Atomic      Atomic             Coordinates (Angstroms)
 Number     Number       Type             X           Y           Z
 ---------------------------------------------------------------------
      1          8           0       -0.055278    2.766941    0.000000
      2          6           0        0.001661    1.395041    0.000000
      3          6           0        1.201394    0.689669    0.000000
      4          6           0        1.201394   -0.699360    0.000000
      5          6           0       -0.001661   -1.395041    0.000000
      6          8           0        0.055278   -2.766941    0.000000
      7          6           0       -1.201394   -0.689669    0.000000
      8          6           0       -1.201394    0.699360    0.000000
      9          1           0        0.835947    3.128399    0.000000
     10          1           0        2.144114    1.223949    0.000000
     11          1           0        2.130783   -1.251030    0.000000
     12          1           0       -0.835947   -3.128399    0.000000
     13          1           0       -2.144114   -1.223949    0.000000
     14          1           0       -2.130783    1.251030    0.000000
 ---------------------------------------------------------------------

 SCF Done:  E(RHF) =  -380.857337991     A.U. after    2 cycles

 The electronic state is 1-AG.
 Alpha  occ. eigenvalues --  -20.57691 -20.57688 -11.30268 -11.30240 -11.24864
 Alpha  occ. eigenvalues --  -11.24833 -11.24435 -11.24403  -1.48851  -1.48768
 Alpha  occ. eigenvalues --   -1.15418  -1.03084  -1.00529  -0.87350  -0.83328
 Alpha  occ. eigenvalues --   -0.74999  -0.74312  -0.67707  -0.62951  -0.62842
 Alpha  occ. eigenvalues --   -0.60974  -0.59678  -0.57268  -0.55689  -0.55264
 Alpha  occ. eigenvalues --   -0.50617  -0.46766  -0.35918  -0.30542
 Alpha virt. eigenvalues --    0.03125   0.03381   0.04194   0.05122   0.06037
 Alpha virt. eigenvalues --    0.08145   0.09469   0.11087   0.11194   0.12912
 Alpha virt. eigenvalues --    0.13130   0.13500   0.14153   0.14158   0.14318

 Mulliken charges:
               1
     1  O   -1.739621
     2  C    1.569146
     3  C    0.091758
     4  C    0.232877
     5  C    1.569146
     6  O   -1.739621
     7  C    0.091758
     8  C    0.232877
     9  H    0.397127
    10  H   -0.325004
    11  H   -0.226283
    12  H    0.397127
    13  H   -0.325004
    14  H   -0.226283
 Sum of Mulliken charges =  -0.00000

 Dipole moment (field-independent basis, Debye):
    X=             -0.0000    Y=             -0.0000    Z=              0.0000  Tot=              0.0000

 Test job not archived.
 1\1\GINC-SE154\SP\RHF\Aug-CC-pVDZ\C6H6O2\OHZDE\05-Apr-2025\0\\#t hf au
 g-cc-pvdz iop(5/13=1,5/36=2,99/5=2) pseudo=read geom=check guess=(read
 ,tcheck) scf=(maxcycle=1)\\title\\0,1\O,0,-0.055278,2.766941,0.\C,0,0.
 001661,1.395041,0.\C,0,1.201394,0.689669,0.\C,0,1.201394,-0.69936,0.\C
 ,0,-0.001661,-1.395041,0.\O,0,0.055278,-2.766941,0.\C,0,-1.201394,-0.6
 89669,0.\C,0,-1.201394,0.69936,0.\H,0,0.835947,3.128399,0.\H,0,2.14411
 4,1.223949,0.\H,0,2.130783,-1.25103,0.\H,0,-0.835947,-3.128399,0.\H,0,
 -2.144114,-1.223949,0.\H,0,-2.130783,1.25103,0.\\Version=ES64L-G16RevC

 Normal termination of Gaussian 16 at Sat Apr  5 23:03:06 2025.
