 Gaussian 16, Revision C.01,

 ----------------------------------------------------------------------
 #t hf aug-cc-pvdz symm=none int=(grid=ultrafine) guess=(read,tcheck) s
 table=(opt,rrhf)
 ----------------------------------------------------------------------
 -----
 title
 -----
 Symbolic Z-matrix:
 Charge =  0 Multiplicity = 1

 SCF Done:  E(RHF) =  -809.920288559     A.U. after   15 cycles
 Normal termination of Gaussian 16 at Sat Apr  5 23:03:51 2025.
 Gaussian 16:  ES64L-G16RevC.01  3-Jul-2019

 ----------------------------------------------------------------------
 #t hf aug-cc-pvdz iop(5/13=1,5/36=2,99/5=2) pseudo=read geom=check gue
 ss=(read,tcheck) scf=(maxcycle=1)
 ----------------------------------------------------------------------
 -----
 title
 -----
 Structure from the checkpoint file:  "imidazol-1-yloxymethanethioic_O-acid.chk"
 Charge =  0 Multiplicity = 1

                         Standard orientation:
 ---------------------------------------------------------------------
 Center     Atomic      Atomic             Coordinates (Angstroms)
 Number     Number       Type             X           Y           Z
 ---------------------------------------------------------------------
      1         16           0        2.996748    0.021824   -0.268596
      2          8           0        0.456110    0.082338   -0.793882
      3          8           0        0.927761   -0.148682    1.382040
      4          7           0       -0.867057    0.036647   -0.354945
      5          7           0       -2.862943    0.732728    0.190086
      6          6           0        1.424260   -0.020504    0.159117
      7          6           0       -1.640834    1.120155   -0.072639
      8          6           0       -1.634472   -1.100967   -0.292195
      9          6           0       -2.871350   -0.637105    0.057407
     10          1           0        1.677808   -0.212492    1.990373
     11          1           0       -1.254127    2.124562   -0.078045
     12          1           0       -1.230660   -2.075076   -0.495225
     13          1           0       -3.767578   -1.210522    0.219041
 ---------------------------------------------------------------------

 SCF Done:  E(RHF) =  -810.384918674     A.U. after    2 cycles

 The electronic state is 1-A.
 Alpha  occ. eigenvalues --  -93.94362 -20.68937 -20.65870 -15.63759 -15.50554
 Alpha  occ. eigenvalues --  -11.47785 -11.32435 -11.28943 -11.26998  -8.22705
 Alpha  occ. eigenvalues --   -6.20576  -6.20237  -6.20118  -1.64099  -1.56136
 Alpha  occ. eigenvalues --   -1.35454  -1.18736  -1.08347  -1.04767  -0.92618
 Alpha  occ. eigenvalues --   -0.87437  -0.86312  -0.80922  -0.74567  -0.70684
 Alpha  occ. eigenvalues --   -0.69693  -0.67329  -0.65591  -0.62182  -0.61507
 Alpha  occ. eigenvalues --   -0.58062  -0.57160  -0.49602  -0.45802  -0.39969
 Alpha  occ. eigenvalues --   -0.38634  -0.35881
 Alpha virt. eigenvalues --    0.02891   0.04013   0.04560   0.04984   0.07077
 Alpha virt. eigenvalues --    0.07248   0.08317   0.09271   0.10329   0.10621
 Alpha virt. eigenvalues --    0.11007   0.11243   0.13372   0.13969   0.14023

 Mulliken charges:
               1
     1  S    0.308112
     2  O   -1.661620
     3  O   -1.261471
     4  N    1.795796
     5  N    0.754110
     6  C    0.697772
     7  C   -0.675148
     8  C    0.458413
     9  C   -0.562318
    10  H    0.534777
    11  H   -0.081794
    12  H   -0.214861
    13  H   -0.091767
 Sum of Mulliken charges =  -0.00000

 Dipole moment (field-independent basis, Debye):
    X=              0.8559    Y=             -1.3415    Z=              1.5954  Tot=              2.2533

 Test job not archived.
 1\1\GINC-SE168\SP\RHF\Aug-CC-pVDZ\C4H4N2O2S1\OHZDE\05-Apr-2025\0\\#t h
 f aug-cc-pvdz iop(5/13=1,5/36=2,99/5=2) pseudo=read geom=check guess=(
 read,tcheck) scf=(maxcycle=1)\\title\\0,1\S,0,2.996748,0.021824,-0.268
 596\O,0,0.45611,0.082338,-0.793882\O,0,0.927761,-0.148682,1.38204\N,0,
 -0.867057,0.036647,-0.354945\N,0,-2.862943,0.732728,0.190086\C,0,1.424
 26,-0.020504,0.159117\C,0,-1.640834,1.120155,-0.072639\C,0,-1.634472,-
 1.100967,-0.292195\C,0,-2.87135,-0.637105,0.057407\H,0,1.677808,-0.212
 492,1.990373\H,0,-1.254127,2.124562,-0.078045\H,0,-1.23066,-2.075076,-

 Normal termination of Gaussian 16 at Sat Apr  5 23:04:16 2025.
