 Gaussian 16, Revision C.01,

 ----------------------------------------------------------------------
 #t hf aug-cc-pvdz symm=none int=(grid=ultrafine) guess=(read,tcheck) s
 table=(opt,rrhf)
 ----------------------------------------------------------------------
 -----
 title
 -----
 Symbolic Z-matrix:
 Charge =  0 Multiplicity = 1

 SCF Done:  E(RHF) =  -315.364938623     A.U. after   15 cycles
 Normal termination of Gaussian 16 at Sat Apr  5 23:05:13 2025.
 Gaussian 16:  ES64L-G16RevC.01  3-Jul-2019

 ----------------------------------------------------------------------
 #t hf aug-cc-pvdz iop(5/13=1,5/36=2,99/5=2) pseudo=read geom=check gue
 ss=(read,tcheck) scf=(maxcycle=1)
 ----------------------------------------------------------------------
 -----
 title
 -----
 Structure from the checkpoint file:  "iminomethylenemalononitrile.chk"
 Charge =  0 Multiplicity = 1

                         Standard orientation:
 ---------------------------------------------------------------------
 Center     Atomic      Atomic             Coordinates (Angstroms)
 Number     Number       Type             X           Y           Z
 ---------------------------------------------------------------------
      1          7           0       -2.466280   -0.000128   -0.115548
      2          7           0        1.326281   -2.243606    0.007368
      3          7           0        1.326031    2.243750    0.007368
      4          6           0        0.059128    0.000000   -0.004517
      5          6           0       -1.277855   -0.000069    0.009938
      6          6           0        0.760956   -1.239786    0.001005
      7          6           0        0.760823    1.239863    0.001005
      8          1           0       -3.120536   -0.000162    0.661103
 ---------------------------------------------------------------------

 SCF Done:  E(RHF) =  -315.668677067     A.U. after    2 cycles

 The electronic state is 1-A.
 Alpha  occ. eigenvalues --  -15.61546 -15.54312 -15.54292 -11.42561 -11.35689
 Alpha  occ. eigenvalues --  -11.31748 -11.31746  -1.34971  -1.26961  -1.25826
 Alpha  occ. eigenvalues --   -1.15416  -0.92203  -0.84896  -0.84822  -0.68123
 Alpha  occ. eigenvalues --   -0.63697  -0.63577  -0.60399  -0.59371  -0.54300
 Alpha  occ. eigenvalues --   -0.54167  -0.52819  -0.42401
 Alpha virt. eigenvalues --    0.01061   0.03996   0.04695   0.06318   0.07378
 Alpha virt. eigenvalues --    0.07684   0.08769   0.10819   0.10948   0.11725
 Alpha virt. eigenvalues --    0.12047   0.12418   0.12516   0.15141   0.15223

 Mulliken charges:
               1
     1  N    0.878970
     2  N    0.816659
     3  N    0.816661
     4  C    2.321326
     5  C   -1.441457
     6  C   -1.804816
     7  C   -1.804821
     8  H    0.217479
 Sum of Mulliken charges =  -0.00000

 Dipole moment (field-independent basis, Debye):
    X=             -5.8626    Y=             -0.0003    Z=              1.4703  Tot=              6.0442

 Test job not archived.
 1\1\GINC-SE172\SP\RHF\Aug-CC-pVDZ\C4H1N3\OHZDE\05-Apr-2025\0\\#t hf au
 g-cc-pvdz iop(5/13=1,5/36=2,99/5=2) pseudo=read geom=check guess=(read
 ,tcheck) scf=(maxcycle=1)\\title\\0,1\N,0,-2.46628,-0.000132,-0.115548
 \N,0,1.326285,-2.243604,0.007368\N,0,1.326027,2.243752,0.007368\C,0,0.
 059128,0.,-0.004517\C,0,-1.277855,-0.000071,0.009938\C,0,0.760958,-1.2
 39785,0.001005\C,0,0.760821,1.239864,0.001005\H,0,-3.120536,-0.000167,
 0.661103\\Version=ES64L-G16RevC.01\State=1-A\HF=-315.6686771\RMSD=3.72
 5e-02\Dipole=-2.3065364,-0.0001328,0.5784548\Quadrupole=5.2854736,-9.4

 Normal termination of Gaussian 16 at Sat Apr  5 23:06:13 2025.
