 Gaussian 16, Revision C.01,

 ----------------------------------------------------------------------
 #t hf aug-cc-pvdz symm=none int=(grid=ultrafine) guess=(read,tcheck) s
 table=(opt,rrhf)
 ----------------------------------------------------------------------
 -----
 title
 -----
 Symbolic Z-matrix:
 Charge =  0 Multiplicity = 1

 SCF Done:  E(RHF) =  -346.682765246     A.U. after   14 cycles
 Normal termination of Gaussian 16 at Sat Apr  5 23:04:23 2025.
 Gaussian 16:  ES64L-G16RevC.01  3-Jul-2019

 ----------------------------------------------------------------------
 #t hf aug-cc-pvdz iop(5/13=1,5/36=2,99/5=2) pseudo=read geom=check gue
 ss=(read,tcheck) scf=(maxcycle=1)
 ----------------------------------------------------------------------
 -----
 title
 -----
 Structure from the checkpoint file:  "indane.chk"
 Charge =  0 Multiplicity = 1

                         Standard orientation:
 ---------------------------------------------------------------------
 Center     Atomic      Atomic             Coordinates (Angstroms)
 Number     Number       Type             X           Y           Z
 ---------------------------------------------------------------------
      1          6           0       -0.045568   -2.249090    0.696137
      2          6           0       -0.045568   -2.249090   -0.696137
      3          6           0        0.004095   -1.048325    1.400520
      4          6           0        0.004095   -1.048325   -1.400520
      5          6           0        0.049674    0.148504    0.698241
      6          6           0        0.049674    0.148504   -0.698241
      7          6           0        0.125739    1.561338    1.227438
      8          6           0        0.125739    1.561338   -1.227438
      9          6           0       -0.258685    2.418849    0.000000
     10          1           0       -0.089794   -3.187131    1.233424
     11          1           0       -0.089794   -3.187131   -1.233424
     12          1           0        0.001095   -1.053757    2.483428
     13          1           0        0.001095   -1.053757   -2.483428
     14          1           0       -0.526446    1.733848    2.084324
     15          1           0        1.145985    1.785770    1.556006
     16          1           0        1.145985    1.785770   -1.556006
     17          1           0       -0.526446    1.733848   -2.084324
     18          1           0       -1.337645    2.583506    0.000000
     19          1           0        0.220799    3.396809    0.000000
 ---------------------------------------------------------------------

 SCF Done:  E(RHF) =  -347.049202675     A.U. after    2 cycles

 The electronic state is 1-A'.
 Alpha  occ. eigenvalues --  -11.23501 -11.23475 -11.23402 -11.23387 -11.23332
 Alpha  occ. eigenvalues --  -11.23319 -11.23246 -11.23184 -11.23127  -1.16976
 Alpha  occ. eigenvalues --   -1.09178  -1.02382  -0.97416  -0.94154  -0.83798
 Alpha  occ. eigenvalues --   -0.79902  -0.79035  -0.69588  -0.65988  -0.64048
 Alpha  occ. eigenvalues --   -0.62721  -0.58486  -0.57990  -0.56508  -0.52030
 Alpha  occ. eigenvalues --   -0.50788  -0.50224  -0.48574  -0.47905  -0.46954
 Alpha  occ. eigenvalues --   -0.33765  -0.32383
 Alpha virt. eigenvalues --    0.03466   0.03529   0.03893   0.04199   0.04854
 Alpha virt. eigenvalues --    0.04889   0.06594   0.06807   0.07693   0.08366
 Alpha virt. eigenvalues --    0.10447   0.11495   0.12009   0.12450   0.12878

 Mulliken charges:
               1
     1  C   -0.089145
     2  C   -0.089145
     3  C    0.690673
     4  C    0.690673
     5  C    0.192937
     6  C    0.192937
     7  C   -0.802374
     8  C   -0.802374
     9  C   -0.057171
    10  H   -0.248476
    11  H   -0.248476
    12  H   -0.252026
    13  H   -0.252026
    14  H    0.164605
    15  H    0.254408
    16  H    0.254408
    17  H    0.164605
    18  H    0.113218
    19  H    0.122751
 Sum of Mulliken charges =  -0.00000

 Dipole moment (field-independent basis, Debye):
    X=              0.0489    Y=              0.6790    Z=             -0.0000  Tot=              0.6808

 Test job not archived.
 1\1\GINC-SE171\SP\RHF\Aug-CC-pVDZ\C9H10\OHZDE\05-Apr-2025\0\\#t hf aug
 -cc-pvdz iop(5/13=1,5/36=2,99/5=2) pseudo=read geom=check guess=(read,
 tcheck) scf=(maxcycle=1)\\title\\0,1\C,0,-0.045568,-2.24909,0.696137\C
 ,0,-0.045568,-2.24909,-0.696137\C,0,0.004095,-1.048325,1.40052\C,0,0.0
 04095,-1.048325,-1.40052\C,0,0.049674,0.148504,0.698241\C,0,0.049674,0
 .148504,-0.698241\C,0,0.125739,1.561338,1.227438\C,0,0.125739,1.561338
 ,-1.227438\C,0,-0.258685,2.418849,0.\H,0,-0.089794,-3.187131,1.233424\
 H,0,-0.089794,-3.187131,-1.233424\H,0,0.001095,-1.053757,2.483428\H,0,

 Normal termination of Gaussian 16 at Sat Apr  5 23:04:52 2025.
