 Gaussian 16, Revision C.01,

 ----------------------------------------------------------------------
 #t hf aug-cc-pvdz symm=none int=(grid=ultrafine) guess=(read,tcheck) s
 table=(opt,rrhf)
 ----------------------------------------------------------------------
 -----
 title
 -----
 Symbolic Z-matrix:
 Charge =  0 Multiplicity = 1

 SCF Done:  E(RHF) =  -683.479844843     A.U. after   11 cycles

 1\1\GINC-SE173\Stability\RHF\Aug-CC-pVDZ\C6H12O6\OHZDE\05-Apr-2025\0\\
 #t hf aug-cc-pvdz symm=none int=(grid=ultrafine) guess=(read,tcheck) s
 table=(opt,rrhf)\\title\\0,1\C,0,-1.325775,0.584643,0.23799\C,0,0.1551
 42,-1.44186,0.227032\C,0,1.169971,0.852886,0.241238\C,0,-0.155142,1.44
 186,-0.227032\C,0,-1.169971,-0.852886,-0.241238\C,0,1.325775,-0.584643
 ,-0.23799\O,0,-2.565352,1.060854,-0.274243\O,0,0.365045,-2.749548,-0.2
 93829\O,0,2.199913,1.693855,-0.266419\O,0,-0.365045,2.749548,0.293829\
 O,0,-2.199913,-1.693855,0.266419\O,0,2.565352,-1.060854,0.274243\H,0,-

 Normal termination of Gaussian 16 at Sat Apr  5 23:07:11 2025.
 Gaussian 16:  ES64L-G16RevC.01  3-Jul-2019

 ----------------------------------------------------------------------
 #t hf aug-cc-pvdz iop(5/13=1,5/36=2,99/5=2) pseudo=read geom=check gue
 ss=(read,tcheck) scf=(maxcycle=1)
 ----------------------------------------------------------------------
 -----
 title
 -----
 Structure from the checkpoint file:  "inositol.chk"
 Charge =  0 Multiplicity = 1

                         Standard orientation:
 ---------------------------------------------------------------------
 Center     Atomic      Atomic             Coordinates (Angstroms)
 Number     Number       Type             X           Y           Z
 ---------------------------------------------------------------------
      1          6           0       -1.325775    0.584643    0.237990
      2          6           0        0.155142   -1.441860    0.227032
      3          6           0        1.169971    0.852886    0.241238
      4          6           0       -0.155142    1.441860   -0.227032
      5          6           0       -1.169971   -0.852886   -0.241238
      6          6           0        1.325775   -0.584643   -0.237990
      7          8           0       -2.565352    1.060854   -0.274243
      8          8           0        0.365045   -2.749548   -0.293829
      9          8           0        2.199913    1.693855   -0.266419
     10          8           0       -0.365045    2.749548    0.293829
     11          8           0       -2.199913   -1.693855    0.266419
     12          8           0        2.565352   -1.060854    0.274243
     13          1           0       -1.353744    0.594834    1.334200
     14          1           0        0.153684   -1.479157    1.323029
     15          1           0        1.196484    0.861338    1.337560
     16          1           0       -0.153684    1.479157   -1.323029
     17          1           0       -1.196484   -0.861338   -1.337560
     18          1           0        1.353744   -0.594834   -1.334200
     19          1           0       -2.646403    1.991559   -0.037548
     20          1           0       -0.403701   -3.285449   -0.068670
     21          1           0        3.047455    1.296990   -0.036282
     22          1           0        0.403701    3.285449    0.068670
     23          1           0       -3.047455   -1.296990    0.036282
     24          1           0        2.646403   -1.991559    0.037548
 ---------------------------------------------------------------------

 SCF Done:  E(RHF) =  -684.172230680     A.U. after    2 cycles

 The electronic state is 1-AG.
 Alpha  occ. eigenvalues --  -20.56260 -20.56255 -20.56252 -20.56250 -20.56248
 Alpha  occ. eigenvalues --  -20.56246 -11.30250 -11.30248 -11.30214 -11.30212
 Alpha  occ. eigenvalues --  -11.30195 -11.30139  -1.48831  -1.47499  -1.47493
 Alpha  occ. eigenvalues --   -1.45312  -1.45308  -1.44254  -1.12271  -1.00324
 Alpha  occ. eigenvalues --   -1.00304  -0.86158  -0.86155  -0.81485  -0.77094
 Alpha  occ. eigenvalues --   -0.72340  -0.72323  -0.71333  -0.66602  -0.66593
 Alpha  occ. eigenvalues --   -0.66217  -0.63826  -0.63805  -0.60771  -0.60756
 Alpha  occ. eigenvalues --   -0.60233  -0.55285  -0.55282  -0.53601  -0.52236
 Alpha  occ. eigenvalues --   -0.52223  -0.51780  -0.46430  -0.46388  -0.45246
 Alpha  occ. eigenvalues --   -0.45238  -0.44692  -0.44675
 Alpha virt. eigenvalues --    0.03723   0.03823   0.03826   0.04068   0.05634
 Alpha virt. eigenvalues --    0.05639   0.06019   0.06606   0.06607   0.08403
 Alpha virt. eigenvalues --    0.09213   0.09216   0.13039   0.14541   0.14542

 Mulliken charges:
               1
     1  C    0.988240
     2  C    0.987092
     3  C    0.984878
     4  C    0.987092
     5  C    0.984878
     6  C    0.988240
     7  O   -1.554302
     8  O   -1.555137
     9  O   -1.554141
    10  O   -1.555137
    11  O   -1.554141
    12  O   -1.554302
    13  H    0.256365
    14  H    0.256700
    15  H    0.256681
    16  H    0.256700
    17  H    0.256681
    18  H    0.256365
    19  H    0.311103
    20  H    0.311489
    21  H    0.311032
    22  H    0.311489
    23  H    0.311032
    24  H    0.311103
 Sum of Mulliken charges =  -0.00000

 Dipole moment (field-independent basis, Debye):
    X=              0.0000    Y=             -0.0000    Z=             -0.0000  Tot=              0.0000

 Test job not archived.
 1\1\GINC-SE173\SP\RHF\Aug-CC-pVDZ\C6H12O6\OHZDE\05-Apr-2025\0\\#t hf a
 ug-cc-pvdz iop(5/13=1,5/36=2,99/5=2) pseudo=read geom=check guess=(rea
 d,tcheck) scf=(maxcycle=1)\\title\\0,1\C,0,-1.325775,0.584643,0.23799\
 C,0,0.155142,-1.44186,0.227032\C,0,1.169971,0.852886,0.241238\C,0,-0.1
 55142,1.44186,-0.227032\C,0,-1.169971,-0.852886,-0.241238\C,0,1.325775
 ,-0.584643,-0.23799\O,0,-2.565352,1.060854,-0.274243\O,0,0.365045,-2.7
 49548,-0.293829\O,0,2.199913,1.693855,-0.266419\O,0,-0.365045,2.749548
 ,0.293829\O,0,-2.199913,-1.693855,0.266419\O,0,2.565352,-1.060854,0.27

 Normal termination of Gaussian 16 at Sat Apr  5 23:07:35 2025.
