 Gaussian 16, Revision C.01,

 ----------------------------------------------------------------------
 #t hf aug-cc-pvdz symm=none int=(grid=ultrafine) guess=(read,tcheck) s
 table=(opt,rrhf)
 ----------------------------------------------------------------------
 -----
 title
 -----
 Symbolic Z-matrix:
 Charge =  0 Multiplicity = 1

 SCF Done:  E(RHF) =  -510.109095178     A.U. after   16 cycles
 Normal termination of Gaussian 16 at Sat Apr  5 23:03:40 2025.
 Gaussian 16:  ES64L-G16RevC.01  3-Jul-2019

 ----------------------------------------------------------------------
 #t hf aug-cc-pvdz iop(5/13=1,5/36=2,99/5=2) pseudo=read geom=check gue
 ss=(read,tcheck) scf=(maxcycle=1)
 ----------------------------------------------------------------------
 -----
 title
 -----
 Structure from the checkpoint file:  "isatin.chk"
 Charge =  0 Multiplicity = 1

                         Standard orientation:
 ---------------------------------------------------------------------
 Center     Atomic      Atomic             Coordinates (Angstroms)
 Number     Number       Type             X           Y           Z
 ---------------------------------------------------------------------
      1          8           0       -1.742007    1.965021   -0.000021
      2          6           0       -1.177229    0.903277   -0.000010
      3          6           0        0.255043    0.578698   -0.000007
      4          6           0        0.379731   -0.819241    0.000009
      5          6           0        1.623314   -1.425094    0.000016
      6          6           0        2.745582   -0.595433    0.000007
      7          6           0        2.634874    0.794760   -0.000010
      8          6           0        1.378592    1.391778   -0.000017
      9          7           0       -0.883171   -1.422253    0.000016
     10          6           0       -1.904802   -0.492965    0.000006
     11          8           0       -3.086643   -0.710872    0.000008
     12          1           0        1.729179   -2.501176    0.000029
     13          1           0        3.728266   -1.047628    0.000012
     14          1           0        3.527112    1.404141   -0.000017
     15          1           0        1.265488    2.467328   -0.000029
     16          1           0       -1.049284   -2.414768    0.000030
 ---------------------------------------------------------------------

 SCF Done:  E(RHF) =  -510.612807101     A.U. after    2 cycles

 The electronic state is 1-A.
 Alpha  occ. eigenvalues --  -20.56755 -20.55148 -15.56773 -11.38782 -11.36693
 Alpha  occ. eigenvalues --  -11.32914 -11.28667 -11.28594 -11.27102 -11.26412
 Alpha  occ. eigenvalues --  -11.26269  -1.50459  -1.48670  -1.31478  -1.17958
 Alpha  occ. eigenvalues --   -1.08036  -1.04775  -0.98088  -0.88776  -0.85407
 Alpha  occ. eigenvalues --   -0.82116  -0.77545  -0.73456  -0.69158  -0.68168
 Alpha  occ. eigenvalues --   -0.66337  -0.65345  -0.64660  -0.64452  -0.57267
 Alpha  occ. eigenvalues --   -0.55602  -0.55045  -0.54563  -0.50176  -0.48053
 Alpha  occ. eigenvalues --   -0.41473  -0.38349  -0.35136
 Alpha virt. eigenvalues --    0.02006   0.02195   0.02789   0.03569   0.05371
 Alpha virt. eigenvalues --    0.06537   0.08136   0.08758   0.09675   0.10021
 Alpha virt. eigenvalues --    0.10893   0.10921   0.11319   0.11769   0.12734

 Mulliken charges:
               1
     1  O   -1.491332
     2  C    0.676377
     3  C    1.669074
     4  C   -2.046754
     5  C    0.703756
     6  C   -0.045553
     7  C    0.311506
     8  C    0.889459
     9  N    0.979754
    10  C    0.688328
    11  O   -1.361417
    12  H   -0.273246
    13  H   -0.234233
    14  H   -0.230486
    15  H   -0.244072
    16  H    0.008840
 Sum of Mulliken charges =  -0.00000

 Dipole moment (field-independent basis, Debye):
    X=              5.8061    Y=             -2.7442    Z=              0.0000  Tot=              6.4219

 Test job not archived.
 1\1\GINC-SE292\SP\RHF\Aug-CC-pVDZ\C8H5N1O2\OHZDE\05-Apr-2025\0\\#t hf
 aug-cc-pvdz iop(5/13=1,5/36=2,99/5=2) pseudo=read geom=check guess=(re
 ad,tcheck) scf=(maxcycle=1)\\title\\0,1\O,0,-1.742007,1.965021,-0.0000
 21\C,0,-1.177229,0.903277,-0.00001\C,0,0.255043,0.578698,-0.000007\C,0
 ,0.379731,-0.819241,0.000009\C,0,1.623314,-1.425094,0.000016\C,0,2.745
 582,-0.595433,0.000007\C,0,2.634874,0.79476,-0.00001\C,0,1.378592,1.39
 1778,-0.000017\N,0,-0.883171,-1.422253,0.000016\C,0,-1.904802,-0.49296
 5,0.000006\O,0,-3.086643,-0.710872,0.000008\H,0,1.729179,-2.501176,0.0

 Normal termination of Gaussian 16 at Sat Apr  5 23:04:18 2025.
