 Gaussian 16, Revision C.01,

 ----------------------------------------------------------------------
 #t hf aug-cc-pvdz symm=none int=(grid=ultrafine) guess=(read,tcheck) s
 table=(opt,rrhf)
 ----------------------------------------------------------------------
 -----
 title
 -----
 Symbolic Z-matrix:
 Charge =  0 Multiplicity = 1

 SCF Done:  E(RHF) =  -344.943600618     A.U. after   13 cycles

 1\1\GINC-SE249\Stability\RHF\Aug-CC-pVDZ\C5H10O2\OHZDE\05-Apr-2025\0\\
 #t hf aug-cc-pvdz symm=none int=(grid=ultrafine) guess=(read,tcheck) s
 table=(opt,rrhf)\\title\\0,1\C,0,-2.290734,0.312473,-0.152529\C,0,1.73
 0575,1.318317,0.376938\C,0,2.34948,-1.102336,-0.024284\C,0,-0.050404,-
 0.444296,0.035206\C,0,1.350871,0.017165,-0.333148\O,0,-2.73083,-0.6524
 19,0.410787\O,0,-1.002022,0.556886,-0.408491\H,0,-2.898837,1.139165,-0
 .541138\H,0,2.72614,1.646204,0.075225\H,0,1.741116,1.179254,1.460987\H
 ,0,1.028303,2.11826,0.146337\H,0,3.358716,-0.805723,-0.310746\H,0,2.10

 Normal termination of Gaussian 16 at Sat Apr  5 23:05:23 2025.
 Gaussian 16:  ES64L-G16RevC.01  3-Jul-2019

 ----------------------------------------------------------------------
 #t hf aug-cc-pvdz iop(5/13=1,5/36=2,99/5=2) pseudo=read geom=check gue
 ss=(read,tcheck) scf=(maxcycle=1)
 ----------------------------------------------------------------------
 -----
 title
 -----
 Structure from the checkpoint file:  "isobutyl_formate.chk"
 Charge =  0 Multiplicity = 1

                         Standard orientation:
 ---------------------------------------------------------------------
 Center     Atomic      Atomic             Coordinates (Angstroms)
 Number     Number       Type             X           Y           Z
 ---------------------------------------------------------------------
      1          6           0       -2.290734    0.312473   -0.152529
      2          6           0        1.730575    1.318317    0.376938
      3          6           0        2.349480   -1.102336   -0.024284
      4          6           0       -0.050404   -0.444296    0.035206
      5          6           0        1.350871    0.017165   -0.333148
      6          8           0       -2.730830   -0.652419    0.410787
      7          8           0       -1.002022    0.556886   -0.408491
      8          1           0       -2.898837    1.139165   -0.541138
      9          1           0        2.726140    1.646204    0.075225
     10          1           0        1.741116    1.179254    1.460987
     11          1           0        1.028303    2.118260    0.146337
     12          1           0        3.358716   -0.805723   -0.310746
     13          1           0        2.105762   -2.020077   -0.561819
     14          1           0        2.364512   -1.333019    1.043503
     15          1           0       -0.300747   -1.390490   -0.444761
     16          1           0       -0.160689   -0.574017    1.113477
     17          1           0        1.359807    0.196764   -1.412535
 ---------------------------------------------------------------------

 SCF Done:  E(RHF) =  -345.302210664     A.U. after    2 cycles

 The electronic state is 1-A.
 Alpha  occ. eigenvalues --  -20.59501 -20.54248 -11.39218 -11.29795 -11.24571
 Alpha  occ. eigenvalues --  -11.23306 -11.22697  -1.54674  -1.45731  -1.10215
 Alpha  occ. eigenvalues --   -0.96809  -0.94222  -0.83579  -0.79267  -0.72982
 Alpha  occ. eigenvalues --   -0.69049  -0.68132  -0.62789  -0.61595  -0.57579
 Alpha  occ. eigenvalues --   -0.55294  -0.54577  -0.54032  -0.49891  -0.49105
 Alpha  occ. eigenvalues --   -0.48386  -0.45593  -0.45082
 Alpha virt. eigenvalues --    0.03478   0.03599   0.03897   0.04249   0.05802
 Alpha virt. eigenvalues --    0.06712   0.06975   0.07237   0.07653   0.09056
 Alpha virt. eigenvalues --    0.11343   0.11777   0.13554   0.14123   0.14924

 Mulliken charges:
               1
     1  C    1.302850
     2  C    0.010328
     3  C   -0.043713
     4  C    0.882418
     5  C   -1.590211
     6  O   -0.977672
     7  O   -1.082784
     8  H    0.068440
     9  H    0.133387
    10  H    0.218597
    11  H    0.160121
    12  H    0.138120
    13  H    0.149831
    14  H    0.231285
    15  H    0.075677
    16  H    0.125849
    17  H    0.197478
 Sum of Mulliken charges =   0.00000

 Dipole moment (field-independent basis, Debye):
    X=              2.0238    Y=              1.0107    Z=             -0.8031  Tot=              2.4005

 Test job not archived.
 1\1\GINC-SE249\SP\RHF\Aug-CC-pVDZ\C5H10O2\OHZDE\05-Apr-2025\0\\#t hf a
 ug-cc-pvdz iop(5/13=1,5/36=2,99/5=2) pseudo=read geom=check guess=(rea
 d,tcheck) scf=(maxcycle=1)\\title\\0,1\C,0,-2.290734,0.312473,-0.15252
 9\C,0,1.730575,1.318317,0.376938\C,0,2.34948,-1.102336,-0.024284\C,0,-
 0.050404,-0.444296,0.035206\C,0,1.350871,0.017165,-0.333148\O,0,-2.730
 83,-0.652419,0.410787\O,0,-1.002022,0.556886,-0.408491\H,0,-2.898837,1
 .139165,-0.541138\H,0,2.72614,1.646204,0.075225\H,0,1.741116,1.179254,
 1.460987\H,0,1.028303,2.11826,0.146337\H,0,3.358716,-0.805723,-0.31074

 Normal termination of Gaussian 16 at Sat Apr  5 23:06:17 2025.
