 Gaussian 16, Revision C.01,

 ----------------------------------------------------------------------
 #t hf aug-cc-pvdz symm=none int=(grid=ultrafine) guess=(read,tcheck) s
 table=(opt,rrhf)
 ----------------------------------------------------------------------
 -----
 title
 -----
 Symbolic Z-matrix:
 Charge =  0 Multiplicity = 1

 SCF Done:  E(RHF) =  -386.882463892     A.U. after   14 cycles
 Normal termination of Gaussian 16 at Sat Apr  5 23:06:51 2025.
 Gaussian 16:  ES64L-G16RevC.01  3-Jul-2019

 ----------------------------------------------------------------------
 #t hf aug-cc-pvdz iop(5/13=1,5/36=2,99/5=2) pseudo=read geom=check gue
 ss=(read,tcheck) scf=(maxcycle=1)
 ----------------------------------------------------------------------
 -----
 title
 -----
 Structure from the checkpoint file:  "isobutylbenzene.chk"
 Charge =  0 Multiplicity = 1

                         Standard orientation:
 ---------------------------------------------------------------------
 Center     Atomic      Atomic             Coordinates (Angstroms)
 Number     Number       Type             X           Y           Z
 ---------------------------------------------------------------------
      1          6           0        1.333873    2.598690   -0.000000
      2          6           0        0.875686    2.067268    1.199941
      3          6           0        0.875686    2.067268   -1.199941
      4          6           0       -0.026619    1.009896    1.196493
      5          6           0       -0.026619    1.009896   -1.196493
      6          6           0       -0.488807    0.456180    0.000000
      7          6           0       -0.026619   -2.412117   -1.261997
      8          6           0       -0.026619   -2.412117    1.261997
      9          6           0       -1.461521   -0.699761    0.000000
     10          6           0       -0.842543   -2.122471    0.000000
     11          1           0        2.032977    3.424064   -0.000000
     12          1           0        1.216030    2.479956    2.140563
     13          1           0        1.216030    2.479956   -2.140563
     14          1           0       -0.383900    0.613202    2.138360
     15          1           0       -0.383900    0.613202   -2.138360
     16          1           0        0.854188   -1.771177   -1.323883
     17          1           0       -0.618707   -2.255130   -2.165763
     18          1           0        0.317444   -3.447758   -1.266811
     19          1           0        0.317444   -3.447758    1.266811
     20          1           0        0.854188   -1.771177    1.323883
     21          1           0       -0.618707   -2.255130    2.165763
     22          1           0       -2.110211   -0.616300    0.875339
     23          1           0       -2.110211   -0.616300   -0.875339
     24          1           0       -1.698056   -2.806051    0.000000
 ---------------------------------------------------------------------

 SCF Done:  E(RHF) =  -387.297405749     A.U. after    2 cycles

 The electronic state is 1-A'.
 Alpha  occ. eigenvalues --  -11.24138 -11.23819 -11.23792 -11.23522 -11.23471
 Alpha  occ. eigenvalues --  -11.23391 -11.23386 -11.23137 -11.21750 -11.21734
 Alpha  occ. eigenvalues --   -1.15657  -1.09088  -1.02243  -1.01232  -0.92929
 Alpha  occ. eigenvalues --   -0.92884  -0.83167  -0.81918  -0.76583  -0.70013
 Alpha  occ. eigenvalues --   -0.65188  -0.64705  -0.63145  -0.60031  -0.59588
 Alpha  occ. eigenvalues --   -0.58623  -0.56961  -0.53848  -0.52299  -0.51418
 Alpha  occ. eigenvalues --   -0.50749  -0.49309  -0.47278  -0.47116  -0.45964
 Alpha  occ. eigenvalues --   -0.34219  -0.33235
 Alpha virt. eigenvalues --    0.03205   0.03391   0.03666   0.03913   0.04760
 Alpha virt. eigenvalues --    0.04903   0.06102   0.06256   0.07211   0.07315
 Alpha virt. eigenvalues --    0.07953   0.09445   0.09583   0.09861   0.10854

 Mulliken charges:
               1
     1  C    0.164616
     2  C   -0.013981
     3  C   -0.013981
     4  C    0.367025
     5  C    0.367025
     6  C    1.247478
     7  C   -0.116006
     8  C   -0.116006
     9  C   -0.614901
    10  C   -1.140161
    11  H   -0.224586
    12  H   -0.251902
    13  H   -0.251902
    14  H   -0.362182
    15  H   -0.362182
    16  H    0.267811
    17  H    0.148025
    18  H    0.102104
    19  H    0.102104
    20  H    0.267811
    21  H    0.148025
    22  H    0.062196
    23  H    0.062196
    24  H    0.161376
 Sum of Mulliken charges =  -0.00000

 Dipole moment (field-independent basis, Debye):
    X=             -0.2233    Y=             -0.3887    Z=             -0.0000  Tot=              0.4482

 Test job not archived.
 1\1\GINC-SE252\SP\RHF\Aug-CC-pVDZ\C10H14\OHZDE\05-Apr-2025\0\\#t hf au
 g-cc-pvdz iop(5/13=1,5/36=2,99/5=2) pseudo=read geom=check guess=(read
 ,tcheck) scf=(maxcycle=1)\\title\\0,1\C,0,1.333873,2.59869,0.\C,0,0.87
 5686,2.067268,1.199941\C,0,0.875686,2.067268,-1.199941\C,0,-0.026619,1
 .009896,1.196493\C,0,-0.026619,1.009896,-1.196493\C,0,-0.488807,0.4561
 8,0.\C,0,-0.026619,-2.412117,-1.261997\C,0,-0.026619,-2.412117,1.26199
 7\C,0,-1.461521,-0.699761,0.\C,0,-0.842543,-2.122471,0.\H,0,2.032977,3
 .424064,0.\H,0,1.21603,2.479956,2.140563\H,0,1.21603,2.479956,-2.14056

 Normal termination of Gaussian 16 at Sat Apr  5 23:07:33 2025.
