 Gaussian 16, Revision C.01,

 ----------------------------------------------------------------------
 #t hf aug-cc-pvdz symm=none int=(grid=ultrafine) guess=(read,tcheck) s
 table=(opt,rrhf)
 ----------------------------------------------------------------------
 -----
 title
 -----
 Symbolic Z-matrix:
 Charge =  0 Multiplicity = 1

 SCF Done:  E(RHF) =  -157.315898179     A.U. after   11 cycles
 Normal termination of Gaussian 16 at Sat Apr  5 23:03:16 2025.
 Gaussian 16:  ES64L-G16RevC.01  3-Jul-2019

 ----------------------------------------------------------------------
 #t hf aug-cc-pvdz iop(5/13=1,5/36=2,99/5=2) pseudo=read geom=check gue
 ss=(read,tcheck) scf=(maxcycle=1)
 ----------------------------------------------------------------------
 -----
 title
 -----
 Structure from the checkpoint file:  "isobutane.chk"
 Charge =  0 Multiplicity = 1

                         Standard orientation:
 ---------------------------------------------------------------------
 Center     Atomic      Atomic             Coordinates (Angstroms)
 Number     Number       Type             X           Y           Z
 ---------------------------------------------------------------------
      1          6           0        0.312513    0.199944    0.000000
      2          6           0       -0.866179    1.176773    0.000000
      3          6           0        0.312513   -0.665531    1.262722
      4          6           0        0.312513   -0.665531   -1.262722
      5          1           0        1.170848   -1.339419    1.282986
      6          1           0        1.170848   -1.339419   -1.282986
      7          1           0       -0.850137    1.819393    0.882076
      8          1           0       -0.850137    1.819393   -0.882076
      9          1           0        0.347471   -0.052476    2.165062
     10          1           0       -0.591262   -1.278366    1.313214
     11          1           0        0.347471   -0.052476   -2.165062
     12          1           0       -1.817087    0.637605    0.000000
     13          1           0       -0.591262   -1.278366   -1.313214
     14          1           0        1.235091    0.790202    0.000000
 ---------------------------------------------------------------------

 SCF Done:  E(RHF) =  -157.497939859     A.U. after    2 cycles

 The electronic state is 1-A'.
 Alpha  occ. eigenvalues --  -11.22979 -11.21749 -11.21749 -11.21725  -1.08208
 Alpha  occ. eigenvalues --   -0.92800  -0.92800  -0.77076  -0.63741  -0.59677
 Alpha  occ. eigenvalues --   -0.59677  -0.53919  -0.53919  -0.51644  -0.47150
 Alpha  occ. eigenvalues --   -0.47150  -0.46399
 Alpha virt. eigenvalues --    0.03912   0.04156   0.04156   0.04234   0.06851
 Alpha virt. eigenvalues --    0.06851   0.07248   0.07653   0.07653   0.09743
 Alpha virt. eigenvalues --    0.12951   0.14999   0.14999   0.16161   0.16161

 Mulliken charges:
               1
     1  C   -1.594373
     2  C   -0.004260
     3  C   -0.004260
     4  C   -0.004260
     5  H    0.130221
     6  H    0.130221
     7  H    0.130222
     8  H    0.130222
     9  H    0.130221
    10  H    0.212365
    11  H    0.130221
    12  H    0.212364
    13  H    0.212365
    14  H    0.188731
 Sum of Mulliken charges =  -0.00000

 Dipole moment (field-independent basis, Debye):
    X=              0.1131    Y=              0.0724    Z=              0.0000  Tot=              0.1343

 Test job not archived.
 1\1\GINC-SE454\SP\RHF\Aug-CC-pVDZ\C4H10\OHZDE\05-Apr-2025\0\\#t hf aug
 -cc-pvdz iop(5/13=1,5/36=2,99/5=2) pseudo=read geom=check guess=(read,
 tcheck) scf=(maxcycle=1)\\title\\0,1\C,0,0.,0.,0.371001\C,0,0.,1.45806
 5,-0.095429\C,0,-1.262722,-0.729033,-0.095429\C,0,1.262722,-0.729033,-
 0.095429\H,0,-1.282986,-1.759266,0.264412\H,0,1.282986,-1.759266,0.264
 412\H,0,-0.882076,1.990731,0.264412\H,0,0.882076,1.990731,0.264412\H,0
 ,-2.165062,-0.231466,0.264412\H,0,-1.313214,-0.758184,-1.187\H,0,2.165
 062,-0.231466,0.264412\H,0,0.,1.516369,-1.187\H,0,1.313214,-0.758184,-

 Normal termination of Gaussian 16 at Sat Apr  5 23:03:39 2025.
