 Gaussian 16, Revision C.01,

 ----------------------------------------------------------------------
 #t hf aug-cc-pvdz symm=none int=(grid=ultrafine) guess=(read,tcheck) s
 table=(opt,rrhf)
 ----------------------------------------------------------------------
 -----
 title
 -----
 Symbolic Z-matrix:
 Charge =  0 Multiplicity = 1

 SCF Done:  E(RHF) =  -383.994589723     A.U. after   13 cycles

 1\1\GINC-SE249\Stability\RHF\Aug-CC-pVDZ\C6H12O2\OHZDE\05-Apr-2025\0\\
 #t hf aug-cc-pvdz symm=none int=(grid=ultrafine) guess=(read,tcheck) s
 table=(opt,rrhf)\\title\\0,1\C,0,-1.888132,-0.186303,0.038084\C,0,-2.9
 56955,0.82444,-0.283481\C,0,1.958051,1.395183,0.513927\C,0,2.923162,-0
 .824646,-0.220717\C,0,0.456498,-0.579654,0.020652\C,0,1.743964,0.14488
 1,-0.342302\O,0,-2.082486,-1.286641,0.491535\O,0,-0.661558,0.29741,-0.
 245338\H,0,-2.889982,1.121863,-1.329676\H,0,-2.812725,1.721105,0.31952
 3\H,0,-3.933425,0.39682,-0.079568\H,0,2.870252,1.915116,0.218046\H,0,2

 Normal termination of Gaussian 16 at Sat Apr  5 23:05:48 2025.
 Gaussian 16:  ES64L-G16RevC.01  3-Jul-2019

 ----------------------------------------------------------------------
 #t hf aug-cc-pvdz iop(5/13=1,5/36=2,99/5=2) pseudo=read geom=check gue
 ss=(read,tcheck) scf=(maxcycle=1)
 ----------------------------------------------------------------------
 -----
 title
 -----
 Structure from the checkpoint file:  "isobutyl_acetate.chk"
 Charge =  0 Multiplicity = 1

                         Standard orientation:
 ---------------------------------------------------------------------
 Center     Atomic      Atomic             Coordinates (Angstroms)
 Number     Number       Type             X           Y           Z
 ---------------------------------------------------------------------
      1          6           0       -1.888132   -0.186303    0.038084
      2          6           0       -2.956955    0.824440   -0.283481
      3          6           0        1.958051    1.395183    0.513927
      4          6           0        2.923162   -0.824646   -0.220717
      5          6           0        0.456498   -0.579654    0.020652
      6          6           0        1.743964    0.144881   -0.342302
      7          8           0       -2.082486   -1.286641    0.491535
      8          8           0       -0.661558    0.297410   -0.245338
      9          1           0       -2.889982    1.121863   -1.329676
     10          1           0       -2.812725    1.721105    0.319523
     11          1           0       -3.933425    0.396820   -0.079568
     12          1           0        2.870252    1.915116    0.218046
     13          1           0        2.055108    1.129449    1.569732
     14          1           0        1.126417    2.091889    0.417111
     15          1           0        3.854481   -0.335170   -0.506854
     16          1           0        2.793952   -1.698388   -0.861379
     17          1           0        3.038067   -1.176866    0.807098
     18          1           0        0.330891   -1.489124   -0.567547
     19          1           0        0.440158   -0.859686    1.075856
     20          1           0        1.659630    0.453440   -1.388885
 ---------------------------------------------------------------------

 SCF Done:  E(RHF) =  -384.397279794     A.U. after    2 cycles

 The electronic state is 1-A.
 Alpha  occ. eigenvalues --  -20.58350 -20.52949 -11.38593 -11.29082 -11.24914
 Alpha  occ. eigenvalues --  -11.24144 -11.22971 -11.22402  -1.53738  -1.44529
 Alpha  occ. eigenvalues --   -1.09967  -1.02730  -0.93934  -0.93580  -0.79499
 Alpha  occ. eigenvalues --   -0.78398  -0.69407  -0.68845  -0.67141  -0.63058
 Alpha  occ. eigenvalues --   -0.60950  -0.59301  -0.57722  -0.56140  -0.54740
 Alpha  occ. eigenvalues --   -0.53226  -0.52338  -0.49357  -0.48543  -0.47892
 Alpha  occ. eigenvalues --   -0.44902  -0.43734
 Alpha virt. eigenvalues --    0.03445   0.03550   0.03867   0.04259   0.05480
 Alpha virt. eigenvalues --    0.05948   0.06393   0.06807   0.07417   0.08249
 Alpha virt. eigenvalues --    0.08922   0.09151   0.11420   0.13438   0.13912

 Mulliken charges:
               1
     1  C    1.729868
     2  C   -0.723032
     3  C    0.009675
     4  C   -0.050098
     5  C    0.920468
     6  C   -1.528320
     7  O   -1.195402
     8  O   -1.273437
     9  H    0.232858
    10  H    0.237328
    11  H    0.175867
    12  H    0.131441
    13  H    0.222457
    14  H    0.157940
    15  H    0.140439
    16  H    0.153261
    17  H    0.231612
    18  H    0.101176
    19  H    0.144154
    20  H    0.181745
 Sum of Mulliken charges =  -0.00000

 Dipole moment (field-independent basis, Debye):
    X=              1.0860    Y=              1.8172    Z=             -0.8678  Tot=              2.2879

 Test job not archived.
 1\1\GINC-SE249\SP\RHF\Aug-CC-pVDZ\C6H12O2\OHZDE\05-Apr-2025\0\\#t hf a
 ug-cc-pvdz iop(5/13=1,5/36=2,99/5=2) pseudo=read geom=check guess=(rea
 d,tcheck) scf=(maxcycle=1)\\title\\0,1\C,0,-1.888132,-0.186303,0.03808
 4\C,0,-2.956955,0.82444,-0.283481\C,0,1.958051,1.395183,0.513927\C,0,2
 .923162,-0.824646,-0.220717\C,0,0.456498,-0.579654,0.020652\C,0,1.7439
 64,0.144881,-0.342302\O,0,-2.082486,-1.286641,0.491535\O,0,-0.661558,0
 .29741,-0.245338\H,0,-2.889982,1.121863,-1.329676\H,0,-2.812725,1.7211
 05,0.319523\H,0,-3.933425,0.39682,-0.079568\H,0,2.870252,1.915116,0.21

 Normal termination of Gaussian 16 at Sat Apr  5 23:06:19 2025.
