 Gaussian 16, Revision C.01,

 ----------------------------------------------------------------------
 #t hf aug-cc-pvdz symm=none int=(grid=ultrafine) guess=(read,tcheck) s
 table=(opt,rrhf)
 ----------------------------------------------------------------------
 -----
 title
 -----
 Symbolic Z-matrix:
 Charge =  0 Multiplicity = 1

 SCF Done:  E(RHF) =  -809.998880380     A.U. after   13 cycles
 Normal termination of Gaussian 16 at Sat Apr  5 23:02:47 2025.
 Gaussian 16:  ES64L-G16RevC.01  3-Jul-2019

 ----------------------------------------------------------------------
 #t hf aug-cc-pvdz iop(5/13=1,5/36=2,99/5=2) pseudo=read geom=check gue
 ss=(read,tcheck) scf=(maxcycle=1)
 ----------------------------------------------------------------------
 -----
 title
 -----
 Structure from the checkpoint file:  "isocyanatoisocyanatomethylsulfanylmethane.chk"
 Charge =  0 Multiplicity = 1

                         Standard orientation:
 ---------------------------------------------------------------------
 Center     Atomic      Atomic             Coordinates (Angstroms)
 Number     Number       Type             X           Y           Z
 ---------------------------------------------------------------------
      1         16           0       -0.000005   -0.180949   -0.000031
      2          8           0       -4.161913   -1.053413    0.440220
      3          8           0        4.161949   -1.053366   -0.440227
      4          7           0       -2.574769    0.356348   -0.604807
      5          7           0        2.574743    0.356296    0.604841
      6          6           0       -1.346924    1.035946   -0.351650
      7          6           0        1.346915    1.035919    0.351674
      8          6           0       -3.340117   -0.359645   -0.014871
      9          6           0        3.340125   -0.359642    0.014882
     10          1           0       -1.444429    1.712184    0.498745
     11          1           0       -1.081666    1.610562   -1.235849
     12          1           0        1.081634    1.610502    1.235889
     13          1           0        1.444453    1.712191   -0.498690
 ---------------------------------------------------------------------

 SCF Done:  E(RHF) =  -810.461739887     A.U. after    2 cycles

 The electronic state is 1-A.
 Alpha  occ. eigenvalues --  -93.97560 -20.60943 -20.60943 -15.54626 -15.54617
 Alpha  occ. eigenvalues --  -11.42697 -11.42697 -11.35319 -11.35291  -8.25678
 Alpha  occ. eigenvalues --   -6.23466  -6.23324  -6.23065  -1.55522  -1.55514
 Alpha  occ. eigenvalues --   -1.30566  -1.30430  -1.11745  -1.03882  -0.93214
 Alpha  occ. eigenvalues --   -0.78060  -0.76477  -0.73754  -0.72888  -0.71286
 Alpha  occ. eigenvalues --   -0.70170  -0.69646  -0.67143  -0.63613  -0.61808
 Alpha  occ. eigenvalues --   -0.60265  -0.52324  -0.48689  -0.48251  -0.45632
 Alpha  occ. eigenvalues --   -0.44674  -0.38371
 Alpha virt. eigenvalues --    0.02438   0.03554   0.03768   0.05979   0.06936
 Alpha virt. eigenvalues --    0.08296   0.08846   0.09253   0.09450   0.09659
 Alpha virt. eigenvalues --    0.10730   0.11449   0.11937   0.12514   0.12552

 Mulliken charges:
               1
     1  S    0.483067
     2  O   -0.802208
     3  O   -0.802210
     4  N    0.784664
     5  N    0.784661
     6  C   -0.812917
     7  C   -0.812922
     8  C    0.284087
     9  C    0.284098
    10  H    0.182943
    11  H    0.121898
    12  H    0.121899
    13  H    0.182941
 Sum of Mulliken charges =  -0.00000

 Dipole moment (field-independent basis, Debye):
    X=              0.0000    Y=              3.7683    Z=              0.0000  Tot=              3.7683

 Test job not archived.
 1\1\GINC-SE255\SP\RHF\Aug-CC-pVDZ\C4H4N2O2S1\OHZDE\05-Apr-2025\0\\#t h
 f aug-cc-pvdz iop(5/13=1,5/36=2,99/5=2) pseudo=read geom=check guess=(
 read,tcheck) scf=(maxcycle=1)\\title\\0,1\S,0,0.000005,0.180949,-0.000
 031\O,0,4.161913,1.053413,0.44022\O,0,-4.161949,1.053366,-0.440227\N,0
 ,2.574769,-0.356348,-0.604807\N,0,-2.574743,-0.356296,0.604841\C,0,1.3
 46924,-1.035946,-0.35165\C,0,-1.346915,-1.035919,0.351674\C,0,3.340117
 ,0.359645,-0.014871\C,0,-3.340125,0.359642,0.014882\H,0,1.444429,-1.71
 2184,0.498745\H,0,1.081666,-1.610562,-1.235849\H,0,-1.081634,-1.610502

 Normal termination of Gaussian 16 at Sat Apr  5 23:03:07 2025.
