 Gaussian 16, Revision C.01,

 ----------------------------------------------------------------------
 #t hf aug-cc-pvdz symm=none int=(grid=ultrafine) guess=(read,tcheck) s
 table=(opt,rrhf)
 ----------------------------------------------------------------------
 -----
 title
 -----
 Symbolic Z-matrix:
 Charge =  0 Multiplicity = 1

 SCF Done:  E(RHF) =  -167.791235023     A.U. after   13 cycles
 Normal termination of Gaussian 16 at Sat Apr  5 23:03:07 2025.
 Gaussian 16:  ES64L-G16RevC.01  3-Jul-2019

 ----------------------------------------------------------------------
 #t hf aug-cc-pvdz iop(5/13=1,5/36=2,99/5=2) pseudo=read geom=check gue
 ss=(read,tcheck) scf=(maxcycle=1)
 ----------------------------------------------------------------------
 -----
 title
 -----
 Structure from the checkpoint file:  "isocyanic_acid.chk"
 Charge =  0 Multiplicity = 1

                         Standard orientation:
 ---------------------------------------------------------------------
 Center     Atomic      Atomic             Coordinates (Angstroms)
 Number     Number       Type             X           Y           Z
 ---------------------------------------------------------------------
      1          1           0        1.358384   -1.380415    0.000000
      2          7           0        0.395114   -1.094786    0.000000
      3          6           0        0.000000    0.049280    0.000000
      4          8           0       -0.515523    1.093530    0.000000
 ---------------------------------------------------------------------

 SCF Done:  E(RHF) =  -167.954057787     A.U. after    2 cycles

 The electronic state is 1-A'.
 Alpha  occ. eigenvalues --  -20.61289 -15.53680 -11.42701  -1.56003  -1.27713
 Alpha  occ. eigenvalues --   -0.85370  -0.74244  -0.66927  -0.66273  -0.51214
 Alpha  occ. eigenvalues --   -0.47999
 Alpha virt. eigenvalues --    0.02767   0.08840   0.09372   0.09705   0.10715
 Alpha virt. eigenvalues --    0.14818   0.17494   0.17610   0.17849   0.21373
 Alpha virt. eigenvalues --    0.25745   0.27834   0.29001   0.29797   0.32714

 Mulliken charges:
               1
     1  H    0.133997
     2  N    0.461764
     3  C    0.070116
     4  O   -0.665877
 Sum of Mulliken charges =  -0.00000

 Dipole moment (field-independent basis, Debye):
    X=              1.9461    Y=             -0.4623    Z=              0.0000  Tot=              2.0003

 Test job not archived.
 1\1\GINC-SE398\SP\RHF\Aug-CC-pVDZ\C1H1N1O1\OHZDE\05-Apr-2025\0\\#t hf
 aug-cc-pvdz iop(5/13=1,5/36=2,99/5=2) pseudo=read geom=check guess=(re
 ad,tcheck) scf=(maxcycle=1)\\title\\0,1\H,0,1.35838,-1.380419,0.\N,0,0
 .395111,-1.094787,0.\C,0,0.,0.04928,0.\O,0,-0.51552,1.093531,0.\\Versi
 on=ES64L-G16RevC.01\State=1-A'\HF=-167.9540578\RMSD=1.616e-02\Dipole=0
 .7656593,-0.1818955,0.\Quadrupole=2.149862,-1.9489413,-0.2009207,-0.95
 22441,0.,0.\PG=CS [SG(C1H1N1O1)]\\@

 Normal termination of Gaussian 16 at Sat Apr  5 23:03:16 2025.
