 Gaussian 16, Revision C.01,

 ----------------------------------------------------------------------
 #t hf aug-cc-pvdz symm=none int=(grid=ultrafine) guess=(read,tcheck) s
 table=(opt,rrhf)
 ----------------------------------------------------------------------
 -----
 title
 -----
 Symbolic Z-matrix:
 Charge =  0 Multiplicity = 1

 SCF Done:  E(RHF) =  -642.178814046     A.U. after   16 cycles
 Normal termination of Gaussian 16 at Sat Apr  5 23:03:12 2025.
 Gaussian 16:  ES64L-G16RevC.01  3-Jul-2019

 ----------------------------------------------------------------------
 #t hf aug-cc-pvdz iop(5/13=1,5/36=2,99/5=2) pseudo=read geom=check gue
 ss=(read,tcheck) scf=(maxcycle=1)
 ----------------------------------------------------------------------
 -----
 title
 -----
 Structure from the checkpoint file:  "isocyanatosulfanylethene.chk"
 Charge =  0 Multiplicity = 1

                         Standard orientation:
 ---------------------------------------------------------------------
 Center     Atomic      Atomic             Coordinates (Angstroms)
 Number     Number       Type             X           Y           Z
 ---------------------------------------------------------------------
      1         16           0        0.457966    0.685420   -0.130775
      2          8           0       -3.222564   -0.127058    0.122495
      3          7           0       -0.866252   -0.384315    0.004694
      4          6           0       -2.057415   -0.194178    0.059640
      5          6           0        1.757292   -0.498441   -0.193213
      6          6           0        2.970929   -0.238236    0.278239
      7          1           0        1.512657   -1.411103   -0.721146
      8          1           0        3.781289   -0.934480    0.113673
      9          1           0        3.198043    0.670651    0.819051
 ---------------------------------------------------------------------

 SCF Done:  E(RHF) =  -642.479510270     A.U. after    2 cycles

 The electronic state is 1-A.
 Alpha  occ. eigenvalues --  -94.02393 -20.60956 -15.55201 -11.42446 -11.29461
 Alpha  occ. eigenvalues --  -11.26556  -8.30015  -6.27847  -6.27627  -6.27354
 Alpha  occ. eigenvalues --   -1.55359  -1.30046  -1.12604  -1.01315  -0.81390
 Alpha  occ. eigenvalues --   -0.75939  -0.72540  -0.67946  -0.67832  -0.64704
 Alpha  occ. eigenvalues --   -0.61364  -0.54067  -0.52987  -0.46652  -0.44605
 Alpha  occ. eigenvalues --   -0.34841
 Alpha virt. eigenvalues --    0.03395   0.04209   0.04861   0.06923   0.07845
 Alpha virt. eigenvalues --    0.08561   0.09556   0.09950   0.10752   0.11664
 Alpha virt. eigenvalues --    0.12298   0.12971   0.13387   0.16186   0.16625

 Mulliken charges:
               1
     1  S    0.514573
     2  O   -0.832231
     3  N    0.415926
     4  C    0.017193
     5  C    0.051074
     6  C    0.077626
     7  H   -0.182801
     8  H   -0.042556
     9  H   -0.018804
 Sum of Mulliken charges =  -0.00000

 Dipole moment (field-independent basis, Debye):
    X=              2.6063    Y=             -0.0144    Z=             -0.1336  Tot=              2.6097

 Test job not archived.
 1\1\GINC-SE396\SP\RHF\Aug-CC-pVDZ\C3H3N1O1S1\OHZDE\05-Apr-2025\0\\#t h
 f aug-cc-pvdz iop(5/13=1,5/36=2,99/5=2) pseudo=read geom=check guess=(
 read,tcheck) scf=(maxcycle=1)\\title\\0,1\S,0,0.457966,0.68542,-0.1307
 75\O,0,-3.222564,-0.127058,0.122495\N,0,-0.866252,-0.384315,0.004694\C
 ,0,-2.057415,-0.194178,0.05964\C,0,1.757292,-0.498441,-0.193213\C,0,2.
 970929,-0.238236,0.278239\H,0,1.512657,-1.411103,-0.721146\H,0,3.78128
 9,-0.93448,0.113673\H,0,3.198043,0.670651,0.819051\\Version=ES64L-G16R
 evC.01\State=1-A\HF=-642.4795103\RMSD=1.155e-02\Dipole=1.0253811,-0.00

 Normal termination of Gaussian 16 at Sat Apr  5 23:03:18 2025.
