 Gaussian 16, Revision C.01,

 ----------------------------------------------------------------------
 #t hf aug-cc-pvdz symm=none int=(grid=ultrafine) guess=(read,tcheck) s
 table=(opt,rrhf)
 ----------------------------------------------------------------------
 -----
 title
 -----
 Symbolic Z-matrix:
 Charge =  0 Multiplicity = 1

 SCF Done:  E(RHF) =  -604.351046596     A.U. after   14 cycles
 Normal termination of Gaussian 16 at Sat Apr  5 23:02:18 2025.
 Gaussian 16:  ES64L-G16RevC.01  3-Jul-2019

 ----------------------------------------------------------------------
 #t hf aug-cc-pvdz iop(5/13=1,5/36=2,99/5=2) pseudo=read geom=check gue
 ss=(read,tcheck) scf=(maxcycle=1)
 ----------------------------------------------------------------------
 -----
 title
 -----
 Structure from the checkpoint file:  "isocyanatomethanethiol.chk"
 Charge =  0 Multiplicity = 1

                         Standard orientation:
 ---------------------------------------------------------------------
 Center     Atomic      Atomic             Coordinates (Angstroms)
 Number     Number       Type             X           Y           Z
 ---------------------------------------------------------------------
      1         16           0       -1.706782   -0.543256   -0.058637
      2          8           0        2.540354   -0.659034   -0.086094
      3          7           0        0.706588    0.801429    0.239004
      4          6           0       -0.664935    0.969752   -0.139339
      5          6           0        1.599379    0.023801    0.031598
      6          1           0       -1.726078   -0.641935    1.283273
      7          1           0       -1.104325    1.734549    0.492248
      8          1           0       -0.736693    1.300429   -1.175164
 ---------------------------------------------------------------------

 SCF Done:  E(RHF) =  -604.614353093     A.U. after    2 cycles

 The electronic state is 1-A.
 Alpha  occ. eigenvalues --  -93.97205 -20.60270 -15.53637 -11.41893 -11.34630
 Alpha  occ. eigenvalues --   -8.25307  -6.23144  -6.23001  -6.22771  -1.54810
 Alpha  occ. eigenvalues --   -1.29504  -1.08940  -0.95811  -0.76652  -0.72819
 Alpha  occ. eigenvalues --   -0.70101  -0.67573  -0.62748  -0.58018  -0.52986
 Alpha  occ. eigenvalues --   -0.46606  -0.44898  -0.39476
 Alpha virt. eigenvalues --    0.03050   0.04322   0.05195   0.07503   0.09106
 Alpha virt. eigenvalues --    0.09931   0.10102   0.10345   0.11440   0.12678
 Alpha virt. eigenvalues --    0.14739   0.15135   0.16307   0.16506   0.17550

 Mulliken charges:
               1
     1  S    0.052561
     2  O   -0.799838
     3  N    0.671977
     4  C   -0.816410
     5  C    0.196624
     6  H    0.363855
     7  H    0.107031
     8  H    0.224201
 Sum of Mulliken charges =  -0.00000

 Dipole moment (field-independent basis, Debye):
    X=             -1.6588    Y=              1.2626    Z=              0.2052  Tot=              2.0947

 Test job not archived.
 1\1\GINC-SE388\SP\RHF\Aug-CC-pVDZ\C2H3N1O1S1\OHZDE\05-Apr-2025\0\\#t h
 f aug-cc-pvdz iop(5/13=1,5/36=2,99/5=2) pseudo=read geom=check guess=(
 read,tcheck) scf=(maxcycle=1)\\title\\0,1\S,0,-1.706782,-0.543256,-0.0
 58637\O,0,2.540354,-0.659034,-0.086094\N,0,0.706588,0.801429,0.239004\
 C,0,-0.664935,0.969752,-0.139339\C,0,1.599379,0.023801,0.031598\H,0,-1
 .726078,-0.641935,1.283273\H,0,-1.104325,1.734549,0.492248\H,0,-0.7366
 93,1.300429,-1.175164\\Version=ES64L-G16RevC.01\State=1-A\HF=-604.6143
 531\RMSD=1.032e-02\Dipole=-0.6526394,0.4967379,0.080715\Quadrupole=-3.

 Normal termination of Gaussian 16 at Sat Apr  5 23:03:05 2025.
