 Gaussian 16, Revision C.01,

 ----------------------------------------------------------------------
 #t hf aug-cc-pvdz symm=none int=(grid=ultrafine) guess=(read,tcheck) s
 table=(opt,rrhf)
 ----------------------------------------------------------------------
 -----
 title
 -----
 Symbolic Z-matrix:
 Charge =  0 Multiplicity = 1

 SCF Done:  E(RHF) =  -1146.42345834     A.U. after   12 cycles
 Normal termination of Gaussian 16 at Sat Apr  5 23:02:38 2025.
 Gaussian 16:  ES64L-G16RevC.01  3-Jul-2019

 ----------------------------------------------------------------------
 #t hf aug-cc-pvdz iop(5/13=1,5/36=2,99/5=2) pseudo=read geom=check gue
 ss=(read,tcheck) scf=(maxcycle=1)
 ----------------------------------------------------------------------
 -----
 title
 -----
 Structure from the checkpoint file:  "isoflurane.chk"
 Charge =  0 Multiplicity = 1

                         Standard orientation:
 ---------------------------------------------------------------------
 Center     Atomic      Atomic             Coordinates (Angstroms)
 Number     Number       Type             X           Y           Z
 ---------------------------------------------------------------------
      1          6           0       -0.218615    0.231720   -0.334249
      2          6           0        2.099372    0.063633    0.050519
      3          6           0       -1.485571   -0.576666   -0.009374
      4          8           0        0.817838   -0.322832    0.399628
      5          9           0        2.373326   -0.321108   -1.226533
      6          9           0        2.924768   -0.591330    0.873399
      7          9           0       -1.301155   -1.854169   -0.377515
      8          9           0       -2.528100   -0.095040   -0.699597
      9          9           0       -1.784593   -0.552251    1.290062
     10         17           0       -0.487352    1.980503    0.064712
     11          1           0       -0.042858    0.187772   -1.406517
     12          1           0        2.255795    1.139294    0.129683
 ---------------------------------------------------------------------

 SCF Done:  E(RHF) =  -1147.13407431     A.U. after    2 cycles

 The electronic state is 1-A.
 Alpha  occ. eigenvalues -- -105.60320 -26.52949 -26.52754 -26.52745 -26.51466
 Alpha  occ. eigenvalues --  -26.51307 -20.64018 -11.55103 -11.50863 -11.42786
 Alpha  occ. eigenvalues --  -10.65155  -7.82091  -7.81703  -7.81677  -1.74023
 Alpha  occ. eigenvalues --   -1.70208  -1.63903  -1.63664  -1.61850  -1.56512
 Alpha  occ. eigenvalues --   -1.15569  -1.04438  -0.97674  -0.91837  -0.85309
 Alpha  occ. eigenvalues --   -0.84524  -0.83405  -0.81805  -0.80328  -0.77944
 Alpha  occ. eigenvalues --   -0.71442  -0.70844  -0.68455  -0.67659  -0.67095
 Alpha  occ. eigenvalues --   -0.65684  -0.65271  -0.64381  -0.64063  -0.62950
 Alpha  occ. eigenvalues --   -0.60206  -0.57461  -0.52396  -0.50129  -0.49294
 Alpha virt. eigenvalues --    0.03818   0.04715   0.07345   0.08005   0.09228
 Alpha virt. eigenvalues --    0.09890   0.10554   0.11108   0.13639   0.14263
 Alpha virt. eigenvalues --    0.15118   0.15642   0.16224   0.16510   0.16991

 Mulliken charges:
               1
     1  C    0.033925
     2  C    1.920950
     3  C    2.670217
     4  O   -1.371568
     5  F   -0.687728
     6  F   -0.652570
     7  F   -0.756020
     8  F   -0.722457
     9  F   -0.749866
    10  Cl  -0.053211
    11  H    0.279262
    12  H    0.089065
 Sum of Mulliken charges =  -0.00000

 Dipole moment (field-independent basis, Debye):
    X=              0.6708    Y=              1.4246    Z=             -1.0342  Tot=              1.8839

 Test job not archived.
 1\1\GINC-SE412\SP\RHF\Aug-CC-pVDZ\C3H2Cl1F5O1\OHZDE\05-Apr-2025\0\\#t
 hf aug-cc-pvdz iop(5/13=1,5/36=2,99/5=2) pseudo=read geom=check guess=
 (read,tcheck) scf=(maxcycle=1)\\title\\0,1\C,0,-0.218615,0.23172,-0.33
 4249\C,0,2.099372,0.063633,0.050519\C,0,-1.485571,-0.576666,-0.009374\
 O,0,0.817838,-0.322832,0.399628\F,0,2.373326,-0.321108,-1.226533\F,0,2
 .924768,-0.59133,0.873399\F,0,-1.301155,-1.854169,-0.377515\F,0,-2.528
 1,-0.09504,-0.699597\F,0,-1.784593,-0.552251,1.290062\Cl,0,-0.487352,1
 .980503,0.064712\H,0,-0.042858,0.187772,-1.406517\H,0,2.255795,1.13929

 Normal termination of Gaussian 16 at Sat Apr  5 23:03:09 2025.
