 Gaussian 16, Revision C.01,

 ----------------------------------------------------------------------
 #t hf aug-cc-pvdz symm=none int=(grid=ultrafine) guess=(read,tcheck) s
 table=(opt,rrhf)
 ----------------------------------------------------------------------
 -----
 title
 -----
 Symbolic Z-matrix:
 Charge =  0 Multiplicity = 1

 SCF Done:  E(RHF) =  -439.030430145     A.U. after   14 cycles
 Normal termination of Gaussian 16 at Sat Apr  5 23:04:54 2025.
 Gaussian 16:  ES64L-G16RevC.01  3-Jul-2019

 ----------------------------------------------------------------------
 #t hf aug-cc-pvdz iop(5/13=1,5/36=2,99/5=2) pseudo=read geom=check gue
 ss=(read,tcheck) scf=(maxcycle=1)
 ----------------------------------------------------------------------
 -----
 title
 -----
 Structure from the checkpoint file:  "isoleucine.chk"
 Charge =  0 Multiplicity = 1

                         Standard orientation:
 ---------------------------------------------------------------------
 Center     Atomic      Atomic             Coordinates (Angstroms)
 Number     Number       Type             X           Y           Z
 ---------------------------------------------------------------------
      1          7           0       -0.597265    1.880669   -0.121090
      2          6           0       -0.495562    0.459188   -0.493741
      3          6           0       -1.805491   -0.236189   -0.085662
      4          8           0       -2.217442   -1.236297   -0.608791
      5          8           0       -2.449652    0.365789    0.927683
      6          1           0       -1.968150    1.206422    1.080701
      7          6           0        0.740774   -0.181501    0.194975
      8          6           0        2.036361    0.322896   -0.473170
      9          6           0        0.692385   -1.712042    0.209785
     10          6           0        3.305554    0.081041    0.344256
     11          1           0       -0.402470    0.308887   -1.572904
     12          1           0        0.731995    0.170577    1.233213
     13          1           0        2.129419   -0.159520   -1.450886
     14          1           0        1.964888    1.394467   -0.677881
     15          1           0        1.596770   -2.114151    0.664101
     16          1           0       -0.156498   -2.089792    0.775213
     17          1           0        0.613261   -2.111699   -0.802100
     18          1           0        4.176666    0.493046   -0.166281
     19          1           0        3.239861    0.558480    1.324121
     20          1           0        3.494746   -0.979801    0.504685
     21          1           0        0.309205    2.294943    0.044674
     22          1           0       -1.056201    2.427172   -0.838822
 ---------------------------------------------------------------------

 SCF Done:  E(RHF) =  -439.489592592     A.U. after    2 cycles

 The electronic state is 1-A.
 Alpha  occ. eigenvalues --  -20.58190 -20.52208 -15.52363 -11.37924 -11.29369
 Alpha  occ. eigenvalues --  -11.25809 -11.24633 -11.23628 -11.22618  -1.53040
 Alpha  occ. eigenvalues --   -1.44269  -1.22321  -1.10137  -1.01359  -0.95381
 Alpha  occ. eigenvalues --   -0.89207  -0.81354  -0.80052  -0.73273  -0.72107
 Alpha  occ. eigenvalues --   -0.69903  -0.64744  -0.64615  -0.62420  -0.59874
 Alpha  occ. eigenvalues --   -0.59327  -0.56223  -0.55005  -0.53951  -0.52671
 Alpha  occ. eigenvalues --   -0.50252  -0.49059  -0.48535  -0.47586  -0.45408
 Alpha  occ. eigenvalues --   -0.42072
 Alpha virt. eigenvalues --    0.02370   0.03193   0.03306   0.04411   0.05481
 Alpha virt. eigenvalues --    0.05809   0.06015   0.06466   0.07163   0.08601
 Alpha virt. eigenvalues --    0.08882   0.09730   0.10121   0.10882   0.12130

 Mulliken charges:
               1
     1  N    0.419462
     2  C   -1.368557
     3  C    2.777460
     4  O   -1.378137
     5  O   -1.411897
     6  H    0.525027
     7  C   -0.947566
     8  C    0.085303
     9  C   -0.164514
    10  C   -0.417217
    11  H    0.125718
    12  H    0.091067
    13  H    0.144550
    14  H    0.060969
    15  H    0.107256
    16  H    0.198949
    17  H    0.207526
    18  H    0.129489
    19  H    0.161413
    20  H    0.148156
    21  H    0.260667
    22  H    0.244877
 Sum of Mulliken charges =  -0.00000

 Dipole moment (field-independent basis, Debye):
    X=              4.1726    Y=              3.5009    Z=             -0.4365  Tot=              5.4642

 Test job not archived.
 1\1\GINC-SE270\SP\RHF\Aug-CC-pVDZ\C6H13N1O2\OHZDE\05-Apr-2025\0\\#t hf
  aug-cc-pvdz iop(5/13=1,5/36=2,99/5=2) pseudo=read geom=check guess=(r
 ead,tcheck) scf=(maxcycle=1)\\title\\0,1\N,0,-0.597265,1.880669,-0.121
 09\C,0,-0.495562,0.459188,-0.493741\C,0,-1.805491,-0.236189,-0.085662\
 O,0,-2.217442,-1.236297,-0.608791\O,0,-2.449652,0.365789,0.927683\H,0,
 -1.96815,1.206422,1.080701\C,0,0.740774,-0.181501,0.194975\C,0,2.03636
 1,0.322896,-0.47317\C,0,0.692385,-1.712042,0.209785\C,0,3.305554,0.081
 041,0.344256\H,0,-0.40247,0.308887,-1.572904\H,0,0.731995,0.170577,1.2

 Normal termination of Gaussian 16 at Sat Apr  5 23:05:14 2025.
