 Gaussian 16, Revision C.01,

 ----------------------------------------------------------------------
 #t hf aug-cc-pvdz symm=none int=(grid=ultrafine) guess=(read,tcheck) s
 table=(opt,rrhf)
 ----------------------------------------------------------------------
 -----
 title
 -----
 Symbolic Z-matrix:
 Charge =  0 Multiplicity = 1

 SCF Done:  E(RHF) =  -234.190708457     A.U. after   12 cycles
 Normal termination of Gaussian 16 at Sat Apr  5 23:06:54 2025.
 Gaussian 16:  ES64L-G16RevC.01  3-Jul-2019

 ----------------------------------------------------------------------
 #t hf aug-cc-pvdz iop(5/13=1,5/36=2,99/5=2) pseudo=read geom=check gue
 ss=(read,tcheck) scf=(maxcycle=1)
 ----------------------------------------------------------------------
 -----
 title
 -----
 Structure from the checkpoint file:  "isopropylcyclopropane.chk"
 Charge =  0 Multiplicity = 1

                         Standard orientation:
 ---------------------------------------------------------------------
 Center     Atomic      Atomic             Coordinates (Angstroms)
 Number     Number       Type             X           Y           Z
 ---------------------------------------------------------------------
      1          6           0        0.467629    0.583634   -0.000000
      2          6           0       -0.031191    1.784928    0.753865
      3          6           0       -0.031191    1.784928   -0.753865
      4          6           0       -0.315789   -0.714728    0.000000
      5          6           0       -0.031191   -1.532744    1.263884
      6          6           0       -0.031191   -1.532744   -1.263884
      7          1           0        1.544280    0.445861    0.000000
      8          1           0       -0.986654    1.703209   -1.255077
      9          1           0        0.685059    2.411395    1.266643
     10          1           0        0.685059    2.411395   -1.266643
     11          1           0       -0.986654    1.703209    1.255077
     12          1           0       -0.623644   -2.449214    1.283788
     13          1           0       -0.623644   -2.449214   -1.283788
     14          1           0       -0.260425   -0.962286   -2.164879
     15          1           0       -0.260425   -0.962286    2.164879
     16          1           0        1.022414   -1.819061   -1.310538
     17          1           0        1.022414   -1.819061    1.310538
     18          1           0       -1.380233   -0.453598   -0.000000
 ---------------------------------------------------------------------

 SCF Done:  E(RHF) =  -234.453417420     A.U. after    2 cycles

 The electronic state is 1-A'.
 Alpha  occ. eigenvalues --  -11.23146 -11.22900 -11.22638 -11.22608 -11.21715
 Alpha  occ. eigenvalues --  -11.21701  -1.14908  -1.05138  -0.92767  -0.84655
 Alpha  occ. eigenvalues --   -0.81975  -0.76419  -0.66681  -0.64551  -0.60188
 Alpha  occ. eigenvalues --   -0.56949  -0.56186  -0.53758  -0.51568  -0.49083
 Alpha  occ. eigenvalues --   -0.48922  -0.46569  -0.41769  -0.40937
 Alpha virt. eigenvalues --    0.03492   0.03606   0.03917   0.04175   0.06084
 Alpha virt. eigenvalues --    0.06132   0.06360   0.06589   0.06877   0.08996
 Alpha virt. eigenvalues --    0.09648   0.09746   0.13056   0.13495   0.13873

 Mulliken charges:
               1
     1  C    0.904078
     2  C    0.210645
     3  C    0.210645
     4  C   -1.606683
     5  C   -0.086613
     6  C   -0.086613
     7  H   -0.218696
     8  H   -0.138097
     9  H   -0.139389
    10  H   -0.139389
    11  H   -0.138097
    12  H    0.141408
    13  H    0.141408
    14  H    0.163347
    15  H    0.163347
    16  H    0.229333
    17  H    0.229333
    18  H    0.160032
 Sum of Mulliken charges =  -0.00000

 Dipole moment (field-independent basis, Debye):
    X=             -0.0162    Y=             -0.0281    Z=              0.0000  Tot=              0.0325

 Test job not archived.
 1\1\GINC-SE028\SP\RHF\Aug-CC-pVDZ\C6H12\OHZDE\05-Apr-2025\0\\#t hf aug
 -cc-pvdz iop(5/13=1,5/36=2,99/5=2) pseudo=read geom=check guess=(read,
 tcheck) scf=(maxcycle=1)\\title\\0,1\C,0,0.467629,0.583634,0.\C,0,-0.0
 31191,1.784928,0.753865\C,0,-0.031191,1.784928,-0.753865\C,0,-0.315789
 ,-0.714728,0.\C,0,-0.031191,-1.532744,1.263884\C,0,-0.031191,-1.532744
 ,-1.263884\H,0,1.54428,0.445861,0.\H,0,-0.986654,1.703209,-1.255077\H,
 0,0.685059,2.411395,1.266643\H,0,0.685059,2.411395,-1.266643\H,0,-0.98
 6654,1.703209,1.255077\H,0,-0.623644,-2.449214,1.283788\H,0,-0.623644,

 Normal termination of Gaussian 16 at Sat Apr  5 23:07:28 2025.
