 Gaussian 16, Revision C.01,

 ----------------------------------------------------------------------
 #t hf aug-cc-pvdz symm=none int=(grid=ultrafine) guess=(read,tcheck) s
 table=(opt,rrhf)
 ----------------------------------------------------------------------
 -----
 title
 -----
 Symbolic Z-matrix:
 Charge =  0 Multiplicity = 1

 SCF Done:  E(RHF) =  -347.844933814     A.U. after   14 cycles
 Normal termination of Gaussian 16 at Sat Apr  5 23:06:37 2025.
 Gaussian 16:  ES64L-G16RevC.01  3-Jul-2019

 ----------------------------------------------------------------------
 #t hf aug-cc-pvdz iop(5/13=1,5/36=2,99/5=2) pseudo=read geom=check gue
 ss=(read,tcheck) scf=(maxcycle=1)
 ----------------------------------------------------------------------
 -----
 title
 -----
 Structure from the checkpoint file:  "isopropylbenzene.chk"
 Charge =  0 Multiplicity = 1

                         Standard orientation:
 ---------------------------------------------------------------------
 Center     Atomic      Atomic             Coordinates (Angstroms)
 Number     Number       Type             X           Y           Z
 ---------------------------------------------------------------------
      1          6           0       -0.601226   -2.584627    0.000000
      2          6           0        0.748982   -2.260917    0.000000
      3          6           0       -1.547135   -1.565096    0.000000
      4          6           0        1.146365   -0.928060    0.000000
      5          6           0       -1.144028   -0.236286    0.000000
      6          6           0        0.210818    0.106161    0.000000
      7          6           0        0.210818    2.299507    1.265971
      8          6           0        0.210818    2.299507   -1.265971
      9          6           0        0.662737    1.556271    0.000000
     10          1           0       -0.915190   -3.619865    0.000000
     11          1           0        1.495397   -3.044499    0.000000
     12          1           0       -2.602280   -1.805893    0.000000
     13          1           0        2.202394   -0.686488    0.000000
     14          1           0       -1.896202    0.542418    0.000000
     15          1           0       -0.877383    2.362280    1.320609
     16          1           0        0.602440    3.318326    1.273546
     17          1           0        0.560437    1.794019    2.166585
     18          1           0        0.560437    1.794019   -2.166585
     19          1           0        0.602440    3.318326   -1.273546
     20          1           0       -0.877383    2.362280   -1.320609
     21          1           0        1.755995    1.546317    0.000000
 ---------------------------------------------------------------------

 SCF Done:  E(RHF) =  -348.216785191     A.U. after    2 cycles

 The electronic state is 1-A'.
 Alpha  occ. eigenvalues --  -11.24051 -11.24004 -11.23859 -11.23813 -11.23476
 Alpha  occ. eigenvalues --  -11.23377 -11.23371 -11.22352 -11.22349  -1.15786
 Alpha  occ. eigenvalues --   -1.08267  -1.01276  -0.99424  -0.93252  -0.85243
 Alpha  occ. eigenvalues --   -0.83132  -0.77923  -0.70521  -0.65767  -0.63717
 Alpha  occ. eigenvalues --   -0.61128  -0.60188  -0.59060  -0.57630  -0.54494
 Alpha  occ. eigenvalues --   -0.54095  -0.50752  -0.50648  -0.48385  -0.47514
 Alpha  occ. eigenvalues --   -0.47213  -0.34256  -0.33344
 Alpha virt. eigenvalues --    0.03376   0.03444   0.03789   0.04270   0.04824
 Alpha virt. eigenvalues --    0.05054   0.06271   0.07263   0.07445   0.07765
 Alpha virt. eigenvalues --    0.08197   0.10351   0.10912   0.11270   0.12188

 Mulliken charges:
               1
     1  C    0.102718
     2  C    0.200392
     3  C   -0.072911
     4  C    0.131792
     5  C    0.316143
     6  C    1.649283
     7  C   -0.176093
     8  C   -0.176093
     9  C   -1.520887
    10  H   -0.235200
    11  H   -0.234520
    12  H   -0.241207
    13  H   -0.349720
    14  H   -0.349029
    15  H    0.197332
    16  H    0.123504
    17  H    0.131763
    18  H    0.131763
    19  H    0.123504
    20  H    0.197332
    21  H    0.050132
 Sum of Mulliken charges =  -0.00000

 Dipole moment (field-independent basis, Debye):
    X=              0.1458    Y=              0.3649    Z=              0.0000  Tot=              0.3929

 Test job not archived.
 1\1\GINC-SE009\SP\RHF\Aug-CC-pVDZ\C9H12\OHZDE\05-Apr-2025\0\\#t hf aug
 -cc-pvdz iop(5/13=1,5/36=2,99/5=2) pseudo=read geom=check guess=(read,
 tcheck) scf=(maxcycle=1)\\title\\0,1\C,0,-0.601226,-2.584627,0.\C,0,0.
 748982,-2.260917,0.\C,0,-1.547135,-1.565096,0.\C,0,1.146365,-0.92806,0
 .\C,0,-1.144028,-0.236286,0.\C,0,0.210818,0.106161,0.\C,0,0.210818,2.2
 99507,1.265971\C,0,0.210818,2.299507,-1.265971\C,0,0.662737,1.556271,0
 .\H,0,-0.91519,-3.619865,0.\H,0,1.495397,-3.044499,0.\H,0,-2.60228,-1.
 805893,0.\H,0,2.202394,-0.686488,0.\H,0,-1.896202,0.542418,0.\H,0,-0.8

 Normal termination of Gaussian 16 at Sat Apr  5 23:07:33 2025.
