 Gaussian 16, Revision C.01,

 ----------------------------------------------------------------------
 #t hf aug-cc-pvdz symm=none int=(grid=ultrafine) guess=(read,tcheck) s
 table=(opt,rrhf)
 ----------------------------------------------------------------------
 -----
 title
 -----
 Symbolic Z-matrix:
 Charge =  0 Multiplicity = 1

 SCF Done:  E(RHF) =  -396.609586974     A.U. after   15 cycles
 Normal termination of Gaussian 16 at Sat Apr  5 23:02:40 2025.
 Gaussian 16:  ES64L-G16RevC.01  3-Jul-2019

 ----------------------------------------------------------------------
 #t hf aug-cc-pvdz iop(5/13=1,5/36=2,99/5=2) pseudo=read geom=check gue
 ss=(read,tcheck) scf=(maxcycle=1)
 ----------------------------------------------------------------------
 -----
 title
 -----
 Structure from the checkpoint file:  "isopropyl_nitrate.chk"
 Charge =  0 Multiplicity = 1

                         Standard orientation:
 ---------------------------------------------------------------------
 Center     Atomic      Atomic             Coordinates (Angstroms)
 Number     Number       Type             X           Y           Z
 ---------------------------------------------------------------------
      1          7           0        1.373307   -0.063009    0.041264
      2          8           0        1.396548    0.879733    0.795043
      3          8           0        2.285464   -0.632107   -0.489189
      4          8           0        0.119309   -0.621395   -0.286499
      5          6           0       -1.052332    0.063916    0.267361
      6          6           0       -1.394970    1.283353   -0.571030
      7          6           0       -2.136583   -0.999878    0.268157
      8          1           0       -0.806612    0.356435    1.286240
      9          1           0       -0.581577    2.006220   -0.570003
     10          1           0       -1.610830    0.992297   -1.599382
     11          1           0       -2.278986    1.772046   -0.159761
     12          1           0       -1.843059   -1.856641    0.872465
     13          1           0       -3.052372   -0.580247    0.684532
     14          1           0       -2.346969   -1.343252   -0.744705
 ---------------------------------------------------------------------

 SCF Done:  E(RHF) =  -397.005965276     A.U. after    2 cycles

 The electronic state is 1-A.
 Alpha  occ. eigenvalues --  -20.64600 -20.61282 -20.61188 -15.85603 -11.32530
 Alpha  occ. eigenvalues --  -11.25130 -11.24652  -1.73113  -1.55387  -1.51651
 Alpha  occ. eigenvalues --   -1.10221  -0.97317  -0.95427  -0.84872  -0.81681
 Alpha  occ. eigenvalues --   -0.79782  -0.77580  -0.66235  -0.64832  -0.61164
 Alpha  occ. eigenvalues --   -0.57510  -0.57193  -0.54727  -0.53150  -0.51304
 Alpha  occ. eigenvalues --   -0.50265  -0.49379  -0.47468
 Alpha virt. eigenvalues --    0.03263   0.03927   0.04145   0.05002   0.06426
 Alpha virt. eigenvalues --    0.06899   0.07120   0.07902   0.10884   0.12604
 Alpha virt. eigenvalues --    0.13460   0.14006   0.14918   0.15327   0.15793

 Mulliken charges:
               1
     1  N    2.858135
     2  O   -1.168117
     3  O   -1.191029
     4  O   -1.385288
     5  C   -0.016115
     6  C   -0.323718
     7  C   -0.161258
     8  H    0.237315
     9  H    0.141096
    10  H    0.252875
    11  H    0.196148
    12  H    0.174052
    13  H    0.200121
    14  H    0.185783
 Sum of Mulliken charges =  -0.00000

 Dipole moment (field-independent basis, Debye):
    X=             -3.8803    Y=              0.3950    Z=              0.4264  Tot=              3.9236

 Test job not archived.
 1\1\GINC-SE300\SP\RHF\Aug-CC-pVDZ\C3H7N1O3\OHZDE\05-Apr-2025\0\\#t hf
 aug-cc-pvdz iop(5/13=1,5/36=2,99/5=2) pseudo=read geom=check guess=(re
 ad,tcheck) scf=(maxcycle=1)\\title\\0,1\N,0,1.373307,-0.063009,0.04126
 4\O,0,1.396548,0.879733,0.795043\O,0,2.285464,-0.632107,-0.489189\O,0,
 0.119309,-0.621395,-0.286499\C,0,-1.052332,0.063916,0.267361\C,0,-1.39
 497,1.283353,-0.57103\C,0,-2.136583,-0.999878,0.268157\H,0,-0.806612,0
 .356435,1.28624\H,0,-0.581577,2.00622,-0.570003\H,0,-1.61083,0.992297,
 -1.599382\H,0,-2.278986,1.772046,-0.159761\H,0,-1.843059,-1.856641,0.8

 Normal termination of Gaussian 16 at Sat Apr  5 23:03:07 2025.
