 Gaussian 16, Revision C.01,

 ----------------------------------------------------------------------
 #t hf aug-cc-pvdz symm=none int=(grid=ultrafine) guess=(read,tcheck) s
 table=(opt,rrhf)
 ----------------------------------------------------------------------
 -----
 title
 -----
 Symbolic Z-matrix:
 Charge =  0 Multiplicity = 1

 SCF Done:  E(RHF) =  -344.959103048     A.U. after   13 cycles

 1\1\GINC-SE276\Stability\RHF\Aug-CC-pVDZ\C5H10O2\OHZDE\05-Apr-2025\0\\
 #t hf aug-cc-pvdz symm=none int=(grid=ultrafine) guess=(read,tcheck) s
 table=(opt,rrhf)\\title\\0,1\C,0,1.268727,0.080167,-0.135548\C,0,2.457
 391,-0.631709,0.455479\C,0,-2.121048,-1.091773,-0.335245\C,0,-1.578136
 ,1.16503,0.695009\C,0,-1.134427,0.057348,-0.246875\O,0,1.327987,1.0537
 24,-0.845937\O,0,0.117817,-0.516965,0.234551\H,0,2.448277,-1.682083,0.
 165657\H,0,2.406702,-0.594627,1.543829\H,0,3.371738,-0.157764,0.112852
 \H,0,-3.078523,-0.731193,-0.712382\H,0,-1.756978,-1.866034,-1.009806\H

 Normal termination of Gaussian 16 at Sat Apr  5 23:04:48 2025.
 Gaussian 16:  ES64L-G16RevC.01  3-Jul-2019

 ----------------------------------------------------------------------
 #t hf aug-cc-pvdz iop(5/13=1,5/36=2,99/5=2) pseudo=read geom=check gue
 ss=(read,tcheck) scf=(maxcycle=1)
 ----------------------------------------------------------------------
 -----
 title
 -----
 Structure from the checkpoint file:  "isopropyl_acetate.chk"
 Charge =  0 Multiplicity = 1

                         Standard orientation:
 ---------------------------------------------------------------------
 Center     Atomic      Atomic             Coordinates (Angstroms)
 Number     Number       Type             X           Y           Z
 ---------------------------------------------------------------------
      1          6           0        1.268727    0.080167   -0.135548
      2          6           0        2.457391   -0.631709    0.455479
      3          6           0       -2.121048   -1.091773   -0.335245
      4          6           0       -1.578136    1.165030    0.695009
      5          6           0       -1.134427    0.057348   -0.246875
      6          8           0        1.327987    1.053724   -0.845937
      7          8           0        0.117817   -0.516965    0.234551
      8          1           0        2.448277   -1.682083    0.165657
      9          1           0        2.406702   -0.594627    1.543829
     10          1           0        3.371738   -0.157764    0.112852
     11          1           0       -3.078523   -0.731193   -0.712382
     12          1           0       -1.756978   -1.866034   -1.009806
     13          1           0       -2.285710   -1.538625    0.646050
     14          1           0       -2.518095    1.595146    0.346575
     15          1           0       -0.836390    1.960880    0.734621
     16          1           0       -1.733027    0.773621    1.701565
     17          1           0       -0.939471    0.472232   -1.234796
 ---------------------------------------------------------------------

 SCF Done:  E(RHF) =  -345.318519928     A.U. after    2 cycles

 The electronic state is 1-A.
 Alpha  occ. eigenvalues --  -20.58014 -20.52794 -11.38550 -11.29829 -11.24768
 Alpha  occ. eigenvalues --  -11.23197 -11.22844  -1.53350  -1.44382  -1.08112
 Alpha  occ. eigenvalues --   -1.00995  -0.94939  -0.84437  -0.77211  -0.69955
 Alpha  occ. eigenvalues --   -0.67015  -0.65976  -0.61927  -0.59212  -0.58502
 Alpha  occ. eigenvalues --   -0.56670  -0.55614  -0.53950  -0.52106  -0.50816
 Alpha  occ. eigenvalues --   -0.48811  -0.44630  -0.43481
 Alpha virt. eigenvalues --    0.03558   0.03882   0.04091   0.04624   0.06037
 Alpha virt. eigenvalues --    0.06198   0.06718   0.07473   0.07690   0.08882
 Alpha virt. eigenvalues --    0.10707   0.13267   0.13294   0.14368   0.15140

 Mulliken charges:
               1
     1  C    1.795784
     2  C   -0.704668
     3  C   -0.227848
     4  C   -0.297846
     5  C    0.168126
     6  O   -1.219979
     7  O   -1.434206
     8  H    0.220610
     9  H    0.226668
    10  H    0.183055
    11  H    0.185119
    12  H    0.157911
    13  H    0.206099
    14  H    0.168123
    15  H    0.117221
    16  H    0.221182
    17  H    0.234649
 Sum of Mulliken charges =  -0.00000

 Dipole moment (field-independent basis, Debye):
    X=             -0.8911    Y=             -1.5180    Z=              1.1041  Tot=              2.0779

 Test job not archived.
 1\1\GINC-SE276\SP\RHF\Aug-CC-pVDZ\C5H10O2\OHZDE\05-Apr-2025\0\\#t hf a
 ug-cc-pvdz iop(5/13=1,5/36=2,99/5=2) pseudo=read geom=check guess=(rea
 d,tcheck) scf=(maxcycle=1)\\title\\0,1\C,0,1.268727,0.080167,-0.135548
 \C,0,2.457391,-0.631709,0.455479\C,0,-2.121048,-1.091773,-0.335245\C,0
 ,-1.578136,1.16503,0.695009\C,0,-1.134427,0.057348,-0.246875\O,0,1.327
 987,1.053724,-0.845937\O,0,0.117817,-0.516965,0.234551\H,0,2.448277,-1
 .682083,0.165657\H,0,2.406702,-0.594627,1.543829\H,0,3.371738,-0.15776
 4,0.112852\H,0,-3.078523,-0.731193,-0.712382\H,0,-1.756978,-1.866034,-

 Normal termination of Gaussian 16 at Sat Apr  5 23:05:08 2025.
