 Gaussian 16, Revision C.01,

 ----------------------------------------------------------------------
 #t hf aug-cc-pvdz symm=none int=(grid=ultrafine) guess=(read,tcheck) s
 table=(opt,rrhf)
 ----------------------------------------------------------------------
 -----
 title
 -----
 Symbolic Z-matrix:
 Charge =  0 Multiplicity = 1

 SCF Done:  E(RHF) =  -383.979249779     A.U. after   14 cycles

 1\1\GINC-SE271\Stability\RHF\Aug-CC-pVDZ\C6H12O2\OHZDE\05-Apr-2025\0\\
 #t hf aug-cc-pvdz symm=none int=(grid=ultrafine) guess=(read,tcheck) s
 table=(opt,rrhf)\\title\\0,1\C,0,-0.22106,2.864428,0.\C,0,-0.22106,-2.
 371524,1.265102\C,0,-0.22106,-2.371524,-1.265102\C,0,1.048508,-0.54443
 3,0.\C,0,-0.053651,0.49844,0.\C,0,0.564195,-2.007414,0.\O,0,-1.421923,
 2.840809,0.\O,0,0.588857,1.801614,0.\H,0,0.384539,3.779558,0.\H,0,-0.4
 28507,-3.44222,1.29436\H,0,-1.18181,-1.8552,1.308497\H,0,0.337007,-2.1
 16386,2.167817\H,0,-1.18181,-1.8552,-1.308497\H,0,-0.428507,-3.44222,-

 Normal termination of Gaussian 16 at Sat Apr  5 23:03:12 2025.
 Gaussian 16:  ES64L-G16RevC.01  3-Jul-2019

 ----------------------------------------------------------------------
 #t hf aug-cc-pvdz iop(5/13=1,5/36=2,99/5=2) pseudo=read geom=check gue
 ss=(read,tcheck) scf=(maxcycle=1)
 ----------------------------------------------------------------------
 -----
 title
 -----
 Structure from the checkpoint file:  "isopentyl_formate.chk"
 Charge =  0 Multiplicity = 1

                         Standard orientation:
 ---------------------------------------------------------------------
 Center     Atomic      Atomic             Coordinates (Angstroms)
 Number     Number       Type             X           Y           Z
 ---------------------------------------------------------------------
      1          6           0       -0.221060    2.864428    0.000000
      2          6           0       -0.221060   -2.371524    1.265102
      3          6           0       -0.221060   -2.371524   -1.265102
      4          6           0        1.048508   -0.544433   -0.000000
      5          6           0       -0.053651    0.498440    0.000000
      6          6           0        0.564195   -2.007414   -0.000000
      7          8           0       -1.421923    2.840809    0.000000
      8          8           0        0.588857    1.801614    0.000000
      9          1           0        0.384539    3.779558    0.000000
     10          1           0       -0.428507   -3.442220    1.294360
     11          1           0       -1.181810   -1.855200    1.308497
     12          1           0        0.337007   -2.116386    2.167817
     13          1           0       -1.181810   -1.855200   -1.308497
     14          1           0       -0.428507   -3.442220   -1.294360
     15          1           0        0.337007   -2.116386   -2.167817
     16          1           0        1.679808   -0.377477   -0.876121
     17          1           0        1.679808   -0.377477    0.876121
     18          1           0       -0.691293    0.435316   -0.880677
     19          1           0       -0.691293    0.435316    0.880677
     20          1           0        1.474353   -2.614843   -0.000000
 ---------------------------------------------------------------------

 SCF Done:  E(RHF) =  -384.381488067     A.U. after    2 cycles

 The electronic state is 1-A'.
 Alpha  occ. eigenvalues --  -20.59428 -20.54159 -11.39105 -11.29780 -11.24347
 Alpha  occ. eigenvalues --  -11.23674 -11.22776 -11.22761  -1.54536  -1.45603
 Alpha  occ. eigenvalues --   -1.10732  -1.01737  -0.93938  -0.90411  -0.82190
 Alpha  occ. eigenvalues --   -0.77731  -0.72463  -0.68904  -0.68524  -0.63816
 Alpha  occ. eigenvalues --   -0.61089  -0.60639  -0.56547  -0.56537  -0.54204
 Alpha  occ. eigenvalues --   -0.52998  -0.51495  -0.48429  -0.48019  -0.47148
 Alpha  occ. eigenvalues --   -0.45520  -0.44806
 Alpha virt. eigenvalues --    0.03261   0.03490   0.03697   0.04101   0.05359
 Alpha virt. eigenvalues --    0.06254   0.06648   0.06828   0.06965   0.08961
 Alpha virt. eigenvalues --    0.09313   0.10132   0.11249   0.12576   0.12650

 Mulliken charges:
               1
     1  C    1.346338
     2  C   -0.049604
     3  C   -0.049604
     4  C   -0.319344
     5  C    0.717270
     6  C   -1.159153
     7  O   -0.981304
     8  O   -1.124269
     9  H    0.066598
    10  H    0.118007
    11  H    0.204303
    12  H    0.151042
    13  H    0.204303
    14  H    0.118007
    15  H    0.151042
    16  H    0.121292
    17  H    0.121292
    18  H    0.080807
    19  H    0.080807
    20  H    0.202174
 Sum of Mulliken charges =  -0.00000

 Dipole moment (field-independent basis, Debye):
    X=              1.9028    Y=             -1.6296    Z=             -0.0000  Tot=              2.5053

 Test job not archived.
 1\1\GINC-SE271\SP\RHF\Aug-CC-pVDZ\C6H12O2\OHZDE\05-Apr-2025\0\\#t hf a
 ug-cc-pvdz iop(5/13=1,5/36=2,99/5=2) pseudo=read geom=check guess=(rea
 d,tcheck) scf=(maxcycle=1)\\title\\0,1\C,0,-0.22106,2.864428,0.\C,0,-0
 .22106,-2.371524,1.265102\C,0,-0.22106,-2.371524,-1.265102\C,0,1.04850
 8,-0.544433,0.\C,0,-0.053651,0.49844,0.\C,0,0.564195,-2.007414,0.\O,0,
 -1.421923,2.840809,0.\O,0,0.588857,1.801614,0.\H,0,0.384539,3.779558,0
 .\H,0,-0.428507,-3.44222,1.29436\H,0,-1.18181,-1.8552,1.308497\H,0,0.3
 37007,-2.116386,2.167817\H,0,-1.18181,-1.8552,-1.308497\H,0,-0.428507,

 Normal termination of Gaussian 16 at Sat Apr  5 23:03:22 2025.
