 Gaussian 16, Revision C.01,

 ----------------------------------------------------------------------
 #t hf aug-cc-pvdz symm=none int=(grid=ultrafine) guess=(read,tcheck) s
 table=(opt,rrhf)
 ----------------------------------------------------------------------
 -----
 title
 -----
 Symbolic Z-matrix:
 Charge =  0 Multiplicity = 1

 SCF Done:  E(RHF) =  -423.030205227     A.U. after   13 cycles

 1\1\GINC-SE271\Stability\RHF\Aug-CC-pVDZ\C7H14O2\OHZDE\05-Apr-2025\0\\
 #t hf aug-cc-pvdz symm=none int=(grid=ultrafine) guess=(read,tcheck) s
 table=(opt,rrhf)\\title\\0,1\C,0,2.403276,0.235094,0.00358\C,0,3.66424
 7,-0.587957,-0.004238\C,0,-2.836541,0.358121,1.268379\C,0,-2.835699,0.
 381755,-1.261372\C,0,-1.045343,-0.950015,-0.008083\C,0,0.028571,0.1228
 51,-0.001652\C,0,-2.494529,-0.425752,-0.00381\O,0,2.357473,1.440315,0.
 011576\O,0,1.309148,-0.552959,-0.002627\H,0,3.70607,-1.193141,-0.90998
 7\H,0,3.671524,-1.271694,0.844196\H,0,4.526585,0.069656,0.039536\H,0,-

 Normal termination of Gaussian 16 at Sat Apr  5 23:04:46 2025.
 Gaussian 16:  ES64L-G16RevC.01  3-Jul-2019

 ----------------------------------------------------------------------
 #t hf aug-cc-pvdz iop(5/13=1,5/36=2,99/5=2) pseudo=read geom=check gue
 ss=(read,tcheck) scf=(maxcycle=1)
 ----------------------------------------------------------------------
 -----
 title
 -----
 Structure from the checkpoint file:  "isopentyl_acetate.chk"
 Charge =  0 Multiplicity = 1

                         Standard orientation:
 ---------------------------------------------------------------------
 Center     Atomic      Atomic             Coordinates (Angstroms)
 Number     Number       Type             X           Y           Z
 ---------------------------------------------------------------------
      1          6           0        2.403276    0.235094    0.003580
      2          6           0        3.664247   -0.587957   -0.004238
      3          6           0       -2.836541    0.358121    1.268379
      4          6           0       -2.835699    0.381755   -1.261372
      5          6           0       -1.045343   -0.950015   -0.008083
      6          6           0        0.028571    0.122851   -0.001652
      7          6           0       -2.494529   -0.425752   -0.003810
      8          8           0        2.357473    1.440315    0.011576
      9          8           0        1.309148   -0.552959   -0.002627
     10          1           0        3.706070   -1.193141   -0.909987
     11          1           0        3.671524   -1.271694    0.844196
     12          1           0        4.526585    0.069656    0.039536
     13          1           0       -3.900505    0.597961    1.298851
     14          1           0       -2.290462    1.301687    1.321379
     15          1           0       -2.599340   -0.216217    2.165809
     16          1           0       -2.290329    1.326588   -1.295750
     17          1           0       -3.899825    0.621256   -1.288528
     18          1           0       -2.596999   -0.175253   -2.169285
     19          1           0       -0.897174   -1.580633   -0.888276
     20          1           0       -0.896159   -1.591756    0.863846
     21          1           0       -0.019806    0.767018   -0.878748
     22          1           0       -0.022517    0.759280    0.880916
     23          1           0       -3.127922   -1.318173   -0.012356
 ---------------------------------------------------------------------

 SCF Done:  E(RHF) =  -423.476568226     A.U. after    2 cycles

 The electronic state is 1-A.
 Alpha  occ. eigenvalues --  -20.58278 -20.52863 -11.38482 -11.29065 -11.24816
 Alpha  occ. eigenvalues --  -11.24032 -11.23248 -11.22502 -11.22487  -1.53599
 Alpha  occ. eigenvalues --   -1.44401  -1.10441  -1.03931  -0.98570  -0.93655
 Alpha  occ. eigenvalues --   -0.88104  -0.78614  -0.76920  -0.69309  -0.68714
 Alpha  occ. eigenvalues --   -0.67109  -0.63182  -0.62239  -0.60495  -0.58360
 Alpha  occ. eigenvalues --   -0.57786  -0.55152  -0.54868  -0.53192  -0.52257
 Alpha  occ. eigenvalues --   -0.50572  -0.47937  -0.47613  -0.46721  -0.44830
 Alpha  occ. eigenvalues --   -0.43528
 Alpha virt. eigenvalues --    0.03326   0.03383   0.03625   0.04087   0.05266
 Alpha virt. eigenvalues --    0.05604   0.05933   0.06791   0.06904   0.07798
 Alpha virt. eigenvalues --    0.07918   0.08601   0.09962   0.11009   0.11758

 Mulliken charges:
               1
     1  C    1.726642
     2  C   -0.710405
     3  C   -0.045037
     4  C   -0.043719
     5  C   -0.271471
     6  C    0.779558
     7  C   -1.165686
     8  O   -1.197672
     9  O   -1.318185
    10  H    0.239172
    11  H    0.231757
    12  H    0.181046
    13  H    0.117036
    14  H    0.210288
    15  H    0.154279
    16  H    0.210753
    17  H    0.115927
    18  H    0.154837
    19  H    0.104353
    20  H    0.106641
    21  H    0.109408
    22  H    0.107568
    23  H    0.202910
 Sum of Mulliken charges =  -0.00000

 Dipole moment (field-independent basis, Debye):
    X=             -0.8987    Y=             -2.1442    Z=             -0.0239  Tot=              2.3251

 Test job not archived.
 1\1\GINC-SE271\SP\RHF\Aug-CC-pVDZ\C7H14O2\OHZDE\05-Apr-2025\0\\#t hf a
 ug-cc-pvdz iop(5/13=1,5/36=2,99/5=2) pseudo=read geom=check guess=(rea
 d,tcheck) scf=(maxcycle=1)\\title\\0,1\C,0,2.403276,0.235094,0.00358\C
 ,0,3.664247,-0.587957,-0.004238\C,0,-2.836541,0.358121,1.268379\C,0,-2
 .835699,0.381755,-1.261372\C,0,-1.045343,-0.950015,-0.008083\C,0,0.028
 571,0.122851,-0.001652\C,0,-2.494529,-0.425752,-0.00381\O,0,2.357473,1
 .440315,0.011576\O,0,1.309148,-0.552959,-0.002627\H,0,3.70607,-1.19314
 1,-0.909987\H,0,3.671524,-1.271694,0.844196\H,0,4.526585,0.069656,0.03

 Normal termination of Gaussian 16 at Sat Apr  5 23:05:14 2025.
