 Gaussian 16, Revision C.01,

 ----------------------------------------------------------------------
 #t hf aug-cc-pvdz symm=none int=(grid=ultrafine) guess=(read,tcheck) s
 table=(opt,rrhf)
 ----------------------------------------------------------------------
 -----
 title
 -----
 Symbolic Z-matrix:
 Charge =  0 Multiplicity = 1

 SCF Done:  E(RHF) =  -305.908222856     A.U. after   14 cycles
 Normal termination of Gaussian 16 at Sat Apr  5 23:02:34 2025.
 Gaussian 16:  ES64L-G16RevC.01  3-Jul-2019

 ----------------------------------------------------------------------
 #t hf aug-cc-pvdz iop(5/13=1,5/36=2,99/5=2) pseudo=read geom=check gue
 ss=(read,tcheck) scf=(maxcycle=1)
 ----------------------------------------------------------------------
 -----
 title
 -----
 Structure from the checkpoint file:  "isopropyl_formate.chk"
 Charge =  0 Multiplicity = 1

                         Standard orientation:
 ---------------------------------------------------------------------
 Center     Atomic      Atomic             Coordinates (Angstroms)
 Number     Number       Type             X           Y           Z
 ---------------------------------------------------------------------
      1          6           0        1.617743   -0.394675    0.283252
      2          6           0       -1.893251   -0.863530   -0.252957
      3          6           0       -0.944016    1.436162    0.264110
      4          6           0       -0.675794    0.040279   -0.273129
      5          8           0        2.051181    0.295615   -0.599753
      6          8           0        0.330551   -0.615131    0.565758
      7          1           0        2.240430   -0.955104    0.992486
      8          1           0       -2.678480   -0.440562   -0.880088
      9          1           0       -1.648581   -1.854994   -0.632319
     10          1           0       -2.282128   -0.967445    0.760564
     11          1           0       -1.698111    1.930159   -0.349869
     12          1           0       -0.039874    2.042006    0.242524
     13          1           0       -1.314363    1.388173    1.289063
     14          1           0       -0.260844    0.104471   -1.278058
 ---------------------------------------------------------------------

 SCF Done:  E(RHF) =  -306.223528262     A.U. after    2 cycles

 The electronic state is 1-A.
 Alpha  occ. eigenvalues --  -20.59144 -20.54048 -11.39142 -11.30549 -11.23643
 Alpha  occ. eigenvalues --  -11.23343  -1.54257  -1.45542  -1.08031  -0.95460
 Alpha  occ. eigenvalues --   -0.88856  -0.78731  -0.73835  -0.68417  -0.65615
 Alpha  occ. eigenvalues --   -0.62220  -0.58641  -0.56788  -0.55667  -0.53180
 Alpha  occ. eigenvalues --   -0.51873  -0.49579  -0.45400  -0.44703
 Alpha virt. eigenvalues --    0.03660   0.03873   0.04191   0.04708   0.06304
 Alpha virt. eigenvalues --    0.07202   0.07399   0.07611   0.10446   0.11477
 Alpha virt. eigenvalues --    0.12969   0.14743   0.14957   0.15653   0.15712

 Mulliken charges:
               1
     1  C    1.261029
     2  C   -0.250641
     3  C   -0.322913
     4  C    0.199950
     5  O   -0.984335
     6  O   -1.212232
     7  H    0.062327
     8  H    0.198858
     9  H    0.152134
    10  H    0.199211
    11  H    0.188772
    12  H    0.100150
    13  H    0.227298
    14  H    0.180390
 Sum of Mulliken charges =  -0.00000

 Dipole moment (field-independent basis, Debye):
    X=             -1.9768    Y=             -0.6091    Z=              0.8407  Tot=              2.2328

 Test job not archived.
 1\1\GINC-SE276\SP\RHF\Aug-CC-pVDZ\C4H8O2\OHZDE\05-Apr-2025\0\\#t hf au
 g-cc-pvdz iop(5/13=1,5/36=2,99/5=2) pseudo=read geom=check guess=(read
 ,tcheck) scf=(maxcycle=1)\\title\\0,1\C,0,1.617743,-0.394675,0.283252\
 C,0,-1.893251,-0.86353,-0.252957\C,0,-0.944016,1.436162,0.26411\C,0,-0
 .675794,0.040279,-0.273129\O,0,2.051181,0.295615,-0.599753\O,0,0.33055
 1,-0.615131,0.565758\H,0,2.24043,-0.955104,0.992486\H,0,-2.67848,-0.44
 0562,-0.880088\H,0,-1.648581,-1.854994,-0.632319\H,0,-2.282128,-0.9674
 45,0.760564\H,0,-1.698111,1.930159,-0.349869\H,0,-0.039874,2.042006,0.

 Normal termination of Gaussian 16 at Sat Apr  5 23:03:06 2025.
