 Gaussian 16, Revision C.01,

 ----------------------------------------------------------------------
 #t hf aug-cc-pvdz symm=none int=(grid=ultrafine) guess=(read,tcheck) s
 table=(opt,rrhf)
 ----------------------------------------------------------------------
 -----
 title
 -----
 Symbolic Z-matrix:
 Charge =  0 Multiplicity = 1

 SCF Done:  E(RHF) =  -321.791211906     A.U. after   15 cycles
 Normal termination of Gaussian 16 at Sat Apr  5 23:03:20 2025.
 Gaussian 16:  ES64L-G16RevC.01  3-Jul-2019

 ----------------------------------------------------------------------
 #t hf aug-cc-pvdz iop(5/13=1,5/36=2,99/5=2) pseudo=read geom=check gue
 ss=(read,tcheck) scf=(maxcycle=1)
 ----------------------------------------------------------------------
 -----
 title
 -----
 Structure from the checkpoint file:  "isopropyl_nitrite.chk"
 Charge =  0 Multiplicity = 1

                         Standard orientation:
 ---------------------------------------------------------------------
 Center     Atomic      Atomic             Coordinates (Angstroms)
 Number     Number       Type             X           Y           Z
 ---------------------------------------------------------------------
      1          1           0        1.230807   -0.798909   -0.000000
      2          6           0        0.140652   -0.856817   -0.000000
      3          1           0        0.007049   -2.562492    1.308766
      4          1           0       -1.436380   -1.541527    1.309424
      5          1           0        0.023820   -1.009617    2.153756
      6          6           0       -0.346546   -1.531370    1.272020
      7          1           0        0.007049   -2.562492   -1.308766
      8          1           0        0.023820   -1.009617   -2.153756
      9          1           0       -1.436380   -1.541527   -1.309424
     10          6           0       -0.346546   -1.531370   -1.272020
     11          8           0       -0.346546    0.512894    0.000000
     12          8           0        0.328520    2.544021    0.000000
     13          7           0        0.719868    1.441172    0.000000
 ---------------------------------------------------------------------

 SCF Done:  E(RHF) =  -322.115776168     A.U. after    2 cycles

 The electronic state is 1-A'.
 Alpha  occ. eigenvalues --  -20.63339 -20.60370 -15.71993 -11.30848 -11.23854
 Alpha  occ. eigenvalues --  -11.23834  -1.67031  -1.48823  -1.08264  -0.95796
 Alpha  occ. eigenvalues --   -0.95792  -0.83688  -0.76712  -0.72763  -0.69760
 Alpha  occ. eigenvalues --   -0.63516  -0.60869  -0.60563  -0.56280  -0.54006
 Alpha  occ. eigenvalues --   -0.52930  -0.50739  -0.46004  -0.44818
 Alpha virt. eigenvalues --    0.03575   0.04254   0.04278   0.05049   0.06714
 Alpha virt. eigenvalues --    0.06949   0.07458   0.07717   0.10997   0.12341
 Alpha virt. eigenvalues --    0.13704   0.14814   0.15259   0.15410   0.16432

 Mulliken charges:
               1
     1  H    0.234041
     2  C   -0.198480
     3  H    0.189038
     4  H    0.202340
     5  H    0.162417
     6  C   -0.166502
     7  H    0.189038
     8  H    0.162417
     9  H    0.202340
    10  C   -0.166502
    11  O   -1.477215
    12  O   -0.981256
    13  N    1.648324
 Sum of Mulliken charges =  -0.00000

 Dipole moment (field-independent basis, Debye):
    X=              0.2089    Y=             -2.6456    Z=             -0.0000  Tot=              2.6538

 Test job not archived.
 1\1\GINC-SE300\SP\RHF\Aug-CC-pVDZ\C3H7N1O2\OHZDE\05-Apr-2025\0\\#t hf
 aug-cc-pvdz iop(5/13=1,5/36=2,99/5=2) pseudo=read geom=check guess=(re
 ad,tcheck) scf=(maxcycle=1)\\title\\0,1\H,0,1.230807,-0.798909,0.\C,0,
 0.140652,-0.856817,0.\H,0,0.007049,-2.562492,1.308766\H,0,-1.43638,-1.
 541527,1.309424\H,0,0.02382,-1.009617,2.153756\C,0,-0.346546,-1.53137,
 1.27202\H,0,0.007049,-2.562492,-1.308766\H,0,0.02382,-1.009617,-2.1537
 56\H,0,-1.43638,-1.541527,-1.309424\C,0,-0.346546,-1.53137,-1.27202\O,
 0,-0.346546,0.512894,0.\O,0,0.32852,2.544021,0.\N,0,0.719868,1.441172,

 Normal termination of Gaussian 16 at Sat Apr  5 23:03:47 2025.
