 Gaussian 16, Revision C.01,

 ----------------------------------------------------------------------
 #t hf aug-cc-pvdz symm=none int=(grid=ultrafine) guess=(read,tcheck) s
 table=(opt,rrhf)
 ----------------------------------------------------------------------
 -----
 title
 -----
 Symbolic Z-matrix:
 Charge =  0 Multiplicity = 1

 SCF Done:  E(RHF) =  -346.658761193     A.U. after   15 cycles
 Normal termination of Gaussian 16 at Sat Apr  5 23:05:23 2025.
 Gaussian 16:  ES64L-G16RevC.01  3-Jul-2019

 ----------------------------------------------------------------------
 #t hf aug-cc-pvdz iop(5/13=1,5/36=2,99/5=2) pseudo=read geom=check gue
 ss=(read,tcheck) scf=(maxcycle=1)
 ----------------------------------------------------------------------
 -----
 title
 -----
 Structure from the checkpoint file:  "isopropenylbenzene.chk"
 Charge =  0 Multiplicity = 1

                         Standard orientation:
 ---------------------------------------------------------------------
 Center     Atomic      Atomic             Coordinates (Angstroms)
 Number     Number       Type             X           Y           Z
 ---------------------------------------------------------------------
      1          6           0       -2.607951   -0.070177   -0.002533
      2          6           0       -1.956385    1.138080    0.223390
      3          6           0       -1.855508   -1.217102   -0.220271
      4          6           0       -0.570564    1.197284    0.222786
      5          6           0       -0.467158   -1.156536   -0.216683
      6          6           0        0.205539    0.053889   -0.010474
      7          6           0        2.337269    1.223085   -0.419484
      8          6           0        1.689055    0.121675   -0.030681
      9          6           0        2.453037   -1.107640    0.391878
     10          1           0       -3.688478   -0.117438    0.001289
     11          1           0       -2.529999    2.035788    0.412585
     12          1           0       -2.348629   -2.164590   -0.392684
     13          1           0       -0.080152    2.138271    0.429309
     14          1           0        0.095144   -2.062538   -0.391815
     15          1           0        3.417985    1.266340   -0.413429
     16          1           0        1.818583    2.103555   -0.771554
     17          1           0        2.308302   -1.930951   -0.311139
     18          1           0        2.122756   -1.463201    1.369923
     19          1           0        3.520478   -0.900594    0.439945
 ---------------------------------------------------------------------

 SCF Done:  E(RHF) =  -347.023269553     A.U. after    2 cycles

 The electronic state is 1-A.
 Alpha  occ. eigenvalues --  -11.25158 -11.24854 -11.24192 -11.24149 -11.24040
 Alpha  occ. eigenvalues --  -11.24026 -11.23928 -11.23299 -11.22704  -1.16322
 Alpha  occ. eigenvalues --   -1.09136  -1.01842  -1.00169  -0.94019  -0.84882
 Alpha  occ. eigenvalues --   -0.83180  -0.75685  -0.70758  -0.65166  -0.64794
 Alpha  occ. eigenvalues --   -0.62790  -0.60083  -0.59422  -0.57407  -0.54671
 Alpha  occ. eigenvalues --   -0.53047  -0.51275  -0.50154  -0.49040  -0.39684
 Alpha  occ. eigenvalues --   -0.34660  -0.31722
 Alpha virt. eigenvalues --    0.03419   0.03515   0.03757   0.04550   0.04811
 Alpha virt. eigenvalues --    0.05008   0.06658   0.07474   0.07604   0.08667
 Alpha virt. eigenvalues --    0.09447   0.09964   0.10831   0.11990   0.12836

 Mulliken charges:
               1
     1  C    0.019951
     2  C   -0.026919
     3  C   -0.150849
     4  C    0.045025
     5  C    0.178051
     6  C    1.487632
     7  C    0.162131
     8  C    0.197127
     9  C   -0.770209
    10  H   -0.224983
    11  H   -0.235627
    12  H   -0.252746
    13  H   -0.295634
    14  H   -0.328496
    15  H   -0.184556
    16  H   -0.187377
    17  H    0.287733
    18  H    0.275590
    19  H    0.004154
 Sum of Mulliken charges =  -0.00000

 Dipole moment (field-independent basis, Debye):
    X=              0.0117    Y=             -0.3012    Z=              0.1106  Tot=              0.3211

 Test job not archived.
 1\1\GINC-SE275\SP\RHF\Aug-CC-pVDZ\C9H10\OHZDE\05-Apr-2025\0\\#t hf aug
 -cc-pvdz iop(5/13=1,5/36=2,99/5=2) pseudo=read geom=check guess=(read,
 tcheck) scf=(maxcycle=1)\\title\\0,1\C,0,-2.607951,-0.070177,-0.002533
 \C,0,-1.956385,1.13808,0.22339\C,0,-1.855508,-1.217102,-0.220271\C,0,-
 0.570564,1.197284,0.222786\C,0,-0.467158,-1.156536,-0.216683\C,0,0.205
 539,0.053889,-0.010474\C,0,2.337269,1.223085,-0.419484\C,0,1.689055,0.
 121675,-0.030681\C,0,2.453037,-1.10764,0.391878\H,0,-3.688478,-0.11743
 8,0.001289\H,0,-2.529999,2.035788,0.412585\H,0,-2.348629,-2.16459,-0.3

 Normal termination of Gaussian 16 at Sat Apr  5 23:06:19 2025.
