 Gaussian 16, Revision C.01,

 ----------------------------------------------------------------------
 #t hf aug-cc-pvdz symm=none int=(grid=ultrafine) guess=(read,tcheck) s
 table=(opt,rrhf)
 ----------------------------------------------------------------------
 -----
 title
 -----
 Symbolic Z-matrix:
 Charge =  0 Multiplicity = 1

 SCF Done:  E(RHF) =  -399.390820874     A.U. after   16 cycles
 Normal termination of Gaussian 16 at Sat Apr  5 23:07:57 2025.
 Gaussian 16:  ES64L-G16RevC.01  3-Jul-2019

 ----------------------------------------------------------------------
 #t hf aug-cc-pvdz iop(5/13=1,5/36=2,99/5=2) pseudo=read geom=check gue
 ss=(read,tcheck) scf=(maxcycle=1)
 ----------------------------------------------------------------------
 -----
 title
 -----
 Structure from the checkpoint file:  "isoquinoline.chk"
 Charge =  0 Multiplicity = 1

                         Standard orientation:
 ---------------------------------------------------------------------
 Center     Atomic      Atomic             Coordinates (Angstroms)
 Number     Number       Type             X           Y           Z
 ---------------------------------------------------------------------
      1          7           0       -2.411694    0.770500   -0.000000
      2          6           0       -1.247199    1.371403   -0.000000
      3          6           0        0.000000    0.696957    0.000000
      4          6           0       -0.018996   -0.725328   -0.000000
      5          6           0       -1.285073   -1.354625   -0.000000
      6          6           0       -2.419419   -0.587737   -0.000000
      7          6           0        1.211455   -1.424550    0.000000
      8          6           0        2.397856   -0.737303    0.000000
      9          6           0        2.414486    0.675356    0.000000
     10          6           0        1.238322    1.379037    0.000000
     11          1           0       -1.255568    2.457887   -0.000000
     12          1           0       -1.354484   -2.434581   -0.000000
     13          1           0       -3.398779   -1.049785   -0.000000
     14          1           0        1.202991   -2.506847    0.000000
     15          1           0        3.334572   -1.278500    0.000000
     16          1           0        3.361605    1.197408    0.000000
     17          1           0        1.242936    2.461653    0.000000
 ---------------------------------------------------------------------

 SCF Done:  E(RHF) =  -399.797491535     A.U. after    2 cycles

 The electronic state is 1-A'.
 Alpha  occ. eigenvalues --  -15.50419 -11.28712 -11.27497 -11.26610 -11.25967
 Alpha  occ. eigenvalues --  -11.25941 -11.25499 -11.25317 -11.25290 -11.24583
 Alpha  occ. eigenvalues --   -1.26164  -1.16837  -1.07711  -1.05120  -1.00961
 Alpha  occ. eigenvalues --   -0.89853  -0.87670  -0.84296  -0.74002  -0.73706
 Alpha  occ. eigenvalues --   -0.70874  -0.65398  -0.64591  -0.61977  -0.61044
 Alpha  occ. eigenvalues --   -0.57597  -0.57533  -0.54472  -0.50879  -0.50070
 Alpha  occ. eigenvalues --   -0.45254  -0.41327  -0.36269  -0.31544
 Alpha virt. eigenvalues --    0.03020   0.03302   0.03654   0.04852   0.05252
 Alpha virt. eigenvalues --    0.05570   0.07230   0.07797   0.08000   0.09003
 Alpha virt. eigenvalues --    0.09627   0.10374   0.11832   0.12566   0.12722

 Mulliken charges:
               1
     1  N    1.132661
     2  C   -1.718283
     3  C    1.586200
     4  C    0.906580
     5  C    0.798772
     6  C   -1.343871
     7  C    0.390472
     8  C   -0.059901
     9  C   -0.354667
    10  C    0.469369
    11  H   -0.268820
    12  H   -0.248283
    13  H   -0.217440
    14  H   -0.292375
    15  H   -0.249477
    16  H   -0.257902
    17  H   -0.273035
 Sum of Mulliken charges =  -0.00000

 Dipole moment (field-independent basis, Debye):
    X=              2.9032    Y=             -0.9835    Z=              0.0000  Tot=              3.0653

 Test job not archived.
 1\1\GINC-SE055\SP\RHF\Aug-CC-pVDZ\C9H7N1\OHZDE\05-Apr-2025\0\\#t hf au
 g-cc-pvdz iop(5/13=1,5/36=2,99/5=2) pseudo=read geom=check guess=(read
 ,tcheck) scf=(maxcycle=1)\\title\\0,1\N,0,-2.411694,0.7705,0.\C,0,-1.2
 47199,1.371403,0.\C,0,0.,0.696957,0.\C,0,-0.018996,-0.725328,0.\C,0,-1
 .285073,-1.354625,0.\C,0,-2.419419,-0.587737,0.\C,0,1.211455,-1.42455,
 0.\C,0,2.397856,-0.737303,0.\C,0,2.414486,0.675356,0.\C,0,1.238322,1.3
 79037,0.\H,0,-1.255568,2.457887,0.\H,0,-1.354484,-2.434581,0.\H,0,-3.3
 98779,-1.049786,0.\H,0,1.202991,-2.506847,0.\H,0,3.334572,-1.2785,0.\H

 Normal termination of Gaussian 16 at Sat Apr  5 23:08:07 2025.
