 Gaussian 16, Revision C.01,

 ----------------------------------------------------------------------
 #t hf aug-cc-pvdz symm=none int=(grid=ultrafine) guess=(read,tcheck) s
 table=(opt,rrhf)
 ----------------------------------------------------------------------
 -----
 title
 -----
 Symbolic Z-matrix:
 Charge =  0 Multiplicity = 1

 SCF Done:  E(RHF) =  -567.322866073     A.U. after   15 cycles
 Normal termination of Gaussian 16 at Sat Apr  5 23:06:20 2025.
 Gaussian 16:  ES64L-G16RevC.01  3-Jul-2019

 ----------------------------------------------------------------------
 #t hf aug-cc-pvdz iop(5/13=1,5/36=2,99/5=2) pseudo=read geom=check gue
 ss=(read,tcheck) scf=(maxcycle=1)
 ----------------------------------------------------------------------
 -----
 title
 -----
 Structure from the checkpoint file:  "isothiazole.chk"
 Charge =  0 Multiplicity = 1

                         Standard orientation:
 ---------------------------------------------------------------------
 Center     Atomic      Atomic             Coordinates (Angstroms)
 Number     Number       Type             X           Y           Z
 ---------------------------------------------------------------------
      1          6           0        0.654473   -1.275757    0.000000
      2          6           0       -0.759568   -1.159013    0.000000
      3          6           0        1.232534   -0.038075    0.000000
      4          7           0       -1.256067    0.058336    0.000000
      5         16           0        0.000000    1.151175    0.000000
      6          1           0        1.194557   -2.209548    0.000000
      7          1           0       -1.446653   -1.995169    0.000000
      8          1           0        2.279932    0.214642    0.000000
 ---------------------------------------------------------------------

 SCF Done:  E(RHF) =  -567.554215709     A.U. after    2 cycles

 The electronic state is 1-A'.
 Alpha  occ. eigenvalues --  -94.00696 -15.53185 -11.29460 -11.29210 -11.25694
 Alpha  occ. eigenvalues --   -8.28613  -6.26364  -6.26230  -6.26033  -1.29003
 Alpha  occ. eigenvalues --   -1.07841  -1.03239  -0.82081  -0.79348  -0.72719
 Alpha  occ. eigenvalues --   -0.60680  -0.60385  -0.58595  -0.50579  -0.49135
 Alpha  occ. eigenvalues --   -0.40079  -0.36825
 Alpha virt. eigenvalues --    0.03259   0.03872   0.04779   0.06851   0.08146
 Alpha virt. eigenvalues --    0.08995   0.11062   0.12030   0.12846   0.12965
 Alpha virt. eigenvalues --    0.13195   0.14128   0.15185   0.15328   0.15610

 Mulliken charges:
               1
     1  C    0.820327
     2  C   -0.837620
     3  C   -0.584878
     4  N    0.214848
     5  S    0.683695
     6  H   -0.103285
     7  H   -0.092870
     8  H   -0.100216
 Sum of Mulliken charges =  -0.00000

 Dipole moment (field-independent basis, Debye):
    X=              2.8812    Y=             -1.5785    Z=              0.0000  Tot=              3.2852

 Test job not archived.
 1\1\GINC-SE129\SP\RHF\Aug-CC-pVDZ\C3H3N1S1\OHZDE\05-Apr-2025\0\\#t hf
 aug-cc-pvdz iop(5/13=1,5/36=2,99/5=2) pseudo=read geom=check guess=(re
 ad,tcheck) scf=(maxcycle=1)\\title\\0,1\C,0,0.654473,-1.275757,0.\C,0,
 -0.759568,-1.159013,0.\C,0,1.232534,-0.038075,0.\N,0,-1.256067,0.05833
 6,0.\S,0,0.,1.151175,0.\H,0,1.194557,-2.209548,0.\H,0,-1.446653,-1.995
 169,0.\H,0,2.279932,0.214642,0.\\Version=ES64L-G16RevC.01\State=1-A'\H
 F=-567.5542157\RMSD=2.147e-02\Dipole=1.1335396,-0.6210365,0.\Quadrupol
 e=0.1334351,2.8233444,-2.9567796,1.4954347,0.,0.\PG=CS [SG(C3H3N1S1)]\

 Normal termination of Gaussian 16 at Sat Apr  5 23:06:26 2025.
