 Gaussian 16, Revision C.01,

 ----------------------------------------------------------------------
 #t hf aug-cc-pvdz symm=none int=(grid=ultrafine) guess=(read,tcheck) s
 table=(opt,rrhf)
 ----------------------------------------------------------------------
 -----
 title
 -----
 Symbolic Z-matrix:
 Charge =  0 Multiplicity = 1

 SCF Done:  E(RHF) =  -604.335378104     A.U. after   15 cycles
 Normal termination of Gaussian 16 at Sat Apr  5 23:06:32 2025.
 Gaussian 16:  ES64L-G16RevC.01  3-Jul-2019

 ----------------------------------------------------------------------
 #t hf aug-cc-pvdz iop(5/13=1,5/36=2,99/5=2) pseudo=read geom=check gue
 ss=(read,tcheck) scf=(maxcycle=1)
 ----------------------------------------------------------------------
 -----
 title
 -----
 Structure from the checkpoint file:  "isothiocyanatomethanol.chk"
 Charge =  0 Multiplicity = 1

                         Standard orientation:
 ---------------------------------------------------------------------
 Center     Atomic      Atomic             Coordinates (Angstroms)
 Number     Number       Type             X           Y           Z
 ---------------------------------------------------------------------
      1         16           0        2.147620    0.209811    0.031553
      2          8           0       -2.177251    0.884502    0.079532
      3          7           0       -0.449502   -0.736185   -0.147699
      4          6           0        0.650412   -0.289749   -0.045393
      5          6           0       -1.845506   -0.478904    0.091503
      6          1           0       -2.115777    1.223264   -0.819967
      7          1           0       -2.414295   -1.043253   -0.649351
      8          1           0       -2.096761   -0.847779    1.085447
 ---------------------------------------------------------------------

 SCF Done:  E(RHF) =  -604.598848584     A.U. after    2 cycles

 The electronic state is 1-A.
 Alpha  occ. eigenvalues --  -93.94972 -20.58626 -15.54854 -11.38938 -11.37211
 Alpha  occ. eigenvalues --   -8.23259  -6.21157  -6.20731  -6.20692  -1.49477
 Alpha  occ. eigenvalues --   -1.29856  -1.08362  -1.01105  -0.79992  -0.73130
 Alpha  occ. eigenvalues --   -0.68584  -0.62780  -0.60822  -0.57500  -0.54039
 Alpha  occ. eigenvalues --   -0.50605  -0.39089  -0.37881
 Alpha virt. eigenvalues --    0.02860   0.04360   0.05170   0.07214   0.07950
 Alpha virt. eigenvalues --    0.08881   0.10597   0.10998   0.12089   0.13133
 Alpha virt. eigenvalues --    0.13811   0.14511   0.15708   0.17107   0.17576

 Mulliken charges:
               1
     1  S    0.277266
     2  O   -1.016385
     3  N    0.592040
     4  C   -0.967609
     5  C    0.612257
     6  H    0.304025
     7  H    0.108104
     8  H    0.090303
 Sum of Mulliken charges =   0.00000

 Dipole moment (field-independent basis, Debye):
    X=             -2.3359    Y=             -0.4495    Z=             -1.0029  Tot=              2.5815

 Test job not archived.
 1\1\GINC-SE183\SP\RHF\Aug-CC-pVDZ\C2H3N1O1S1\OHZDE\05-Apr-2025\0\\#t h
 f aug-cc-pvdz iop(5/13=1,5/36=2,99/5=2) pseudo=read geom=check guess=(
 read,tcheck) scf=(maxcycle=1)\\title\\0,1\S,0,2.14762,0.209811,0.03155
 3\O,0,-2.177251,0.884502,0.079532\N,0,-0.449502,-0.736185,-0.147699\C,
 0,0.650412,-0.289749,-0.045393\C,0,-1.845506,-0.478904,0.091503\H,0,-2
 .115777,1.223264,-0.819967\H,0,-2.414295,-1.043253,-0.649351\H,0,-2.09
 6761,-0.847779,1.085447\\Version=ES64L-G16RevC.01\State=1-A\HF=-604.59
 88486\RMSD=1.216e-02\Dipole=-0.9190048,-0.1768437,-0.3945532\Quadrupol

 Normal termination of Gaussian 16 at Sat Apr  5 23:06:36 2025.
