 Gaussian 16, Revision C.01,

 ----------------------------------------------------------------------
 #t hf aug-cc-pvdz symm=none int=(grid=ultrafine) guess=(read,tcheck) s
 table=(opt,rrhf)
 ----------------------------------------------------------------------
 -----
 title
 -----
 Symbolic Z-matrix:
 Charge =  0 Multiplicity = 1

 SCF Done:  E(RHF) =  -244.620940629     A.U. after   15 cycles
 Normal termination of Gaussian 16 at Sat Apr  5 23:06:30 2025.
 Gaussian 16:  ES64L-G16RevC.01  3-Jul-2019

 ----------------------------------------------------------------------
 #t hf aug-cc-pvdz iop(5/13=1,5/36=2,99/5=2) pseudo=read geom=check gue
 ss=(read,tcheck) scf=(maxcycle=1)
 ----------------------------------------------------------------------
 -----
 title
 -----
 Structure from the checkpoint file:  "isoxazole.chk"
 Charge =  0 Multiplicity = 1

                         Standard orientation:
 ---------------------------------------------------------------------
 Center     Atomic      Atomic             Coordinates (Angstroms)
 Number     Number       Type             X           Y           Z
 ---------------------------------------------------------------------
      1          6           0        1.121838    0.366816    0.000000
      2          6           0        0.615592   -0.959856    0.000000
      3          6           0       -0.000000    1.124633    0.000000
      4          7           0       -0.689000   -0.992693    0.000000
      5          8           0       -1.091411    0.346235    0.000000
      6          1           0        2.145312    0.693430    0.000000
      7          1           0        1.160098   -1.890521    0.000000
      8          1           0       -0.175703    2.186501    0.000000
 ---------------------------------------------------------------------

 SCF Done:  E(RHF) =  -244.865467308     A.U. after    2 cycles

 The electronic state is 1-A'.
 Alpha  occ. eigenvalues --  -20.63513 -15.56825 -11.32866 -11.29194 -11.25281
 Alpha  occ. eigenvalues --   -1.57505  -1.19126  -1.08321  -0.85491  -0.83416
 Alpha  occ. eigenvalues --   -0.76180  -0.66676  -0.64074  -0.60773  -0.57493
 Alpha  occ. eigenvalues --   -0.52629  -0.44567  -0.39225
 Alpha virt. eigenvalues --    0.03151   0.03937   0.04593   0.08107   0.10046
 Alpha virt. eigenvalues --    0.10299   0.10605   0.12165   0.12817   0.13750
 Alpha virt. eigenvalues --    0.14293   0.15010   0.15657   0.16751   0.19680

 Mulliken charges:
               1
     1  C    0.565409
     2  C   -0.733248
     3  C    0.756457
     4  N    1.125760
     5  O   -1.441556
     6  H   -0.125801
     7  H   -0.098025
     8  H   -0.048996
 Sum of Mulliken charges =  -0.00000

 Dipole moment (field-independent basis, Debye):
    X=              3.1213    Y=              1.9176    Z=              0.0000  Tot=              3.6633

 Test job not archived.
 1\1\GINC-SE196\SP\RHF\Aug-CC-pVDZ\C3H3N1O1\OHZDE\05-Apr-2025\0\\#t hf
 aug-cc-pvdz iop(5/13=1,5/36=2,99/5=2) pseudo=read geom=check guess=(re
 ad,tcheck) scf=(maxcycle=1)\\title\\0,1\C,0,1.121838,0.366816,0.\C,0,0
 .615592,-0.959856,0.\C,0,0.,1.124633,0.\N,0,-0.689,-0.992693,0.\O,0,-1
 .091411,0.346235,0.\H,0,2.145312,0.69343,0.\H,0,1.160098,-1.890521,0.\
 H,0,-0.175703,2.186501,0.\\Version=ES64L-G16RevC.01\State=1-A'\HF=-244
 .8654673\RMSD=2.409e-02\Dipole=1.2280141,0.7544487,0.\Quadrupole=-0.47
 70924,2.5820161,-2.1049236,-2.5008207,0.,0.\PG=CS [SG(C3H3N1O1)]\\@

 Normal termination of Gaussian 16 at Sat Apr  5 23:06:35 2025.
