 Gaussian 16, Revision C.01,

 ----------------------------------------------------------------------
 #t hf aug-cc-pvdz symm=none int=(grid=ultrafine) guess=(read,tcheck) s
 table=(opt,rrhf)
 ----------------------------------------------------------------------
 -----
 title
 -----
 Symbolic Z-matrix:
 Charge =  0 Multiplicity = 1

 SCF Done:  E(RHF) =  -151.748452924     A.U. after   12 cycles
 Normal termination of Gaussian 16 at Sat Apr  5 23:06:31 2025.
 Gaussian 16:  ES64L-G16RevC.01  3-Jul-2019

 ----------------------------------------------------------------------
 #t hf aug-cc-pvdz iop(5/13=1,5/36=2,99/5=2) pseudo=read geom=check gue
 ss=(read,tcheck) scf=(maxcycle=1)
 ----------------------------------------------------------------------
 -----
 title
 -----
 Structure from the checkpoint file:  "ketene.chk"
 Charge =  0 Multiplicity = 1

                         Standard orientation:
 ---------------------------------------------------------------------
 Center     Atomic      Atomic             Coordinates (Angstroms)
 Number     Number       Type             X           Y           Z
 ---------------------------------------------------------------------
      1          6           0        0.000000   -0.000000   -1.205838
      2          6           0        0.000000    0.000000    0.102176
      3          8           0        0.000000    0.000000    1.262386
      4          1           0        0.000000    0.937241   -1.738559
      5          1           0       -0.000000   -0.937241   -1.738559
 ---------------------------------------------------------------------

 SCF Done:  E(RHF) =  -151.896953196     A.U. after    2 cycles

 The electronic state is 1-A1.
 Alpha  occ. eigenvalues --  -20.61889 -11.39561 -11.25077  -1.55943  -1.06227
 Alpha  occ. eigenvalues --   -0.76673  -0.69048  -0.66407  -0.64352  -0.56321
 Alpha  occ. eigenvalues --   -0.37102
 Alpha virt. eigenvalues --    0.03485   0.04634   0.07063   0.10506   0.10816
 Alpha virt. eigenvalues --    0.12313   0.12358   0.13876   0.15352   0.17514
 Alpha virt. eigenvalues --    0.21530   0.21963   0.24662   0.28150   0.29079

 Mulliken charges:
               1
     1  C    0.177504
     2  C    0.612406
     3  O   -0.830887
     4  H    0.020489
     5  H    0.020489
 Sum of Mulliken charges =  -0.00000

 Dipole moment (field-independent basis, Debye):
    X=             -0.0000    Y=              0.0000    Z=             -1.5960  Tot=              1.5960

 Test job not archived.
 1\1\GINC-SE164\SP\RHF\Aug-CC-pVDZ\C2H2O1\OHZDE\05-Apr-2025\0\\#t hf au
 g-cc-pvdz iop(5/13=1,5/36=2,99/5=2) pseudo=read geom=check guess=(read
 ,tcheck) scf=(maxcycle=1)\\title\\0,1\C,0,0.,0.,-1.205838\C,0,0.,0.,0.
 102176\O,0,0.,0.,1.262386\H,0,0.,0.937241,-1.738559\H,0,0.,-0.937241,-
 1.738559\\Version=ES64L-G16RevC.01\State=1-A1\HF=-151.8969532\RMSD=1.5
 29e-02\Dipole=0.,0.,-0.6279155\Quadrupole=-1.2249038,1.6671927,-0.4422
 889,0.,0.,0.\PG=C02V [C2(C1C1O1),SGV(H2)]\\@

 Normal termination of Gaussian 16 at Sat Apr  5 23:06:34 2025.
