 Gaussian 16, Revision C.01,

 ----------------------------------------------------------------------
 #t hf aug-cc-pvdz symm=none int=(grid=ultrafine) guess=(read,tcheck) s
 table=(opt,rrhf)
 ----------------------------------------------------------------------
 -----
 title
 -----
 Symbolic Z-matrix:
 Charge =  0 Multiplicity = 1

 SCF Done:  E(RHF) =  -439.035099220     A.U. after   14 cycles
 Normal termination of Gaussian 16 at Sat Apr  5 23:08:06 2025.
 Gaussian 16:  ES64L-G16RevC.01  3-Jul-2019

 ----------------------------------------------------------------------
 #t hf aug-cc-pvdz iop(5/13=1,5/36=2,99/5=2) pseudo=read geom=check gue
 ss=(read,tcheck) scf=(maxcycle=1)
 ----------------------------------------------------------------------
 -----
 title
 -----
 Structure from the checkpoint file:  "leucine.chk"
 Charge =  0 Multiplicity = 1

                         Standard orientation:
 ---------------------------------------------------------------------
 Center     Atomic      Atomic             Coordinates (Angstroms)
 Number     Number       Type             X           Y           Z
 ---------------------------------------------------------------------
      1          7           0        0.889792    1.733167   -0.084168
      2          6           0        0.653062    0.324866    0.279326
      3          6           0        1.942908   -0.495104    0.057054
      4          8           0        1.987940   -1.690661    0.174653
      5          8           0        3.015494    0.245946   -0.248211
      6          1           0        2.687089    1.172239   -0.274368
      7          6           0       -0.530559   -0.332551   -0.440004
      8          6           0       -1.916908    0.221973   -0.078321
      9          6           0       -2.973038   -0.350115   -1.029174
     10          6           0       -2.296085   -0.059131    1.378824
     11          1           0        0.489109    0.281675    1.357974
     12          1           0       -0.369734   -0.225663   -1.518607
     13          1           0       -0.496406   -1.403150   -0.233024
     14          1           0       -1.902453    1.308771   -0.219438
     15          1           0       -3.962107    0.053227   -0.807413
     16          1           0       -2.741372   -0.116292   -2.069654
     17          1           0       -3.029551   -1.437289   -0.938398
     18          1           0       -3.288045    0.335699    1.602720
     19          1           0       -2.313437   -1.133743    1.574081
     20          1           0       -1.600962    0.393952    2.087128
     21          1           0        0.485395    1.959508   -0.984328
     22          1           0        0.510182    2.376995    0.594739
 ---------------------------------------------------------------------

 SCF Done:  E(RHF) =  -439.494855652     A.U. after    2 cycles

 The electronic state is 1-A.
 Alpha  occ. eigenvalues --  -20.58066 -20.52047 -15.52658 -11.37926 -11.29657
 Alpha  occ. eigenvalues --  -11.24905 -11.24415 -11.23397 -11.23223  -1.53012
 Alpha  occ. eigenvalues --   -1.44180  -1.22397  -1.10463  -1.01335  -0.94503
 Alpha  occ. eigenvalues --   -0.90894  -0.80749  -0.79056  -0.75392  -0.72101
 Alpha  occ. eigenvalues --   -0.68562  -0.65549  -0.63278  -0.62707  -0.60913
 Alpha  occ. eigenvalues --   -0.58169  -0.56564  -0.55479  -0.55058  -0.52848
 Alpha  occ. eigenvalues --   -0.49689  -0.49056  -0.48291  -0.48035  -0.45374
 Alpha  occ. eigenvalues --   -0.41818
 Alpha virt. eigenvalues --    0.02128   0.03099   0.03339   0.04214   0.05463
 Alpha virt. eigenvalues --    0.05758   0.06106   0.06287   0.07283   0.08360
 Alpha virt. eigenvalues --    0.08782   0.09322   0.09688   0.11065   0.12606

 Mulliken charges:
               1
     1  N    0.123496
     2  C   -1.655782
     3  C    2.532368
     4  O   -1.356265
     5  O   -1.352470
     6  H    0.495934
     7  C    0.161163
     8  C   -1.247773
     9  C   -0.005773
    10  C   -0.001116
    11  H    0.333138
    12  H    0.169288
    13  H    0.087008
    14  H    0.139274
    15  H    0.148065
    16  H    0.125199
    17  H    0.237287
    18  H    0.132485
    19  H    0.226873
    20  H    0.103740
    21  H    0.304239
    22  H    0.299621
 Sum of Mulliken charges =  -0.00000

 Dipole moment (field-independent basis, Debye):
    X=             -3.9644    Y=              4.2154    Z=              0.0233  Tot=              5.7868

 Test job not archived.
 1\1\GINC-SE185\SP\RHF\Aug-CC-pVDZ\C6H13N1O2\OHZDE\05-Apr-2025\0\\#t hf
  aug-cc-pvdz iop(5/13=1,5/36=2,99/5=2) pseudo=read geom=check guess=(r
 ead,tcheck) scf=(maxcycle=1)\\title\\0,1\N,0,0.889792,1.733167,-0.0841
 68\C,0,0.653062,0.324866,0.279326\C,0,1.942908,-0.495104,0.057054\O,0,
 1.98794,-1.690661,0.174653\O,0,3.015494,0.245946,-0.248211\H,0,2.68708
 9,1.172239,-0.274368\C,0,-0.530559,-0.332551,-0.440004\C,0,-1.916908,0
 .221973,-0.078321\C,0,-2.973038,-0.350115,-1.029174\C,0,-2.296085,-0.0
 59131,1.378824\H,0,0.489109,0.281675,1.357974\H,0,-0.369734,-0.225663,

 Normal termination of Gaussian 16 at Sat Apr  5 23:08:19 2025.
