 Gaussian 16, Revision C.01,

 ----------------------------------------------------------------------
 #t hf aug-cc-pvdz symm=none int=(grid=ultrafine) guess=(read,tcheck) s
 table=(opt,rrhf)
 ----------------------------------------------------------------------
 -----
 title
 -----
 Symbolic Z-matrix:
 Charge =  0 Multiplicity = 1

 SCF Done:  E(RHF) =  -494.071349021     A.U. after   14 cycles
 Normal termination of Gaussian 16 at Sat Apr  5 23:09:35 2025.
 Gaussian 16:  ES64L-G16RevC.01  3-Jul-2019

 ----------------------------------------------------------------------
 #t hf aug-cc-pvdz iop(5/13=1,5/36=2,99/5=2) pseudo=read geom=check gue
 ss=(read,tcheck) scf=(maxcycle=1)
 ----------------------------------------------------------------------
 -----
 title
 -----
 Structure from the checkpoint file:  "lysine.chk"
 Charge =  0 Multiplicity = 1

                         Standard orientation:
 ---------------------------------------------------------------------
 Center     Atomic      Atomic             Coordinates (Angstroms)
 Number     Number       Type             X           Y           Z
 ---------------------------------------------------------------------
      1          7           0        1.748606    1.711717   -0.110623
      2          6           0        1.505536    0.334496    0.352601
      3          6           0        2.743343   -0.539294    0.053037
      4          8           0        2.755177   -1.732408    0.197432
      5          8           0        3.816383    0.153863   -0.349539
      6          1           0        3.520520    1.090385   -0.381692
      7          6           0        0.229447   -0.318859   -0.188199
      8          6           0       -1.059289    0.316065    0.333331
      9          6           0       -2.318639   -0.348453   -0.223242
     10          6           0       -3.608418    0.279792    0.294578
     11          7           0       -4.779870   -0.416009   -0.243436
     12          1           0        1.447816    0.361100    1.444428
     13          1           0        0.251892   -0.273372   -1.283075
     14          1           0        0.258775   -1.376399    0.073343
     15          1           0       -1.070260    0.251414    1.426664
     16          1           0       -1.077545    1.383378    0.090243
     17          1           0       -2.306561   -0.289099   -1.317231
     18          1           0       -2.322972   -1.411934    0.025905
     19          1           0       -3.642216    0.188063    1.382961
     20          1           0       -3.599403    1.356577    0.069884
     21          1           0       -5.636961   -0.050753    0.151625
     22          1           0       -4.841888   -0.299571   -1.247876
     23          1           0        1.314168    1.882851   -1.009374
     24          1           0        1.399106    2.403285    0.536824
 ---------------------------------------------------------------------

 SCF Done:  E(RHF) =  -494.588619845     A.U. after    2 cycles

 The electronic state is 1-A.
 Alpha  occ. eigenvalues --  -20.58139 -20.52142 -15.52702 -15.48819 -11.38015
 Alpha  occ. eigenvalues --  -11.29787 -11.26229 -11.24583 -11.24333 -11.23402
 Alpha  occ. eigenvalues --   -1.53083  -1.44269  -1.22447  -1.18466  -1.08792
 Alpha  occ. eigenvalues --   -1.01732  -0.94212  -0.85758  -0.81520  -0.80569
 Alpha  occ. eigenvalues --   -0.75556  -0.71990  -0.69717  -0.68421  -0.66668
 Alpha  occ. eigenvalues --   -0.64375  -0.63336  -0.62162  -0.60094  -0.57324
 Alpha  occ. eigenvalues --   -0.55894  -0.54753  -0.51930  -0.50734  -0.49289
 Alpha  occ. eigenvalues --   -0.48771  -0.48485  -0.45535  -0.43085  -0.41880
 Alpha virt. eigenvalues --    0.02129   0.02758   0.03140   0.04249   0.05328
 Alpha virt. eigenvalues --    0.05620   0.06182   0.06487   0.06821   0.07010
 Alpha virt. eigenvalues --    0.08291   0.08956   0.09775   0.10078   0.11182

 Mulliken charges:
               1
     1  N    0.153447
     2  C   -1.619969
     3  C    2.629945
     4  O   -1.350156
     5  O   -1.354048
     6  H    0.491760
     7  C   -0.007889
     8  C   -0.222919
     9  C   -0.480476
    10  C   -0.398524
    11  N    0.321935
    12  H    0.278542
    13  H    0.137961
    14  H    0.074722
    15  H    0.086233
    16  H    0.072968
    17  H    0.118123
    18  H    0.162986
    19  H    0.043172
    20  H    0.069956
    21  H    0.112275
    22  H    0.099915
    23  H    0.273031
    24  H    0.307009
 Sum of Mulliken charges =   0.00000

 Dipole moment (field-independent basis, Debye):
    X=             -3.8541    Y=              5.5319    Z=             -0.1211  Tot=              6.7432

 Test job not archived.
 1\1\GINC-SE190\SP\RHF\Aug-CC-pVDZ\C6H14N2O2\OHZDE\05-Apr-2025\0\\#t hf
  aug-cc-pvdz iop(5/13=1,5/36=2,99/5=2) pseudo=read geom=check guess=(r
 ead,tcheck) scf=(maxcycle=1)\\title\\0,1\N,0,1.748606,1.711717,-0.1106
 23\C,0,1.505536,0.334496,0.352601\C,0,2.743343,-0.539294,0.053037\O,0,
 2.755177,-1.732408,0.197432\O,0,3.816383,0.153863,-0.349539\H,0,3.5205
 2,1.090385,-0.381692\C,0,0.229447,-0.318859,-0.188199\C,0,-1.059289,0.
 316065,0.333331\C,0,-2.318639,-0.348453,-0.223242\C,0,-3.608418,0.2797
 92,0.294578\N,0,-4.77987,-0.416009,-0.243436\H,0,1.447816,0.3611,1.444

 Normal termination of Gaussian 16 at Sat Apr  5 23:10:33 2025.
