 Gaussian 16, Revision C.01,

 ----------------------------------------------------------------------
 #t hf aug-cc-pvdz symm=none int=(grid=ultrafine) guess=(read,tcheck) s
 table=(opt,rrhf)
 ----------------------------------------------------------------------
 -----
 title
 -----
 Symbolic Z-matrix:
 Charge =  0 Multiplicity = 1

 SCF Done:  E(RHF) =  -344.642938276     A.U. after   15 cycles
 Normal termination of Gaussian 16 at Sat Apr  5 23:08:44 2025.
 Gaussian 16:  ES64L-G16RevC.01  3-Jul-2019

 ----------------------------------------------------------------------
 #t hf aug-cc-pvdz iop(5/13=1,5/36=2,99/5=2) pseudo=read geom=check gue
 ss=(read,tcheck) scf=(maxcycle=1)
 ----------------------------------------------------------------------
 -----
 title
 -----
 Structure from the checkpoint file:  "m-cresol.chk"
 Charge =  0 Multiplicity = 1

                         Standard orientation:
 ---------------------------------------------------------------------
 Center     Atomic      Atomic             Coordinates (Angstroms)
 Number     Number       Type             X           Y           Z
 ---------------------------------------------------------------------
      1          6           0        0.151273    1.784647    0.002216
      2          6           0       -1.096568    1.176867   -0.008450
      3          6           0        1.312680    1.021029    0.007796
      4          6           0       -0.038671   -0.979205   -0.009708
      5          6           0       -1.203017   -0.216446   -0.011775
      6          6           0        1.211066   -0.366488    0.000942
      7          6           0       -2.552960   -0.884863    0.009391
      8          8           0        2.309364   -1.184166    0.000798
      9          1           0        0.225667    2.863983    0.002825
     10          1           0       -1.992065    1.784194   -0.016938
     11          1           0        2.285648    1.497705    0.012651
     12          1           0       -0.084931   -2.060188   -0.018605
     13          1           0       -2.509721   -1.885386   -0.419767
     14          1           0       -2.922457   -0.982907    1.033294
     15          1           0       -3.290088   -0.306426   -0.547493
     16          1           0        3.110211   -0.650896    0.005175
 ---------------------------------------------------------------------

 SCF Done:  E(RHF) =  -345.000094287     A.U. after    2 cycles

 The electronic state is 1-A.
 Alpha  occ. eigenvalues --  -20.57861 -11.30723 -11.25173 -11.24714 -11.23522
 Alpha  occ. eigenvalues --  -11.23392 -11.22836 -11.22745  -1.49093  -1.15509
 Alpha  occ. eigenvalues --   -1.04827  -1.01037  -0.94206  -0.83556  -0.82973
 Alpha  occ. eigenvalues --   -0.72142  -0.69332  -0.66537  -0.62055  -0.59337
 Alpha  occ. eigenvalues --   -0.58549  -0.57698  -0.57361  -0.54174  -0.51845
 Alpha  occ. eigenvalues --   -0.49804  -0.47703  -0.34271  -0.31961
 Alpha virt. eigenvalues --    0.03161   0.03738   0.03929   0.05095   0.05313
 Alpha virt. eigenvalues --    0.05396   0.07822   0.08777   0.10279   0.10700
 Alpha virt. eigenvalues --    0.11500   0.12792   0.13245   0.13748   0.14058

 Mulliken charges:
               1
     1  C    0.047337
     2  C    0.436789
     3  C   -0.259200
     4  C    0.445060
     5  C    0.602233
     6  C    1.521953
     7  C   -0.842698
     8  O   -1.767667
     9  H   -0.230556
    10  H   -0.290841
    11  H   -0.312465
    12  H   -0.260232
    13  H    0.107310
    14  H    0.273484
    15  H    0.134413
    16  H    0.395081
 Sum of Mulliken charges =   0.00000

 Dipole moment (field-independent basis, Debye):
    X=              0.2141    Y=              1.0155    Z=              0.0380  Tot=              1.0386

 Test job not archived.
 1\1\GINC-SE129\SP\RHF\Aug-CC-pVDZ\C7H8O1\OHZDE\05-Apr-2025\0\\#t hf au
 g-cc-pvdz iop(5/13=1,5/36=2,99/5=2) pseudo=read geom=check guess=(read
 ,tcheck) scf=(maxcycle=1)\\title\\0,1\C,0,0.151273,1.784647,0.002216\C
 ,0,-1.096568,1.176867,-0.00845\C,0,1.31268,1.021029,0.007796\C,0,-0.03
 8671,-0.979205,-0.009708\C,0,-1.203017,-0.216446,-0.011775\C,0,1.21106
 6,-0.366488,0.000942\C,0,-2.55296,-0.884863,0.009391\O,0,2.309364,-1.1
 84166,0.000798\H,0,0.225667,2.863983,0.002825\H,0,-1.992065,1.784194,-
 0.016938\H,0,2.285648,1.497705,0.012651\H,0,-0.084931,-2.060188,-0.018

 Normal termination of Gaussian 16 at Sat Apr  5 23:08:51 2025.
