 Gaussian 16, Revision C.01,

 ----------------------------------------------------------------------
 #t hf aug-cc-pvdz symm=none int=(grid=ultrafine) guess=(read,tcheck) s
 table=(opt,rrhf)
 ----------------------------------------------------------------------
 -----
 title
 -----
 Symbolic Z-matrix:
 Charge =  0 Multiplicity = 1

 SCF Done:  E(RHF) =  -1148.57143410     A.U. after   14 cycles

 1\1\GINC-SE164\Stability\RHF\Aug-CC-pVDZ\C6H4Cl2\OHZDE\05-Apr-2025\0\\
 #t hf aug-cc-pvdz symm=none int=(grid=ultrafine) guess=(read,tcheck) s
 table=(opt,rrhf)\\title\\0,1\C,0,0.,0.,2.071388\C,0,0.,1.208808,1.3869
 57\C,0,0.,-1.208808,1.386957\C,0,0.,0.,-0.713068\C,0,0.,1.19142,-0.000
 84\C,0,0.,-1.19142,-0.00084\Cl,0,0.,2.703797,-0.881717\Cl,0,0.,-2.7037
 97,-0.881717\H,0,0.,0.,3.152761\H,0,0.,2.149253,1.916981\H,0,0.,-2.149
 253,1.916981\H,0,0.,0.,-1.791679\\Version=ES64L-G16RevC.01\HF=-1148.57
 14341\RMSD=9.632e-09\Dipole=0.,0.,0.7559127\Quadrupole=-2.667563,-2.32

 Normal termination of Gaussian 16 at Sat Apr  5 23:08:21 2025.
 Gaussian 16:  ES64L-G16RevC.01  3-Jul-2019

 ----------------------------------------------------------------------
 #t hf aug-cc-pvdz iop(5/13=1,5/36=2,99/5=2) pseudo=read geom=check gue
 ss=(read,tcheck) scf=(maxcycle=1)
 ----------------------------------------------------------------------
 -----
 title
 -----
 Structure from the checkpoint file:  "m-dichlorobenzene.chk"
 Charge =  0 Multiplicity = 1

                         Standard orientation:
 ---------------------------------------------------------------------
 Center     Atomic      Atomic             Coordinates (Angstroms)
 Number     Number       Type             X           Y           Z
 ---------------------------------------------------------------------
      1          6           0        0.000000   -0.000000    2.071388
      2          6           0        0.000000    1.208808    1.386957
      3          6           0       -0.000000   -1.208808    1.386957
      4          6           0       -0.000000    0.000000   -0.713068
      5          6           0        0.000000    1.191420   -0.000840
      6          6           0       -0.000000   -1.191420   -0.000840
      7         17           0        0.000000    2.703797   -0.881717
      8         17           0       -0.000000   -2.703797   -0.881717
      9          1           0        0.000000   -0.000000    3.152761
     10          1           0        0.000000    2.149253    1.916981
     11          1           0       -0.000000   -2.149253    1.916981
     12          1           0       -0.000000    0.000000   -1.791679
 ---------------------------------------------------------------------

 SCF Done:  E(RHF) =  -1148.95678961     A.U. after    2 cycles

 The electronic state is 1-A1.
 Alpha  occ. eigenvalues -- -105.58262-105.58262 -11.32682 -11.32677 -11.27382
 Alpha  occ. eigenvalues --  -11.27291 -11.26911 -11.26907 -10.63067 -10.63067
 Alpha  occ. eigenvalues --   -7.80035  -7.80034  -7.79631  -7.79630  -7.79614
 Alpha  occ. eigenvalues --   -7.79614  -1.21260  -1.13584  -1.09172  -1.02236
 Alpha  occ. eigenvalues --   -0.99690  -0.86658  -0.83393  -0.73332  -0.69598
 Alpha  occ. eigenvalues --   -0.65953  -0.62434  -0.61613  -0.58174  -0.54967
 Alpha  occ. eigenvalues --   -0.54320  -0.52296  -0.48054  -0.47280  -0.47157
 Alpha  occ. eigenvalues --   -0.36998  -0.35703
 Alpha virt. eigenvalues --    0.03096   0.04077   0.04530   0.05711   0.07816
 Alpha virt. eigenvalues --    0.07939   0.08124   0.09579   0.10302   0.10913
 Alpha virt. eigenvalues --    0.12862   0.13106   0.13248   0.13564   0.14745

 Mulliken charges:
               1
     1  C    0.634984
     2  C   -0.056315
     3  C   -0.056315
     4  C    0.413304
     5  C    0.176662
     6  C    0.176662
     7  Cl  -0.327622
     8  Cl  -0.327622
     9  H   -0.204690
    10  H   -0.166365
    11  H   -0.166365
    12  H   -0.096319
 Sum of Mulliken charges =  -0.00000

 Dipole moment (field-independent basis, Debye):
    X=              0.0000    Y=             -0.0000    Z=              1.9221  Tot=              1.9221

 Test job not archived.
 1\1\GINC-SE164\SP\RHF\Aug-CC-pVDZ\C6H4Cl2\OHZDE\05-Apr-2025\0\\#t hf a
 ug-cc-pvdz iop(5/13=1,5/36=2,99/5=2) pseudo=read geom=check guess=(rea
 d,tcheck) scf=(maxcycle=1)\\title\\0,1\C,0,0.,0.,2.071388\C,0,0.,1.208
 808,1.386957\C,0,0.,-1.208808,1.386957\C,0,0.,0.,-0.713068\C,0,0.,1.19
 142,-0.00084\C,0,0.,-1.19142,-0.00084\Cl,0,0.,2.703797,-0.881717\Cl,0,
 0.,-2.703797,-0.881717\H,0,0.,0.,3.152761\H,0,0.,2.149253,1.916981\H,0
 ,0.,-2.149253,1.916981\H,0,0.,0.,-1.791679\\Version=ES64L-G16RevC.01\S
 tate=1-A1\HF=-1148.9567896\RMSD=3.371e-02\Dipole=0.,0.,0.7562188\Quadr

 Normal termination of Gaussian 16 at Sat Apr  5 23:08:27 2025.
