 Gaussian 16, Revision C.01,

 ----------------------------------------------------------------------
 #t hf aug-cc-pvdz symm=none int=(grid=ultrafine) guess=(read,tcheck) s
 table=(opt,rrhf)
 ----------------------------------------------------------------------
 -----
 title
 -----
 Symbolic Z-matrix:
 Charge =  0 Multiplicity = 1

 SCF Done:  E(RHF) =  -509.104880007     A.U. after   16 cycles
 Normal termination of Gaussian 16 at Sat Apr  5 23:09:04 2025.
 Gaussian 16:  ES64L-G16RevC.01  3-Jul-2019

 ----------------------------------------------------------------------
 #t hf aug-cc-pvdz iop(5/13=1,5/36=2,99/5=2) pseudo=read geom=check gue
 ss=(read,tcheck) scf=(maxcycle=1)
 ----------------------------------------------------------------------
 -----
 title
 -----
 Structure from the checkpoint file:  "m-nitrophenol.chk"
 Charge =  0 Multiplicity = 1

                         Standard orientation:
 ---------------------------------------------------------------------
 Center     Atomic      Atomic             Coordinates (Angstroms)
 Number     Number       Type             X           Y           Z
 ---------------------------------------------------------------------
      1          6           0        2.017694   -0.664820   -0.000000
      2          6           0        1.387653    0.571113   -0.000000
      3          6           0        1.276765   -1.840590   -0.000000
      4          6           0       -0.768595   -0.561020    0.000000
      5          6           0       -0.000000    0.590564    0.000000
      6          6           0       -0.116518   -1.789441   -0.000000
      7          7           0       -0.695089    1.896684    0.000000
      8          8           0       -0.004531    2.904797    0.000000
      9          8           0       -1.916677    1.890567    0.000000
     10          8           0       -0.896580   -2.906357   -0.000000
     11          1           0        3.097332   -0.716013   -0.000000
     12          1           0        1.940706    1.495858   -0.000000
     13          1           0        1.780941   -2.799344   -0.000000
     14          1           0       -1.845347   -0.507183    0.000000
     15          1           0       -0.347695   -3.696993   -0.000000
 ---------------------------------------------------------------------

 SCF Done:  E(RHF) =  -509.606114871     A.U. after    2 cycles

 The electronic state is 1-A'.
 Alpha  occ. eigenvalues --  -20.60482 -20.59113 -20.59095 -15.79377 -11.34080
 Alpha  occ. eigenvalues --  -11.32210 -11.27983 -11.27835 -11.27556 -11.27392
 Alpha  occ. eigenvalues --   -1.67287  -1.52013  -1.50879  -1.20695  -1.11111
 Alpha  occ. eigenvalues --   -1.05355  -0.98971  -0.87637  -0.86623  -0.81549
 Alpha  occ. eigenvalues --   -0.75343  -0.74772  -0.72805  -0.72510  -0.69049
 Alpha  occ. eigenvalues --   -0.64896  -0.61709  -0.60667  -0.58083  -0.54896
 Alpha  occ. eigenvalues --   -0.52439  -0.50021  -0.48812  -0.45171  -0.39250
 Alpha  occ. eigenvalues --   -0.35498
 Alpha virt. eigenvalues --    0.02059   0.02130   0.03118   0.04327   0.05901
 Alpha virt. eigenvalues --    0.06439   0.08855   0.09967   0.10314   0.11282
 Alpha virt. eigenvalues --    0.11868   0.12460   0.12892   0.13194   0.13400

 Mulliken charges:
               1
     1  C    0.551383
     2  C    0.001595
     3  C   -0.451232
     4  C   -0.071556
     5  C   -0.026550
     6  C    2.239774
     7  N    3.059862
     8  O   -1.516912
     9  O   -1.481567
    10  O   -1.834981
    11  H   -0.214643
    12  H   -0.198406
    13  H   -0.316871
    14  H   -0.176704
    15  H    0.436808
 Sum of Mulliken charges =   0.00000

 Dipole moment (field-independent basis, Debye):
    X=              3.4178    Y=             -4.9509    Z=             -0.0000  Tot=              6.0160

 Test job not archived.
 1\1\GINC-SE011\SP\RHF\Aug-CC-pVDZ\C6H5N1O3\OHZDE\05-Apr-2025\0\\#t hf
 aug-cc-pvdz iop(5/13=1,5/36=2,99/5=2) pseudo=read geom=check guess=(re
 ad,tcheck) scf=(maxcycle=1)\\title\\0,1\C,0,2.017694,-0.66482,0.\C,0,1
 .387653,0.571113,0.\C,0,1.276764,-1.84059,0.\C,0,-0.768595,-0.56102,0.
 \C,0,0.,0.590564,0.\C,0,-0.116519,-1.789441,0.\N,0,-0.695089,1.896684,
 0.\O,0,-0.00453,2.904797,0.\O,0,-1.916677,1.890568,0.\O,0,-0.896581,-2
 .906357,0.\H,0,3.097332,-0.716014,0.\H,0,1.940706,1.495858,0.\H,0,1.78
 094,-2.799344,0.\H,0,-1.845347,-0.507182,0.\H,0,-0.347696,-3.696993,0.

 Normal termination of Gaussian 16 at Sat Apr  5 23:09:15 2025.
