 Gaussian 16, Revision C.01,

 ----------------------------------------------------------------------
 #t hf aug-cc-pvdz symm=none int=(grid=ultrafine) guess=(read,tcheck) s
 table=(opt,rrhf)
 ----------------------------------------------------------------------
 -----
 title
 -----
 Symbolic Z-matrix:
 Charge =  0 Multiplicity = 1

 SCF Done:  E(RHF) =  -308.809451072     A.U. after   15 cycles
 Normal termination of Gaussian 16 at Sat Apr  5 23:09:15 2025.
 Gaussian 16:  ES64L-G16RevC.01  3-Jul-2019

 ----------------------------------------------------------------------
 #t hf aug-cc-pvdz iop(5/13=1,5/36=2,99/5=2) pseudo=read geom=check gue
 ss=(read,tcheck) scf=(maxcycle=1)
 ----------------------------------------------------------------------
 -----
 title
 -----
 Structure from the checkpoint file:  "m-xylene.chk"
 Charge =  0 Multiplicity = 1

                         Standard orientation:
 ---------------------------------------------------------------------
 Center     Atomic      Atomic             Coordinates (Angstroms)
 Number     Number       Type             X           Y           Z
 ---------------------------------------------------------------------
      1          6           0       -0.006539    1.816315    0.000770
      2          6           0       -1.206885    1.122732    0.003227
      3          6           0        1.203615    1.128282   -0.003363
      4          6           0        0.003201   -0.944349   -0.003037
      5          6           0       -1.217101   -0.275020    0.000767
      6          6           0        1.224038   -0.263414   -0.004087
      7          6           0       -2.520205   -1.031510   -0.000034
      8          6           0        2.523101   -1.026861    0.003313
      9          1           0       -0.009355    2.898503    0.000809
     10          1           0       -2.143779    1.666030    0.005352
     11          1           0        2.135935    1.678679   -0.006919
     12          1           0        0.006865   -2.028704   -0.006327
     13          1           0       -2.355320   -2.108183    0.003671
     14          1           0       -3.122522   -0.782103    0.875925
     15          1           0       -3.118135   -0.787666   -0.880617
     16          1           0        2.555129   -1.763345   -0.801592
     17          1           0        3.375896   -0.360048   -0.117283
     18          1           0        2.655935   -1.570209    0.941651
 ---------------------------------------------------------------------

 SCF Done:  E(RHF) =  -309.138085146     A.U. after    2 cycles

 The electronic state is 1-A.
 Alpha  occ. eigenvalues --  -11.24355 -11.24313 -11.23685 -11.23142 -11.23129
 Alpha  occ. eigenvalues --  -11.22838 -11.22829 -11.22756  -1.15615  -1.05621
 Alpha  occ. eigenvalues --   -1.02821  -0.94232  -0.92824  -0.82181  -0.78977
 Alpha  occ. eigenvalues --   -0.69329  -0.65820  -0.62533  -0.58621  -0.58088
 Alpha  occ. eigenvalues --   -0.57363  -0.57249  -0.55832  -0.53386  -0.49190
 Alpha  occ. eigenvalues --   -0.48969  -0.48389  -0.33566  -0.32646
 Alpha virt. eigenvalues --    0.03558   0.03586   0.03765   0.04923   0.05028
 Alpha virt. eigenvalues --    0.05047   0.06094   0.07510   0.07875   0.10000
 Alpha virt. eigenvalues --    0.10395   0.10864   0.11543   0.12889   0.13372

 Mulliken charges:
               1
     1  C   -0.145806
     2  C    0.287586
     3  C    0.214430
     4  C    0.382945
     5  C    0.359101
     6  C    0.511436
     7  C   -0.718069
     8  C   -0.840391
     9  H   -0.239748
    10  H   -0.301467
    11  H   -0.285272
    12  H   -0.289514
    13  H    0.036749
    14  H    0.257661
    15  H    0.261549
    16  H    0.210329
    17  H    0.043182
    18  H    0.255301
 Sum of Mulliken charges =  -0.00000

 Dipole moment (field-independent basis, Debye):
    X=             -0.0349    Y=             -0.3741    Z=              0.0099  Tot=              0.3759

 Test job not archived.
 1\1\GINC-SE012\SP\RHF\Aug-CC-pVDZ\C8H10\OHZDE\05-Apr-2025\0\\#t hf aug
 -cc-pvdz iop(5/13=1,5/36=2,99/5=2) pseudo=read geom=check guess=(read,
 tcheck) scf=(maxcycle=1)\\title\\0,1\C,0,-0.006539,1.816315,0.00077\C,
 0,-1.206885,1.122732,0.003227\C,0,1.203615,1.128282,-0.003363\C,0,0.00
 3201,-0.944349,-0.003037\C,0,-1.217101,-0.27502,0.000767\C,0,1.224038,
 -0.263414,-0.004087\C,0,-2.520205,-1.03151,-0.000034\C,0,2.523101,-1.0
 26861,0.003313\H,0,-0.009355,2.898503,0.000809\H,0,-2.143779,1.66603,0
 .005352\H,0,2.135935,1.678679,-0.006919\H,0,0.006865,-2.028704,-0.0063

 Normal termination of Gaussian 16 at Sat Apr  5 23:10:26 2025.
