 Gaussian 16, Revision C.01,

 ----------------------------------------------------------------------
 #t hf aug-cc-pvdz symm=none int=(grid=ultrafine) guess=(read,tcheck) s
 table=(opt,rrhf)
 ----------------------------------------------------------------------
 -----
 title
 -----
 Symbolic Z-matrix:
 Charge =  0 Multiplicity = 1

 SCF Done:  E(RHF) =  -377.281578226     A.U. after   13 cycles
 Normal termination of Gaussian 16 at Sat Apr  5 23:08:08 2025.
 Gaussian 16:  ES64L-G16RevC.01  3-Jul-2019

 ----------------------------------------------------------------------
 #t hf aug-cc-pvdz iop(5/13=1,5/36=2,99/5=2) pseudo=read geom=check gue
 ss=(read,tcheck) scf=(maxcycle=1)
 ----------------------------------------------------------------------
 -----
 title
 -----
 Structure from the checkpoint file:  "maleic_anydride.chk"
 Charge =  0 Multiplicity = 1

                         Standard orientation:
 ---------------------------------------------------------------------
 Center     Atomic      Atomic             Coordinates (Angstroms)
 Number     Number       Type             X           Y           Z
 ---------------------------------------------------------------------
      1          8           0        0.000000    2.236047    0.597444
      2          6           0        0.000000    1.129930    0.158173
      3          8           0        0.000000   -0.000000    0.969792
      4          6           0       -0.000000   -1.129930    0.158173
      5          8           0       -0.000000   -2.236047    0.597444
      6          6           0        0.000000   -0.664242   -1.254113
      7          6           0        0.000000    0.664242   -1.254113
      8          1           0        0.000000   -1.352815   -2.083086
      9          1           0        0.000000    1.352815   -2.083086
 ---------------------------------------------------------------------

 SCF Done:  E(RHF) =  -377.645934552     A.U. after    2 cycles

 The electronic state is 1-A1.
 Alpha  occ. eigenvalues --  -20.63604 -20.58163 -20.58161 -11.43363 -11.43291
 Alpha  occ. eigenvalues --  -11.32144 -11.32022  -1.60077  -1.53137  -1.49049
 Alpha  occ. eigenvalues --   -1.16612  -0.96947  -0.87098  -0.84427  -0.74816
 Alpha  occ. eigenvalues --   -0.70163  -0.69825  -0.68129  -0.64947  -0.61915
 Alpha  occ. eigenvalues --   -0.58291  -0.50345  -0.50250  -0.47004  -0.45530
 Alpha virt. eigenvalues --    0.01503   0.02246   0.03713   0.07462   0.08715
 Alpha virt. eigenvalues --    0.09472   0.10598   0.11000   0.11037   0.12102
 Alpha virt. eigenvalues --    0.13403   0.13632   0.14551   0.14749   0.15706

 Mulliken charges:
               1
     1  O   -1.171858
     2  C    1.512481
     3  O   -1.226563
     4  C    1.512481
     5  O   -1.171858
     6  C    0.357740
     7  C    0.357740
     8  H   -0.085083
     9  H   -0.085083
 Sum of Mulliken charges =  -0.00000

 Dipole moment (field-independent basis, Debye):
    X=              0.0000    Y=              0.0000    Z=             -4.5704  Tot=              4.5704

 Test job not archived.
 1\1\GINC-SE053\SP\RHF\Aug-CC-pVDZ\C4H2O3\OHZDE\05-Apr-2025\0\\#t hf au
 g-cc-pvdz iop(5/13=1,5/36=2,99/5=2) pseudo=read geom=check guess=(read
 ,tcheck) scf=(maxcycle=1)\\title\\0,1\O,0,0.,2.236047,0.597444\C,0,0.,
 1.12993,0.158173\O,0,0.,0.,0.969792\C,0,0.,-1.12993,0.158173\O,0,0.,-2
 .236047,0.597444\C,0,0.,-0.664242,-1.254113\C,0,0.,0.664242,-1.254113\
 H,0,0.,-1.352815,-2.083086\H,0,0.,1.352815,-2.083086\\Version=ES64L-G1
 6RevC.01\State=1-A1\HF=-377.6459346\RMSD=2.262e-02\Dipole=0.,0.,-1.798
 1364\Quadrupole=2.2775697,-6.043531,3.7659612,0.,0.,0.\PG=C02V [C2(O1)

 Normal termination of Gaussian 16 at Sat Apr  5 23:08:10 2025.
