 Gaussian 16, Revision C.01,

 ----------------------------------------------------------------------
 #t hf aug-cc-pvdz symm=none int=(grid=ultrafine) guess=(read,tcheck) s
 table=(opt,rrhf)
 ----------------------------------------------------------------------
 -----
 title
 -----
 Symbolic Z-matrix:
 Charge =  0 Multiplicity = 1

 SCF Done:  E(RHF) =  -1060.71520124     A.U. after   15 cycles
 Normal termination of Gaussian 16 at Sat Apr  5 23:08:14 2025.
 Gaussian 16:  ES64L-G16RevC.01  3-Jul-2019

 ----------------------------------------------------------------------
 #t hf aug-cc-pvdz iop(5/13=1,5/36=2,99/5=2) pseudo=read geom=check gue
 ss=(read,tcheck) scf=(maxcycle=1)
 ----------------------------------------------------------------------
 -----
 title
 -----
 Structure from the checkpoint file:  "mercapto_Z-3-mercaptoacrylate.chk"
 Charge =  0 Multiplicity = 1

                         Standard orientation:
 ---------------------------------------------------------------------
 Center     Atomic      Atomic             Coordinates (Angstroms)
 Number     Number       Type             X           Y           Z
 ---------------------------------------------------------------------
      1         16           0       -2.265968   -0.918361   -0.000001
      2         16           0        2.145504   -0.995460    0.000002
      3          8           0       -0.634755   -0.362504    0.000000
      4          8           0       -1.517867    1.704175   -0.000002
      5          6           0       -0.541512    0.991131   -0.000001
      6          6           0        0.843271    1.467699    0.000000
      7          6           0        1.974268    0.747540    0.000000
      8          1           0       -1.833773   -2.193713    0.000000
      9          1           0        3.490805   -0.983923    0.000003
     10          1           0        0.921463    2.545287   -0.000001
     11          1           0        2.913753    1.281908    0.000000
 ---------------------------------------------------------------------

 SCF Done:  E(RHF) =  -1061.09076133     A.U. after    2 cycles

 The electronic state is 1-A.
 Alpha  occ. eigenvalues --  -94.02303 -93.98888 -20.61870 -20.54336 -11.40399
 Alpha  occ. eigenvalues --  -11.32130 -11.26640  -8.29677  -8.26969  -6.27521
 Alpha  occ. eigenvalues --   -6.27308  -6.27002  -6.24797  -6.24658  -6.24429
 Alpha  occ. eigenvalues --   -1.55503  -1.45748  -1.13996  -1.04654  -1.00262
 Alpha  occ. eigenvalues --   -0.87078  -0.77180  -0.71581  -0.69187  -0.65907
 Alpha  occ. eigenvalues --   -0.65658  -0.60589  -0.57590  -0.51647  -0.51072
 Alpha  occ. eigenvalues --   -0.48924  -0.48089  -0.45837  -0.38310  -0.35808
 Alpha virt. eigenvalues --    0.02633   0.03913   0.04388   0.05902   0.06716
 Alpha virt. eigenvalues --    0.07199   0.09198   0.10074   0.11145   0.12578
 Alpha virt. eigenvalues --    0.12968   0.13331   0.13372   0.13702   0.15345

 Mulliken charges:
               1
     1  S    0.327573
     2  S    0.066592
     3  O   -1.148447
     4  O   -1.172710
     5  C    1.398389
     6  C    0.867501
     7  C   -0.372882
     8  H    0.305936
     9  H    0.330797
    10  H   -0.269195
    11  H   -0.333554
 Sum of Mulliken charges =  -0.00000

 Dipole moment (field-independent basis, Debye):
    X=              3.8065    Y=             -1.5973    Z=              0.0000  Tot=              4.1280

 Test job not archived.
 1\1\GINC-SE052\SP\RHF\Aug-CC-pVDZ\C3H4O2S2\OHZDE\05-Apr-2025\0\\#t hf
 aug-cc-pvdz iop(5/13=1,5/36=2,99/5=2) pseudo=read geom=check guess=(re
 ad,tcheck) scf=(maxcycle=1)\\title\\0,1\S,0,-2.265968,-0.918361,-0.000
 001\S,0,2.145504,-0.99546,0.000002\O,0,-0.634755,-0.362504,0.\O,0,-1.5
 17867,1.704175,-0.000002\C,0,-0.541512,0.991131,-0.000001\C,0,0.843271
 ,1.467699,0.\C,0,1.974268,0.74754,0.\H,0,-1.833773,-2.193713,0.\H,0,3.
 490805,-0.983923,0.000003\H,0,0.921463,2.545287,-0.000001\H,0,2.913753
 ,1.281908,0.\\Version=ES64L-G16RevC.01\State=1-A\HF=-1061.0907613\RMSD

 Normal termination of Gaussian 16 at Sat Apr  5 23:08:20 2025.
