 Gaussian 16, Revision C.01,

 ----------------------------------------------------------------------
 #t hf aug-cc-pvdz symm=none int=(grid=ultrafine) guess=(read,tcheck) s
 table=(opt,rrhf)
 ----------------------------------------------------------------------
 -----
 title
 -----
 Symbolic Z-matrix:
 Charge =  0 Multiplicity = 1

 SCF Done:  E(RHF) =  -347.850125408     A.U. after   14 cycles
 Normal termination of Gaussian 16 at Sat Apr  5 23:09:44 2025.
 Gaussian 16:  ES64L-G16RevC.01  3-Jul-2019

 ----------------------------------------------------------------------
 #t hf aug-cc-pvdz iop(5/13=1,5/36=2,99/5=2) pseudo=read geom=check gue
 ss=(read,tcheck) scf=(maxcycle=1)
 ----------------------------------------------------------------------
 -----
 title
 -----
 Structure from the checkpoint file:  "mesitylene.chk"
 Charge =  0 Multiplicity = 1

                         Standard orientation:
 ---------------------------------------------------------------------
 Center     Atomic      Atomic             Coordinates (Angstroms)
 Number     Number       Type             X           Y           Z
 ---------------------------------------------------------------------
      1          6           0       -0.816117    1.116614   -0.000003
      2          6           0       -0.558958   -1.265085   -0.000003
      3          6           0        1.375075    0.148470   -0.000003
      4          6           0       -1.396484   -0.145289   -0.000002
      5          6           0        0.572419    1.282036   -0.000002
      6          6           0        0.824066   -1.136747   -0.000002
      7          6           0       -2.894085   -0.315438    0.000003
      8          6           0        1.173865    2.664070    0.000003
      9          6           0        1.720220   -2.348632    0.000003
     10          1           0       -1.453667    1.993557   -0.000006
     11          1           0       -0.999638   -2.255692   -0.000006
     12          1           0        2.453305    0.262133   -0.000006
     13          1           0       -3.229193   -0.871675   -0.878113
     14          1           0       -3.229201   -0.871541    0.878201
     15          1           0       -3.403651    0.647324   -0.000072
     16          1           0        2.262425    2.623985   -0.000072
     17          1           0        0.859703    3.232400   -0.878113
     18          1           0        0.859824    3.232340    0.878201
     19          1           0        2.369376   -2.360799    0.878201
     20          1           0        1.141226   -3.271311   -0.000072
     21          1           0        2.369488   -2.360725   -0.878113
 ---------------------------------------------------------------------

 SCF Done:  E(RHF) =  -348.221736291     A.U. after    2 cycles

 The electronic state is 1-A.
 Alpha  occ. eigenvalues --  -11.24130 -11.24118 -11.24118 -11.22966 -11.22966
 Alpha  occ. eigenvalues --  -11.22964 -11.22175 -11.22175 -11.22154  -1.15689
 Alpha  occ. eigenvalues --   -1.05338  -1.05338  -0.95277  -0.92618  -0.92618
 Alpha  occ. eigenvalues --   -0.79055  -0.79055  -0.68317  -0.66596  -0.60490
 Alpha  occ. eigenvalues --   -0.58896  -0.57153  -0.57153  -0.56907  -0.56907
 Alpha  occ. eigenvalues --   -0.55604  -0.55604  -0.52042  -0.48516  -0.48516
 Alpha  occ. eigenvalues --   -0.47134  -0.32453  -0.32453
 Alpha virt. eigenvalues --    0.03481   0.03481   0.03755   0.04746   0.04849
 Alpha virt. eigenvalues --    0.04849   0.06154   0.06154   0.07085   0.07538
 Alpha virt. eigenvalues --    0.09736   0.10254   0.10254   0.11542   0.11542

 Mulliken charges:
               1
     1  C    0.372182
     2  C    0.372182
     3  C    0.372174
     4  C    0.146825
     5  C    0.146818
     6  C    0.146822
     7  C   -0.759616
     8  C   -0.759617
     9  C   -0.759619
    10  H   -0.313279
    11  H   -0.313278
    12  H   -0.313280
    13  H    0.262042
    14  H    0.262070
    15  H    0.029782
    16  H    0.029783
    17  H    0.262043
    18  H    0.262070
    19  H    0.262070
    20  H    0.029784
    21  H    0.262042
 Sum of Mulliken charges =  -0.00000

 Dipole moment (field-independent basis, Debye):
    X=              0.0000    Y=              0.0000    Z=              0.0000  Tot=              0.0000

 Test job not archived.
 1\1\GINC-SE084\SP\RHF\Aug-CC-pVDZ\C9H12\OHZDE\05-Apr-2025\0\\#t hf aug
 -cc-pvdz iop(5/13=1,5/36=2,99/5=2) pseudo=read geom=check guess=(read,
 tcheck) scf=(maxcycle=1)\\title\\0,1\C,0,1.195072,0.696188,-0.000003\C
 ,0,-1.200452,0.686869,-0.000003\C,0,0.00538,-1.383057,-0.000003\C,0,0.
 ,1.404022,-0.000002\C,0,1.215919,-0.702011,-0.000002\C,0,-1.215919,-0.
 702011,-0.000002\C,0,-0.014264,2.91119,0.000003\C,0,2.528296,-1.443242
 ,0.000003\C,0,-2.514032,-1.467948,0.000003\H,0,2.133281,1.239569,-0.00
 0006\H,0,-2.140139,1.227691,-0.000006\H,0,0.006857,-2.46726,-0.000006\

 Normal termination of Gaussian 16 at Sat Apr  5 23:10:29 2025.
