 Gaussian 16, Revision C.01,

 ----------------------------------------------------------------------
 #t hf aug-cc-pvdz symm=none int=(grid=ultrafine) guess=(read,tcheck) s
 table=(opt,rrhf)
 ----------------------------------------------------------------------
 -----
 title
 -----
 Symbolic Z-matrix:
 Charge =  0 Multiplicity = 1

 SCF Done:  E(RHF) =  -265.474062574     A.U. after   15 cycles
 Normal termination of Gaussian 16 at Sat Apr  5 23:08:48 2025.
 Gaussian 16:  ES64L-G16RevC.01  3-Jul-2019

 ----------------------------------------------------------------------
 #t hf aug-cc-pvdz iop(5/13=1,5/36=2,99/5=2) pseudo=read geom=check gue
 ss=(read,tcheck) scf=(maxcycle=1)
 ----------------------------------------------------------------------
 -----
 title
 -----
 Structure from the checkpoint file:  "methylperoxyacetylene.chk"
 Charge =  0 Multiplicity = 1

                         Standard orientation:
 ---------------------------------------------------------------------
 Center     Atomic      Atomic             Coordinates (Angstroms)
 Number     Number       Type             X           Y           Z
 ---------------------------------------------------------------------
      1          8           0        0.113175    0.611906   -0.000481
      2          8           0       -0.850519   -0.571912   -0.000730
      3          6           0        1.313138    0.157342   -0.000011
      4          6           0       -2.131835    0.020694    0.000616
      5          6           0        2.457104   -0.211516    0.000417
      6          1           0       -2.297771    0.619401   -0.896754
      7          1           0       -2.296639    0.617800    0.899259
      8          1           0       -2.808117   -0.835719    0.000264
      9          1           0        3.470842   -0.520554    0.000796
 ---------------------------------------------------------------------

 SCF Done:  E(RHF) =  -265.737804294     A.U. after    2 cycles

 The electronic state is 1-A.
 Alpha  occ. eigenvalues --  -20.66327 -20.65509 -11.31062 -11.30458 -11.23992
 Alpha  occ. eigenvalues --   -1.61074  -1.38578  -1.02378  -0.94822  -0.78900
 Alpha  occ. eigenvalues --   -0.71260  -0.70108  -0.68637  -0.61428  -0.61229
 Alpha  occ. eigenvalues --   -0.55310  -0.48660  -0.40050  -0.37847
 Alpha virt. eigenvalues --    0.03412   0.04275   0.05238   0.05503   0.08660
 Alpha virt. eigenvalues --    0.09563   0.11071   0.12404   0.13803   0.14063
 Alpha virt. eigenvalues --    0.14560   0.15204   0.16114   0.16818   0.17170

 Mulliken charges:
               1
     1  O   -0.886452
     2  O   -0.715621
     3  C    0.669091
     4  C    0.433896
     5  C    0.470685
     6  H    0.156297
     7  H    0.156271
     8  H    0.054252
     9  H   -0.338421
 Sum of Mulliken charges =  -0.00000

 Dipole moment (field-independent basis, Debye):
    X=             -1.9054    Y=             -0.0103    Z=              0.0020  Tot=              1.9054

 Test job not archived.
 1\1\GINC-SE209\SP\RHF\Aug-CC-pVDZ\C3H4O2\OHZDE\05-Apr-2025\0\\#t hf au
 g-cc-pvdz iop(5/13=1,5/36=2,99/5=2) pseudo=read geom=check guess=(read
 ,tcheck) scf=(maxcycle=1)\\title\\0,1\O,0,0.113175,0.611906,-0.000481\
 O,0,-0.850519,-0.571912,-0.00073\C,0,1.313138,0.157342,-0.000011\C,0,-
 2.131835,0.020694,0.000616\C,0,2.457104,-0.211516,0.000417\H,0,-2.2977
 71,0.619401,-0.896754\H,0,-2.296639,0.6178,0.899259\H,0,-2.808117,-0.8
 35719,0.000264\H,0,3.470842,-0.520554,0.000796\\Version=ES64L-G16RevC.
 01\State=1-A\HF=-265.7378043\RMSD=2.030e-02\Dipole=-0.7496398,-0.00406

 Normal termination of Gaussian 16 at Sat Apr  5 23:08:51 2025.
