 Gaussian 16, Revision C.01,

 ----------------------------------------------------------------------
 #t hf aug-cc-pvdz symm=none int=(grid=ultrafine) guess=(read,tcheck) s
 table=(opt,rrhf)
 ----------------------------------------------------------------------
 -----
 title
 -----
 Symbolic Z-matrix:
 Charge =  0 Multiplicity = 1

 SCF Done:  E(RHF) =  -343.750816589     A.U. after   14 cycles
 Normal termination of Gaussian 16 at Sat Apr  5 23:09:17 2025.
 Gaussian 16:  ES64L-G16RevC.01  3-Jul-2019

 ----------------------------------------------------------------------
 #t hf aug-cc-pvdz iop(5/13=1,5/36=2,99/5=2) pseudo=read geom=check gue
 ss=(read,tcheck) scf=(maxcycle=1)
 ----------------------------------------------------------------------
 -----
 title
 -----
 Structure from the checkpoint file:  "methyl_cyclopropanecarboxylate.chk"
 Charge =  0 Multiplicity = 1

                         Standard orientation:
 ---------------------------------------------------------------------
 Center     Atomic      Atomic             Coordinates (Angstroms)
 Number     Number       Type             X           Y           Z
 ---------------------------------------------------------------------
      1          6           0        0.042677    0.344157    0.000000
      2          6           0       -0.973754   -1.889957    0.743851
      3          6           0       -0.973754   -1.889957   -0.743851
      4          6           0        0.111176   -1.135227    0.000000
      5          6           0        1.324994    2.327509    0.000000
      6          8           0       -0.973754    0.998522    0.000000
      7          8           0        1.277432    0.891383    0.000000
      8          1           0       -1.716618   -1.286124    1.243595
      9          1           0       -0.669468   -2.784850    1.266689
     10          1           0       -0.669468   -2.784850   -1.266689
     11          1           0       -1.716618   -1.286124   -1.243595
     12          1           0        1.106406   -1.551725    0.000000
     13          1           0        2.379774    2.584262    0.000000
     14          1           0        0.834268    2.725508    0.886305
     15          1           0        0.834268    2.725508   -0.886305
 ---------------------------------------------------------------------

 SCF Done:  E(RHF) =  -344.104365842     A.U. after    2 cycles

 The electronic state is 1-A'.
 Alpha  occ. eigenvalues --  -20.58747 -20.52581 -11.38454 -11.29336 -11.25386
 Alpha  occ. eigenvalues --  -11.24963 -11.24906  -1.53811  -1.44386  -1.16416
 Alpha  occ. eigenvalues --   -0.99396  -0.88335  -0.83804  -0.76825  -0.73130
 Alpha  occ. eigenvalues --   -0.68495  -0.66866  -0.65691  -0.61279  -0.56748
 Alpha  occ. eigenvalues --   -0.56135  -0.53159  -0.52667  -0.45664  -0.45465
 Alpha  occ. eigenvalues --   -0.43763  -0.43214
 Alpha virt. eigenvalues --    0.03500   0.03891   0.04378   0.04678   0.06177
 Alpha virt. eigenvalues --    0.06264   0.06369   0.07950   0.10072   0.11808
 Alpha virt. eigenvalues --    0.11975   0.12729   0.14311   0.14461   0.15018

 Mulliken charges:
               1
     1  C    1.674026
     2  C    0.214860
     3  C    0.214860
     4  C    0.619217
     5  C    0.244132
     6  O   -1.258341
     7  O   -1.326824
     8  H   -0.109217
     9  H   -0.124626
    10  H   -0.124626
    11  H   -0.109217
    12  H   -0.241839
    13  H   -0.001738
    14  H    0.164667
    15  H    0.164667
 Sum of Mulliken charges =   0.00000

 Dipole moment (field-independent basis, Debye):
    X=              1.5075    Y=             -0.9226    Z=              0.0000  Tot=              1.7674

 Test job not archived.
 1\1\GINC-SE028\SP\RHF\Aug-CC-pVDZ\C5H8O2\OHZDE\05-Apr-2025\0\\#t hf au
 g-cc-pvdz iop(5/13=1,5/36=2,99/5=2) pseudo=read geom=check guess=(read
 ,tcheck) scf=(maxcycle=1)\\title\\0,1\C,0,0.042677,0.344157,0.\C,0,-0.
 973754,-1.889957,0.743851\C,0,-0.973754,-1.889957,-0.743851\C,0,0.1111
 76,-1.135227,0.\C,0,1.324994,2.327509,0.\O,0,-0.973754,0.998522,0.\O,0
 ,1.277432,0.891383,0.\H,0,-1.716618,-1.286124,1.243595\H,0,-0.669468,-
 2.78485,1.266689\H,0,-0.669468,-2.78485,-1.266689\H,0,-1.716618,-1.286
 124,-1.243595\H,0,1.106406,-1.551725,0.\H,0,2.379774,2.584262,0.\H,0,0

 Normal termination of Gaussian 16 at Sat Apr  5 23:10:22 2025.
