 Gaussian 16, Revision C.01,

 ----------------------------------------------------------------------
 #t hf aug-cc-pvdz symm=none int=(grid=ultrafine) guess=(read,tcheck) s
 table=(opt,rrhf)
 ----------------------------------------------------------------------
 -----
 title
 -----
 Symbolic Z-matrix:
 Charge =  0 Multiplicity = 1

 SCF Done:  E(RHF) =  -383.987638593     A.U. after   14 cycles

 1\1\GINC-SE198\Stability\RHF\Aug-CC-pVDZ\C6H12O2\OHZDE\05-Apr-2025\0\\
 #t hf aug-cc-pvdz symm=none int=(grid=ultrafine) guess=(read,tcheck) s
 table=(opt,rrhf)\\title\\0,1\C,0,-0.018703,0.623324,0.\C,0,-0.018703,-
 1.537398,1.260653\C,0,-2.067621,-0.796408,0.\C,0,-0.018703,-1.537398,-
 1.260653\C,0,1.913511,1.98573,0.\C,0,-0.535531,-0.817672,0.\O,0,-0.704
 653,1.61536,0.\O,0,1.331529,0.672656,0.\H,0,-0.353319,-1.032473,2.1681
 79\H,0,-0.406978,-2.556799,1.283172\H,0,1.068644,-1.583922,1.275217\H,
 0,-2.456671,-0.283818,0.878679\H,0,-2.447056,-1.819081,0.\H,0,-2.45667

 Normal termination of Gaussian 16 at Sat Apr  5 23:09:20 2025.
 Gaussian 16:  ES64L-G16RevC.01  3-Jul-2019

 ----------------------------------------------------------------------
 #t hf aug-cc-pvdz iop(5/13=1,5/36=2,99/5=2) pseudo=read geom=check gue
 ss=(read,tcheck) scf=(maxcycle=1)
 ----------------------------------------------------------------------
 -----
 title
 -----
 Structure from the checkpoint file:  "methyl-2-2-dimethylpropanoate.chk"
 Charge =  0 Multiplicity = 1

                         Standard orientation:
 ---------------------------------------------------------------------
 Center     Atomic      Atomic             Coordinates (Angstroms)
 Number     Number       Type             X           Y           Z
 ---------------------------------------------------------------------
      1          6           0       -0.018703    0.623324    0.000000
      2          6           0       -0.018703   -1.537398    1.260653
      3          6           0       -2.067621   -0.796408    0.000000
      4          6           0       -0.018703   -1.537398   -1.260653
      5          6           0        1.913511    1.985730    0.000000
      6          6           0       -0.535531   -0.817672    0.000000
      7          8           0       -0.704653    1.615360    0.000000
      8          8           0        1.331529    0.672656    0.000000
      9          1           0       -0.353319   -1.032473    2.168179
     10          1           0       -0.406978   -2.556799    1.283172
     11          1           0        1.068644   -1.583922    1.275217
     12          1           0       -2.456671   -0.283818    0.878679
     13          1           0       -2.447056   -1.819081    0.000000
     14          1           0       -2.456671   -0.283818   -0.878679
     15          1           0        1.068644   -1.583922   -1.275217
     16          1           0       -0.406978   -2.556799   -1.283172
     17          1           0       -0.353319   -1.032473   -2.168179
     18          1           0        1.607640    2.539254    0.885978
     19          1           0        1.607640    2.539254   -0.885978
     20          1           0        2.987917    1.829400    0.000000
 ---------------------------------------------------------------------

 SCF Done:  E(RHF) =  -384.389073715     A.U. after    2 cycles

 The electronic state is 1-A'.
 Alpha  occ. eigenvalues --  -20.58517 -20.52947 -11.37866 -11.29389 -11.25935
 Alpha  occ. eigenvalues --  -11.23182 -11.23161 -11.22193  -1.53888  -1.44471
 Alpha  occ. eigenvalues --   -1.11520  -0.97825  -0.94490  -0.93719  -0.84588
 Alpha  occ. eigenvalues --   -0.75801  -0.68684  -0.67936  -0.67152  -0.61616
 Alpha  occ. eigenvalues --   -0.61375  -0.59976  -0.56418  -0.55760  -0.53831
 Alpha  occ. eigenvalues --   -0.53419  -0.52571  -0.51225  -0.48277  -0.48107
 Alpha  occ. eigenvalues --   -0.45148  -0.42727
 Alpha virt. eigenvalues --    0.03527   0.03708   0.03992   0.04321   0.05732
 Alpha virt. eigenvalues --    0.06048   0.06207   0.06813   0.07150   0.08673
 Alpha virt. eigenvalues --    0.08876   0.09892   0.10704   0.13464   0.13881

 Mulliken charges:
               1
     1  C    2.200576
     2  C    0.115148
     3  C    0.265656
     4  C    0.115148
     5  C    0.203454
     6  C   -2.288012
     7  O   -1.271012
     8  O   -1.409500
     9  H    0.197038
    10  H    0.186655
    11  H    0.213577
    12  H    0.197159
    13  H    0.183720
    14  H    0.197159
    15  H    0.213577
    16  H    0.186655
    17  H    0.197038
    18  H    0.151103
    19  H    0.151103
    20  H   -0.006245
 Sum of Mulliken charges =  -0.00000

 Dipole moment (field-independent basis, Debye):
    X=              1.5106    Y=             -1.2588    Z=             -0.0000  Tot=              1.9664

 Test job not archived.
 1\1\GINC-SE198\SP\RHF\Aug-CC-pVDZ\C6H12O2\OHZDE\05-Apr-2025\0\\#t hf a
 ug-cc-pvdz iop(5/13=1,5/36=2,99/5=2) pseudo=read geom=check guess=(rea
 d,tcheck) scf=(maxcycle=1)\\title\\0,1\C,0,-0.018703,0.623324,0.\C,0,-
 0.018703,-1.537398,1.260653\C,0,-2.067621,-0.796408,0.\C,0,-0.018703,-
 1.537398,-1.260653\C,0,1.913511,1.98573,0.\C,0,-0.535531,-0.817672,0.\
 O,0,-0.704653,1.61536,0.\O,0,1.331529,0.672656,0.\H,0,-0.353319,-1.032
 473,2.168179\H,0,-0.406978,-2.556799,1.283172\H,0,1.068644,-1.583922,1
 .275217\H,0,-2.456671,-0.283818,0.878679\H,0,-2.447056,-1.819081,0.\H,

 Normal termination of Gaussian 16 at Sat Apr  5 23:10:25 2025.
