 Gaussian 16, Revision C.01,

 ----------------------------------------------------------------------
 #t hf aug-cc-pvdz symm=none int=(grid=ultrafine) guess=(read,tcheck) s
 table=(opt,rrhf)
 ----------------------------------------------------------------------
 -----
 title
 -----
 Symbolic Z-matrix:
 Charge =  0 Multiplicity = 1

 SCF Done:  E(RHF) =  -284.901809934     A.U. after   14 cycles
 Normal termination of Gaussian 16 at Sat Apr  5 23:08:18 2025.
 Gaussian 16:  ES64L-G16RevC.01  3-Jul-2019

 ----------------------------------------------------------------------
 #t hf aug-cc-pvdz iop(5/13=1,5/36=2,99/5=2) pseudo=read geom=check gue
 ss=(read,tcheck) scf=(maxcycle=1)
 ----------------------------------------------------------------------
 -----
 title
 -----
 Structure from the checkpoint file:  "methacrylamide.chk"
 Charge =  0 Multiplicity = 1

                         Standard orientation:
 ---------------------------------------------------------------------
 Center     Atomic      Atomic             Coordinates (Angstroms)
 Number     Number       Type             X           Y           Z
 ---------------------------------------------------------------------
      1          7           0       -1.672206    0.735432    0.281233
      2          1           0       -2.635471    0.448331    0.316740
      3          1           0       -1.408035    1.582616    0.748896
      4          6           0        1.669363   -0.902956    0.274192
      5          1           0        1.491299   -1.339113    1.259311
      6          1           0        1.537891   -1.708491   -0.448267
      7          1           0        2.695543   -0.542835    0.230507
      8          6           0        1.067908    1.453999   -0.283116
      9          1           0        0.354906    2.225169   -0.540582
     10          1           0        2.112388    1.736805   -0.297815
     11          6           0       -0.747453   -0.216273   -0.042278
     12          8           0       -1.070845   -1.348227   -0.361502
     13          6           0        0.697462    0.204449   -0.006366
 ---------------------------------------------------------------------

 SCF Done:  E(RHF) =  -285.195912019     A.U. after    2 cycles

 The electronic state is 1-A.
 Alpha  occ. eigenvalues --  -20.51109 -15.52776 -11.36246 -11.26452 -11.25365
 Alpha  occ. eigenvalues --  -11.23423  -1.45889  -1.22465  -1.09710  -0.95169
 Alpha  occ. eigenvalues --   -0.88311  -0.79242  -0.74426  -0.68642  -0.64121
 Alpha  occ. eigenvalues --   -0.61179  -0.59544  -0.56539  -0.54511  -0.53757
 Alpha  occ. eigenvalues --   -0.44075  -0.42628  -0.38734
 Alpha virt. eigenvalues --    0.02857   0.03824   0.04450   0.05576   0.05835
 Alpha virt. eigenvalues --    0.06696   0.07732   0.08780   0.10399   0.11969
 Alpha virt. eigenvalues --    0.12858   0.13703   0.14392   0.14907   0.15962

 Mulliken charges:
               1
     1  N    0.649921
     2  H    0.094780
     3  H    0.044254
     4  C   -0.726615
     5  H    0.256150
     6  H    0.252228
     7  H    0.094173
     8  C    0.312382
     9  H   -0.166173
    10  H   -0.161976
    11  C    0.180447
    12  O   -1.354446
    13  C    0.524876
 Sum of Mulliken charges =  -0.00000

 Dipole moment (field-independent basis, Debye):
    X=              0.7295    Y=              3.2147    Z=              1.3875  Tot=              3.5765

 Test job not archived.
 1\1\GINC-SE085\SP\RHF\Aug-CC-pVDZ\C4H7N1O1\OHZDE\05-Apr-2025\0\\#t hf
 aug-cc-pvdz iop(5/13=1,5/36=2,99/5=2) pseudo=read geom=check guess=(re
 ad,tcheck) scf=(maxcycle=1)\\title\\0,1\N,0,-1.672206,0.735432,0.28123
 3\H,0,-2.635471,0.448331,0.31674\H,0,-1.408035,1.582616,0.748896\C,0,1
 .669363,-0.902956,0.274192\H,0,1.491299,-1.339113,1.259311\H,0,1.53789
 1,-1.708491,-0.448267\H,0,2.695543,-0.542835,0.230507\C,0,1.067908,1.4
 53999,-0.283116\H,0,0.354906,2.225169,-0.540582\H,0,2.112388,1.736805,
 -0.297815\C,0,-0.747453,-0.216273,-0.042278\O,0,-1.070845,-1.348227,-0

 Normal termination of Gaussian 16 at Sat Apr  5 23:08:23 2025.
