 Gaussian 16, Revision C.01,

 ----------------------------------------------------------------------
 #t hf aug-cc-pvdz symm=none int=(grid=ultrafine) guess=(read,tcheck) s
 table=(opt,rrhf)
 ----------------------------------------------------------------------
 -----
 title
 -----
 Symbolic Z-matrix:
 Charge =  0 Multiplicity = 1

 SCF Done:  E(RHF) =  -268.867257504     A.U. after   13 cycles
 Normal termination of Gaussian 16 at Sat Apr  5 23:09:03 2025.
 Gaussian 16:  ES64L-G16RevC.01  3-Jul-2019

 ----------------------------------------------------------------------
 #t hf aug-cc-pvdz iop(5/13=1,5/36=2,99/5=2) pseudo=read geom=check gue
 ss=(read,tcheck) scf=(maxcycle=1)
 ----------------------------------------------------------------------
 -----
 title
 -----
 Structure from the checkpoint file:  "methylcyclopropylketone.chk"
 Charge =  0 Multiplicity = 1

                         Standard orientation:
 ---------------------------------------------------------------------
 Center     Atomic      Atomic             Coordinates (Angstroms)
 Number     Number       Type             X           Y           Z
 ---------------------------------------------------------------------
      1          6           0        0.284009   -0.759507    0.000000
      2          6           0       -0.302823    1.638533    0.742121
      3          6           0       -0.302823    1.638533   -0.742121
      4          6           0       -0.688018    0.369102    0.000000
      5          6           0       -0.302823   -2.152697    0.000000
      6          8           0        1.484030   -0.570889    0.000000
      7          1           0        0.655236    1.614399    1.240617
      8          1           0       -1.093428    2.156153    1.265732
      9          1           0       -1.093428    2.156153   -1.265732
     10          1           0        0.655236    1.614399   -1.240617
     11          1           0       -1.734635    0.099083    0.000000
     12          1           0       -0.938808   -2.291274    0.877339
     13          1           0       -0.938808   -2.291274   -0.877339
     14          1           0        0.491252   -2.894317    0.000000
 ---------------------------------------------------------------------

 SCF Done:  E(RHF) =  -269.149980047     A.U. after    2 cycles

 The electronic state is 1-A'.
 Alpha  occ. eigenvalues --  -20.52515 -11.33634 -11.24843 -11.24748 -11.24706
 Alpha  occ. eigenvalues --  -11.24281  -1.46116  -1.15936  -1.02355  -0.88365
 Alpha  occ. eigenvalues --   -0.83481  -0.74265  -0.69690  -0.66633  -0.61201
 Alpha  occ. eigenvalues --   -0.60678  -0.58423  -0.54903  -0.53735  -0.50317
 Alpha  occ. eigenvalues --   -0.45645  -0.42348  -0.40567
 Alpha virt. eigenvalues --    0.03164   0.03787   0.03973   0.04814   0.06148
 Alpha virt. eigenvalues --    0.06249   0.07450   0.07457   0.09651   0.12135
 Alpha virt. eigenvalues --    0.12598   0.13211   0.14092   0.14380   0.14432

 Mulliken charges:
               1
     1  C    0.856752
     2  C    0.243517
     3  C    0.243517
     4  C    0.625424
     5  C   -0.623892
     6  O   -1.388684
     7  H   -0.077253
     8  H   -0.127041
     9  H   -0.127041
    10  H   -0.077253
    11  H   -0.216963
    12  H    0.271592
    13  H    0.271592
    14  H    0.125731
 Sum of Mulliken charges =  -0.00000

 Dipole moment (field-independent basis, Debye):
    X=             -3.0994    Y=              0.0093    Z=              0.0000  Tot=              3.0994

 Test job not archived.
 1\1\GINC-SE225\SP\RHF\Aug-CC-pVDZ\C5H8O1\OHZDE\05-Apr-2025\0\\#t hf au
 g-cc-pvdz iop(5/13=1,5/36=2,99/5=2) pseudo=read geom=check guess=(read
 ,tcheck) scf=(maxcycle=1)\\title\\0,1\C,0,0.284009,-0.759507,0.\C,0,-0
 .302823,1.638533,0.742121\C,0,-0.302823,1.638533,-0.742121\C,0,-0.6880
 18,0.369102,0.\C,0,-0.302823,-2.152697,0.\O,0,1.48403,-0.570889,0.\H,0
 ,0.655236,1.614399,1.240617\H,0,-1.093428,2.156153,1.265732\H,0,-1.093
 428,2.156153,-1.265732\H,0,0.655236,1.614399,-1.240617\H,0,-1.734635,0
 .099083,0.\H,0,-0.938808,-2.291274,0.877339\H,0,-0.938808,-2.291274,-0

 Normal termination of Gaussian 16 at Sat Apr  5 23:09:11 2025.
