 Gaussian 16, Revision C.01,

 ----------------------------------------------------------------------
 #t hf aug-cc-pvdz symm=none int=(grid=ultrafine) guess=(read,tcheck) s
 table=(opt,rrhf)
 ----------------------------------------------------------------------
 -----
 title
 -----
 Symbolic Z-matrix:
 Charge =  0 Multiplicity = 1

 SCF Done:  E(RHF) =  -193.130938623     A.U. after   11 cycles
 Normal termination of Gaussian 16 at Sat Apr  5 23:08:06 2025.
 Gaussian 16:  ES64L-G16RevC.01  3-Jul-2019

 ----------------------------------------------------------------------
 #t hf aug-cc-pvdz iop(5/13=1,5/36=2,99/5=2) pseudo=read geom=check gue
 ss=(read,tcheck) scf=(maxcycle=1)
 ----------------------------------------------------------------------
 -----
 title
 -----
 Structure from the checkpoint file:  "methoxyethane.chk"
 Charge =  0 Multiplicity = 1

                         Standard orientation:
 ---------------------------------------------------------------------
 Center     Atomic      Atomic             Coordinates (Angstroms)
 Number     Number       Type             X           Y           Z
 ---------------------------------------------------------------------
      1          6           0        1.436557    1.185794    0.000000
      2          6           0       -1.314175   -1.253686    0.000000
      3          6           0        0.000000    0.706828    0.000000
      4          8           0       -0.011621   -0.711204    0.000000
      5          1           0        1.471309    2.276007    0.000000
      6          1           0        1.962303    0.823929    0.883530
      7          1           0        1.962303    0.823929   -0.883530
      8          1           0       -1.877412   -0.946607    0.889974
      9          1           0       -1.215654   -2.337382    0.000000
     10          1           0       -1.877412   -0.946607   -0.889974
     11          1           0       -0.533380    1.081375   -0.884588
     12          1           0       -0.533380    1.081375    0.884588
 ---------------------------------------------------------------------

 SCF Done:  E(RHF) =  -193.340511313     A.U. after    2 cycles

 The electronic state is 1-A'.
 Alpha  occ. eigenvalues --  -20.53911 -11.28069 -11.27775 -11.22253  -1.45564
 Alpha  occ. eigenvalues --   -1.02788  -0.91772  -0.83508  -0.67133  -0.65672
 Alpha  occ. eigenvalues --   -0.62910  -0.58796  -0.54137  -0.51584  -0.50890
 Alpha  occ. eigenvalues --   -0.47377  -0.41333
 Alpha virt. eigenvalues --    0.03903   0.04231   0.04648   0.04747   0.06631
 Alpha virt. eigenvalues --    0.07168   0.07333   0.08596   0.12316   0.13412
 Alpha virt. eigenvalues --    0.14532   0.15645   0.16029   0.16839   0.16999

 Mulliken charges:
               1
     1  C   -0.480477
     2  C    0.205411
     3  C    0.453452
     4  O   -1.220148
     5  H    0.158628
     6  H    0.162858
     7  H    0.162858
     8  H    0.170801
     9  H   -0.026928
    10  H    0.170801
    11  H    0.121372
    12  H    0.121372
 Sum of Mulliken charges =  -0.00000

 Dipole moment (field-independent basis, Debye):
    X=             -1.0265    Y=              0.7771    Z=             -0.0000  Tot=              1.2875

 Test job not archived.
 1\1\GINC-SE175\SP\RHF\Aug-CC-pVDZ\C3H8O1\OHZDE\05-Apr-2025\0\\#t hf au
 g-cc-pvdz iop(5/13=1,5/36=2,99/5=2) pseudo=read geom=check guess=(read
 ,tcheck) scf=(maxcycle=1)\\title\\0,1\C,0,1.436557,1.185794,0.\C,0,-1.
 314175,-1.253686,0.\C,0,0.,0.706828,0.\O,0,-0.011621,-0.711204,0.\H,0,
 1.471309,2.276007,0.\H,0,1.962303,0.823929,0.88353\H,0,1.962303,0.8239
 29,-0.88353\H,0,-1.877412,-0.946607,0.889974\H,0,-1.215654,-2.337382,0
 .\H,0,-1.877412,-0.946607,-0.889974\H,0,-0.53338,1.081375,-0.884588\H,
 0,-0.53338,1.081375,0.884588\\Version=ES64L-G16RevC.01\State=1-A'\HF=-

 Normal termination of Gaussian 16 at Sat Apr  5 23:08:09 2025.
