 Gaussian 16, Revision C.01,

 ----------------------------------------------------------------------
 #t hf aug-cc-pvdz symm=none int=(grid=ultrafine) guess=(read,tcheck) s
 table=(opt,rrhf)
 ----------------------------------------------------------------------
 -----
 title
 -----
 Symbolic Z-matrix:
 Charge =  0 Multiplicity = 1

 SCF Done:  E(RHF) =  -305.912325021     A.U. after   13 cycles
 Normal termination of Gaussian 16 at Sat Apr  5 23:09:01 2025.
 Gaussian 16:  ES64L-G16RevC.01  3-Jul-2019

 ----------------------------------------------------------------------
 #t hf aug-cc-pvdz iop(5/13=1,5/36=2,99/5=2) pseudo=read geom=check gue
 ss=(read,tcheck) scf=(maxcycle=1)
 ----------------------------------------------------------------------
 -----
 title
 -----
 Structure from the checkpoint file:  "methyl_propanoate.chk"
 Charge =  0 Multiplicity = 1

                         Standard orientation:
 ---------------------------------------------------------------------
 Center     Atomic      Atomic             Coordinates (Angstroms)
 Number     Number       Type             X           Y           Z
 ---------------------------------------------------------------------
      1          6           0        0.000000    0.105348    0.000000
      2          6           0        2.229810   -1.101248    0.000000
      3          6           0       -2.125328    1.140307    0.000000
      4          6           0        0.712415   -1.227832    0.000000
      5          8           0        0.529639    1.188224    0.000000
      6          8           0       -1.340167   -0.063276    0.000000
      7          1           0        2.578825   -0.559466    0.877868
      8          1           0        2.691306   -2.088610    0.000000
      9          1           0        2.578825   -0.559466   -0.877868
     10          1           0       -3.160662    0.813935    0.000000
     11          1           0       -1.911948    1.735162   -0.886287
     12          1           0       -1.911948    1.735162    0.886287
     13          1           0        0.359222   -1.787875    0.869073
     14          1           0        0.359222   -1.787875   -0.869073
 ---------------------------------------------------------------------

 SCF Done:  E(RHF) =  -306.228394193     A.U. after    2 cycles

 The electronic state is 1-A'.
 Alpha  occ. eigenvalues --  -20.58693 -20.53169 -11.38406 -11.29462 -11.25223
 Alpha  occ. eigenvalues --  -11.23003  -1.53977  -1.44726  -1.07017  -0.97673
 Alpha  occ. eigenvalues --   -0.88251  -0.77378  -0.70711  -0.68045  -0.67392
 Alpha  occ. eigenvalues --   -0.62540  -0.60544  -0.54643  -0.54353  -0.53377
 Alpha  occ. eigenvalues --   -0.51906  -0.50103  -0.45388  -0.43847
 Alpha virt. eigenvalues --    0.03575   0.03903   0.04537   0.04761   0.06017
 Alpha virt. eigenvalues --    0.06539   0.06853   0.07903   0.10827   0.12484
 Alpha virt. eigenvalues --    0.13326   0.14142   0.14934   0.15088   0.15435

 Mulliken charges:
               1
     1  C    1.946246
     2  C   -0.279009
     3  C    0.253494
     4  C   -0.636215
     5  O   -1.178330
     6  O   -1.314090
     7  H    0.167386
     8  H    0.126364
     9  H    0.167386
    10  H    0.005443
    11  H    0.161427
    12  H    0.161427
    13  H    0.209235
    14  H    0.209235
 Sum of Mulliken charges =  -0.00000

 Dipole moment (field-independent basis, Debye):
    X=             -1.1746    Y=             -1.4305    Z=             -0.0000  Tot=              1.8510

 Test job not archived.
 1\1\GINC-SE190\SP\RHF\Aug-CC-pVDZ\C4H8O2\OHZDE\05-Apr-2025\0\\#t hf au
 g-cc-pvdz iop(5/13=1,5/36=2,99/5=2) pseudo=read geom=check guess=(read
 ,tcheck) scf=(maxcycle=1)\\title\\0,1\C,0,0.,0.105348,0.\C,0,2.22981,-
 1.101248,0.\C,0,-2.125328,1.140307,0.\C,0,0.712415,-1.227832,0.\O,0,0.
 529639,1.188224,0.\O,0,-1.340167,-0.063276,0.\H,0,2.578825,-0.559466,0
 .877868\H,0,2.691306,-2.08861,0.\H,0,2.578825,-0.559466,-0.877868\H,0,
 -3.160662,0.813935,0.\H,0,-1.911948,1.735162,-0.886287\H,0,-1.911948,1
 .735162,0.886287\H,0,0.359222,-1.787875,0.869073\H,0,0.359222,-1.78787

 Normal termination of Gaussian 16 at Sat Apr  5 23:09:12 2025.
