 Gaussian 16, Revision C.01,

 ----------------------------------------------------------------------
 #t hf aug-cc-pvdz symm=none int=(grid=ultrafine) guess=(read,tcheck) s
 table=(opt,rrhf)
 ----------------------------------------------------------------------
 -----
 title
 -----
 Symbolic Z-matrix:
 Charge =  0 Multiplicity = 1

 SCF Done:  E(RHF) =  -193.964343221     A.U. after   12 cycles
 Normal termination of Gaussian 16 at Sat Apr  5 23:08:54 2025.
 Gaussian 16:  ES64L-G16RevC.01  3-Jul-2019

 ----------------------------------------------------------------------
 #t hf aug-cc-pvdz iop(5/13=1,5/36=2,99/5=2) pseudo=read geom=check gue
 ss=(read,tcheck) scf=(maxcycle=1)
 ----------------------------------------------------------------------
 -----
 title
 -----
 Structure from the checkpoint file:  "methylenecyclobutane.chk"
 Charge =  0 Multiplicity = 1

                         Standard orientation:
 ---------------------------------------------------------------------
 Center     Atomic      Atomic             Coordinates (Angstroms)
 Number     Number       Type             X           Y           Z
 ---------------------------------------------------------------------
      1          6           0        0.233750   -0.388334    1.091648
      2          6           0        0.233750   -0.388334   -1.091648
      3          6           0       -0.103047    0.613325   -0.000000
      4          6           0        0.233750   -1.499323    0.000000
      5          6           0       -0.627950    1.827559   -0.000000
      6          1           0       -0.477778   -0.485850    1.911239
      7          1           0       -0.477778   -0.485850   -1.911239
      8          1           0        1.227026   -0.224070    1.515020
      9          1           0        1.227026   -0.224070   -1.515020
     10          1           0       -0.853925    2.345913    0.923515
     11          1           0       -0.853925    2.345913   -0.923515
     12          1           0        1.077726   -2.185964    0.000000
     13          1           0       -0.689886   -2.075382    0.000000
 ---------------------------------------------------------------------

 SCF Done:  E(RHF) =  -194.177419598     A.U. after    2 cycles

 The electronic state is 1-A'.
 Alpha  occ. eigenvalues --  -11.24019 -11.23203 -11.23201 -11.23189 -11.21805
 Alpha  occ. eigenvalues --   -1.14022  -0.98953  -0.90983  -0.83152  -0.71487
 Alpha  occ. eigenvalues --   -0.65492  -0.64494  -0.60790  -0.55012  -0.50596
 Alpha  occ. eigenvalues --   -0.48391  -0.47956  -0.45225  -0.35553
 Alpha virt. eigenvalues --    0.03926   0.04045   0.04211   0.04294   0.06252
 Alpha virt. eigenvalues --    0.06420   0.06875   0.07213   0.10423   0.12422
 Alpha virt. eigenvalues --    0.13085   0.13439   0.14208   0.14802   0.15530

 Mulliken charges:
               1
     1  C   -0.476087
     2  C   -0.476087
     3  C    0.547884
     4  C    0.095992
     5  C    0.076471
     6  H    0.035780
     7  H    0.035780
     8  H    0.158082
     9  H    0.158082
    10  H   -0.120473
    11  H   -0.120473
    12  H    0.010399
    13  H    0.074649
 Sum of Mulliken charges =  -0.00000

 Dipole moment (field-independent basis, Debye):
    X=              0.2006    Y=             -0.5940    Z=              0.0000  Tot=              0.6269

 Test job not archived.
 1\1\GINC-SE226\SP\RHF\Aug-CC-pVDZ\C5H8\OHZDE\05-Apr-2025\0\\#t hf aug-
 cc-pvdz iop(5/13=1,5/36=2,99/5=2) pseudo=read geom=check guess=(read,t
 check) scf=(maxcycle=1)\\title\\0,1\C,0,0.23375,-0.388334,1.091648\C,0
 ,0.23375,-0.388334,-1.091648\C,0,-0.103047,0.613325,0.\C,0,0.23375,-1.
 499323,0.\C,0,-0.62795,1.827559,0.\H,0,-0.477778,-0.48585,1.911239\H,0
 ,-0.477778,-0.48585,-1.911239\H,0,1.227026,-0.22407,1.51502\H,0,1.2270
 26,-0.22407,-1.51502\H,0,-0.853925,2.345913,0.923515\H,0,-0.853925,2.3
 45913,-0.923515\H,0,1.077726,-2.185964,0.\H,0,-0.689886,-2.075382,0.\\

 Normal termination of Gaussian 16 at Sat Apr  5 23:09:11 2025.
