 Gaussian 16, Revision C.01,

 ----------------------------------------------------------------------
 #t hf aug-cc-pvdz symm=none int=(grid=ultrafine) guess=(read,tcheck) s
 table=(opt,rrhf)
 ----------------------------------------------------------------------
 -----
 title
 -----
 Symbolic Z-matrix:
 Charge =  0 Multiplicity = 1

 SCF Done:  E(RHF) =  -189.830832630     A.U. after   13 cycles
 Normal termination of Gaussian 16 at Sat Apr  5 23:08:23 2025.
 Gaussian 16:  ES64L-G16RevC.01  3-Jul-2019

 ----------------------------------------------------------------------
 #t hf aug-cc-pvdz iop(5/13=1,5/36=2,99/5=2) pseudo=read geom=check gue
 ss=(read,tcheck) scf=(maxcycle=1)
 ----------------------------------------------------------------------
 -----
 title
 -----
 Structure from the checkpoint file:  "methyl_hydroperoxide.chk"
 Charge =  0 Multiplicity = 1

                         Standard orientation:
 ---------------------------------------------------------------------
 Center     Atomic      Atomic             Coordinates (Angstroms)
 Number     Number       Type             X           Y           Z
 ---------------------------------------------------------------------
      1          6           0        1.130346   -0.225128    0.025065
      2          8           0       -0.015267    0.606026   -0.027255
      3          8           0       -1.167167   -0.278825   -0.095051
      4          1           0        1.971335    0.468788    0.022108
      5          1           0        1.147766   -0.826787    0.937012
      6          1           0        1.184789   -0.873635   -0.851239
      7          1           0       -1.626495   -0.035207    0.720173
 ---------------------------------------------------------------------

 SCF Done:  E(RHF) =  -190.022506240     A.U. after    2 cycles

 The electronic state is 1-A.
 Alpha  occ. eigenvalues --  -20.61324 -20.61288 -11.29121  -1.57998  -1.29360
 Alpha  occ. eigenvalues --   -0.92562  -0.71972  -0.66173  -0.64673  -0.59741
 Alpha  occ. eigenvalues --   -0.52944  -0.48928  -0.44292
 Alpha virt. eigenvalues --    0.03691   0.04767   0.05892   0.06017   0.10613
 Alpha virt. eigenvalues --    0.14761   0.15254   0.16701   0.17289   0.19078
 Alpha virt. eigenvalues --    0.21767   0.23604   0.25791   0.27007   0.28684

 Mulliken charges:
               1
     1  C    0.420602
     2  O   -0.670719
     3  O   -0.473069
     4  H    0.057762
     5  H    0.123978
     6  H    0.133249
     7  H    0.408195
 Sum of Mulliken charges =  -0.00000

 Dipole moment (field-independent basis, Debye):
    X=              0.7571    Y=             -0.5447    Z=              1.4399  Tot=              1.7155

 Test job not archived.
 1\1\GINC-SE185\SP\RHF\Aug-CC-pVDZ\C1H4O2\OHZDE\05-Apr-2025\0\\#t hf au
 g-cc-pvdz iop(5/13=1,5/36=2,99/5=2) pseudo=read geom=check guess=(read
 ,tcheck) scf=(maxcycle=1)\\title\\0,1\C,0,1.130346,-0.225128,0.025065\
 O,0,-0.015267,0.606026,-0.027255\O,0,-1.167167,-0.278825,-0.095051\H,0
 ,1.971335,0.468788,0.022108\H,0,1.147766,-0.826787,0.937012\H,0,1.1847
 89,-0.873635,-0.851239\H,0,-1.626495,-0.035207,0.720173\\Version=ES64L
 -G16RevC.01\State=1-A\HF=-190.0225062\RMSD=7.759e-03\Dipole=0.2978506,
 -0.2142847,0.5664978\Quadrupole=1.8610481,-1.7186505,-0.1423976,-0.334

 Normal termination of Gaussian 16 at Sat Apr  5 23:08:25 2025.
