 Gaussian 16, Revision C.01,

 ----------------------------------------------------------------------
 #t hf aug-cc-pvdz symm=none int=(grid=ultrafine) guess=(read,tcheck) s
 table=(opt,rrhf)
 ----------------------------------------------------------------------
 -----
 title
 -----
 Symbolic Z-matrix:
 Charge =  0 Multiplicity = 1

 SCF Done:  E(RHF) =  -383.989856436     A.U. after   13 cycles

 1\1\GINC-SE053\Stability\RHF\Aug-CC-pVDZ\C6H12O2\OHZDE\05-Apr-2025\0\\
 #t hf aug-cc-pvdz symm=none int=(grid=ultrafine) guess=(read,tcheck) s
 table=(opt,rrhf)\\title\\0,1\C,0,-1.162065,-0.3166,0.\C,0,3.891987,0.2
 93233,0.\C,0,-3.521231,-0.471592,0.\C,0,0.,0.649193,0.\C,0,2.521478,0.
 967777,0.\C,0,1.364398,-0.031139,0.\O,0,-1.082593,-1.519471,0.\O,0,-2.
 339681,0.346164,0.\H,0,4.019803,-0.339306,0.880577\H,0,4.019803,-0.339
 306,-0.880577\H,0,4.697325,1.028826,0.\H,0,-3.548612,-1.103036,0.88626
 2\H,0,-3.548612,-1.103036,-0.886262\H,0,-4.356547,0.221758,0.\H,0,-0.1

 Normal termination of Gaussian 16 at Sat Apr  5 23:09:44 2025.
 Gaussian 16:  ES64L-G16RevC.01  3-Jul-2019

 ----------------------------------------------------------------------
 #t hf aug-cc-pvdz iop(5/13=1,5/36=2,99/5=2) pseudo=read geom=check gue
 ss=(read,tcheck) scf=(maxcycle=1)
 ----------------------------------------------------------------------
 -----
 title
 -----
 Structure from the checkpoint file:  "methyl_pentanoate.chk"
 Charge =  0 Multiplicity = 1

                         Standard orientation:
 ---------------------------------------------------------------------
 Center     Atomic      Atomic             Coordinates (Angstroms)
 Number     Number       Type             X           Y           Z
 ---------------------------------------------------------------------
      1          6           0       -1.162065   -0.316600    0.000000
      2          6           0        3.891987    0.293232    0.000000
      3          6           0       -3.521231   -0.471591    0.000000
      4          6           0       -0.000000    0.649193    0.000000
      5          6           0        2.521478    0.967776    0.000000
      6          6           0        1.364398   -0.031139    0.000000
      7          8           0       -1.082593   -1.519471    0.000000
      8          8           0       -2.339681    0.346164    0.000000
      9          1           0        4.019803   -0.339307    0.880577
     10          1           0        4.019803   -0.339307   -0.880577
     11          1           0        4.697325    1.028825    0.000000
     12          1           0       -3.548612   -1.103035    0.886262
     13          1           0       -3.548612   -1.103035   -0.886262
     14          1           0       -4.356547    0.221759    0.000000
     15          1           0       -0.114752    1.302305   -0.869458
     16          1           0       -0.114752    1.302305    0.869458
     17          1           0        2.437814    1.621045    0.874090
     18          1           0        2.437814    1.621045   -0.874090
     19          1           0        1.440757   -0.685686    0.871083
     20          1           0        1.440757   -0.685686   -0.871083
 ---------------------------------------------------------------------

 SCF Done:  E(RHF) =  -384.393128888     A.U. after    2 cycles

 The electronic state is 1-A'.
 Alpha  occ. eigenvalues --  -20.58613 -20.53086 -11.38357 -11.29394 -11.24875
 Alpha  occ. eigenvalues --  -11.23058 -11.22970 -11.22318  -1.53889  -1.44629
 Alpha  occ. eigenvalues --   -1.09415  -1.02653  -0.96589  -0.88924  -0.80778
 Alpha  occ. eigenvalues --   -0.77277  -0.70239  -0.68258  -0.67482  -0.64952
 Alpha  occ. eigenvalues --   -0.60325  -0.59701  -0.58632  -0.54715  -0.54196
 Alpha  occ. eigenvalues --   -0.52633  -0.50534  -0.49005  -0.48302  -0.47557
 Alpha  occ. eigenvalues --   -0.45252  -0.43705
 Alpha virt. eigenvalues --    0.03557   0.03692   0.04022   0.04290   0.05152
 Alpha virt. eigenvalues --    0.05690   0.05947   0.06821   0.07763   0.08453
 Alpha virt. eigenvalues --    0.08689   0.10362   0.11147   0.12073   0.14017

 Mulliken charges:
               1
     1  C    2.307378
     2  C   -0.377489
     3  C    0.273864
     4  C   -0.755272
     5  C   -0.221985
     6  C   -0.199353
     7  O   -1.241335
     8  O   -1.378196
     9  H    0.157466
    10  H    0.157466
    11  H    0.113625
    12  H    0.171340
    13  H    0.171340
    14  H    0.001022
    15  H    0.191998
    16  H    0.191998
    17  H    0.104811
    18  H    0.104811
    19  H    0.113256
    20  H    0.113256
 Sum of Mulliken charges =  -0.00000

 Dipole moment (field-independent basis, Debye):
    X=             -0.4351    Y=              1.7448    Z=              0.0000  Tot=              1.7982

 Test job not archived.
 1\1\GINC-SE053\SP\RHF\Aug-CC-pVDZ\C6H12O2\OHZDE\05-Apr-2025\0\\#t hf a
 ug-cc-pvdz iop(5/13=1,5/36=2,99/5=2) pseudo=read geom=check guess=(rea
 d,tcheck) scf=(maxcycle=1)\\title\\0,1\C,0,-1.162065,-0.3166,0.\C,0,3.
 891987,0.293233,0.\C,0,-3.521231,-0.471592,0.\C,0,0.,0.649193,0.\C,0,2
 .521478,0.967777,0.\C,0,1.364398,-0.031139,0.\O,0,-1.082593,-1.519471,
 0.\O,0,-2.339681,0.346164,0.\H,0,4.019803,-0.339306,0.880577\H,0,4.019
 803,-0.339306,-0.880577\H,0,4.697325,1.028826,0.\H,0,-3.548612,-1.1030
 36,0.886262\H,0,-3.548612,-1.103036,-0.886262\H,0,-4.356547,0.221758,0

 Normal termination of Gaussian 16 at Sat Apr  5 23:10:25 2025.
