 Gaussian 16, Revision C.01,

 ----------------------------------------------------------------------
 #t hf aug-cc-pvdz symm=none int=(grid=ultrafine) guess=(read,tcheck) s
 table=(opt,rrhf)
 ----------------------------------------------------------------------
 -----
 title
 -----
 Symbolic Z-matrix:
 Charge =  0 Multiplicity = 1

 SCF Done:  E(RHF) =  -571.302481085     A.U. after   16 cycles

 1\1\GINC-SE055\Stability\RHF\Aug-CC-pVDZ\C9H10O3\OHZDE\05-Apr-2025\0\\
 #t hf aug-cc-pvdz symm=none int=(grid=ultrafine) guess=(read,tcheck) s
 table=(opt,rrhf)\\title\\0,1\C,0,1.21275,-0.008767,0.\C,0,-1.191217,-0
 .059999,0.\C,0,1.253899,-1.395528,0.\C,0,-1.163891,-1.439772,0.\C,0,0.
 ,0.676566,0.\C,0,0.05938,-2.119086,0.\C,0,0.029615,2.157734,0.\C,0,1.1
 87057,-4.229322,0.\C,0,-1.258011,4.136065,0.\O,0,1.03763,2.827599,0.\O
 ,0,-0.016913,-3.47356,0.\O,0,-1.208484,2.702078,0.\H,0,2.13057,0.56174
 1,0.\H,0,-2.138564,0.457542,0.\H,0,2.208636,-1.897967,0.\H,0,-2.077198

 Normal termination of Gaussian 16 at Sat Apr  5 23:11:17 2025.
 Gaussian 16:  ES64L-G16RevC.01  3-Jul-2019

 ----------------------------------------------------------------------
 #t hf aug-cc-pvdz iop(5/13=1,5/36=2,99/5=2) pseudo=read geom=check gue
 ss=(read,tcheck) scf=(maxcycle=1)
 ----------------------------------------------------------------------
 -----
 title
 -----
 Structure from the checkpoint file:  "methyl-4-methoxybenzoate.chk"
 Charge =  0 Multiplicity = 1

                         Standard orientation:
 ---------------------------------------------------------------------
 Center     Atomic      Atomic             Coordinates (Angstroms)
 Number     Number       Type             X           Y           Z
 ---------------------------------------------------------------------
      1          6           0        1.212750   -0.008767    0.000000
      2          6           0       -1.191217   -0.059999    0.000000
      3          6           0        1.253899   -1.395528    0.000000
      4          6           0       -1.163891   -1.439772    0.000000
      5          6           0        0.000000    0.676566    0.000000
      6          6           0        0.059380   -2.119086    0.000000
      7          6           0        0.029615    2.157734    0.000000
      8          6           0        1.187056   -4.229322    0.000000
      9          6           0       -1.258011    4.136065    0.000000
     10          8           0        1.037630    2.827599    0.000000
     11          8           0       -0.016913   -3.473560    0.000000
     12          8           0       -1.208484    2.702078    0.000000
     13          1           0        2.130570    0.561741    0.000000
     14          1           0       -2.138564    0.457542    0.000000
     15          1           0        2.208636   -1.897967    0.000000
     16          1           0       -2.077198   -2.017737    0.000000
     17          1           0        1.783546   -4.025408    0.892035
     18          1           0        1.783546   -4.025408   -0.892035
     19          1           0        0.883034   -5.272089    0.000000
     20          1           0       -2.313254    4.391701    0.000000
     21          1           0       -0.767834    4.535668   -0.886018
     22          1           0       -0.767834    4.535668    0.886018
 ---------------------------------------------------------------------

 SCF Done:  E(RHF) =  -571.879360758     A.U. after    2 cycles

 The electronic state is 1-A'.
 Alpha  occ. eigenvalues --  -20.58502 -20.58467 -20.52430 -11.38494 -11.32396
 Alpha  occ. eigenvalues --  -11.30385 -11.29237 -11.25991 -11.25977 -11.24607
 Alpha  occ. eigenvalues --  -11.24548 -11.24137  -1.53717  -1.51059  -1.44147
 Alpha  occ. eigenvalues --   -1.16844  -1.05360  -1.03597  -0.98195  -0.95445
 Alpha  occ. eigenvalues --   -0.85928  -0.85193  -0.78548  -0.75085  -0.71867
 Alpha  occ. eigenvalues --   -0.69760  -0.66918  -0.66719  -0.66176  -0.64496
 Alpha  occ. eigenvalues --   -0.61644  -0.61138  -0.59383  -0.56500  -0.56361
 Alpha  occ. eigenvalues --   -0.53744  -0.53737  -0.52458  -0.49662  -0.47739
 Alpha  occ. eigenvalues --   -0.45118  -0.44000  -0.36133  -0.33137
 Alpha virt. eigenvalues --    0.03119   0.03638   0.03883   0.04502   0.05072
 Alpha virt. eigenvalues --    0.05398   0.06236   0.06925   0.07150   0.08320
 Alpha virt. eigenvalues --    0.08803   0.09582   0.10136   0.11438   0.11702

 Mulliken charges:
               1
     1  C   -0.451945
     2  C    0.357778
     3  C    0.225108
     4  C    0.407252
     5  C    2.004182
     6  C    1.181727
     7  C    1.486194
     8  C    0.108359
     9  C    0.192401
    10  O   -1.394556
    11  O   -1.859743
    12  O   -1.541192
    13  H   -0.350981
    14  H   -0.311487
    15  H   -0.413375
    16  H   -0.319399
    17  H    0.178096
    18  H    0.178096
    19  H   -0.043105
    20  H   -0.017587
    21  H    0.192089
    22  H    0.192089
 Sum of Mulliken charges =  -0.00000

 Dipole moment (field-independent basis, Debye):
    X=             -0.4338    Y=             -1.9986    Z=             -0.0000  Tot=              2.0451

 Test job not archived.
 1\1\GINC-SE055\SP\RHF\Aug-CC-pVDZ\C9H10O3\OHZDE\05-Apr-2025\0\\#t hf a
 ug-cc-pvdz iop(5/13=1,5/36=2,99/5=2) pseudo=read geom=check guess=(rea
 d,tcheck) scf=(maxcycle=1)\\title\\0,1\C,0,1.21275,-0.008767,0.\C,0,-1
 .191217,-0.059999,0.\C,0,1.253899,-1.395528,0.\C,0,-1.163891,-1.439772
 ,0.\C,0,0.,0.676566,0.\C,0,0.05938,-2.119086,0.\C,0,0.029615,2.157734,
 0.\C,0,1.187057,-4.229322,0.\C,0,-1.258011,4.136065,0.\O,0,1.03763,2.8
 27599,0.\O,0,-0.016913,-3.47356,0.\O,0,-1.208484,2.702078,0.\H,0,2.130
 57,0.561741,0.\H,0,-2.138564,0.457542,0.\H,0,2.208636,-1.897967,0.\H,0

 Normal termination of Gaussian 16 at Sat Apr  5 23:11:31 2025.
