 Gaussian 16, Revision C.01,

 ----------------------------------------------------------------------
 #t hf aug-cc-pvdz symm=none int=(grid=ultrafine) guess=(read,tcheck) s
 table=(opt,rrhf)
 ----------------------------------------------------------------------
 -----
 title
 -----
 Symbolic Z-matrix:
 Charge =  0 Multiplicity = 1

 SCF Done:  E(RHF) =  -358.607910763     A.U. after   14 cycles
 Normal termination of Gaussian 16 at Sat Apr  5 23:08:15 2025.
 Gaussian 16:  ES64L-G16RevC.01  3-Jul-2019

 ----------------------------------------------------------------------
 #t hf aug-cc-pvdz iop(5/13=1,5/36=2,99/5=2) pseudo=read geom=check gue
 ss=(read,tcheck) scf=(maxcycle=1)
 ----------------------------------------------------------------------
 -----
 title
 -----
 Structure from the checkpoint file:  "methyl-2-cyanoacetate.chk"
 Charge =  0 Multiplicity = 1

                         Standard orientation:
 ---------------------------------------------------------------------
 Center     Atomic      Atomic             Coordinates (Angstroms)
 Number     Number       Type             X           Y           Z
 ---------------------------------------------------------------------
      1          6           0       -0.309417   -2.118342    0.000000
      2          6           0        0.000000    0.358652    0.000000
      3          6           0        0.510900    2.662545    0.000000
      4          6           0        0.648260   -1.022919    0.000000
      5          7           0       -1.032586   -3.010338    0.000000
      6          8           0       -1.177335    0.583268    0.000000
      7          8           0        0.963845    1.293027    0.000000
      8          1           0        1.413065    3.264947    0.000000
      9          1           0       -0.085784    2.861008    0.887616
     10          1           0       -0.085784    2.861008   -0.887616
     11          1           0        1.298036   -1.102285    0.873564
     12          1           0        1.298036   -1.102285   -0.873564
 ---------------------------------------------------------------------

 SCF Done:  E(RHF) =  -358.963323846     A.U. after    2 cycles

 The electronic state is 1-A'.
 Alpha  occ. eigenvalues --  -20.61668 -20.56259 -15.52076 -11.42228 -11.31999
 Alpha  occ. eigenvalues --  -11.31629 -11.28978  -1.57150  -1.48118  -1.24342
 Alpha  occ. eigenvalues --   -1.10121  -0.99095  -0.82689  -0.75139  -0.73521
 Alpha  occ. eigenvalues --   -0.71265  -0.68160  -0.65513  -0.62268  -0.60549
 Alpha  occ. eigenvalues --   -0.56676  -0.55679  -0.51090  -0.50341  -0.48100
 Alpha  occ. eigenvalues --   -0.46973
 Alpha virt. eigenvalues --    0.02660   0.03638   0.04150   0.04889   0.06176
 Alpha virt. eigenvalues --    0.08092   0.08626   0.11429   0.11481   0.12521
 Alpha virt. eigenvalues --    0.13136   0.13217   0.14336   0.14927   0.15275

 Mulliken charges:
               1
     1  C   -1.423314
     2  C    1.997960
     3  C    0.242490
     4  C   -0.291806
     5  N    0.898461
     6  O   -1.135970
     7  O   -1.310880
     8  H    0.014570
     9  H    0.176011
    10  H    0.176011
    11  H    0.328234
    12  H    0.328234
 Sum of Mulliken charges =  -0.00000

 Dipole moment (field-independent basis, Debye):
    X=              4.6560    Y=              4.2562    Z=              0.0000  Tot=              6.3082

 Test job not archived.
 1\1\GINC-SE009\SP\RHF\Aug-CC-pVDZ\C4H5N1O2\OHZDE\05-Apr-2025\0\\#t hf
 aug-cc-pvdz iop(5/13=1,5/36=2,99/5=2) pseudo=read geom=check guess=(re
 ad,tcheck) scf=(maxcycle=1)\\title\\0,1\C,0,-0.309415,-2.118342,0.\C,0
 ,0.,0.358652,0.\C,0,0.510898,2.662545,0.\C,0,0.648261,-1.022919,0.\N,0
 ,-1.032584,-3.010339,0.\O,0,-1.177335,0.583267,0.\O,0,0.963844,1.29302
 7,0.\H,0,1.413063,3.264948,0.\H,0,-0.085786,2.861008,0.887616\H,0,-0.0
 85786,2.861008,-0.887616\H,0,1.298037,-1.102284,0.873564\H,0,1.298037,
 -1.102284,-0.873564\\Version=ES64L-G16RevC.01\State=1-A'\HF=-358.96332

 Normal termination of Gaussian 16 at Sat Apr  5 23:08:20 2025.
