 Gaussian 16, Revision C.01,

 ----------------------------------------------------------------------
 #t hf aug-cc-pvdz symm=none int=(grid=ultrafine) guess=(read,tcheck) s
 table=(opt,rrhf)
 ----------------------------------------------------------------------
 -----
 title
 -----
 Symbolic Z-matrix:
 Charge =  0 Multiplicity = 1

 SCF Done:  E(RHF) =  -515.804320056     A.U. after   12 cycles
 Normal termination of Gaussian 16 at Sat Apr  5 23:10:27 2025.
 Gaussian 16:  ES64L-G16RevC.01  3-Jul-2019

 ----------------------------------------------------------------------
 #t hf aug-cc-pvdz iop(5/13=1,5/36=2,99/5=2) pseudo=read geom=check gue
 ss=(read,tcheck) scf=(maxcycle=1)
 ----------------------------------------------------------------------
 -----
 title
 -----
 Structure from the checkpoint file:  "methylthioethane.chk"
 Charge =  0 Multiplicity = 1

                         Standard orientation:
 ---------------------------------------------------------------------
 Center     Atomic      Atomic             Coordinates (Angstroms)
 Number     Number       Type             X           Y           Z
 ---------------------------------------------------------------------
      1          6           0       -1.716415   -1.342580    0.000000
      2          6           0        1.817500    0.896420    0.000000
      3          6           0       -0.231871   -1.002452    0.000000
      4         16           0        0.000000    0.813744    0.000000
      5          1           0       -2.213283   -0.938659    0.882278
      6          1           0       -2.213283   -0.938659   -0.882278
      7          1           0       -1.855592   -2.424603    0.000000
      8          1           0        2.231538    0.426391    0.891139
      9          1           0        2.087879    1.950284    0.000000
     10          1           0        2.231538    0.426391   -0.891139
     11          1           0        0.257960   -1.414687   -0.883038
     12          1           0        0.257960   -1.414687    0.883038
 ---------------------------------------------------------------------

 SCF Done:  E(RHF) =  -516.000239315     A.U. after    2 cycles

 The electronic state is 1-A'.
 Alpha  occ. eigenvalues --  -93.93403 -11.26410 -11.26039 -11.23328  -8.21498
 Alpha  occ. eigenvalues --   -6.19326  -6.19171  -6.18946  -1.09227  -1.00776
 Alpha  occ. eigenvalues --   -0.88647  -0.80559  -0.63722  -0.60542  -0.59277
 Alpha  occ. eigenvalues --   -0.58748  -0.53758  -0.51341  -0.48380  -0.43413
 Alpha  occ. eigenvalues --   -0.34086
 Alpha virt. eigenvalues --    0.03710   0.03812   0.04568   0.04793   0.06347
 Alpha virt. eigenvalues --    0.06794   0.07417   0.08896   0.10645   0.12239
 Alpha virt. eigenvalues --    0.13990   0.14017   0.15808   0.16137   0.16457

 Mulliken charges:
               1
     1  C   -0.306200
     2  C   -0.674242
     3  C   -0.699098
     4  S    0.394187
     5  H    0.173315
     6  H    0.173315
     7  H    0.145911
     8  H    0.178865
     9  H    0.134374
    10  H    0.178865
    11  H    0.150353
    12  H    0.150353
 Sum of Mulliken charges =  -0.00000

 Dipole moment (field-independent basis, Debye):
    X=              1.1223    Y=             -1.4627    Z=             -0.0000  Tot=              1.8436

 Test job not archived.
 1\1\GINC-SE231\SP\RHF\Aug-CC-pVDZ\C3H8S1\OHZDE\05-Apr-2025\0\\#t hf au
 g-cc-pvdz iop(5/13=1,5/36=2,99/5=2) pseudo=read geom=check guess=(read
 ,tcheck) scf=(maxcycle=1)\\title\\0,1\C,0,-1.716415,-1.34258,0.\C,0,1.
 8175,0.89642,0.\C,0,-0.231871,-1.002452,0.\S,0,0.,0.813744,0.\H,0,-2.2
 13283,-0.938659,0.882278\H,0,-2.213283,-0.938659,-0.882278\H,0,-1.8555
 92,-2.424603,0.\H,0,2.231538,0.426391,0.891139\H,0,2.087879,1.950284,0
 .\H,0,2.231538,0.426391,-0.891139\H,0,0.25796,-1.414687,-0.883038\H,0,
 0.25796,-1.414687,0.883038\\Version=ES64L-G16RevC.01\State=1-A'\HF=-51

 Normal termination of Gaussian 16 at Sat Apr  5 23:10:31 2025.
