 Gaussian 16, Revision C.01,

 ----------------------------------------------------------------------
 #t hf aug-cc-pvdz symm=none int=(grid=ultrafine) guess=(read,tcheck) s
 table=(opt,rrhf)
 ----------------------------------------------------------------------
 -----
 title
 -----
 Symbolic Z-matrix:
 Charge =  0 Multiplicity = 1

 SCF Done:  E(RHF) =  -660.906473787     A.U. after   17 cycles
 Normal termination of Gaussian 16 at Sat Apr  5 23:11:24 2025.
 Gaussian 16:  ES64L-G16RevC.01  3-Jul-2019

 ----------------------------------------------------------------------
 #t hf aug-cc-pvdz iop(5/13=1,5/36=2,99/5=2) pseudo=read geom=check gue
 ss=(read,tcheck) scf=(maxcycle=1)
 ----------------------------------------------------------------------
 -----
 title
 -----
 Structure from the checkpoint file:  "methyl-4-nitrobenzoate.chk"
 Charge =  0 Multiplicity = 1

                         Standard orientation:
 ---------------------------------------------------------------------
 Center     Atomic      Atomic             Coordinates (Angstroms)
 Number     Number       Type             X           Y           Z
 ---------------------------------------------------------------------
      1          6           0       -1.286273    0.390991    0.000000
      2          6           0        1.112125    0.088865    0.000000
      3          6           0       -1.467836   -0.981974    0.000000
      4          6           0        0.942643   -1.286930    0.000000
      5          6           0        0.000000    0.932795    0.000000
      6          6           0       -0.346334   -1.799458    0.000000
      7          6           0        0.128280    2.421778    0.000000
      8          6           0        1.617644    4.250574    0.000000
      9          7           0       -0.530904   -3.266994    0.000000
     10          8           0       -0.811383    3.179716    0.000000
     11          8           0       -1.675584   -3.692985    0.000000
     12          8           0        0.472906   -3.963304    0.000000
     13          8           0        1.410358    2.826665    0.000000
     14          1           0       -2.134031    1.060043    0.000000
     15          1           0        2.105499    0.509823    0.000000
     16          1           0       -2.451989   -1.422851    0.000000
     17          1           0        1.785123   -1.960132    0.000000
     18          1           0        2.694123    4.387094    0.000000
     19          1           0        1.172868    4.697195    0.886917
     20          1           0        1.172868    4.697195   -0.886917
 ---------------------------------------------------------------------

 SCF Done:  E(RHF) =  -661.555986387     A.U. after    2 cycles

 The electronic state is 1-A'.
 Alpha  occ. eigenvalues --  -20.61010 -20.59830 -20.59807 -20.55350 -15.80094
 Alpha  occ. eigenvalues --  -11.41264 -11.32979 -11.31157 -11.29283 -11.28859
 Alpha  occ. eigenvalues --  -11.28775 -11.28541 -11.28254  -1.67999  -1.56438
 Alpha  occ. eigenvalues --   -1.51618  -1.47016  -1.21920  -1.12983  -1.06701
 Alpha  occ. eigenvalues --   -1.03034  -0.97728  -0.88929  -0.87638  -0.81823
 Alpha  occ. eigenvalues --   -0.80846  -0.76588  -0.75728  -0.75486  -0.70997
 Alpha  occ. eigenvalues --   -0.69208  -0.67514  -0.67124  -0.64763  -0.64057
 Alpha  occ. eigenvalues --   -0.59248  -0.58716  -0.55575  -0.54616  -0.54297
 Alpha  occ. eigenvalues --   -0.50689  -0.49557  -0.47514  -0.46759  -0.45842
 Alpha  occ. eigenvalues --   -0.39818  -0.38631
 Alpha virt. eigenvalues --    0.00507   0.02768   0.03546   0.03815   0.05228
 Alpha virt. eigenvalues --    0.05328   0.05748   0.07211   0.07774   0.08374
 Alpha virt. eigenvalues --    0.08880   0.09683   0.10436   0.11808   0.11842

 Mulliken charges:
               1
     1  C    0.068278
     2  C    0.291386
     3  C    0.283790
     4  C   -0.001643
     5  C    1.907285
     6  C   -0.534322
     7  C    1.331088
     8  C    0.203668
     9  N    3.022114
    10  O   -1.333934
    11  O   -1.480032
    12  O   -1.483426
    13  O   -1.559773
    14  H   -0.354033
    15  H   -0.298701
    16  H   -0.221063
    17  H   -0.230532
    18  H   -0.008040
    19  H    0.198945
    20  H    0.198945
 Sum of Mulliken charges =   0.00000

 Dipole moment (field-independent basis, Debye):
    X=              2.3549    Y=              3.9198    Z=              0.0000  Tot=              4.5728

 Test job not archived.
 1\1\GINC-SE145\SP\RHF\Aug-CC-pVDZ\C8H7N1O4\OHZDE\05-Apr-2025\0\\#t hf
 aug-cc-pvdz iop(5/13=1,5/36=2,99/5=2) pseudo=read geom=check guess=(re
 ad,tcheck) scf=(maxcycle=1)\\title\\0,1\C,0,-1.286273,0.390991,0.\C,0,
 1.112125,0.088865,0.\C,0,-1.467836,-0.981974,0.\C,0,0.942643,-1.28693,
 0.\C,0,0.,0.932795,0.\C,0,-0.346334,-1.799458,0.\C,0,0.12828,2.421778,
 0.\C,0,1.617644,4.250574,0.\N,0,-0.530904,-3.266994,0.\O,0,-0.811383,3
 .179716,0.\O,0,-1.675584,-3.692985,0.\O,0,0.472906,-3.963304,0.\O,0,1.
 410358,2.826665,0.\H,0,-2.134031,1.060043,0.\H,0,2.105499,0.509823,0.\

 Normal termination of Gaussian 16 at Sat Apr  5 23:12:34 2025.
