 Gaussian 16, Revision C.01,

 ----------------------------------------------------------------------
 #t hf aug-cc-pvdz symm=none int=(grid=ultrafine) guess=(read,tcheck) s
 table=(opt,rrhf)
 ----------------------------------------------------------------------
 -----
 title
 -----
 Symbolic Z-matrix:
 Charge =  0 Multiplicity = 1

 SCF Done:  E(RHF) =  -321.921262538     A.U. after   13 cycles
 Normal termination of Gaussian 16 at Sat Apr  5 23:08:26 2025.
 Gaussian 16:  ES64L-G16RevC.01  3-Jul-2019

 ----------------------------------------------------------------------
 #t hf aug-cc-pvdz iop(5/13=1,5/36=2,99/5=2) pseudo=read geom=check gue
 ss=(read,tcheck) scf=(maxcycle=1)
 ----------------------------------------------------------------------
 -----
 title
 -----
 Structure from the checkpoint file:  "methyl-N-methylcarbamate.chk"
 Charge =  0 Multiplicity = 1

                         Standard orientation:
 ---------------------------------------------------------------------
 Center     Atomic      Atomic             Coordinates (Angstroms)
 Number     Number       Type             X           Y           Z
 ---------------------------------------------------------------------
      1          6           0        0.017458    0.114976   -0.000014
      2          6           0       -2.442157   -0.010060    0.000035
      3          6           0        2.370388   -0.058037    0.000016
      4          7           0       -1.126195   -0.614338   -0.000060
      5          8           0        0.091274    1.325205   -0.000014
      6          8           0        1.096157   -0.714172    0.000010
      7          1           0       -2.316092    1.068892   -0.000449
      8          1           0       -3.008671   -0.296928    0.887756
      9          1           0       -3.009081   -0.297691   -0.887170
     10          1           0        2.483823    0.563324    0.886629
     11          1           0        2.483850    0.563286   -0.886620
     12          1           0        3.107408   -0.855675    0.000044
     13          1           0       -1.031457   -1.614379    0.000035
 ---------------------------------------------------------------------

 SCF Done:  E(RHF) =  -322.250358992     A.U. after    2 cycles

 The electronic state is 1-A.
 Alpha  occ. eigenvalues --  -20.58312 -20.51039 -15.52572 -11.40401 -11.29161
 Alpha  occ. eigenvalues --  -11.27097  -1.53553  -1.43877  -1.24255  -1.00159
 Alpha  occ. eigenvalues --   -0.93100  -0.82424  -0.75977  -0.69469  -0.68317
 Alpha  occ. eigenvalues --   -0.63838  -0.62694  -0.60208  -0.56136  -0.55517
 Alpha  occ. eigenvalues --   -0.53156  -0.45618  -0.44560  -0.42392
 Alpha virt. eigenvalues --    0.03310   0.04310   0.05166   0.05449   0.06109
 Alpha virt. eigenvalues --    0.06328   0.07093   0.10258   0.11366   0.13082
 Alpha virt. eigenvalues --    0.13490   0.14058   0.14600   0.16357   0.17177

 Mulliken charges:
               1
     1  C    1.082695
     2  C   -0.256903
     3  C    0.118557
     4  N    0.728254
     5  O   -1.067433
     6  O   -1.285300
     7  H    0.064243
     8  H    0.126845
     9  H    0.126748
    10  H    0.157686
    11  H    0.157687
    12  H   -0.017177
    13  H    0.064101
 Sum of Mulliken charges =   0.00000

 Dipole moment (field-independent basis, Debye):
    X=             -0.4008    Y=             -2.2960    Z=              0.0002  Tot=              2.3307

 Test job not archived.
 1\1\GINC-SE190\SP\RHF\Aug-CC-pVDZ\C3H7N1O2\OHZDE\05-Apr-2025\0\\#t hf
 aug-cc-pvdz iop(5/13=1,5/36=2,99/5=2) pseudo=read geom=check guess=(re
 ad,tcheck) scf=(maxcycle=1)\\title\\0,1\C,0,0.017458,0.114976,-0.00001
 4\C,0,-2.442157,-0.01006,0.000035\C,0,2.370388,-0.058037,0.000016\N,0,
 -1.126195,-0.614338,-0.00006\O,0,0.091274,1.325205,-0.000014\O,0,1.096
 157,-0.714172,0.00001\H,0,-2.316092,1.068892,-0.000449\H,0,-3.008671,-
 0.296928,0.887756\H,0,-3.009081,-0.297691,-0.88717\H,0,2.483823,0.5633
 24,0.886629\H,0,2.48385,0.563286,-0.88662\H,0,3.107408,-0.855675,0.000

 Normal termination of Gaussian 16 at Sat Apr  5 23:08:30 2025.
