 Gaussian 16, Revision C.01,

 ----------------------------------------------------------------------
 #t hf aug-cc-pvdz symm=none int=(grid=ultrafine) guess=(read,tcheck) s
 table=(opt,rrhf)
 ----------------------------------------------------------------------
 -----
 title
 -----
 Symbolic Z-matrix:
 Charge =  0 Multiplicity = 1

 SCF Done:  E(RHF) =  -667.292411693     A.U. after   15 cycles
 Normal termination of Gaussian 16 at Sat Apr  5 23:11:14 2025.
 Gaussian 16:  ES64L-G16RevC.01  3-Jul-2019

 ----------------------------------------------------------------------
 #t hf aug-cc-pvdz iop(5/13=1,5/36=2,99/5=2) pseudo=read geom=check gue
 ss=(read,tcheck) scf=(maxcycle=1)
 ----------------------------------------------------------------------
 -----
 title
 -----
 Structure from the checkpoint file:  "methylsulfanylbenzene.chk"
 Charge =  0 Multiplicity = 1

                         Standard orientation:
 ---------------------------------------------------------------------
 Center     Atomic      Atomic             Coordinates (Angstroms)
 Number     Number       Type             X           Y           Z
 ---------------------------------------------------------------------
      1          6           0        2.631509    0.344451    0.000050
      2          6           0        1.698472    1.371404   -0.000121
      3          6           0        2.188597   -0.975522    0.000179
      4          6           0        0.334547    1.093914   -0.000188
      5          6           0        0.832934   -1.262341    0.000136
      6          6           0       -0.109855   -0.227934   -0.000068
      7          6           0       -2.721440    0.856894    0.000405
      8         16           0       -1.818130   -0.717138   -0.000261
      9          1           0        3.689808    0.566132    0.000100
     10          1           0        2.026789    2.402640   -0.000214
     11          1           0        2.903178   -1.788083    0.000345
     12          1           0       -0.367984    1.913568   -0.000322
     13          1           0        0.498331   -2.291718    0.000281
     14          1           0       -2.506706    1.440121    0.893802
     15          1           0       -3.774965    0.585558    0.000442
     16          1           0       -2.506952    1.440801   -0.892611
 ---------------------------------------------------------------------

 SCF Done:  E(RHF) =  -667.634672879     A.U. after    2 cycles

 The electronic state is 1-A.
 Alpha  occ. eigenvalues --  -93.95312 -11.27816 -11.27162 -11.24758 -11.24691
 Alpha  occ. eigenvalues --  -11.24515 -11.24379 -11.24006  -8.23435  -6.21277
 Alpha  occ. eigenvalues --   -6.21094  -6.20878  -1.16917  -1.08766  -1.02383
 Alpha  occ. eigenvalues --   -1.00613  -0.89953  -0.84046  -0.80614  -0.71445
 Alpha  occ. eigenvalues --   -0.65301  -0.64152  -0.61888  -0.60626  -0.60126
 Alpha  occ. eigenvalues --   -0.55999  -0.52520  -0.51855  -0.50258  -0.45557
 Alpha  occ. eigenvalues --   -0.40942  -0.35216  -0.30688
 Alpha virt. eigenvalues --    0.03340   0.03438   0.03902   0.04876   0.05284
 Alpha virt. eigenvalues --    0.05486   0.07251   0.09141   0.09895   0.10291
 Alpha virt. eigenvalues --    0.10503   0.11315   0.12373   0.13723   0.13782

 Mulliken charges:
               1
     1  C   -0.033946
     2  C    0.460485
     3  C    0.520896
     4  C    0.105547
     5  C   -0.469649
     6  C    0.533907
     7  C   -0.719714
     8  S    0.344716
     9  H   -0.220654
    10  H   -0.233786
    11  H   -0.223697
    12  H   -0.392417
    13  H   -0.233780
    14  H    0.272043
    15  H    0.017869
    16  H    0.272182
 Sum of Mulliken charges =  -0.00000

 Dipole moment (field-independent basis, Debye):
    X=              0.0109    Y=              1.5249    Z=              0.0007  Tot=              1.5249

 Test job not archived.
 1\1\GINC-SE040\SP\RHF\Aug-CC-pVDZ\C7H8S1\OHZDE\05-Apr-2025\0\\#t hf au
 g-cc-pvdz iop(5/13=1,5/36=2,99/5=2) pseudo=read geom=check guess=(read
 ,tcheck) scf=(maxcycle=1)\\title\\0,1\C,0,2.631509,0.344451,0.00005\C,
 0,1.698472,1.371404,-0.000121\C,0,2.188597,-0.975522,0.000179\C,0,0.33
 4547,1.093914,-0.000188\C,0,0.832934,-1.262341,0.000136\C,0,-0.109855,
 -0.227934,-0.000068\C,0,-2.72144,0.856894,0.000405\S,0,-1.81813,-0.717
 138,-0.000261\H,0,3.689808,0.566132,0.0001\H,0,2.026789,2.40264,-0.000
 214\H,0,2.903178,-1.788083,0.000345\H,0,-0.367984,1.913568,-0.000322\H

 Normal termination of Gaussian 16 at Sat Apr  5 23:11:24 2025.
