 Gaussian 16, Revision C.01,

 ----------------------------------------------------------------------
 #t hf aug-cc-pvdz symm=none int=(grid=ultrafine) guess=(read,tcheck) s
 table=(opt,rrhf)
 ----------------------------------------------------------------------
 -----
 title
 -----
 Symbolic Z-matrix:
 Charge =  0 Multiplicity = 1

 SCF Done:  E(RHF) =  -665.476514252     A.U. after   13 cycles
 Normal termination of Gaussian 16 at Sat Apr  5 23:09:07 2025.
 Gaussian 16:  ES64L-G16RevC.01  3-Jul-2019

 ----------------------------------------------------------------------
 #t hf aug-cc-pvdz iop(5/13=1,5/36=2,99/5=2) pseudo=read geom=check gue
 ss=(read,tcheck) scf=(maxcycle=1)
 ----------------------------------------------------------------------
 -----
 title
 -----
 Structure from the checkpoint file:  "methylethylsulfone.chk"
 Charge =  0 Multiplicity = 1

                         Standard orientation:
 ---------------------------------------------------------------------
 Center     Atomic      Atomic             Coordinates (Angstroms)
 Number     Number       Type             X           Y           Z
 ---------------------------------------------------------------------
      1          6           0        2.288662    0.176351    0.057230
      2          6           0        1.130294   -0.527360   -0.632556
      3          6           0       -0.786688    1.583975   -0.306161
      4         16           0       -0.501180   -0.154526    0.071483
      5          8           0       -0.417269   -0.287283    1.523670
      6          8           0       -1.483277   -0.935076   -0.675425
      7          1           0        2.280785   -0.024085    1.126808
      8          1           0        3.231448   -0.185743   -0.353456
      9          1           0        2.258771    1.255472   -0.093143
     10          1           0        1.185809   -1.610963   -0.523095
     11          1           0        1.058079   -0.300708   -1.695857
     12          1           0       -0.772893    1.722266   -1.384003
     13          1           0       -1.774988    1.803771    0.091152
     14          1           0       -0.037380    2.193478    0.190821
 ---------------------------------------------------------------------

 SCF Done:  E(RHF) =  -665.821812801     A.U. after    2 cycles

 The electronic state is 1-A.
 Alpha  occ. eigenvalues --  -94.18348 -20.52837 -20.52782 -11.29168 -11.28835
 Alpha  occ. eigenvalues --  -11.25953  -8.43710  -6.41812  -6.41599  -6.41548
 Alpha  occ. eigenvalues --   -1.53983  -1.42239  -1.10721  -1.04309  -0.93001
 Alpha  occ. eigenvalues --   -0.81707  -0.69700  -0.68685  -0.66115  -0.64410
 Alpha  occ. eigenvalues --   -0.60965  -0.60467  -0.58858  -0.55927  -0.54004
 Alpha  occ. eigenvalues --   -0.48156  -0.48067  -0.45103  -0.42758
 Alpha virt. eigenvalues --    0.02642   0.03461   0.03934   0.04779   0.06163
 Alpha virt. eigenvalues --    0.06531   0.07185   0.08345   0.11386   0.11599
 Alpha virt. eigenvalues --    0.13256   0.14004   0.14386   0.14740   0.15535

 Mulliken charges:
               1
     1  C   -0.279582
     2  C   -0.790529
     3  C   -0.706508
     4  S    3.231738
     5  O   -1.560315
     6  O   -1.548776
     7  H    0.212190
     8  H    0.141838
     9  H    0.141290
    10  H    0.248644
    11  H    0.184734
    12  H    0.227144
    13  H    0.243816
    14  H    0.254316
 Sum of Mulliken charges =   0.00000

 Dipole moment (field-independent basis, Debye):
    X=              3.5071    Y=              3.2110    Z=             -2.3432  Tot=              5.3011

 Test job not archived.
 1\1\GINC-SE045\SP\RHF\Aug-CC-pVDZ\C3H8O2S1\OHZDE\05-Apr-2025\0\\#t hf
 aug-cc-pvdz iop(5/13=1,5/36=2,99/5=2) pseudo=read geom=check guess=(re
 ad,tcheck) scf=(maxcycle=1)\\title\\0,1\C,0,2.288662,0.176351,0.05723\
 C,0,1.130294,-0.52736,-0.632556\C,0,-0.786688,1.583975,-0.306161\S,0,-
 0.50118,-0.154526,0.071483\O,0,-0.417269,-0.287283,1.52367\O,0,-1.4832
 77,-0.935076,-0.675425\H,0,2.280785,-0.024085,1.126808\H,0,3.231448,-0
 .185743,-0.353456\H,0,2.258771,1.255472,-0.093143\H,0,1.185809,-1.6109
 63,-0.523095\H,0,1.058079,-0.300708,-1.695857\H,0,-0.772893,1.722266,-

 Normal termination of Gaussian 16 at Sat Apr  5 23:09:12 2025.
