 Gaussian 16, Revision C.01,

 ----------------------------------------------------------------------
 #t hf aug-cc-pvdz symm=none int=(grid=ultrafine) guess=(read,tcheck) s
 table=(opt,rrhf)
 ----------------------------------------------------------------------
 -----
 title
 -----
 Symbolic Z-matrix:
 Charge =  0 Multiplicity = 1

 SCF Done:  E(RHF) =  -797.525575471     A.U. after   14 cycles
 Normal termination of Gaussian 16 at Sat Apr  5 23:09:28 2025.
 Gaussian 16:  ES64L-G16RevC.01  3-Jul-2019

 ----------------------------------------------------------------------
 #t hf aug-cc-pvdz iop(5/13=1,5/36=2,99/5=2) pseudo=read geom=check gue
 ss=(read,tcheck) scf=(maxcycle=1)
 ----------------------------------------------------------------------
 -----
 title
 -----
 Structure from the checkpoint file:  "methionine.chk"
 Charge =  0 Multiplicity = 1

                         Standard orientation:
 ---------------------------------------------------------------------
 Center     Atomic      Atomic             Coordinates (Angstroms)
 Number     Number       Type             X           Y           Z
 ---------------------------------------------------------------------
      1          7           0        1.383360   -1.709403   -0.280672
      2          6           0        0.902676   -0.326707   -0.137165
      3          6           0        2.097848    0.644277   -0.084187
      4          8           0        1.986464    1.809740    0.191438
      5          8           0        3.270321    0.085065   -0.408810
      6          1           0        3.067922   -0.861838   -0.574079
      7          6           0       -0.045437   -0.081707    1.039348
      8          6           0       -1.394296   -0.791390    0.929264
      9         16           0       -2.401897   -0.377571   -0.542342
     10          6           0       -2.782880    1.376943   -0.230855
     11          1           0        0.370857   -0.069835   -1.056761
     12          1           0        0.441708   -0.411029    1.964287
     13          1           0       -0.185549    0.993103    1.140986
     14          1           0       -1.266805   -1.872991    0.865831
     15          1           0       -1.989980   -0.594509    1.821028
     16          1           0       -3.454759    1.689893   -1.027050
     17          1           0       -3.289548    1.495435    0.725679
     18          1           0       -1.889992    1.996927   -0.261114
     19          1           0        1.404146   -2.198452    0.605725
     20          1           0        0.817076   -2.246682   -0.921820
 ---------------------------------------------------------------------

 SCF Done:  E(RHF) =  -797.999462866     A.U. after    2 cycles

 The electronic state is 1-A.
 Alpha  occ. eigenvalues --  -93.95047 -20.58371 -20.52397 -15.52801 -11.38277
 Alpha  occ. eigenvalues --  -11.29716 -11.28177 -11.27015 -11.25676  -8.23110
 Alpha  occ. eigenvalues --   -6.20943  -6.20779  -6.20571  -1.53322  -1.44502
 Alpha  occ. eigenvalues --   -1.22615  -1.11127  -1.04141  -0.97416  -0.89772
 Alpha  occ. eigenvalues --   -0.81919  -0.80127  -0.76088  -0.72358  -0.68644
 Alpha  occ. eigenvalues --   -0.65212  -0.63533  -0.62185  -0.61723  -0.59590
 Alpha  occ. eigenvalues --   -0.58934  -0.56107  -0.53955  -0.53565  -0.49724
 Alpha  occ. eigenvalues --   -0.49196  -0.45866  -0.44502  -0.42325  -0.35786
 Alpha virt. eigenvalues --    0.02349   0.03235   0.03753   0.04582   0.05358
 Alpha virt. eigenvalues --    0.05830   0.06408   0.06763   0.07720   0.08386
 Alpha virt. eigenvalues --    0.09216   0.10667   0.11259   0.12072   0.12969

 Mulliken charges:
               1
     1  N    0.229888
     2  C   -1.899840
     3  C    2.565670
     4  O   -1.333240
     5  O   -1.349452
     6  H    0.490083
     7  C   -0.052088
     8  C   -0.399747
     9  S    0.434832
    10  C   -0.690912
    11  H    0.396126
    12  H    0.180534
    13  H    0.061878
    14  H    0.175489
    15  H    0.180817
    16  H    0.128006
    17  H    0.157671
    18  H    0.166562
    19  H    0.268978
    20  H    0.288746
 Sum of Mulliken charges =  -0.00000

 Dipole moment (field-independent basis, Debye):
    X=             -2.6816    Y=             -3.4677    Z=              1.1565  Tot=              4.5336

 Test job not archived.
 1\1\GINC-SE145\SP\RHF\Aug-CC-pVDZ\C5H11N1O2S1\OHZDE\05-Apr-2025\0\\#t
 hf aug-cc-pvdz iop(5/13=1,5/36=2,99/5=2) pseudo=read geom=check guess=
 (read,tcheck) scf=(maxcycle=1)\\title\\0,1\N,0,1.38336,-1.709403,-0.28
 0672\C,0,0.902676,-0.326707,-0.137165\C,0,2.097848,0.644277,-0.084187\
 O,0,1.986464,1.80974,0.191438\O,0,3.270321,0.085065,-0.40881\H,0,3.067
 922,-0.861838,-0.574079\C,0,-0.045437,-0.081707,1.039348\C,0,-1.394296
 ,-0.79139,0.929264\S,0,-2.401897,-0.377571,-0.542342\C,0,-2.78288,1.37
 6943,-0.230855\H,0,0.370857,-0.069835,-1.056761\H,0,0.441708,-0.411029

 Normal termination of Gaussian 16 at Sat Apr  5 23:10:29 2025.
