 Gaussian 16, Revision C.01,

 ----------------------------------------------------------------------
 #t hf aug-cc-pvdz symm=none int=(grid=ultrafine) guess=(read,tcheck) s
 table=(opt,rrhf)
 ----------------------------------------------------------------------
 -----
 title
 -----
 Symbolic Z-matrix:
 Charge =  0 Multiplicity = 1

 SCF Done:  E(RHF) =  -514.620383084     A.U. after   13 cycles
 Normal termination of Gaussian 16 at Sat Apr  5 23:10:29 2025.
 Gaussian 16:  ES64L-G16RevC.01  3-Jul-2019

 ----------------------------------------------------------------------
 #t hf aug-cc-pvdz iop(5/13=1,5/36=2,99/5=2) pseudo=read geom=check gue
 ss=(read,tcheck) scf=(maxcycle=1)
 ----------------------------------------------------------------------
 -----
 title
 -----
 Structure from the checkpoint file:  "methylthiirane.chk"
 Charge =  0 Multiplicity = 1

                         Standard orientation:
 ---------------------------------------------------------------------
 Center     Atomic      Atomic             Coordinates (Angstroms)
 Number     Number       Type             X           Y           Z
 ---------------------------------------------------------------------
      1          6           0       -1.779558   -0.307747   -0.176939
      2          6           0       -0.520387    0.167305    0.499192
      3          6           0        0.364858    1.153255   -0.152316
      4         16           0        1.096395   -0.525749   -0.053924
      5          1           0       -1.640106   -0.377917   -1.255255
      6          1           0       -2.077985   -1.288840    0.191938
      7          1           0       -2.597663    0.389956    0.023094
      8          1           0       -0.579906    0.234408    1.579077
      9          1           0        0.109461    1.476866   -1.153106
     10          1           0        0.854404    1.900623    0.457404
 ---------------------------------------------------------------------

 SCF Done:  E(RHF) =  -514.808406911     A.U. after    2 cycles

 The electronic state is 1-A.
 Alpha  occ. eigenvalues --  -93.93349 -11.28918 -11.28119 -11.24198  -8.21435
 Alpha  occ. eigenvalues --   -6.19253  -6.19045  -6.18822  -1.16437  -0.98718
 Alpha  occ. eigenvalues --   -0.85465  -0.80301  -0.67579  -0.61818  -0.58715
 Alpha  occ. eigenvalues --   -0.55634  -0.53020  -0.44030  -0.41797  -0.34988
 Alpha virt. eigenvalues --    0.03473   0.03990   0.04210   0.05388   0.06543
 Alpha virt. eigenvalues --    0.07470   0.08216   0.10709   0.12678   0.12911
 Alpha virt. eigenvalues --    0.14538   0.15085   0.15537   0.16093   0.16466

 Mulliken charges:
               1
     1  C   -0.539808
     2  C   -0.136779
     3  C    0.073358
     4  S    0.161374
     5  H    0.150186
     6  H    0.187454
     7  H    0.214715
     8  H   -0.079391
     9  H   -0.008917
    10  H   -0.022192
 Sum of Mulliken charges =  -0.00000

 Dipole moment (field-independent basis, Debye):
    X=             -1.9156    Y=              1.5666    Z=              0.3113  Tot=              2.4942

 Test job not archived.
 1\1\GINC-SE108\SP\RHF\Aug-CC-pVDZ\C3H6S1\OHZDE\05-Apr-2025\0\\#t hf au
 g-cc-pvdz iop(5/13=1,5/36=2,99/5=2) pseudo=read geom=check guess=(read
 ,tcheck) scf=(maxcycle=1)\\title\\0,1\C,0,-1.779558,-0.307747,-0.17693
 9\C,0,-0.520387,0.167305,0.499192\C,0,0.364858,1.153255,-0.152316\S,0,
 1.096395,-0.525749,-0.053924\H,0,-1.640106,-0.377917,-1.255255\H,0,-2.
 077985,-1.28884,0.191938\H,0,-2.597663,0.389956,0.023094\H,0,-0.579906
 ,0.234408,1.579077\H,0,0.109461,1.476866,-1.153106\H,0,0.854404,1.9006
 23,0.457404\\Version=ES64L-G16RevC.01\State=1-A\HF=-514.8084069\RMSD=9

 Normal termination of Gaussian 16 at Sat Apr  5 23:10:34 2025.
