 Gaussian 16, Revision C.01,

 ----------------------------------------------------------------------
 #t hf aug-cc-pvdz symm=none int=(grid=ultrafine) guess=(read,tcheck) s
 table=(opt,rrhf)
 ----------------------------------------------------------------------
 -----
 title
 -----
 Symbolic Z-matrix:
 Charge =  0 Multiplicity = 1

 SCF Done:  E(RHF) =  -266.872970421     A.U. after   13 cycles
 Normal termination of Gaussian 16 at Sat Apr  5 23:08:19 2025.
 Gaussian 16:  ES64L-G16RevC.01  3-Jul-2019

 ----------------------------------------------------------------------
 #t hf aug-cc-pvdz iop(5/13=1,5/36=2,99/5=2) pseudo=read geom=check gue
 ss=(read,tcheck) scf=(maxcycle=1)
 ----------------------------------------------------------------------
 -----
 title
 -----
 Structure from the checkpoint file:  "methyl_acetate.chk"
 Charge =  0 Multiplicity = 1

                         Standard orientation:
 ---------------------------------------------------------------------
 Center     Atomic      Atomic             Coordinates (Angstroms)
 Number     Number       Type             X           Y           Z
 ---------------------------------------------------------------------
      1          6           0        0.000000    0.495796    0.000000
      2          6           0       -1.126166    1.493825    0.000000
      3          6           0        0.518397   -1.810474    0.000000
      4          8           0        1.175144    0.763556    0.000000
      5          8           0       -0.472599   -0.769316    0.000000
      6          1           0       -1.754646    1.346302    0.878098
      7          1           0       -1.754646    1.346302   -0.878098
      8          1           0       -0.719073    2.499833    0.000000
      9          1           0        1.146150   -1.739249   -0.886325
     10          1           0       -0.037679   -2.742743    0.000000
     11          1           0        1.146150   -1.739249    0.886325
 ---------------------------------------------------------------------

 SCF Done:  E(RHF) =  -267.145237826     A.U. after    2 cycles

 The electronic state is 1-A'.
 Alpha  occ. eigenvalues --  -20.58882 -20.53286 -11.38853 -11.29564 -11.25112
 Alpha  occ. eigenvalues --   -1.54138  -1.44857  -1.04124  -0.95074  -0.78496
 Alpha  occ. eigenvalues --   -0.70071  -0.68092  -0.67801  -0.60016  -0.59637
 Alpha  occ. eigenvalues --   -0.56665  -0.52843  -0.52663  -0.45519  -0.44137
 Alpha virt. eigenvalues --    0.03558   0.04237   0.05074   0.05377   0.06539
 Alpha virt. eigenvalues --    0.06937   0.08967   0.12880   0.13532   0.13969
 Alpha virt. eigenvalues --    0.14623   0.15459   0.16013   0.16284   0.16506

 Mulliken charges:
               1
     1  C    1.844316
     2  C   -0.649092
     3  C    0.310066
     4  O   -1.166845
     5  O   -1.271474
     6  H    0.220214
     7  H    0.220214
     8  H    0.179647
     9  H    0.154636
    10  H    0.003683
    11  H    0.154636
 Sum of Mulliken charges =   0.00000

 Dipole moment (field-independent basis, Debye):
    X=             -1.7715    Y=             -0.9460    Z=              0.0000  Tot=              2.0082

 Test job not archived.
 1\1\GINC-SE180\SP\RHF\Aug-CC-pVDZ\C3H6O2\OHZDE\05-Apr-2025\0\\#t hf au
 g-cc-pvdz iop(5/13=1,5/36=2,99/5=2) pseudo=read geom=check guess=(read
 ,tcheck) scf=(maxcycle=1)\\title\\0,1\C,0,0.,0.495796,0.\C,0,-1.126166
 ,1.493825,0.\C,0,0.518397,-1.810474,0.\O,0,1.175144,0.763556,0.\O,0,-0
 .472599,-0.769316,0.\H,0,-1.754646,1.346302,0.878098\H,0,-1.754646,1.3
 46302,-0.878098\H,0,-0.719073,2.499833,0.\H,0,1.14615,-1.739249,-0.886
 325\H,0,-0.037679,-2.742743,0.\H,0,1.14615,-1.739249,0.886325\\Version
 =ES64L-G16RevC.01\State=1-A'\HF=-267.1452378\RMSD=1.007e-02\Dipole=-0.

 Normal termination of Gaussian 16 at Sat Apr  5 23:08:23 2025.
