 Gaussian 16, Revision C.01,

 ----------------------------------------------------------------------
 #t hf aug-cc-pvdz symm=none int=(grid=ultrafine) guess=(read,tcheck) s
 table=(opt,rrhf)
 ----------------------------------------------------------------------
 -----
 title
 -----
 Symbolic Z-matrix:
 Charge =  0 Multiplicity = 1

 SCF Done:  E(RHF) =  -94.0473977591     A.U. after   11 cycles
 Normal termination of Gaussian 16 at Sat Apr  5 23:07:26 2025.
 Gaussian 16:  ES64L-G16RevC.01  3-Jul-2019

 ----------------------------------------------------------------------
 #t hf aug-cc-pvdz iop(5/13=1,5/36=2,99/5=2) pseudo=read geom=check gue
 ss=(read,tcheck) scf=(maxcycle=1)
 ----------------------------------------------------------------------
 -----
 title
 -----
 Structure from the checkpoint file:  "methanimine.chk"
 Charge =  0 Multiplicity = 1

                         Standard orientation:
 ---------------------------------------------------------------------
 Center     Atomic      Atomic             Coordinates (Angstroms)
 Number     Number       Type             X           Y           Z
 ---------------------------------------------------------------------
      1          6           0        0.056004    0.583317    0.000000
      2          7           0        0.056004   -0.680483    0.000000
      3          1           0       -0.843040    1.205928    0.000000
      4          1           0        1.009028    1.110493    0.000000
      5          1           0       -0.894042   -1.052940    0.000000
 ---------------------------------------------------------------------

 SCF Done:  E(RHF) =  -94.1457124533     A.U. after    2 cycles

 The electronic state is 1-A'.
 Alpha  occ. eigenvalues --  -15.50685 -11.29403  -1.21777  -0.85803  -0.71483
 Alpha  occ. eigenvalues --   -0.63400  -0.48391  -0.46490
 Alpha virt. eigenvalues --    0.03429   0.05231   0.05568   0.07849   0.10703
 Alpha virt. eigenvalues --    0.14495   0.16077   0.16294   0.19443   0.20690
 Alpha virt. eigenvalues --    0.22375   0.25015   0.30213   0.31966   0.32664

 Mulliken charges:
               1
     1  C   -0.505419
     2  N    0.342420
     3  H    0.051686
     4  H    0.032892
     5  H    0.078420
 Sum of Mulliken charges =  -0.00000

 Dipole moment (field-independent basis, Debye):
    X=             -1.4788    Y=              1.9975    Z=              0.0000  Tot=              2.4853

 Test job not archived.
 1\1\GINC-SE042\SP\RHF\Aug-CC-pVDZ\C1H3N1\OHZDE\05-Apr-2025\0\\#t hf au
 g-cc-pvdz iop(5/13=1,5/36=2,99/5=2) pseudo=read geom=check guess=(read
 ,tcheck) scf=(maxcycle=1)\\title\\0,1\C,0,0.056004,0.583317,0.\N,0,0.0
 56004,-0.680483,0.\H,0,-0.84304,1.205928,0.\H,0,1.009028,1.110493,0.\H
 ,0,-0.894042,-1.05294,0.\\Version=ES64L-G16RevC.01\State=1-A'\HF=-94.1
 457125\RMSD=1.551e-02\Dipole=-0.5818156,0.7858592,0.\Quadrupole=0.7930
 018,0.1667551,-0.9597569,1.618992,0.,0.\PG=CS [SG(C1H3N1)]\\@

 Normal termination of Gaussian 16 at Sat Apr  5 23:07:59 2025.
