 Gaussian 16, Revision C.01,

 ----------------------------------------------------------------------
 #t hf aug-cc-pvdz symm=none int=(grid=ultrafine) guess=(read,tcheck) s
 table=(opt,rrhf)
 ----------------------------------------------------------------------
 -----
 title
 -----
 Symbolic Z-matrix:
 Charge =  0 Multiplicity = 1

 SCF Done:  E(RHF) =  -1046.31253232     A.U. after   13 cycles
 Normal termination of Gaussian 16 at Sat Apr  5 23:08:05 2025.
 Gaussian 16:  ES64L-G16RevC.01  3-Jul-2019

 ----------------------------------------------------------------------
 #t hf aug-cc-pvdz iop(5/13=1,5/36=2,99/5=2) pseudo=read geom=check gue
 ss=(read,tcheck) scf=(maxcycle=1)
 ----------------------------------------------------------------------
 -----
 title
 -----
 Structure from the checkpoint file:  "methanesulfonyl_chloride.chk"
 Charge =  0 Multiplicity = 1

                         Standard orientation:
 ---------------------------------------------------------------------
 Center     Atomic      Atomic             Coordinates (Angstroms)
 Number     Number       Type             X           Y           Z
 ---------------------------------------------------------------------
      1          6           0        0.838039    1.595359    0.000000
      2          8           0        0.838039   -0.743500    1.259473
      3          8           0        0.838039   -0.743500   -1.259473
      4         16           0        0.445322   -0.156189    0.000000
      5         17           0       -1.666500   -0.052456    0.000000
      6          1           0        0.421587    2.033909    0.900953
      7          1           0        1.925327    1.646800    0.000000
      8          1           0        0.421587    2.033909   -0.900953
 ---------------------------------------------------------------------

 SCF Done:  E(RHF) =  -1046.64208106     A.U. after    2 cycles

 The electronic state is 1-A'.
 Alpha  occ. eigenvalues -- -105.60163 -94.25369 -20.58080 -20.58078 -11.32351
 Alpha  occ. eigenvalues --  -10.65018  -8.50356  -7.81931  -7.81511  -7.81494
 Alpha  occ. eigenvalues --   -6.48404  -6.48287  -6.48107  -1.59563  -1.47709
 Alpha  occ. eigenvalues --   -1.13037  -1.06140  -0.86842  -0.72531  -0.71158
 Alpha  occ. eigenvalues --   -0.69910  -0.64120  -0.63944  -0.54684  -0.53189
 Alpha  occ. eigenvalues --   -0.50877  -0.50087  -0.47967  -0.47606
 Alpha virt. eigenvalues --    0.02584   0.04702   0.04920   0.05781   0.08322
 Alpha virt. eigenvalues --    0.10391   0.11500   0.12096   0.13692   0.13814
 Alpha virt. eigenvalues --    0.15208   0.16814   0.17110   0.17401   0.19524

 Mulliken charges:
               1
     1  C   -0.758293
     2  O   -1.393776
     3  O   -1.393776
     4  S    2.959298
     5  Cl  -0.193481
     6  H    0.252321
     7  H    0.275387
     8  H    0.252321
 Sum of Mulliken charges =  -0.00000

 Dipole moment (field-independent basis, Debye):
    X=              0.3056    Y=              4.2578    Z=              0.0000  Tot=              4.2688

 Test job not archived.
 1\1\GINC-SE188\SP\RHF\Aug-CC-pVDZ\C1H3Cl1O2S1\OHZDE\05-Apr-2025\0\\#t
 hf aug-cc-pvdz iop(5/13=1,5/36=2,99/5=2) pseudo=read geom=check guess=
 (read,tcheck) scf=(maxcycle=1)\\title\\0,1\C,0,0.838039,1.595359,0.\O,
 0,0.838039,-0.7435,1.259473\O,0,0.838039,-0.7435,-1.259473\S,0,0.44532
 2,-0.156189,0.\Cl,0,-1.6665,-0.052456,0.\H,0,0.421587,2.033909,0.90095
 3\H,0,1.925327,1.6468,0.\H,0,0.421587,2.033909,-0.900953\\Version=ES64
 L-G16RevC.01\State=1-A'\HF=-1046.6420811\RMSD=7.090e-03\Dipole=0.12023
 72,1.6751605,0.\Quadrupole=0.953982,2.6130847,-3.5670667,3.2348927,0.,

 Normal termination of Gaussian 16 at Sat Apr  5 23:08:09 2025.
