 Gaussian 16, Revision C.01,

 ----------------------------------------------------------------------
 #t hf aug-cc-pvdz symm=none int=(grid=ultrafine) guess=(read,tcheck) s
 table=(opt,rrhf)
 ----------------------------------------------------------------------
 -----
 title
 -----
 Symbolic Z-matrix:
 Charge =  0 Multiplicity = 1

 SCF Done:  E(RHF) =  -149.110392815     A.U. after   13 cycles
 Normal termination of Gaussian 16 at Sat Apr  5 23:08:00 2025.
 Gaussian 16:  ES64L-G16RevC.01  3-Jul-2019

 ----------------------------------------------------------------------
 #t hf aug-cc-pvdz iop(5/13=1,5/36=2,99/5=2) pseudo=read geom=check gue
 ss=(read,tcheck) scf=(maxcycle=1)
 ----------------------------------------------------------------------
 -----
 title
 -----
 Structure from the checkpoint file:  "methanimidamide.chk"
 Charge =  0 Multiplicity = 1

                         Standard orientation:
 ---------------------------------------------------------------------
 Center     Atomic      Atomic             Coordinates (Angstroms)
 Number     Number       Type             X           Y           Z
 ---------------------------------------------------------------------
      1          6           0       -0.122869    0.390343   -0.000727
      2          7           0        1.132778   -0.147911   -0.053004
      3          7           0       -1.171312   -0.329822    0.010738
      4          1           0       -0.118022    1.483848   -0.004688
      5          1           0        1.919698    0.417616    0.206986
      6          1           0        1.214009   -1.140910    0.095135
      7          1           0       -2.008734    0.241521    0.002787
 ---------------------------------------------------------------------

 SCF Done:  E(RHF) =  -149.266419931     A.U. after    2 cycles

 The electronic state is 1-A.
 Alpha  occ. eigenvalues --  -15.51747 -15.46608 -11.32091  -1.25625  -1.15018
 Alpha  occ. eigenvalues --   -0.85289  -0.77696  -0.67498  -0.65733  -0.56223
 Alpha  occ. eigenvalues --   -0.46161  -0.41071
 Alpha virt. eigenvalues --    0.03035   0.04785   0.05515   0.06858   0.09949
 Alpha virt. eigenvalues --    0.11510   0.13675   0.15229   0.15583   0.17296
 Alpha virt. eigenvalues --    0.17615   0.20249   0.20923   0.22698   0.24277

 Mulliken charges:
               1
     1  C   -0.893624
     2  N    0.305392
     3  N    0.373997
     4  H   -0.093272
     5  H    0.116289
     6  H    0.050559
     7  H    0.140660
 Sum of Mulliken charges =  -0.00000

 Dipole moment (field-independent basis, Debye):
    X=              2.1193    Y=              2.2403    Z=              0.6369  Tot=              3.1490

 Test job not archived.
 1\1\GINC-SE187\SP\RHF\Aug-CC-pVDZ\C1H4N2\OHZDE\05-Apr-2025\0\\#t hf au
 g-cc-pvdz iop(5/13=1,5/36=2,99/5=2) pseudo=read geom=check guess=(read
 ,tcheck) scf=(maxcycle=1)\\title\\0,1\C,0,-0.122869,0.390343,-0.000727
 \N,0,1.132778,-0.147911,-0.053004\N,0,-1.171312,-0.329822,0.010738\H,0
 ,-0.118022,1.483848,-0.004688\H,0,1.919698,0.417616,0.206986\H,0,1.214
 009,-1.14091,0.095135\H,0,-2.008734,0.241521,0.002787\\Version=ES64L-G
 16RevC.01\State=1-A\HF=-149.2664199\RMSD=1.818e-02\Dipole=0.8337893,0.
 8814179,0.2505731\Quadrupole=1.8738683,0.5703294,-2.4441977,-2.1655601

 Normal termination of Gaussian 16 at Sat Apr  5 23:08:02 2025.
