 Gaussian 16, Revision C.01,

 ----------------------------------------------------------------------
 #t hf aug-cc-pvdz symm=none int=(grid=ultrafine) guess=(read,tcheck) s
 table=(opt,rrhf)
 ----------------------------------------------------------------------
 -----
 title
 -----
 Symbolic Z-matrix:
 Charge =  0 Multiplicity = 1

 SCF Done:  E(RHF) =  -95.2307704496     A.U. after   11 cycles
 Normal termination of Gaussian 16 at Sat Apr  5 23:08:42 2025.
 Gaussian 16:  ES64L-G16RevC.01  3-Jul-2019

 ----------------------------------------------------------------------
 #t hf aug-cc-pvdz iop(5/13=1,5/36=2,99/5=2) pseudo=read geom=check gue
 ss=(read,tcheck) scf=(maxcycle=1)
 ----------------------------------------------------------------------
 -----
 title
 -----
 Structure from the checkpoint file:  "methylamine.chk"
 Charge =  0 Multiplicity = 1

                         Standard orientation:
 ---------------------------------------------------------------------
 Center     Atomic      Atomic             Coordinates (Angstroms)
 Number     Number       Type             X           Y           Z
 ---------------------------------------------------------------------
      1          6           0       -0.048962    0.706625   -0.000000
      2          7           0       -0.048962   -0.757428    0.000000
      3          1           0        0.945026    1.171177   -0.000000
      4          1           0       -0.587216    1.065175    0.877567
      5          1           0       -0.587216    1.065175   -0.877567
      6          1           0        0.432957   -1.119643    0.812861
      7          1           0        0.432957   -1.119643   -0.812861
 ---------------------------------------------------------------------

 SCF Done:  E(RHF) =  -95.3388749114     A.U. after    2 cycles

 The electronic state is 1-A'.
 Alpha  occ. eigenvalues --  -15.48167 -11.25130  -1.16901  -0.90537  -0.69233
 Alpha  occ. eigenvalues --   -0.62833  -0.57968  -0.53138  -0.42599
 Alpha virt. eigenvalues --    0.03515   0.05260   0.05601   0.05854   0.07620
 Alpha virt. eigenvalues --    0.11155   0.14596   0.15533   0.16526   0.17291
 Alpha virt. eigenvalues --    0.19619   0.21493   0.26624   0.28969   0.29350

 Mulliken charges:
               1
     1  C   -0.462655
     2  N    0.003740
     3  H    0.105777
     4  H    0.080799
     5  H    0.080799
     6  H    0.095770
     7  H    0.095770
 Sum of Mulliken charges =  -0.00000

 Dipole moment (field-independent basis, Debye):
    X=              1.3529    Y=              0.4647    Z=              0.0000  Tot=              1.4305

 Test job not archived.
 1\1\GINC-SE146\SP\RHF\Aug-CC-pVDZ\C1H5N1\OHZDE\05-Apr-2025\0\\#t hf au
 g-cc-pvdz iop(5/13=1,5/36=2,99/5=2) pseudo=read geom=check guess=(read
 ,tcheck) scf=(maxcycle=1)\\title\\0,1\C,0,-0.048962,0.706625,0.\N,0,-0
 .048962,-0.757428,0.\H,0,0.945026,1.171177,0.\H,0,-0.587216,1.065175,0
 .877567\H,0,-0.587216,1.065175,-0.877567\H,0,0.432957,-1.119643,0.8128
 61\H,0,0.432957,-1.119643,-0.812861\\Version=ES64L-G16RevC.01\State=1-
 A'\HF=-95.3388749\RMSD=9.967e-03\Dipole=0.5322766,0.1828364,0.\Quadrup
 ole=-0.8501241,-0.1714925,1.0216166,-1.6339245,0.,0.\PG=CS [SG(C1H1N1)

 Normal termination of Gaussian 16 at Sat Apr  5 23:08:44 2025.
