 Gaussian 16, Revision C.01,

 ----------------------------------------------------------------------
 #t hf aug-cc-pvdz symm=none int=(grid=ultrafine) guess=(read,tcheck) s
 table=(opt,rrhf)
 ----------------------------------------------------------------------
 -----
 title
 -----
 Symbolic Z-matrix:
 Charge =  0 Multiplicity = 1

 SCF Done:  E(RHF) =  -243.704573039     A.U. after   14 cycles
 Normal termination of Gaussian 16 at Sat Apr  5 23:08:50 2025.
 Gaussian 16:  ES64L-G16RevC.01  3-Jul-2019

 ----------------------------------------------------------------------
 #t hf aug-cc-pvdz iop(5/13=1,5/36=2,99/5=2) pseudo=read geom=check gue
 ss=(read,tcheck) scf=(maxcycle=1)
 ----------------------------------------------------------------------
 -----
 title
 -----
 Structure from the checkpoint file:  "methylnitrite.chk"
 Charge =  0 Multiplicity = 1

                         Standard orientation:
 ---------------------------------------------------------------------
 Center     Atomic      Atomic             Coordinates (Angstroms)
 Number     Number       Type             X           Y           Z
 ---------------------------------------------------------------------
      1          6           0        1.328264    0.334723    0.000000
      2          8           0        0.000000    0.884876    0.000000
      3          1           0        1.983497    1.199685    0.000000
      4          1           0        1.493655   -0.273528    0.888518
      5          1           0        1.493655   -0.273528   -0.888518
      6          7           0       -1.045924   -0.048758    0.000000
      7          8           0       -0.702365   -1.174834    0.000000
 ---------------------------------------------------------------------

 SCF Done:  E(RHF) =  -243.942645554     A.U. after    2 cycles

 The electronic state is 1-A'.
 Alpha  occ. eigenvalues --  -20.63986 -20.61933 -15.72617 -11.30632  -1.67692
 Alpha  occ. eigenvalues --   -1.49792  -1.03796  -0.89694  -0.78149  -0.74762
 Alpha  occ. eigenvalues --   -0.71660  -0.61377  -0.61087  -0.55601  -0.48142
 Alpha  occ. eigenvalues --   -0.46478
 Alpha virt. eigenvalues --    0.03674   0.05323   0.05603   0.07071   0.08374
 Alpha virt. eigenvalues --    0.13912   0.14040   0.15216   0.15701   0.17258
 Alpha virt. eigenvalues --    0.18075   0.20026   0.23243   0.24708   0.25495

 Mulliken charges:
               1
     1  C    0.276764
     2  O   -1.279990
     3  H    0.019769
     4  H    0.157387
     5  H    0.157387
     6  N    1.599148
     7  O   -0.930465
 Sum of Mulliken charges =   0.00000

 Dipole moment (field-independent basis, Debye):
    X=              2.3750    Y=             -0.1505    Z=              0.0000  Tot=              2.3798

 Test job not archived.
 1\1\GINC-SE108\SP\RHF\Aug-CC-pVDZ\C1H3N1O2\OHZDE\05-Apr-2025\0\\#t hf
 aug-cc-pvdz iop(5/13=1,5/36=2,99/5=2) pseudo=read geom=check guess=(re
 ad,tcheck) scf=(maxcycle=1)\\title\\0,1\C,0,1.328264,0.334723,0.\O,0,0
 .,0.884876,0.\H,0,1.983497,1.199685,0.\H,0,1.493655,-0.273528,0.888518
 \H,0,1.493655,-0.273528,-0.888518\N,0,-1.045924,-0.048758,0.\O,0,-0.70
 2365,-1.174834,0.\\Version=ES64L-G16RevC.01\State=1-A'\HF=-243.9426456
 \RMSD=1.262e-02\Dipole=0.9343951,-0.0592251,0.\Quadrupole=0.9029825,-1
 .4574093,0.5544268,0.570022,0.,0.\PG=CS [SG(C1H1N1O2),X(H2)]\\@

 Normal termination of Gaussian 16 at Sat Apr  5 23:08:53 2025.
