 Gaussian 16, Revision C.01,

 ----------------------------------------------------------------------
 #t hf aug-cc-pvdz symm=none int=(grid=ultrafine) guess=(read,tcheck) s
 table=(opt,rrhf)
 ----------------------------------------------------------------------
 -----
 title
 -----
 Symbolic Z-matrix:
 Charge =  0 Multiplicity = 1

 SCF Done:  E(RHF) =  -563.473214843     A.U. after   13 cycles
 Normal termination of Gaussian 16 at Sat Apr  5 23:10:36 2025.
 Gaussian 16:  ES64L-G16RevC.01  3-Jul-2019

 ----------------------------------------------------------------------
 #t hf aug-cc-pvdz iop(5/13=1,5/36=2,99/5=2) pseudo=read geom=check gue
 ss=(read,tcheck) scf=(maxcycle=1)
 ----------------------------------------------------------------------
 -----
 title
 -----
 Structure from the checkpoint file:  "methyltrifluoroacetate.chk"
 Charge =  0 Multiplicity = 1

                         Standard orientation:
 ---------------------------------------------------------------------
 Center     Atomic      Atomic             Coordinates (Angstroms)
 Number     Number       Type             X           Y           Z
 ---------------------------------------------------------------------
      1          6           0        0.050669    0.624607    0.000000
      2          6           0       -1.855094    2.001586    0.000000
      3          6           0        0.511832   -0.857791    0.000000
      4          8           0        0.811982    1.547940    0.000000
      5          8           0       -1.275222    0.677957    0.000000
      6          9           0        0.050669   -1.497770    1.087625
      7          9           0        0.050669   -1.497770   -1.087625
      8          9           0        1.840087   -0.932253    0.000000
      9          1           0       -1.541783    2.544186    0.888968
     10          1           0       -2.927775    1.844167    0.000000
     11          1           0       -1.541783    2.544186   -0.888968
 ---------------------------------------------------------------------

 SCF Done:  E(RHF) =  -564.002952573     A.U. after    2 cycles

 The electronic state is 1-A'.
 Alpha  occ. eigenvalues --  -26.52339 -26.52336 -26.52082 -20.62888 -20.58069
 Alpha  occ. eigenvalues --  -11.54490 -11.43628 -11.32412  -1.73370  -1.63187
 Alpha  occ. eigenvalues --   -1.63067  -1.58566  -1.49818  -1.05799  -0.97619
 Alpha  occ. eigenvalues --   -0.88022  -0.82855  -0.82753  -0.80395  -0.72105
 Alpha  occ. eigenvalues --   -0.71697  -0.69679  -0.68945  -0.68373  -0.65234
 Alpha  occ. eigenvalues --   -0.65167  -0.63420  -0.60673  -0.58688  -0.56163
 Alpha  occ. eigenvalues --   -0.49033  -0.48572
 Alpha virt. eigenvalues --    0.03083   0.05086   0.05236   0.07335   0.08592
 Alpha virt. eigenvalues --    0.10061   0.10622   0.13122   0.13189   0.13298
 Alpha virt. eigenvalues --    0.14870   0.14887   0.15181   0.17090   0.18538

 Mulliken charges:
               1
     1  C    1.169044
     2  C    0.213944
     3  C    2.647756
     4  O   -1.054551
     5  O   -1.153295
     6  F   -0.716697
     7  F   -0.716697
     8  F   -0.752755
     9  H    0.172571
    10  H    0.018111
    11  H    0.172571
 Sum of Mulliken charges =  -0.00000

 Dipole moment (field-independent basis, Debye):
    X=             -2.6609    Y=              1.5087    Z=             -0.0000  Tot=              3.0588

 Test job not archived.
 1\1\GINC-SE231\SP\RHF\Aug-CC-pVDZ\C3H3F3O2\OHZDE\05-Apr-2025\0\\#t hf
 aug-cc-pvdz iop(5/13=1,5/36=2,99/5=2) pseudo=read geom=check guess=(re
 ad,tcheck) scf=(maxcycle=1)\\title\\0,1\C,0,0.050669,0.624607,0.\C,0,-
 1.855094,2.001586,0.\C,0,0.511832,-0.857791,0.\O,0,0.811982,1.54794,0.
 \O,0,-1.275222,0.677957,0.\F,0,0.050669,-1.49777,1.087625\F,0,0.050669
 ,-1.49777,-1.087625\F,0,1.840087,-0.932253,0.\H,0,-1.541783,2.544186,0
 .888968\H,0,-2.927775,1.844167,0.\H,0,-1.541783,2.544186,-0.888968\\Ve
 rsion=ES64L-G16RevC.01\State=1-A'\HF=-564.0029526\RMSD=7.102e-03\Dipol

 Normal termination of Gaussian 16 at Sat Apr  5 23:10:41 2025.
