 Gaussian 16, Revision C.01,

 ----------------------------------------------------------------------
 #t hf aug-cc-pvdz symm=none int=(grid=ultrafine) guess=(read,tcheck) s
 table=(opt,rrhf)
 ----------------------------------------------------------------------
 -----
 title
 -----
 Symbolic Z-matrix:
 Charge =  0 Multiplicity = 1

 SCF Done:  E(RHF) =  -1019.88540975     A.U. after   15 cycles
 Normal termination of Gaussian 16 at Sat Apr  5 23:08:24 2025.
 Gaussian 16:  ES64L-G16RevC.01  3-Jul-2019

 ----------------------------------------------------------------------
 #t hf aug-cc-pvdz iop(5/13=1,5/36=2,99/5=2) pseudo=read geom=check gue
 ss=(read,tcheck) scf=(maxcycle=1)
 ----------------------------------------------------------------------
 -----
 title
 -----
 Structure from the checkpoint file:  "methyl-N-cyanocarbamodithioate.chk"
 Charge =  0 Multiplicity = 1

                         Standard orientation:
 ---------------------------------------------------------------------
 Center     Atomic      Atomic             Coordinates (Angstroms)
 Number     Number       Type             X           Y           Z
 ---------------------------------------------------------------------
      1         16           0       -0.076910    1.429668   -0.296124
      2         16           0       -2.320711   -0.430993    0.003087
      3          7           0        0.165443   -1.221447    0.348448
      4          7           0        2.533504   -1.512398   -0.373747
      5          6           0       -0.698146   -0.166641    0.047913
      6          6           0        1.601581    1.576806    0.424261
      7          6           0        1.436784   -1.360874   -0.047466
      8          1           0        2.364170    1.136292   -0.207540
      9          1           0        1.754502    2.651750    0.498792
     10          1           0        1.630210    1.146822    1.421550
     11          1           0       -0.320891   -2.072484    0.604643
 ---------------------------------------------------------------------

 SCF Done:  E(RHF) =  -1020.22718231     A.U. after    2 cycles

 The electronic state is 1-A.
 Alpha  occ. eigenvalues --  -94.00311 -93.93942 -15.62173 -15.54045 -11.41967
 Alpha  occ. eigenvalues --  -11.34529 -11.29780  -8.28423  -8.22231  -6.26243
 Alpha  occ. eigenvalues --   -6.26017  -6.25838  -6.20078  -6.19788  -6.19643
 Alpha  occ. eigenvalues --   -1.35370  -1.25461  -1.14541  -1.07011  -0.94377
 Alpha  occ. eigenvalues --   -0.91334  -0.84992  -0.68572  -0.67252  -0.64013
 Alpha  occ. eigenvalues --   -0.63293  -0.61993  -0.55340  -0.53624  -0.52988
 Alpha  occ. eigenvalues --   -0.49396  -0.44323  -0.37919  -0.36227
 Alpha virt. eigenvalues --    0.02599   0.02949   0.03750   0.04830   0.06158
 Alpha virt. eigenvalues --    0.07361   0.08089   0.09287   0.09836   0.11237
 Alpha virt. eigenvalues --    0.12015   0.12185   0.12917   0.13289   0.14353

 Mulliken charges:
               1
     1  S    0.813881
     2  S    0.259579
     3  N    0.622685
     4  N    0.853066
     5  C   -1.310973
     6  C   -0.777198
     7  C   -1.356865
     8  H    0.343760
     9  H    0.079496
    10  H    0.227691
    11  H    0.244878
 Sum of Mulliken charges =  -0.00000

 Dipole moment (field-independent basis, Debye):
    X=              0.3933    Y=              1.0528    Z=              1.8224  Tot=              2.1411

 Test job not archived.
 1\1\GINC-SE185\SP\RHF\Aug-CC-pVDZ\C3H4N2S2\OHZDE\05-Apr-2025\0\\#t hf
 aug-cc-pvdz iop(5/13=1,5/36=2,99/5=2) pseudo=read geom=check guess=(re
 ad,tcheck) scf=(maxcycle=1)\\title\\0,1\S,0,-0.076909,1.429668,-0.2961
 24\S,0,-2.320711,-0.430992,0.003087\N,0,0.165442,-1.221447,0.348448\N,
 0,2.533503,-1.512399,-0.373747\C,0,-0.698146,-0.16664,0.047913\C,0,1.6
 01582,1.576805,0.424261\C,0,1.436783,-1.360875,-0.047466\H,0,2.364171,
 1.136291,-0.20754\H,0,1.754503,2.651749,0.498792\H,0,1.630211,1.146821
 ,1.42155\H,0,-0.320892,-2.072484,0.604643\\Version=ES64L-G16RevC.01\St

 Normal termination of Gaussian 16 at Sat Apr  5 23:08:29 2025.
