 Gaussian 16, Revision C.01,

 ----------------------------------------------------------------------
 #t hf aug-cc-pvdz symm=none int=(grid=ultrafine) guess=(read,tcheck) s
 table=(opt,rrhf)
 ----------------------------------------------------------------------
 -----
 title
 -----
 Symbolic Z-matrix:
 Charge =  0 Multiplicity = 1

 SCF Done:  E(RHF) =  -725.789048226     A.U. after   13 cycles
 Normal termination of Gaussian 16 at Sat Apr  5 23:08:08 2025.
 Gaussian 16:  ES64L-G16RevC.01  3-Jul-2019

 ----------------------------------------------------------------------
 #t hf aug-cc-pvdz iop(5/13=1,5/36=2,99/5=2) pseudo=read geom=check gue
 ss=(read,tcheck) scf=(maxcycle=1)
 ----------------------------------------------------------------------
 -----
 title
 -----
 Structure from the checkpoint file:  "methyl-2-chloroacetate.chk"
 Charge =  0 Multiplicity = 1

                         Standard orientation:
 ---------------------------------------------------------------------
 Center     Atomic      Atomic             Coordinates (Angstroms)
 Number     Number       Type             X           Y           Z
 ---------------------------------------------------------------------
      1          6           0        0.000000    0.466246    0.000000
      2          6           0       -0.565796    2.760319    0.000000
      3          6           0       -0.633002   -0.915121    0.000000
      4          8           0        1.170077    0.724321    0.000000
      5          8           0       -0.987371    1.382600    0.000000
      6         17           0        0.569256   -2.233268    0.000000
      7          1           0        0.026697    2.973494    0.887304
      8          1           0       -1.480709    3.343662    0.000000
      9          1           0        0.026697    2.973494   -0.887304
     10          1           0       -1.259449   -1.024561   -0.881342
     11          1           0       -1.259449   -1.024561    0.881342
 ---------------------------------------------------------------------

 SCF Done:  E(RHF) =  -726.133059222     A.U. after    2 cycles

 The electronic state is 1-A'.
 Alpha  occ. eigenvalues -- -105.56750 -20.60623 -20.55105 -11.40816 -11.32843
 Alpha  occ. eigenvalues --  -11.30870 -10.61546  -7.78504  -7.78096  -7.78093
 Alpha  occ. eigenvalues --   -1.55994  -1.46941  -1.12751  -1.01289  -0.92896
 Alpha  occ. eigenvalues --   -0.79656  -0.73125  -0.70261  -0.69321  -0.64540
 Alpha  occ. eigenvalues --   -0.61724  -0.56727  -0.55504  -0.54640  -0.47234
 Alpha  occ. eigenvalues --   -0.46745  -0.45342  -0.45259
 Alpha virt. eigenvalues --    0.03132   0.04224   0.04675   0.05286   0.06542
 Alpha virt. eigenvalues --    0.08468   0.09052   0.12542   0.13025   0.13643
 Alpha virt. eigenvalues --    0.13943   0.14336   0.15141   0.16097   0.16605

 Mulliken charges:
               1
     1  C    1.992382
     2  C    0.259527
     3  C   -0.910644
     4  O   -1.111629
     5  O   -1.263561
     6  Cl   0.043850
     7  H    0.166525
     8  H    0.010568
     9  H    0.166525
    10  H    0.323229
    11  H    0.323229
 Sum of Mulliken charges =  -0.00000

 Dipole moment (field-independent basis, Debye):
    X=             -3.0300    Y=              2.0138    Z=              0.0000  Tot=              3.6382

 Test job not archived.
 1\1\GINC-SE010\SP\RHF\Aug-CC-pVDZ\C3H5Cl1O2\OHZDE\05-Apr-2025\0\\#t hf
  aug-cc-pvdz iop(5/13=1,5/36=2,99/5=2) pseudo=read geom=check guess=(r
 ead,tcheck) scf=(maxcycle=1)\\title\\0,1\C,0,0.,0.466246,0.\C,0,-0.565
 797,2.760319,0.\C,0,-0.633002,-0.915121,0.\O,0,1.170077,0.724321,0.\O,
 0,-0.987371,1.3826,0.\Cl,0,0.569257,-2.233268,0.\H,0,0.026696,2.973494
 ,0.887304\H,0,-1.48071,3.343662,0.\H,0,0.026696,2.973494,-0.887304\H,0
 ,-1.259449,-1.024561,-0.881342\H,0,-1.259449,-1.024561,0.881342\\Versi
 on=ES64L-G16RevC.01\State=1-A'\HF=-726.1330592\RMSD=9.388e-03\Dipole=-

 Normal termination of Gaussian 16 at Sat Apr  5 23:08:12 2025.
