 Gaussian 16, Revision C.01,

 ----------------------------------------------------------------------
 #t hf aug-cc-pvdz symm=none int=(grid=ultrafine) guess=(read,tcheck) s
 table=(opt,rrhf)
 ----------------------------------------------------------------------
 -----
 title
 -----
 Symbolic Z-matrix:
 Charge =  0 Multiplicity = 1

 SCF Done:  E(RHF) =  -281.601631074     A.U. after   14 cycles
 Normal termination of Gaussian 16 at Sat Apr  5 23:08:04 2025.
 Gaussian 16:  ES64L-G16RevC.01  3-Jul-2019

 ----------------------------------------------------------------------
 #t hf aug-cc-pvdz iop(5/13=1,5/36=2,99/5=2) pseudo=read geom=check gue
 ss=(read,tcheck) scf=(maxcycle=1)
 ----------------------------------------------------------------------
 -----
 title
 -----
 Structure from the checkpoint file:  "methoxyiminomethanone.chk"
 Charge =  0 Multiplicity = 1

                         Standard orientation:
 ---------------------------------------------------------------------
 Center     Atomic      Atomic             Coordinates (Angstroms)
 Number     Number       Type             X           Y           Z
 ---------------------------------------------------------------------
      1          8           0       -0.918919    0.545512   -0.000017
      2          8           0        2.432931    0.084775    0.000018
      3          7           0        0.106029   -0.423845   -0.000029
      4          6           0       -2.173941   -0.133816    0.000020
      5          6           0        1.278201   -0.072865   -0.000002
      6          1           0       -2.914348    0.662738    0.000020
      7          1           0       -2.282738   -0.749000    0.894011
      8          1           0       -2.282772   -0.749032   -0.893944
 ---------------------------------------------------------------------

 SCF Done:  E(RHF) =  -281.880082421     A.U. after    2 cycles

 The electronic state is 1-A.
 Alpha  occ. eigenvalues --  -20.62534 -20.62507 -15.57665 -11.42724 -11.30526
 Alpha  occ. eigenvalues --   -1.56729  -1.52744  -1.24051  -0.95470  -0.79530
 Alpha  occ. eigenvalues --   -0.74434  -0.70746  -0.69827  -0.64905  -0.61377
 Alpha  occ. eigenvalues --   -0.58148  -0.53791  -0.49404  -0.42028
 Alpha virt. eigenvalues --    0.03522   0.05142   0.05554   0.06604   0.09142
 Alpha virt. eigenvalues --    0.09873   0.10237   0.11441   0.13494   0.13924
 Alpha virt. eigenvalues --    0.15056   0.16927   0.19915   0.20245   0.21994

 Mulliken charges:
               1
     1  O   -1.237923
     2  O   -0.744801
     3  N    1.041235
     4  C    0.270507
     5  C    0.304151
     6  H    0.050607
     7  H    0.158111
     8  H    0.158113
 Sum of Mulliken charges =   0.00000

 Dipole moment (field-independent basis, Debye):
    X=             -2.1444    Y=              0.0568    Z=              0.0001  Tot=              2.1451

 Test job not archived.
 1\1\GINC-SE176\SP\RHF\Aug-CC-pVDZ\C2H3N1O2\OHZDE\05-Apr-2025\0\\#t hf
 aug-cc-pvdz iop(5/13=1,5/36=2,99/5=2) pseudo=read geom=check guess=(re
 ad,tcheck) scf=(maxcycle=1)\\title\\0,1\O,0,-0.918919,0.545512,-0.0000
 17\O,0,2.432931,0.084775,0.000018\N,0,0.106029,-0.423845,-0.000029\C,0
 ,-2.173941,-0.133816,0.00002\C,0,1.278201,-0.072865,-0.000002\H,0,-2.9
 14348,0.662738,0.00002\H,0,-2.282738,-0.749,0.894011\H,0,-2.282772,-0.
 749032,-0.893944\\Version=ES64L-G16RevC.01\State=1-A\HF=-281.8800824\R
 MSD=1.089e-02\Dipole=-0.8436623,0.0223412,0.0000279\Quadrupole=1.23838

 Normal termination of Gaussian 16 at Sat Apr  5 23:08:07 2025.
