 Gaussian 16, Revision C.01,

 ----------------------------------------------------------------------
 #t hf aug-cc-pvdz symm=none int=(grid=ultrafine) guess=(read,tcheck) s
 table=(opt,rrhf)
 ----------------------------------------------------------------------
 -----
 title
 -----
 Symbolic Z-matrix:
 Charge =  0 Multiplicity = 1

 SCF Done:  E(RHF) =  -928.173926870     A.U. after   14 cycles
 Normal termination of Gaussian 16 at Sat Apr  5 23:09:07 2025.
 Gaussian 16:  ES64L-G16RevC.01  3-Jul-2019

 ----------------------------------------------------------------------
 #t hf aug-cc-pvdz iop(5/13=1,5/36=2,99/5=2) pseudo=read geom=check gue
 ss=(read,tcheck) scf=(maxcycle=1)
 ----------------------------------------------------------------------
 -----
 title
 -----
 Structure from the checkpoint file:  "methylcarbamodithioic_acid.chk"
 Charge =  0 Multiplicity = 1

                         Standard orientation:
 ---------------------------------------------------------------------
 Center     Atomic      Atomic             Coordinates (Angstroms)
 Number     Number       Type             X           Y           Z
 ---------------------------------------------------------------------
      1          6           0        1.860208   -1.388426    0.000000
      2          7           0        1.300486   -0.046394    0.000000
      3          6           0        0.000000    0.288733    0.000000
      4         16           0       -0.535187    1.859700    0.000000
      5         16           0       -1.092712   -1.125087    0.000000
      6          1           0        1.555773   -1.946049    0.887371
      7          1           0        1.555773   -1.946049   -0.887371
      8          1           0        2.943735   -1.305923    0.000000
      9          1           0        1.930390    0.739868    0.000000
     10          1           0       -2.203937   -0.372747    0.000000
 ---------------------------------------------------------------------

 SCF Done:  E(RHF) =  -928.430801552     A.U. after    2 cycles

 The electronic state is 1-A'.
 Alpha  occ. eigenvalues --  -93.98833 -93.90049 -15.56346 -11.38758 -11.30111
 Alpha  occ. eigenvalues --   -8.27022  -8.18356  -6.24863  -6.24703  -6.24490
 Alpha  occ. eigenvalues --   -6.16237  -6.15894  -6.15802  -1.30048  -1.09952
 Alpha  occ. eigenvalues --   -1.02206  -0.95952  -0.84562  -0.71390  -0.66672
 Alpha  occ. eigenvalues --   -0.64421  -0.59584  -0.57035  -0.53946  -0.50128
 Alpha  occ. eigenvalues --   -0.42074  -0.34432  -0.33884
 Alpha virt. eigenvalues --    0.02725   0.04421   0.04899   0.05320   0.06098
 Alpha virt. eigenvalues --    0.07476   0.08065   0.08874   0.11334   0.12135
 Alpha virt. eigenvalues --    0.13600   0.14513   0.14756   0.16427   0.16620

 Mulliken charges:
               1
     1  C   -0.452074
     2  N    0.681033
     3  C   -1.333865
     4  S    0.126144
     5  S    0.052553
     6  H    0.185966
     7  H    0.185966
     8  H   -0.004710
     9  H    0.134364
    10  H    0.424622
 Sum of Mulliken charges =  -0.00000

 Dipole moment (field-independent basis, Debye):
    X=              2.3279    Y=             -3.4309    Z=              0.0000  Tot=              4.1461

 Test job not archived.
 1\1\GINC-SE188\SP\RHF\Aug-CC-pVDZ\C2H5N1S2\OHZDE\05-Apr-2025\0\\#t hf
 aug-cc-pvdz iop(5/13=1,5/36=2,99/5=2) pseudo=read geom=check guess=(re
 ad,tcheck) scf=(maxcycle=1)\\title\\0,1\C,0,1.860208,-1.388426,0.\N,0,
 1.300486,-0.046394,0.\C,0,0.,0.288733,0.\S,0,-0.535187,1.8597,0.\S,0,-
 1.092712,-1.125087,0.\H,0,1.555773,-1.946049,0.887371\H,0,1.555773,-1.
 946049,-0.887371\H,0,2.943735,-1.305923,0.\H,0,1.93039,0.739868,0.\H,0
 ,-2.203937,-0.372747,0.\\Version=ES64L-G16RevC.01\State=1-A'\HF=-928.4
 308016\RMSD=1.224e-02\Dipole=0.9158736,-1.3498225,0.\Quadrupole=6.3613

 Normal termination of Gaussian 16 at Sat Apr  5 23:10:22 2025.
