 Gaussian 16, Revision C.01,

 ----------------------------------------------------------------------
 #t hf aug-cc-pvdz symm=none int=(grid=ultrafine) guess=(read,tcheck) s
 table=(opt,rrhf)
 ----------------------------------------------------------------------
 -----
 title
 -----
 Symbolic Z-matrix:
 Charge =  0 Multiplicity = 1

 SCF Done:  E(RHF) =  -304.720867890     A.U. after   14 cycles
 Normal termination of Gaussian 16 at Sat Apr  5 23:09:00 2025.
 Gaussian 16:  ES64L-G16RevC.01  3-Jul-2019

 ----------------------------------------------------------------------
 #t hf aug-cc-pvdz iop(5/13=1,5/36=2,99/5=2) pseudo=read geom=check gue
 ss=(read,tcheck) scf=(maxcycle=1)
 ----------------------------------------------------------------------
 -----
 title
 -----
 Structure from the checkpoint file:  "methylester-2-propenoicacid.chk"
 Charge =  0 Multiplicity = 1

                         Standard orientation:
 ---------------------------------------------------------------------
 Center     Atomic      Atomic             Coordinates (Angstroms)
 Number     Number       Type             X           Y           Z
 ---------------------------------------------------------------------
      1          1           0        2.527151   -1.893202    0.000000
      2          1           0        2.462309   -0.342026    0.886291
      3          1           0        2.462309   -0.342026   -0.886291
      4          6           0        2.133453   -0.881674    0.000000
      5          8           0        0.704180   -1.022573    0.000000
      6          8           0        0.512477    1.224123    0.000000
      7          6           0        0.000000    0.130493    0.000000
      8          1           0       -1.752519   -1.187538    0.000000
      9          6           0       -1.456302   -0.147599    0.000000
     10          1           0       -3.407145    0.640282    0.000000
     11          1           0       -2.020477    1.871182    0.000000
     12          6           0       -2.344631    0.838934    0.000000
 ---------------------------------------------------------------------

 SCF Done:  E(RHF) =  -305.029318813     A.U. after    2 cycles

 The electronic state is 1-A'.
 Alpha  occ. eigenvalues --  -20.59076 -20.53062 -11.38952 -11.29558 -11.26797
 Alpha  occ. eigenvalues --  -11.25741  -1.54163  -1.44775  -1.08564  -0.98344
 Alpha  occ. eigenvalues --   -0.86155  -0.76715  -0.72307  -0.68257  -0.67199
 Alpha  occ. eigenvalues --   -0.63934  -0.59346  -0.55973  -0.55685  -0.52874
 Alpha  occ. eigenvalues --   -0.45658  -0.44449  -0.40247
 Alpha virt. eigenvalues --    0.03460   0.03862   0.04772   0.06080   0.06083
 Alpha virt. eigenvalues --    0.06356   0.07282   0.10671   0.12353   0.12815
 Alpha virt. eigenvalues --    0.13405   0.14014   0.14571   0.15744   0.15846

 Mulliken charges:
               1
     1  H    0.001931
     2  H    0.174833
     3  H    0.174833
     4  C    0.232412
     5  O   -1.339528
     6  O   -1.264370
     7  C    1.720121
     8  H   -0.241579
     9  C    0.712750
    10  H   -0.066203
    11  H   -0.044348
    12  C   -0.060851
 Sum of Mulliken charges =  -0.00000

 Dipole moment (field-independent basis, Debye):
    X=             -0.7158    Y=             -1.4951    Z=              0.0000  Tot=              1.6576

 Test job not archived.
 1\1\GINC-SE232\SP\RHF\Aug-CC-pVDZ\C4H6O2\OHZDE\05-Apr-2025\0\\#t hf au
 g-cc-pvdz iop(5/13=1,5/36=2,99/5=2) pseudo=read geom=check guess=(read
 ,tcheck) scf=(maxcycle=1)\\title\\0,1\H,0,2.52715,-1.893203,0.\H,0,2.4
 62309,-0.342027,0.886291\H,0,2.462309,-0.342027,-0.886291\C,0,2.133452
 ,-0.881675,0.\O,0,0.704179,-1.022573,0.\O,0,0.512478,1.224123,0.\C,0,0
 .,0.130493,0.\H,0,-1.75252,-1.187537,0.\C,0,-1.456302,-0.147598,0.\H,0
 ,-3.407145,0.640284,0.\H,0,-2.020476,1.871183,0.\C,0,-2.344631,0.83893
 5,0.\\Version=ES64L-G16RevC.01\State=1-A'\HF=-305.0293188\RMSD=1.487e-

 Normal termination of Gaussian 16 at Sat Apr  5 23:09:13 2025.
