 Gaussian 16, Revision C.01,

 ----------------------------------------------------------------------
 #t hf aug-cc-pvdz symm=none int=(grid=ultrafine) guess=(read,tcheck) s
 table=(opt,rrhf)
 ----------------------------------------------------------------------
 -----
 title
 -----
 Symbolic Z-matrix:
 Charge =  0 Multiplicity = 1

 SCF Done:  E(RHF) =  -926.991640766     A.U. after   15 cycles
 Normal termination of Gaussian 16 at Sat Apr  5 23:10:26 2025.
 Gaussian 16:  ES64L-G16RevC.01  3-Jul-2019

 ----------------------------------------------------------------------
 #t hf aug-cc-pvdz iop(5/13=1,5/36=2,99/5=2) pseudo=read geom=check gue
 ss=(read,tcheck) scf=(maxcycle=1)
 ----------------------------------------------------------------------
 -----
 title
 -----
 Structure from the checkpoint file:  "methylsulfanyl_thiocyanate.chk"
 Charge =  0 Multiplicity = 1

                         Standard orientation:
 ---------------------------------------------------------------------
 Center     Atomic      Atomic             Coordinates (Angstroms)
 Number     Number       Type             X           Y           Z
 ---------------------------------------------------------------------
      1         16           0       -1.181973   -0.258533   -0.605061
      2         16           0        0.526277   -0.912219    0.396167
      3          7           0        2.499926    1.048130   -0.266984
      4          6           0       -1.850452    1.006228    0.528769
      5          6           0        1.684030    0.266004   -0.023640
      6          1           0       -2.789196    1.324506    0.074977
      7          1           0       -1.175486    1.854944    0.595860
      8          1           0       -2.045134    0.582281    1.509582
 ---------------------------------------------------------------------

 SCF Done:  E(RHF) =  -927.242346897     A.U. after    2 cycles

 The electronic state is 1-A.
 Alpha  occ. eigenvalues --  -94.03930 -94.00954 -15.53210 -11.31023 -11.29683
 Alpha  occ. eigenvalues --   -8.31779  -8.28869  -6.29577  -6.29373  -6.29111
 Alpha  occ. eigenvalues --   -6.26675  -6.26437  -6.26203  -1.25080  -1.15207
 Alpha  occ. eigenvalues --   -1.04477  -0.89661  -0.69944  -0.63456  -0.62941
 Alpha  occ. eigenvalues --   -0.60824  -0.57904  -0.55944  -0.52640  -0.47547
 Alpha  occ. eigenvalues --   -0.41701  -0.40101
 Alpha virt. eigenvalues --    0.02859   0.03936   0.04706   0.05714   0.06236
 Alpha virt. eigenvalues --    0.08994   0.09988   0.11385   0.12000   0.12475
 Alpha virt. eigenvalues --    0.12927   0.14327   0.14645   0.15613   0.15783

 Mulliken charges:
               1
     1  S    0.173247
     2  S    0.390909
     3  N    0.613133
     4  C   -0.636326
     5  C   -1.181479
     6  H    0.195712
     7  H    0.231994
     8  H    0.212810
 Sum of Mulliken charges =  -0.00000

 Dipole moment (field-independent basis, Debye):
    X=             -4.3783    Y=             -0.8843    Z=              1.4991  Tot=              4.7116

 Test job not archived.
 1\1\GINC-SE014\SP\RHF\Aug-CC-pVDZ\C2H3N1S2\OHZDE\05-Apr-2025\0\\#t hf
 aug-cc-pvdz iop(5/13=1,5/36=2,99/5=2) pseudo=read geom=check guess=(re
 ad,tcheck) scf=(maxcycle=1)\\title\\0,1\S,0,-1.181973,-0.258533,-0.605
 061\S,0,0.526277,-0.912219,0.396167\N,0,2.499926,1.04813,-0.266984\C,0
 ,-1.850452,1.006228,0.528769\C,0,1.68403,0.266004,-0.02364\H,0,-2.7891
 96,1.324506,0.074977\H,0,-1.175486,1.854944,0.59586\H,0,-2.045134,0.58
 2281,1.509582\\Version=ES64L-G16RevC.01\State=1-A\HF=-927.2423469\RMSD
 =9.773e-03\Dipole=-1.7225718,-0.3479047,0.5897893\Quadrupole=-2.267492

 Normal termination of Gaussian 16 at Sat Apr  5 23:10:30 2025.
