 Gaussian 16, Revision C.01,

 ----------------------------------------------------------------------
 #t hf aug-cc-pvdz symm=none int=(grid=ultrafine) guess=(read,tcheck) s
 table=(opt,rrhf)
 ----------------------------------------------------------------------
 -----
 title
 -----
 Symbolic Z-matrix:
 Charge =  0 Multiplicity = 1

 SCF Done:  E(RHF) =  -318.522328754     A.U. after   15 cycles
 Normal termination of Gaussian 16 at Sat Apr  5 23:08:47 2025.
 Gaussian 16:  ES64L-G16RevC.01  3-Jul-2019

 ----------------------------------------------------------------------
 #t hf aug-cc-pvdz iop(5/13=1,5/36=2,99/5=2) pseudo=read geom=check gue
 ss=(read,tcheck) scf=(maxcycle=1)
 ----------------------------------------------------------------------
 -----
 title
 -----
 Structure from the checkpoint file:  "methyl_nitrate.chk"
 Charge =  0 Multiplicity = 1

                         Standard orientation:
 ---------------------------------------------------------------------
 Center     Atomic      Atomic             Coordinates (Angstroms)
 Number     Number       Type             X           Y           Z
 ---------------------------------------------------------------------
      1          7           0       -0.000000    0.625382    0.000000
      2          8           0       -1.204276    0.568235    0.000000
      3          8           0        0.724269    1.578295    0.000000
      4          8           0        0.708849   -0.603160    0.000000
      5          6           0       -0.143421   -1.760352    0.000000
      6          1           0        0.559744   -2.588769    0.000000
      7          1           0       -0.764976   -1.786875    0.892235
      8          1           0       -0.764976   -1.786875   -0.892235
 ---------------------------------------------------------------------

 SCF Done:  E(RHF) =  -318.831868068     A.U. after    2 cycles

 The electronic state is 1-A'.
 Alpha  occ. eigenvalues --  -20.65838 -20.62109 -20.61944 -15.86205 -11.32564
 Alpha  occ. eigenvalues --   -1.73926  -1.56356  -1.52738  -1.03963  -0.91090
 Alpha  occ. eigenvalues --   -0.83216  -0.81015  -0.79026  -0.66211  -0.66023
 Alpha  occ. eigenvalues --   -0.59934  -0.52521  -0.51664  -0.51249  -0.48284
 Alpha virt. eigenvalues --    0.03220   0.04965   0.05178   0.06750   0.07699
 Alpha virt. eigenvalues --    0.13172   0.13273   0.14581   0.15077   0.16657
 Alpha virt. eigenvalues --    0.18479   0.19690   0.20815   0.21532   0.23621

 Mulliken charges:
               1
     1  N    2.734286
     2  O   -1.099124
     3  O   -1.095711
     4  O   -1.187115
     5  C    0.278871
     6  H    0.032369
     7  H    0.168212
     8  H    0.168212
 Sum of Mulliken charges =  -0.00000

 Dipole moment (field-independent basis, Debye):
    X=             -0.4089    Y=             -3.4205    Z=             -0.0000  Tot=              3.4448

 Test job not archived.
 1\1\GINC-SE009\SP\RHF\Aug-CC-pVDZ\C1H3N1O3\OHZDE\05-Apr-2025\0\\#t hf
 aug-cc-pvdz iop(5/13=1,5/36=2,99/5=2) pseudo=read geom=check guess=(re
 ad,tcheck) scf=(maxcycle=1)\\title\\0,1\N,0,0.,0.625382,0.\O,0,-1.2042
 76,0.568235,0.\O,0,0.724269,1.578295,0.\O,0,0.708849,-0.60316,0.\C,0,-
 0.143421,-1.760352,0.\H,0,0.559744,-2.588769,0.\H,0,-0.764976,-1.78687
 5,0.892235\H,0,-0.764976,-1.786875,-0.892235\\Version=ES64L-G16RevC.01
 \State=1-A'\HF=-318.8318681\RMSD=1.531e-02\Dipole=-0.1608627,-1.345725
 5,0.\Quadrupole=-2.2908558,1.7412762,0.5495796,0.2067899,0.,0.\PG=CS [

 Normal termination of Gaussian 16 at Sat Apr  5 23:08:49 2025.
