 Gaussian 16, Revision C.01,

 ----------------------------------------------------------------------
 #t hf aug-cc-pvdz symm=none int=(grid=ultrafine) guess=(read,tcheck) s
 table=(opt,rrhf)
 ----------------------------------------------------------------------
 -----
 title
 -----
 Symbolic Z-matrix:
 Charge =  0 Multiplicity = 1

 SCF Done:  E(RHF) =  -263.057642681     A.U. after   13 cycles
 Normal termination of Gaussian 16 at Sat Apr  5 23:10:28 2025.
 Gaussian 16:  ES64L-G16RevC.01  3-Jul-2019

 ----------------------------------------------------------------------
 #t hf aug-cc-pvdz iop(5/13=1,5/36=2,99/5=2) pseudo=read geom=check gue
 ss=(read,tcheck) scf=(maxcycle=1)
 ----------------------------------------------------------------------
 -----
 title
 -----
 Structure from the checkpoint file:  "methylurea.chk"
 Charge =  0 Multiplicity = 1

                         Standard orientation:
 ---------------------------------------------------------------------
 Center     Atomic      Atomic             Coordinates (Angstroms)
 Number     Number       Type             X           Y           Z
 ---------------------------------------------------------------------
      1          6           0       -1.883880    0.052683    0.051156
      2          1           0       -2.056506    0.749901   -0.773592
      3          1           0       -2.696495   -0.669693    0.034127
      4          1           0       -1.939587    0.605039    0.992852
      5          1           0       -0.628998   -1.659843   -0.030177
      6          7           0       -0.629825   -0.657566   -0.098325
      7          6           0        0.625516   -0.112385   -0.011604
      8          1           0       -0.085368    1.818229   -0.316218
      9          1           0        1.594033    1.648111   -0.085107
     10          7           0        0.672759    1.267776    0.047964
     11          8           0        1.632821   -0.800625    0.036666
 ---------------------------------------------------------------------

 SCF Done:  E(RHF) =  -263.329095464     A.U. after    2 cycles

 The electronic state is 1-A.
 Alpha  occ. eigenvalues --  -20.49095 -15.52280 -15.52095 -11.37870 -11.28726
 Alpha  occ. eigenvalues --   -1.45155  -1.25575  -1.19310  -0.97863  -0.85345
 Alpha  occ. eigenvalues --   -0.77656  -0.71098  -0.68390  -0.65847  -0.60520
 Alpha  occ. eigenvalues --   -0.58193  -0.57663  -0.46328  -0.43184  -0.41192
 Alpha virt. eigenvalues --    0.02762   0.03925   0.04871   0.05173   0.06087
 Alpha virt. eigenvalues --    0.07935   0.09991   0.11536   0.13176   0.13271
 Alpha virt. eigenvalues --    0.14098   0.15049   0.16426   0.17663   0.18360

 Mulliken charges:
               1
     1  C   -0.471997
     2  H    0.169890
     3  H   -0.028819
     4  H    0.179448
     5  H    0.233157
     6  N    0.466865
     7  C    0.036343
     8  H    0.019542
     9  H    0.209440
    10  N    0.371501
    11  O   -1.185370
 Sum of Mulliken charges =   0.00000

 Dipole moment (field-independent basis, Debye):
    X=             -3.8408    Y=              2.1890    Z=             -0.5883  Tot=              4.4597

 Test job not archived.
 1\1\GINC-SE211\SP\RHF\Aug-CC-pVDZ\C2H6N2O1\OHZDE\05-Apr-2025\0\\#t hf
 aug-cc-pvdz iop(5/13=1,5/36=2,99/5=2) pseudo=read geom=check guess=(re
 ad,tcheck) scf=(maxcycle=1)\\title\\0,1\C,0,-1.88388,0.052683,0.051156
 \H,0,-2.056506,0.749901,-0.773592\H,0,-2.696495,-0.669693,0.034127\H,0
 ,-1.939587,0.605039,0.992852\H,0,-0.628998,-1.659843,-0.030177\N,0,-0.
 629825,-0.657566,-0.098325\C,0,0.625516,-0.112385,-0.011604\H,0,-0.085
 368,1.818229,-0.316218\H,0,1.594033,1.648111,-0.085107\N,0,0.672759,1.
 267776,0.047964\O,0,1.632821,-0.800625,0.036666\\Version=ES64L-G16RevC

 Normal termination of Gaussian 16 at Sat Apr  5 23:10:32 2025.
