 Gaussian 16, Revision C.01,

 ----------------------------------------------------------------------
 #t hf aug-cc-pvdz symm=none int=(grid=ultrafine) guess=(read,tcheck) s
 table=(opt,rrhf)
 ----------------------------------------------------------------------
 -----
 title
 -----
 Symbolic Z-matrix:
 Charge =  0 Multiplicity = 1

 SCF Done:  E(RHF) =  -418.329754194     A.U. after   15 cycles
 Normal termination of Gaussian 16 at Sat Apr  5 23:09:33 2025.
 Gaussian 16:  ES64L-G16RevC.01  3-Jul-2019

 ----------------------------------------------------------------------
 #t hf aug-cc-pvdz iop(5/13=1,5/36=2,99/5=2) pseudo=read geom=check gue
 ss=(read,tcheck) scf=(maxcycle=1)
 ----------------------------------------------------------------------
 -----
 title
 -----
 Structure from the checkpoint file:  "methylbenzoquinone.chk"
 Charge =  0 Multiplicity = 1

                         Standard orientation:
 ---------------------------------------------------------------------
 Center     Atomic      Atomic             Coordinates (Angstroms)
 Number     Number       Type             X           Y           Z
 ---------------------------------------------------------------------
      1          6           0        0.157346    2.550685    0.000000
      2          6           0        0.000000    1.065125    0.000000
      3          6           0        1.254968    0.250008    0.000000
      4          6           0       -1.184685    0.435491    0.000000
      5          8           0        2.350763    0.783788    0.000000
      6          6           0        1.133424   -1.225777    0.000000
      7          6           0       -1.308516   -1.034538    0.000000
      8          6           0       -0.057139   -1.827836    0.000000
      9          8           0       -2.399405   -1.581506    0.000000
     10          1           0       -0.810637    3.047202    0.000000
     11          1           0        0.726761    2.875723    0.872072
     12          1           0        0.726761    2.875723   -0.872072
     13          1           0       -2.120792    0.980088    0.000000
     14          1           0        2.067297   -1.772322    0.000000
     15          1           0       -0.172634   -2.903622    0.000000
 ---------------------------------------------------------------------

 SCF Done:  E(RHF) =  -418.746523502     A.U. after    2 cycles

 The electronic state is 1-A'.
 Alpha  occ. eigenvalues --  -20.56735 -20.56123 -11.36680 -11.36265 -11.29298
 Alpha  occ. eigenvalues --  -11.28681 -11.28562 -11.27575 -11.25364  -1.49490
 Alpha  occ. eigenvalues --   -1.48724  -1.16905  -1.09504  -0.99745  -0.95184
 Alpha  occ. eigenvalues --   -0.86551  -0.82633  -0.73611  -0.71597  -0.68352
 Alpha  occ. eigenvalues --   -0.64091  -0.62652  -0.62010  -0.60832  -0.58147
 Alpha  occ. eigenvalues --   -0.57454  -0.56377  -0.54994  -0.45557  -0.43618
 Alpha  occ. eigenvalues --   -0.41733  -0.40297
 Alpha virt. eigenvalues --    0.00347   0.03277   0.03308   0.04273   0.05256
 Alpha virt. eigenvalues --    0.05275   0.06238   0.09858   0.10276   0.10544
 Alpha virt. eigenvalues --    0.11074   0.11220   0.12375   0.12757   0.13769

 Mulliken charges:
               1
     1  C   -0.821942
     2  C    0.545241
     3  C    0.856504
     4  C    1.006834
     5  O   -1.633799
     6  C    0.632800
     7  C    0.472734
     8  C    0.545998
     9  O   -1.479955
    10  H    0.080593
    11  H    0.243036
    12  H    0.243036
    13  H   -0.246890
    14  H   -0.235847
    15  H   -0.208342
 Sum of Mulliken charges =  -0.00000

 Dipole moment (field-independent basis, Debye):
    X=              0.4057    Y=              0.6942    Z=              0.0000  Tot=              0.8040

 Test job not archived.
 1\1\GINC-SE185\SP\RHF\Aug-CC-pVDZ\C7H6O2\OHZDE\05-Apr-2025\0\\#t hf au
 g-cc-pvdz iop(5/13=1,5/36=2,99/5=2) pseudo=read geom=check guess=(read
 ,tcheck) scf=(maxcycle=1)\\title\\0,1\C,0,0.157346,2.550685,0.\C,0,0.,
 1.065125,0.\C,0,1.254968,0.250008,0.\C,0,-1.184685,0.435491,0.\O,0,2.3
 50763,0.783788,0.\C,0,1.133424,-1.225777,0.\C,0,-1.308516,-1.034538,0.
 \C,0,-0.057139,-1.827836,0.\O,0,-2.399405,-1.581506,0.\H,0,-0.810637,3
 .047202,0.\H,0,0.726761,2.875723,0.872072\H,0,0.726761,2.875723,-0.872
 072\H,0,-2.120792,0.980088,0.\H,0,2.067297,-1.772322,0.\H,0,-0.172634,

 Normal termination of Gaussian 16 at Sat Apr  5 23:10:25 2025.
