 Gaussian 16, Revision C.01,

 ----------------------------------------------------------------------
 #t hf aug-cc-pvdz symm=none int=(grid=ultrafine) guess=(read,tcheck) s
 table=(opt,rrhf)
 ----------------------------------------------------------------------
 -----
 title
 -----
 Symbolic Z-matrix:
 Charge =  0 Multiplicity = 1

 SCF Done:  E(RHF) =  -189.944957295     A.U. after   11 cycles
 Normal termination of Gaussian 16 at Sat Apr  5 23:08:02 2025.
 Gaussian 16:  ES64L-G16RevC.01  3-Jul-2019

 ----------------------------------------------------------------------
 #t hf aug-cc-pvdz iop(5/13=1,5/36=2,99/5=2) pseudo=read geom=check gue
 ss=(read,tcheck) scf=(maxcycle=1)
 ----------------------------------------------------------------------
 -----
 title
 -----
 Structure from the checkpoint file:  "methanediol.chk"
 Charge =  0 Multiplicity = 1

                         Standard orientation:
 ---------------------------------------------------------------------
 Center     Atomic      Atomic             Coordinates (Angstroms)
 Number     Number       Type             X           Y           Z
 ---------------------------------------------------------------------
      1          6           0        0.000000   -0.000000    0.529544
      2          8           0       -0.000000    1.174198   -0.247524
      3          8           0       -0.000000   -1.174198   -0.247524
      4          1           0       -0.891011   -0.071326    1.155757
      5          1           0        0.891011    0.071326    1.155757
      6          1           0       -0.812903    1.199741   -0.764202
      7          1           0        0.812903   -1.199741   -0.764202
 ---------------------------------------------------------------------

 SCF Done:  E(RHF) =  -190.138680330     A.U. after    2 cycles

 The electronic state is 1-A.
 Alpha  occ. eigenvalues --  -20.56032 -20.56031 -11.34409  -1.49732  -1.42850
 Alpha  occ. eigenvalues --   -0.92144  -0.75317  -0.66138  -0.64602  -0.61250
 Alpha  occ. eigenvalues --   -0.49900  -0.49016  -0.46094
 Alpha virt. eigenvalues --    0.03838   0.04614   0.04966   0.06601   0.11131
 Alpha virt. eigenvalues --    0.12478   0.15119   0.16856   0.20234   0.21242
 Alpha virt. eigenvalues --    0.21506   0.22297   0.24151   0.28148   0.31525

 Mulliken charges:
               1
     1  C    1.382817
     2  O   -1.023961
     3  O   -1.023961
     4  H    0.043702
     5  H    0.043702
     6  H    0.288851
     7  H    0.288851
 Sum of Mulliken charges =   0.00000

 Dipole moment (field-independent basis, Debye):
    X=             -0.0000    Y=              0.0000    Z=             -0.0310  Tot=              0.0310

 Test job not archived.
 1\1\GINC-SE180\SP\RHF\Aug-CC-pVDZ\C1H4O2\OHZDE\05-Apr-2025\0\\#t hf au
 g-cc-pvdz iop(5/13=1,5/36=2,99/5=2) pseudo=read geom=check guess=(read
 ,tcheck) scf=(maxcycle=1)\\title\\0,1\C,0,0.,0.,0.529544\O,0,0.,1.1741
 98,-0.247524\O,0,0.,-1.174198,-0.247524\H,0,-0.891011,-0.071326,1.1557
 57\H,0,0.891011,0.071326,1.155757\H,0,-0.812903,1.199741,-0.764202\H,0
 ,0.812903,-1.199741,-0.764202\\Version=ES64L-G16RevC.01\State=1-A\HF=-
 190.1386803\RMSD=7.469e-03\Dipole=0.,0.,-0.0121796\Quadrupole=2.002887
 1,-3.2562959,1.2534088,-2.6757943,0.,0.\PG=C02 [C2(C1),X(H4O2)]\\@

 Normal termination of Gaussian 16 at Sat Apr  5 23:08:03 2025.
