 Gaussian 16, Revision C.01,

 ----------------------------------------------------------------------
 #t hf aug-cc-pvdz symm=none int=(grid=ultrafine) guess=(read,tcheck) s
 table=(opt,rrhf)
 ----------------------------------------------------------------------
 -----
 title
 -----
 Symbolic Z-matrix:
 Charge =  0 Multiplicity = 1

 SCF Done:  E(RHF) =  -913.342221621     A.U. after   14 cycles
 Normal termination of Gaussian 16 at Sat Apr  5 23:08:59 2025.
 Gaussian 16:  ES64L-G16RevC.01  3-Jul-2019

 ----------------------------------------------------------------------
 #t hf aug-cc-pvdz iop(5/13=1,5/36=2,99/5=2) pseudo=read geom=check gue
 ss=(read,tcheck) scf=(maxcycle=1)
 ----------------------------------------------------------------------
 -----
 title
 -----
 Structure from the checkpoint file:  "methyldisulfanylethane.chk"
 Charge =  0 Multiplicity = 1

                         Standard orientation:
 ---------------------------------------------------------------------
 Center     Atomic      Atomic             Coordinates (Angstroms)
 Number     Number       Type             X           Y           Z
 ---------------------------------------------------------------------
      1          6           0       -2.888226    0.352672    0.043352
      2          6           0        2.230326    1.007436    0.361276
      3          6           0       -1.472280    0.450501   -0.510263
      4         16           0        1.475203   -0.449173   -0.449721
      5         16           0       -0.358677   -0.632636    0.485898
      6          1           0       -3.263170   -0.670018   -0.003336
      7          1           0       -2.934951    0.684419    1.080970
      8          1           0       -3.559094    0.983985   -0.541222
      9          1           0        1.664668    1.911244    0.149935
     10          1           0        3.229499    1.100849   -0.064440
     11          1           0        2.305148    0.847335    1.433383
     12          1           0       -1.100520    1.472025   -0.456081
     13          1           0       -1.424923    0.115456   -1.544229
 ---------------------------------------------------------------------

 SCF Done:  E(RHF) =  -913.598534474     A.U. after    2 cycles

 The electronic state is 1-A.
 Alpha  occ. eigenvalues --  -93.96654 -93.96311 -11.27215 -11.26893 -11.24099
 Alpha  occ. eigenvalues --   -8.24595  -8.24276  -6.22403  -6.22195  -6.22079
 Alpha  occ. eigenvalues --   -6.21970  -6.21869  -6.21651  -1.11489  -1.05288
 Alpha  occ. eigenvalues --   -0.96333  -0.86515  -0.80014  -0.64245  -0.61913
 Alpha  occ. eigenvalues --   -0.60340  -0.58880  -0.55326  -0.53121  -0.51589
 Alpha  occ. eigenvalues --   -0.48238  -0.44441  -0.36084  -0.35528
 Alpha virt. eigenvalues --    0.03477   0.03752   0.04419   0.04892   0.06157
 Alpha virt. eigenvalues --    0.06409   0.07151   0.08796   0.09370   0.10359
 Alpha virt. eigenvalues --    0.11933   0.13474   0.14169   0.14622   0.15150

 Mulliken charges:
               1
     1  C   -0.351712
     2  C   -0.685184
     3  C   -0.646908
     4  S    0.136808
     5  S    0.104524
     6  H    0.172843
     7  H    0.166031
     8  H    0.142713
     9  H    0.180771
    10  H    0.171048
    11  H    0.222324
    12  H    0.178486
    13  H    0.208255
 Sum of Mulliken charges =  -0.00000

 Dipole moment (field-independent basis, Debye):
    X=             -0.5704    Y=              2.3467    Z=             -0.1931  Tot=              2.4228

 Test job not archived.
 1\1\GINC-SE226\SP\RHF\Aug-CC-pVDZ\C3H8S2\OHZDE\05-Apr-2025\0\\#t hf au
 g-cc-pvdz iop(5/13=1,5/36=2,99/5=2) pseudo=read geom=check guess=(read
 ,tcheck) scf=(maxcycle=1)\\title\\0,1\C,0,-2.888226,0.352672,0.043352\
 C,0,2.230326,1.007436,0.361276\C,0,-1.47228,0.450501,-0.510263\S,0,1.4
 75203,-0.449173,-0.449721\S,0,-0.358677,-0.632636,0.485898\H,0,-3.2631
 7,-0.670018,-0.003336\H,0,-2.934951,0.684419,1.08097\H,0,-3.559094,0.9
 83985,-0.541222\H,0,1.664668,1.911244,0.149935\H,0,3.229499,1.100849,-
 0.06444\H,0,2.305148,0.847335,1.433383\H,0,-1.10052,1.472025,-0.456081

 Normal termination of Gaussian 16 at Sat Apr  5 23:09:16 2025.
