 Gaussian 16, Revision C.01,

 ----------------------------------------------------------------------
 #t hf aug-cc-pvdz symm=none int=(grid=ultrafine) guess=(read,tcheck) s
 table=(opt,rrhf)
 ----------------------------------------------------------------------
 -----
 title
 -----
 Symbolic Z-matrix:
 Charge =  0 Multiplicity = 1

 SCF Done:  E(RHF) =  -834.077082249     A.U. after   14 cycles
 Normal termination of Gaussian 16 at Sat Apr  5 23:08:01 2025.
 Gaussian 16:  ES64L-G16RevC.01  3-Jul-2019

 ----------------------------------------------------------------------
 #t hf aug-cc-pvdz iop(5/13=1,5/36=2,99/5=2) pseudo=read geom=check gue
 ss=(read,tcheck) scf=(maxcycle=1)
 ----------------------------------------------------------------------
 -----
 title
 -----
 Structure from the checkpoint file:  "methanedithioicacid.chk"
 Charge =  0 Multiplicity = 1

                         Standard orientation:
 ---------------------------------------------------------------------
 Center     Atomic      Atomic             Coordinates (Angstroms)
 Number     Number       Type             X           Y           Z
 ---------------------------------------------------------------------
      1         16           0       -1.379699   -0.462768   -0.000000
      2         16           0        1.542184    0.101951    0.000000
      3          6           0        0.000000    0.604111    0.000000
      4          1           0       -0.264368    1.658591   -0.000000
      5          1           0       -2.335387    0.489817   -0.000000
 ---------------------------------------------------------------------

 SCF Done:  E(RHF) =  -834.231715869     A.U. after    2 cycles

 The electronic state is 1-A'.
 Alpha  occ. eigenvalues --  -94.00108 -93.94409 -11.36663  -8.28262  -8.22660
 Alpha  occ. eigenvalues --   -6.26082  -6.25930  -6.25726  -6.20482  -6.20268
 Alpha  occ. eigenvalues --   -6.20047  -1.14706  -1.02132  -0.80279  -0.67136
 Alpha  occ. eigenvalues --   -0.55375  -0.52037  -0.49553  -0.37095  -0.35998
 Alpha virt. eigenvalues --    0.02887   0.03259   0.04798   0.07536   0.09254
 Alpha virt. eigenvalues --    0.11084   0.11205   0.13928   0.14380   0.15400
 Alpha virt. eigenvalues --    0.15596   0.15866   0.16622   0.18762   0.22749

 Mulliken charges:
               1
     1  S    0.139469
     2  S    0.267383
     3  C   -0.733494
     4  H   -0.032120
     5  H    0.358761
 Sum of Mulliken charges =  -0.00000

 Dipole moment (field-independent basis, Debye):
    X=             -2.8849    Y=              1.5729    Z=             -0.0000  Tot=              3.2858

 Test job not archived.
 1\1\GINC-SE180\SP\RHF\Aug-CC-pVDZ\C1H2S2\OHZDE\05-Apr-2025\0\\#t hf au
 g-cc-pvdz iop(5/13=1,5/36=2,99/5=2) pseudo=read geom=check guess=(read
 ,tcheck) scf=(maxcycle=1)\\title\\0,1\S,0,-1.379699,-0.462768,0.\S,0,1
 .542184,0.101951,0.\C,0,0.,0.604111,0.\H,0,-0.264368,1.658591,0.\H,0,-
 2.335387,0.489817,0.\\Version=ES64L-G16RevC.01\State=1-A'\HF=-834.2317
 159\RMSD=6.114e-03\Dipole=-1.1350054,0.6188133,0.\Quadrupole=1.1506172
 ,0.415973,-1.5665902,-2.0010601,0.,0.\PG=CS [SG(C1H2S2)]\\@

 Normal termination of Gaussian 16 at Sat Apr  5 23:08:04 2025.
