 Gaussian 16, Revision C.01,

 ----------------------------------------------------------------------
 #t hf aug-cc-pvdz symm=none int=(grid=ultrafine) guess=(read,tcheck) s
 table=(opt,rrhf)
 ----------------------------------------------------------------------
 -----
 title
 -----
 Symbolic Z-matrix:
 Charge =  0 Multiplicity = 1

 SCF Done:  E(RHF) =  -573.913701744     A.U. after   14 cycles
 Normal termination of Gaussian 16 at Sat Apr  5 23:08:23 2025.
 Gaussian 16:  ES64L-G16RevC.01  3-Jul-2019

 ----------------------------------------------------------------------
 #t hf aug-cc-pvdz iop(5/13=1,5/36=2,99/5=2) pseudo=read geom=check gue
 ss=(read,tcheck) scf=(maxcycle=1)
 ----------------------------------------------------------------------
 -----
 title
 -----
 Structure from the checkpoint file:  "methyl_hypochlorite.chk"
 Charge =  0 Multiplicity = 1

                         Standard orientation:
 ---------------------------------------------------------------------
 Center     Atomic      Atomic             Coordinates (Angstroms)
 Number     Number       Type             X           Y           Z
 ---------------------------------------------------------------------
      1          8           0        0.000000    0.802908    0.000000
      2         17           0       -0.811552   -0.704077    0.000000
      3          6           0        1.415082    0.620626    0.000000
      4          1           0        1.809715    1.636753    0.000000
      5          1           0        1.748086    0.092767    0.894890
      6          1           0        1.748086    0.092767   -0.894890
 ---------------------------------------------------------------------

 SCF Done:  E(RHF) =  -574.105356434     A.U. after    2 cycles

 The electronic state is 1-A'.
 Alpha  occ. eigenvalues -- -105.61550 -20.62575 -11.30706 -10.65842  -7.82825
 Alpha  occ. eigenvalues --   -7.82292  -7.82266  -1.48607  -1.04269  -0.92672
 Alpha  occ. eigenvalues --   -0.67173  -0.66487  -0.64966  -0.53616  -0.52846
 Alpha  occ. eigenvalues --   -0.46763  -0.43253
 Alpha virt. eigenvalues --    0.03612   0.05441   0.05646   0.07298   0.08318
 Alpha virt. eigenvalues --    0.14455   0.14479   0.15114   0.15943   0.16469
 Alpha virt. eigenvalues --    0.18537   0.22043   0.25802   0.26640   0.27334

 Mulliken charges:
               1
     1  O   -1.051374
     2  Cl   0.354219
     3  C    0.347857
     4  H    0.057825
     5  H    0.145736
     6  H    0.145736
 Sum of Mulliken charges =  -0.00000

 Dipole moment (field-independent basis, Debye):
    X=              2.0054    Y=              0.0857    Z=              0.0000  Tot=              2.0072

 Test job not archived.
 1\1\GINC-SE194\SP\RHF\Aug-CC-pVDZ\C1H3Cl1O1\OHZDE\05-Apr-2025\0\\#t hf
  aug-cc-pvdz iop(5/13=1,5/36=2,99/5=2) pseudo=read geom=check guess=(r
 ead,tcheck) scf=(maxcycle=1)\\title\\0,1\O,0,0.,0.802908,0.\Cl,0,-0.81
 1552,-0.704077,0.\C,0,1.415082,0.620626,0.\H,0,1.809715,1.636753,0.\H,
 0,1.748086,0.092767,0.89489\H,0,1.748086,0.092767,-0.89489\\Version=ES
 64L-G16RevC.01\State=1-A'\HF=-574.1053564\RMSD=6.316e-03\Dipole=0.7889
 88,0.0337277,0.\Quadrupole=1.2434036,-0.3363439,-0.9070597,1.5024284,0
 .,0.\PG=CS [SG(C1H1Cl1O1),X(H2)]\\@

 Normal termination of Gaussian 16 at Sat Apr  5 23:08:24 2025.
