 Gaussian 16, Revision C.01,

 ----------------------------------------------------------------------
 #t hf aug-cc-pvdz symm=none int=(grid=ultrafine) guess=(read,tcheck) s
 table=(opt,rrhf)
 ----------------------------------------------------------------------
 -----
 title
 -----
 Symbolic Z-matrix:
 Charge =  0 Multiplicity = 1

 SCF Done:  E(RHF) =  -234.224115536     A.U. after   12 cycles
 Normal termination of Gaussian 16 at Sat Apr  5 23:09:21 2025.
 Gaussian 16:  ES64L-G16RevC.01  3-Jul-2019

 ----------------------------------------------------------------------
 #t hf aug-cc-pvdz iop(5/13=1,5/36=2,99/5=2) pseudo=read geom=check gue
 ss=(read,tcheck) scf=(maxcycle=1)
 ----------------------------------------------------------------------
 -----
 title
 -----
 Structure from the checkpoint file:  "methylcyclopentane.chk"
 Charge =  0 Multiplicity = 1

                         Standard orientation:
 ---------------------------------------------------------------------
 Center     Atomic      Atomic             Coordinates (Angstroms)
 Number     Number       Type             X           Y           Z
 ---------------------------------------------------------------------
      1          6           0       -1.527992   -0.778219   -0.025802
      2          6           0       -1.527998    0.778215   -0.025762
      3          6           0       -0.054746   -1.195602    0.153522
      4          6           0       -0.054742    1.195610    0.153491
      5          6           0        0.759977   -0.000005   -0.361654
      6          6           0        2.225909   -0.000001    0.053568
      7          1           0       -2.163452   -1.189245    0.758393
      8          1           0       -1.917173   -1.155891   -0.972214
      9          1           0       -1.917255    1.155933   -0.972124
     10          1           0       -2.163406    1.189187    0.758504
     11          1           0        0.170715   -1.346139    1.213831
     12          1           0        0.187199   -2.127106   -0.360157
     13          1           0        0.187182    2.127090   -0.360241
     14          1           0        0.170755    1.346201    1.213784
     15          1           0        0.706863   -0.000021   -1.457058
     16          1           0        2.748064    0.880936   -0.324665
     17          1           0        2.320004    0.000014    1.142416
     18          1           0        2.748063   -0.880949   -0.324642
 ---------------------------------------------------------------------

 SCF Done:  E(RHF) =  -234.487281098     A.U. after    2 cycles

 The electronic state is 1-A.
 Alpha  occ. eigenvalues --  -11.22321 -11.21901 -11.21892 -11.21750 -11.21713
 Alpha  occ. eigenvalues --  -11.21675  -1.12374  -1.00250  -0.95760  -0.88990
 Alpha  occ. eigenvalues --   -0.77499  -0.76350  -0.65998  -0.63228  -0.59478
 Alpha  occ. eigenvalues --   -0.58179  -0.55854  -0.52621  -0.48225  -0.47558
 Alpha  occ. eigenvalues --   -0.47203  -0.45607  -0.45459  -0.44916
 Alpha virt. eigenvalues --    0.03565   0.03894   0.03934   0.04184   0.06009
 Alpha virt. eigenvalues --    0.06236   0.06397   0.06635   0.06695   0.09161
 Alpha virt. eigenvalues --    0.09657   0.09810   0.12515   0.14509   0.14833

 Mulliken charges:
               1
     1  C   -0.181695
     2  C   -0.181676
     3  C   -0.025188
     4  C   -0.025215
     5  C   -0.977045
     6  C   -0.140358
     7  H    0.116601
     8  H    0.115609
     9  H    0.115629
    10  H    0.116623
    11  H    0.138005
    12  H    0.076723
    13  H    0.076718
    14  H    0.138001
    15  H    0.100526
    16  H    0.168474
    17  H    0.199792
    18  H    0.168476
 Sum of Mulliken charges =  -0.00000

 Dipole moment (field-independent basis, Debye):
    X=             -0.0187    Y=             -0.0000    Z=             -0.0922  Tot=              0.0941

 Test job not archived.
 1\1\GINC-SE213\SP\RHF\Aug-CC-pVDZ\C6H12\OHZDE\05-Apr-2025\0\\#t hf aug
 -cc-pvdz iop(5/13=1,5/36=2,99/5=2) pseudo=read geom=check guess=(read,
 tcheck) scf=(maxcycle=1)\\title\\0,1\C,0,-1.527992,-0.778219,-0.025802
 \C,0,-1.527998,0.778215,-0.025762\C,0,-0.054746,-1.195602,0.153522\C,0
 ,-0.054742,1.19561,0.153491\C,0,0.759977,-0.000005,-0.361654\C,0,2.225
 909,-0.000001,0.053568\H,0,-2.163452,-1.189245,0.758393\H,0,-1.917173,
 -1.155891,-0.972214\H,0,-1.917255,1.155933,-0.972124\H,0,-2.163406,1.1
 89187,0.758504\H,0,0.170715,-1.346139,1.213831\H,0,0.1872,-2.127106,-0

 Normal termination of Gaussian 16 at Sat Apr  5 23:10:25 2025.
