 Gaussian 16, Revision C.01,

 ----------------------------------------------------------------------
 #t hf aug-cc-pvdz symm=none int=(grid=ultrafine) guess=(read,tcheck) s
 table=(opt,rrhf)
 ----------------------------------------------------------------------
 -----
 title
 -----
 Symbolic Z-matrix:
 Charge =  0 Multiplicity = 1

 SCF Done:  E(RHF) =  -245.825974138     A.U. after   13 cycles
 Normal termination of Gaussian 16 at Sat Apr  5 23:08:04 2025.
 Gaussian 16:  ES64L-G16RevC.01  3-Jul-2019

 ----------------------------------------------------------------------
 #t hf aug-cc-pvdz iop(5/13=1,5/36=2,99/5=2) pseudo=read geom=check gue
 ss=(read,tcheck) scf=(maxcycle=1)
 ----------------------------------------------------------------------
 -----
 title
 -----
 Structure from the checkpoint file:  "methoxyacetonitrile.chk"
 Charge =  0 Multiplicity = 1

                         Standard orientation:
 ---------------------------------------------------------------------
 Center     Atomic      Atomic             Coordinates (Angstroms)
 Number     Number       Type             X           Y           Z
 ---------------------------------------------------------------------
      1          1           0        2.599638   -1.376903    0.000000
      2          1           0        2.446132    0.154879    0.891870
      3          1           0        2.446132    0.154879   -0.891870
      4          6           0        2.130026   -0.397041    0.000000
      5          8           0        0.728282   -0.616731    0.000000
      6          1           0        0.230030    1.194926   -0.885833
      7          1           0        0.230030    1.194926    0.885833
      8          6           0        0.000000    0.588434    0.000000
      9          7           0       -2.565567    0.100470    0.000000
     10          6           0       -1.433235    0.293249    0.000000
 ---------------------------------------------------------------------

 SCF Done:  E(RHF) =  -246.074500172     A.U. after    2 cycles

 The electronic state is 1-A'.
 Alpha  occ. eigenvalues --  -20.58215 -15.52019 -11.35169 -11.30789 -11.28526
 Alpha  occ. eigenvalues --   -1.49982  -1.24058  -1.04373  -0.93438  -0.74957
 Alpha  occ. eigenvalues --   -0.71289  -0.69423  -0.62573  -0.61228  -0.59039
 Alpha  occ. eigenvalues --   -0.52694  -0.50848  -0.50710  -0.45378
 Alpha virt. eigenvalues --    0.02773   0.03934   0.04067   0.05262   0.07281
 Alpha virt. eigenvalues --    0.08718   0.09524   0.12278   0.12459   0.13080
 Alpha virt. eigenvalues --    0.14548   0.15070   0.15401   0.16592   0.16595

 Mulliken charges:
               1
     1  H   -0.000817
     2  H    0.175417
     3  H    0.175417
     4  C    0.232472
     5  O   -1.219386
     6  H    0.210789
     7  H    0.210789
     8  C    0.995649
     9  N    0.834254
    10  C   -1.614585
 Sum of Mulliken charges =   0.00000

 Dipole moment (field-independent basis, Debye):
    X=              5.3607    Y=              1.8885    Z=              0.0000  Tot=              5.6836

 Test job not archived.
 1\1\GINC-SE146\SP\RHF\Aug-CC-pVDZ\C3H5N1O1\OHZDE\05-Apr-2025\0\\#t hf
 aug-cc-pvdz iop(5/13=1,5/36=2,99/5=2) pseudo=read geom=check guess=(re
 ad,tcheck) scf=(maxcycle=1)\\title\\0,1\H,0,2.599637,-1.376904,0.\H,0,
 2.446132,0.154878,0.89187\H,0,2.446132,0.154878,-0.89187\C,0,2.130026,
 -0.397042,0.\O,0,0.728282,-0.616731,0.\H,0,0.23003,1.194926,-0.885833\
 H,0,0.23003,1.194926,0.885833\C,0,0.,0.588434,0.\N,0,-2.565567,0.10047
 1,0.\C,0,-1.433235,0.293249,0.\\Version=ES64L-G16RevC.01\State=1-A'\HF
 =-246.0745002\RMSD=1.980e-02\Dipole=2.1090518,0.7429795,0.\Quadrupole=

 Normal termination of Gaussian 16 at Sat Apr  5 23:08:08 2025.
