 Gaussian 16, Revision C.01,

 ----------------------------------------------------------------------
 #t hf aug-cc-pvdz symm=none int=(grid=ultrafine) guess=(read,tcheck) s
 table=(opt,rrhf)
 ----------------------------------------------------------------------
 -----
 title
 -----
 Symbolic Z-matrix:
 Charge =  0 Multiplicity = 1

 SCF Done:  E(RHF) =  -1308.72534885     A.U. after   13 cycles
 Normal termination of Gaussian 16 at Sat Apr  5 23:08:21 2025.
 Gaussian 16:  ES64L-G16RevC.01  3-Jul-2019

 ----------------------------------------------------------------------
 #t hf aug-cc-pvdz iop(5/13=1,5/36=2,99/5=2) pseudo=read geom=check gue
 ss=(read,tcheck) scf=(maxcycle=1)
 ----------------------------------------------------------------------
 -----
 title
 -----
 Structure from the checkpoint file:  "methoxyflurane.chk"
 Charge =  0 Multiplicity = 1

                         Standard orientation:
 ---------------------------------------------------------------------
 Center     Atomic      Atomic             Coordinates (Angstroms)
 Number     Number       Type             X           Y           Z
 ---------------------------------------------------------------------
      1          6           0       -2.942068    0.313166   -0.088641
      2          6           0        0.735707    0.108753   -0.508616
      3          6           0       -0.654620   -0.311306    0.007121
      4          8           0       -1.574078    0.542788   -0.481566
      5          9           0       -0.678682   -0.369389    1.367117
      6          9           0       -0.901212   -1.593523   -0.415518
      7         17           0        1.144790    1.756836    0.037582
      8         17           0        1.979103   -1.067794   -0.011846
      9          1           0       -3.270321   -0.674880   -0.406191
     10          1           0       -3.516616    1.078340   -0.599716
     11          1           0       -3.051412    0.421677    0.988511
     12          1           0        0.709733    0.121384   -1.591166
 ---------------------------------------------------------------------

 SCF Done:  E(RHF) =  -1309.24963565     A.U. after    2 cycles

 The electronic state is 1-A.
 Alpha  occ. eigenvalues -- -105.58884-105.58793 -26.49843 -26.49726 -20.60348
 Alpha  occ. eigenvalues --  -11.50275 -11.39747 -11.31500 -10.63697 -10.63619
 Alpha  occ. eigenvalues --   -7.80652  -7.80570  -7.80229  -7.80217  -7.80147
 Alpha  occ. eigenvalues --   -7.80135  -1.68231  -1.59873  -1.52583  -1.18732
 Alpha  occ. eigenvalues --   -1.06137  -1.02875  -0.93616  -0.87271  -0.79616
 Alpha  occ. eigenvalues --   -0.78457  -0.76204  -0.68897  -0.67378  -0.65279
 Alpha  occ. eigenvalues --   -0.63826  -0.62455  -0.61711  -0.59684  -0.59016
 Alpha  occ. eigenvalues --   -0.54343  -0.50389  -0.48991  -0.48614  -0.46609
 Alpha  occ. eigenvalues --   -0.45985
 Alpha virt. eigenvalues --    0.03294   0.04488   0.05283   0.05666   0.08048
 Alpha virt. eigenvalues --    0.08850   0.09655   0.12118   0.12463   0.12860
 Alpha virt. eigenvalues --    0.13946   0.14716   0.15340   0.15496   0.16665

 Mulliken charges:
               1
     1  C    0.071496
     2  C   -0.884801
     3  C    2.977310
     4  O   -1.389036
     5  F   -0.756009
     6  F   -0.773744
     7  Cl   0.009929
     8  Cl   0.053581
     9  H    0.183334
    10  H    0.006682
    11  H    0.177938
    12  H    0.323320
 Sum of Mulliken charges =  -0.00000

 Dipole moment (field-independent basis, Debye):
    X=             -2.4542    Y=              0.4329    Z=             -1.1321  Tot=              2.7371

 Test job not archived.
 1\1\GINC-SE176\SP\RHF\Aug-CC-pVDZ\C3H4Cl2F2O1\OHZDE\05-Apr-2025\0\\#t
 hf aug-cc-pvdz iop(5/13=1,5/36=2,99/5=2) pseudo=read geom=check guess=
 (read,tcheck) scf=(maxcycle=1)\\title\\0,1\C,0,-2.942068,0.313165,-0.0
 88641\C,0,0.735707,0.108753,-0.508616\C,0,-0.65462,-0.311306,0.007121\
 O,0,-1.574078,0.542788,-0.481566\F,0,-0.678682,-0.369389,1.367117\F,0,
 -0.901211,-1.593523,-0.415518\Cl,0,1.14479,1.756836,0.037582\Cl,0,1.97
 9103,-1.067794,-0.011846\H,0,-3.270321,-0.674881,-0.406191\H,0,-3.5166
 16,1.078339,-0.599716\H,0,-3.051412,0.421676,0.988511\H,0,0.709733,0.1

 Normal termination of Gaussian 16 at Sat Apr  5 23:08:28 2025.
