 Gaussian 16, Revision C.01,

 ----------------------------------------------------------------------
 #t hf aug-cc-pvdz symm=none int=(grid=ultrafine) guess=(read,tcheck) s
 table=(opt,rrhf)
 ----------------------------------------------------------------------
 -----
 title
 -----
 Symbolic Z-matrix:
 Charge =  0 Multiplicity = 1

 SCF Done:  E(RHF) =  -202.897736579     A.U. after   14 cycles
 Normal termination of Gaussian 16 at Sat Apr  5 23:08:12 2025.
 Gaussian 16:  ES64L-G16RevC.01  3-Jul-2019

 ----------------------------------------------------------------------
 #t hf aug-cc-pvdz iop(5/13=1,5/36=2,99/5=2) pseudo=read geom=check gue
 ss=(read,tcheck) scf=(maxcycle=1)
 ----------------------------------------------------------------------
 -----
 title
 -----
 Structure from the checkpoint file:  "methyl_azide.chk"
 Charge =  0 Multiplicity = 1

                         Standard orientation:
 ---------------------------------------------------------------------
 Center     Atomic      Atomic             Coordinates (Angstroms)
 Number     Number       Type             X           Y           Z
 ---------------------------------------------------------------------
      1          7           0        0.000000    0.723823    0.000000
      2          7           0       -0.513023    1.731413    0.000000
      3          7           0        0.675733   -0.298488    0.000000
      4          6           0       -0.069885   -1.567760    0.000000
      5          1           0        0.668896   -2.362474    0.000000
      6          1           0       -0.694278   -1.664099    0.890793
      7          1           0       -0.694278   -1.664099   -0.890793
 ---------------------------------------------------------------------

 SCF Done:  E(RHF) =  -203.101580608     A.U. after    2 cycles

 The electronic state is 1-A'.
 Alpha  occ. eigenvalues --  -15.72014 -15.60418 -15.54697 -11.28894  -1.51351
 Alpha  occ. eigenvalues --   -1.32928  -1.02133  -0.77452  -0.76200  -0.75574
 Alpha  occ. eigenvalues --   -0.71494  -0.61118  -0.59450  -0.48873  -0.42860
 Alpha virt. eigenvalues --    0.03384   0.05358   0.05464   0.06942   0.07975
 Alpha virt. eigenvalues --    0.10728   0.11283   0.13288   0.14102   0.15759
 Alpha virt. eigenvalues --    0.16978   0.17934   0.19726   0.21076   0.21982

 Mulliken charges:
               1
     1  N   -1.582801
     2  N    1.032996
     3  N    0.298479
     4  C   -0.179804
     5  H    0.055557
     6  H    0.187787
     7  H    0.187787
 Sum of Mulliken charges =  -0.00000

 Dipole moment (field-independent basis, Debye):
    X=             -0.9775    Y=             -2.1332    Z=              0.0000  Tot=              2.3465

 Test job not archived.
 1\1\GINC-SE199\SP\RHF\Aug-CC-pVDZ\C1H3N3\OHZDE\05-Apr-2025\0\\#t hf au
 g-cc-pvdz iop(5/13=1,5/36=2,99/5=2) pseudo=read geom=check guess=(read
 ,tcheck) scf=(maxcycle=1)\\title\\0,1\N,0,0.,0.723823,0.\N,0,-0.513023
 ,1.731413,0.\N,0,0.675733,-0.298488,0.\C,0,-0.069885,-1.56776,0.\H,0,0
 .668896,-2.362474,0.\H,0,-0.694278,-1.664099,0.890793\H,0,-0.694278,-1
 .664099,-0.890793\\Version=ES64L-G16RevC.01\State=1-A'\HF=-203.1015806
 \RMSD=9.172e-02\Dipole=-0.3845955,-0.8392767,0.\Quadrupole=-1.0968708,
 1.0244365,0.0724343,0.9504024,0.,0.\PG=CS [SG(C1H1N3),X(H2)]\\@

 Normal termination of Gaussian 16 at Sat Apr  5 23:08:14 2025.
