 Gaussian 16, Revision C.01,

 ----------------------------------------------------------------------
 #t hf aug-cc-pvdz symm=none int=(grid=ultrafine) guess=(read,tcheck) s
 table=(opt,rrhf)
 ----------------------------------------------------------------------
 -----
 title
 -----
 Symbolic Z-matrix:
 Charge =  0 Multiplicity = 1

 SCF Done:  E(RHF) =  -154.904962504     A.U. after   12 cycles
 Normal termination of Gaussian 16 at Sat Apr  5 23:08:46 2025.
 Gaussian 16:  ES64L-G16RevC.01  3-Jul-2019

 ----------------------------------------------------------------------
 #t hf aug-cc-pvdz iop(5/13=1,5/36=2,99/5=2) pseudo=read geom=check gue
 ss=(read,tcheck) scf=(maxcycle=1)
 ----------------------------------------------------------------------
 -----
 title
 -----
 Structure from the checkpoint file:  "methylenecyclopropane.chk"
 Charge =  0 Multiplicity = 1

                         Standard orientation:
 ---------------------------------------------------------------------
 Center     Atomic      Atomic             Coordinates (Angstroms)
 Number     Number       Type             X           Y           Z
 ---------------------------------------------------------------------
      1          6           0        0.000000    0.000000    1.631581
      2          6           0        0.000000    0.000000    0.315547
      3          1           0        0.000000    0.924656    2.195166
      4          1           0       -0.000000   -0.924656    2.195166
      5          6           0        0.000000    0.769087   -0.928764
      6          6           0       -0.000000   -0.769087   -0.928764
      7          1           0        0.910119    1.272300   -1.231981
      8          1           0       -0.910119    1.272300   -1.231981
      9          1           0       -0.910119   -1.272300   -1.231981
     10          1           0        0.910119   -1.272300   -1.231981
 ---------------------------------------------------------------------

 SCF Done:  E(RHF) =  -155.074032152     A.U. after    2 cycles

 The electronic state is 1-A1.
 Alpha  occ. eigenvalues --  -11.25023 -11.24263 -11.24260 -11.23205  -1.15515
 Alpha  occ. eigenvalues --   -0.98049  -0.83808  -0.73753  -0.65551  -0.65312
 Alpha  occ. eigenvalues --   -0.60530  -0.52974  -0.44719  -0.43360  -0.37068
 Alpha virt. eigenvalues --    0.03930   0.04306   0.04307   0.04462   0.06429
 Alpha virt. eigenvalues --    0.07203   0.09427   0.11442   0.11899   0.13734
 Alpha virt. eigenvalues --    0.14494   0.15463   0.15559   0.16230   0.17091

 Mulliken charges:
               1
     1  C   -0.218177
     2  C    0.171685
     3  H   -0.082701
     4  H   -0.082701
     5  C    0.110880
     6  C    0.110880
     7  H   -0.002467
     8  H   -0.002467
     9  H   -0.002467
    10  H   -0.002467
 Sum of Mulliken charges =   0.00000

 Dipole moment (field-independent basis, Debye):
    X=              0.0000    Y=              0.0000    Z=             -0.4796  Tot=              0.4796

 Test job not archived.
 1\1\GINC-SE231\SP\RHF\Aug-CC-pVDZ\C4H6\OHZDE\05-Apr-2025\0\\#t hf aug-
 cc-pvdz iop(5/13=1,5/36=2,99/5=2) pseudo=read geom=check guess=(read,t
 check) scf=(maxcycle=1)\\title\\0,1\C,0,0.,0.,1.631581\C,0,0.,0.,0.315
 547\H,0,0.,0.924656,2.195166\H,0,0.,-0.924656,2.195166\C,0,0.,0.769087
 ,-0.928764\C,0,0.,-0.769087,-0.928764\H,0,0.910119,1.2723,-1.231981\H,
 0,-0.910119,1.2723,-1.231981\H,0,-0.910119,-1.2723,-1.231981\H,0,0.910
 119,-1.2723,-1.231981\\Version=ES64L-G16RevC.01\State=1-A1\HF=-155.074
 0322\RMSD=1.928e-02\Dipole=0.,0.,-0.1886951\Quadrupole=-0.7270437,0.41

 Normal termination of Gaussian 16 at Sat Apr  5 23:08:48 2025.
