 Gaussian 16, Revision C.01,

 ----------------------------------------------------------------------
 #t hf aug-cc-pvdz symm=none int=(grid=ultrafine) guess=(read,tcheck) s
 table=(opt,rrhf)
 ----------------------------------------------------------------------
 -----
 title
 -----
 Symbolic Z-matrix:
 Charge =  0 Multiplicity = 1

 SCF Done:  E(RHF) =  -856.005007325     A.U. after   15 cycles
 Normal termination of Gaussian 16 at Sat Apr  5 23:12:43 2025.
 Gaussian 16:  ES64L-G16RevC.01  3-Jul-2019

 ----------------------------------------------------------------------
 #t hf aug-cc-pvdz iop(5/13=1,5/36=2,99/5=2) pseudo=read geom=check gue
 ss=(read,tcheck) scf=(maxcycle=1)
 ----------------------------------------------------------------------
 -----
 title
 -----
 Structure from the checkpoint file:  "methylsulfonylmethylbenzene.chk"
 Charge =  0 Multiplicity = 1

                         Standard orientation:
 ---------------------------------------------------------------------
 Center     Atomic      Atomic             Coordinates (Angstroms)
 Number     Number       Type             X           Y           Z
 ---------------------------------------------------------------------
      1          6           0        1.247559   -0.078864    0.000000
      2         16           0        0.450603   -1.735060    0.000000
      3          6           0        0.228680    1.019883   -0.000000
      4          6           0        1.856507   -2.863468    0.000000
      5          8           0       -0.258876   -1.906083    1.263753
      6          8           0       -0.258876   -1.906083   -1.263753
      7          6           0       -0.258876    1.531692    1.203024
      8          6           0       -0.258876    1.531692   -1.203024
      9          6           0       -1.209742    2.543679    1.202823
     10          6           0       -1.209742    2.543679   -1.202823
     11          6           0       -1.686443    3.052509   -0.000000
     12          1           0        1.873727   -0.060312    0.890609
     13          1           0        1.873727   -0.060312   -0.890609
     14          1           0        1.425456   -3.862087    0.000000
     15          1           0        2.444385   -2.705370   -0.900271
     16          1           0        2.444385   -2.705370    0.900271
     17          1           0        0.101136    1.130017    2.140706
     18          1           0        0.101136    1.130017   -2.140706
     19          1           0       -1.579760    2.932792    2.141610
     20          1           0       -1.579760    2.932792   -2.141610
     21          1           0       -2.426453    3.841310   -0.000000
 ---------------------------------------------------------------------

 SCF Done:  E(RHF) =  -856.539309172     A.U. after    2 cycles

 The electronic state is 1-A'.
 Alpha  occ. eigenvalues --  -94.18398 -20.52847 -20.52843 -11.29546 -11.28944
 Alpha  occ. eigenvalues --  -11.26264 -11.25031 -11.25022 -11.24888 -11.24687
 Alpha  occ. eigenvalues --  -11.24676  -8.43734  -6.41834  -6.41623  -6.41570
 Alpha  occ. eigenvalues --   -1.53994  -1.42246  -1.17285  -1.09776  -1.05181
 Alpha  occ. eigenvalues --   -1.02569  -0.97703  -0.85248  -0.84694  -0.81025
 Alpha  occ. eigenvalues --   -0.72222  -0.69475  -0.68344  -0.67382  -0.65397
 Alpha  occ. eigenvalues --   -0.64554  -0.61446  -0.61105  -0.60646  -0.59356
 Alpha  occ. eigenvalues --   -0.58779  -0.52354  -0.51787  -0.51122  -0.48163
 Alpha  occ. eigenvalues --   -0.48093  -0.45088  -0.43332  -0.35216  -0.34842
 Alpha virt. eigenvalues --    0.02628   0.03495   0.03587   0.04054   0.04575
 Alpha virt. eigenvalues --    0.05068   0.06471   0.07074   0.07668   0.08504
 Alpha virt. eigenvalues --    0.09053   0.09896   0.10387   0.11060   0.12068

 Mulliken charges:
               1
     1  C   -1.436215
     2  S    3.202766
     3  C    2.041794
     4  C   -0.653080
     5  O   -1.595540
     6  O   -1.595540
     7  C    0.133225
     8  C    0.133225
     9  C    0.103543
    10  C    0.103543
    11  C    0.085172
    12  H    0.022928
    13  H    0.022928
    14  H    0.246526
    15  H    0.227738
    16  H    0.227738
    17  H   -0.294651
    18  H   -0.294651
    19  H   -0.232218
    20  H   -0.232218
    21  H   -0.217012
 Sum of Mulliken charges =  -0.00000

 Dipole moment (field-independent basis, Debye):
    X=              4.3356    Y=              1.4558    Z=             -0.0000  Tot=              4.5735

 Test job not archived.
 1\1\GINC-SE185\SP\RHF\Aug-CC-pVDZ\C8H10O2S1\OHZDE\05-Apr-2025\0\\#t hf
  aug-cc-pvdz iop(5/13=1,5/36=2,99/5=2) pseudo=read geom=check guess=(r
 ead,tcheck) scf=(maxcycle=1)\\title\\0,1\C,0,1.247559,-0.078864,0.\S,0
 ,0.450603,-1.73506,0.\C,0,0.22868,1.019883,0.\C,0,1.856507,-2.863468,0
 .\O,0,-0.258876,-1.906083,1.263753\O,0,-0.258876,-1.906083,-1.263753\C
 ,0,-0.258876,1.531692,1.203024\C,0,-0.258876,1.531692,-1.203024\C,0,-1
 .209742,2.543679,1.202823\C,0,-1.209742,2.543679,-1.202823\C,0,-1.6864
 43,3.052509,0.\H,0,1.873727,-0.060312,0.890609\H,0,1.873727,-0.060312,

 Normal termination of Gaussian 16 at Sat Apr  5 23:13:37 2025.
