 Gaussian 16, Revision C.01,

 ----------------------------------------------------------------------
 #t hf aug-cc-pvdz symm=none int=(grid=ultrafine) guess=(read,tcheck) s
 table=(opt,rrhf)
 ----------------------------------------------------------------------
 -----
 title
 -----
 Symbolic Z-matrix:
 Charge =  0 Multiplicity = 1

 SCF Done:  E(RHF) =  -190.785570768     A.U. after   14 cycles
 Normal termination of Gaussian 16 at Sat Apr  5 23:08:44 2025.
 Gaussian 16:  ES64L-G16RevC.01  3-Jul-2019

 ----------------------------------------------------------------------
 #t hf aug-cc-pvdz iop(5/13=1,5/36=2,99/5=2) pseudo=read geom=check gue
 ss=(read,tcheck) scf=(maxcycle=1)
 ----------------------------------------------------------------------
 -----
 title
 -----
 Structure from the checkpoint file:  "methylketene.chk"
 Charge =  0 Multiplicity = 1

                         Standard orientation:
 ---------------------------------------------------------------------
 Center     Atomic      Atomic             Coordinates (Angstroms)
 Number     Number       Type             X           Y           Z
 ---------------------------------------------------------------------
      1          6           0       -0.671285   -0.386770    0.000000
      2          6           0       -0.000000    0.736156    0.000000
      3          6           0        1.508464    0.811358    0.000000
      4          8           0       -1.266323   -1.387836    0.000000
      5          1           0       -0.595082    1.639797    0.000000
      6          1           0        1.954606   -0.181706    0.000000
      7          1           0        1.873994    1.340067    0.882008
      8          1           0        1.873994    1.340067   -0.882008
 ---------------------------------------------------------------------

 SCF Done:  E(RHF) =  -190.978333561     A.U. after    2 cycles

 The electronic state is 1-A'.
 Alpha  occ. eigenvalues --  -20.60735 -11.38073 -11.25559 -11.24899  -1.54568
 Alpha  occ. eigenvalues --   -1.08835  -0.94022  -0.74894  -0.69058  -0.63882
 Alpha  occ. eigenvalues --   -0.62561  -0.58327  -0.56205  -0.53744  -0.35091
 Alpha virt. eigenvalues --    0.03307   0.04289   0.05175   0.05448   0.08692
 Alpha virt. eigenvalues --    0.10645   0.11674   0.11971   0.13123   0.13443
 Alpha virt. eigenvalues --    0.15588   0.15742   0.17196   0.17628   0.17719

 Mulliken charges:
               1
     1  C    0.232426
     2  C    0.737395
     3  C   -0.563773
     4  O   -0.849729
     5  H   -0.060693
     6  H    0.109443
     7  H    0.197466
     8  H    0.197466
 Sum of Mulliken charges =   0.00000

 Dipole moment (field-independent basis, Debye):
    X=              1.2457    Y=              1.6322    Z=              0.0000  Tot=              2.0533

 Test job not archived.
 1\1\GINC-SE107\SP\RHF\Aug-CC-pVDZ\C3H4O1\OHZDE\05-Apr-2025\0\\#t hf au
 g-cc-pvdz iop(5/13=1,5/36=2,99/5=2) pseudo=read geom=check guess=(read
 ,tcheck) scf=(maxcycle=1)\\title\\0,1\C,0,-0.671285,-0.38677,0.\C,0,0.
 ,0.736156,0.\C,0,1.508464,0.811358,0.\O,0,-1.266323,-1.387836,0.\H,0,-
 0.595082,1.639797,0.\H,0,1.954606,-0.181706,0.\H,0,1.873994,1.340067,0
 .882008\H,0,1.873994,1.340067,-0.882008\\Version=ES64L-G16RevC.01\Stat
 e=1-A'\HF=-190.9783336\RMSD=1.224e-02\Dipole=0.4901119,0.6421451,0.\Qu
 adrupole=0.6294381,-0.1602428,-0.4691954,-1.7353785,0.,0.\PG=CS [SG(C3

 Normal termination of Gaussian 16 at Sat Apr  5 23:08:47 2025.
