 Gaussian 16, Revision C.01,

 ----------------------------------------------------------------------
 #t hf aug-cc-pvdz symm=none int=(grid=ultrafine) guess=(read,tcheck) s
 table=(opt,rrhf)
 ----------------------------------------------------------------------
 -----
 title
 -----
 Symbolic Z-matrix:
 Charge =  0 Multiplicity = 1

 SCF Done:  E(RHF) =  -926.977276512     A.U. after   15 cycles
 Normal termination of Gaussian 16 at Sat Apr  5 23:10:25 2025.
 Gaussian 16:  ES64L-G16RevC.01  3-Jul-2019

 ----------------------------------------------------------------------
 #t hf aug-cc-pvdz iop(5/13=1,5/36=2,99/5=2) pseudo=read geom=check gue
 ss=(read,tcheck) scf=(maxcycle=1)
 ----------------------------------------------------------------------
 -----
 title
 -----
 Structure from the checkpoint file:  "methylsulfanyliminomethanethione.chk"
 Charge =  0 Multiplicity = 1

                         Standard orientation:
 ---------------------------------------------------------------------
 Center     Atomic      Atomic             Coordinates (Angstroms)
 Number     Number       Type             X           Y           Z
 ---------------------------------------------------------------------
      1         16           0        1.487854   -0.652185    0.000095
      2         16           0       -2.683866    0.052343   -0.000262
      3          7           0        0.082020    0.281815    0.000072
      4          6           0        2.714170    0.680388    0.000283
      5          6           0       -1.107551    0.131432   -0.000082
      6          1           0        3.680142    0.176343    0.000324
      7          1           0        2.621166    1.288815   -0.895396
      8          1           0        2.621025    1.288688    0.896033
 ---------------------------------------------------------------------

 SCF Done:  E(RHF) =  -927.227492164     A.U. after    2 cycles

 The electronic state is 1-A.
 Alpha  occ. eigenvalues --  -94.02229 -93.95430 -15.56220 -11.38887 -11.29078
 Alpha  occ. eigenvalues --   -8.29819  -8.23699  -6.27666  -6.27412  -6.27156
 Alpha  occ. eigenvalues --   -6.21590  -6.21180  -6.21121  -1.30882  -1.11573
 Alpha  occ. eigenvalues --   -1.06696  -0.93887  -0.73067  -0.64184  -0.63936
 Alpha  occ. eigenvalues --   -0.62167  -0.60518  -0.59464  -0.50417  -0.42893
 Alpha  occ. eigenvalues --   -0.39147  -0.34807
 Alpha virt. eigenvalues --    0.02924   0.04607   0.05236   0.05330   0.06646
 Alpha virt. eigenvalues --    0.08003   0.10011   0.10562   0.10862   0.11743
 Alpha virt. eigenvalues --    0.12825   0.14103   0.14589   0.15122   0.15323

 Mulliken charges:
               1
     1  S    0.514461
     2  S    0.332513
     3  N    0.332099
     4  C   -0.682427
     5  C   -1.104115
     6  H    0.204731
     7  H    0.201370
     8  H    0.201368
 Sum of Mulliken charges =  -0.00000

 Dipole moment (field-independent basis, Debye):
    X=              3.1332    Y=              0.4788    Z=              0.0003  Tot=              3.1696

 Test job not archived.
 1\1\GINC-SE129\SP\RHF\Aug-CC-pVDZ\C2H3N1S2\OHZDE\05-Apr-2025\0\\#t hf
 aug-cc-pvdz iop(5/13=1,5/36=2,99/5=2) pseudo=read geom=check guess=(re
 ad,tcheck) scf=(maxcycle=1)\\title\\0,1\S,0,1.487854,-0.652185,0.00009
 5\S,0,-2.683866,0.052343,-0.000262\N,0,0.08202,0.281815,0.000072\C,0,2
 .71417,0.680388,0.000283\C,0,-1.107551,0.131432,-0.000082\H,0,3.680142
 ,0.176343,0.000324\H,0,2.621166,1.288815,-0.895396\H,0,2.621025,1.2886
 88,0.896033\\Version=ES64L-G16RevC.01\State=1-A\HF=-927.2274922\RMSD=9
 .874e-03\Dipole=1.2326967,0.1883579,0.0001042\Quadrupole=3.9311893,-1.

 Normal termination of Gaussian 16 at Sat Apr  5 23:10:28 2025.
