 Gaussian 16, Revision C.01,

 ----------------------------------------------------------------------
 #t hf aug-cc-pvdz symm=none int=(grid=ultrafine) guess=(read,tcheck) s
 table=(opt,rrhf)
 ----------------------------------------------------------------------
 -----
 title
 -----
 Symbolic Z-matrix:
 Charge =  0 Multiplicity = 1

 SCF Done:  E(RHF) =  -423.028696660     A.U. after   13 cycles

 1\1\GINC-SE183\Stability\RHF\Aug-CC-pVDZ\C7H14O2\OHZDE\05-Apr-2025\0\\
 #t hf aug-cc-pvdz symm=none int=(grid=ultrafine) guess=(read,tcheck) s
 table=(opt,rrhf)\\title\\0,1\C,0,1.488939,1.017839,0.\C,0,-3.766271,-2
 .671937,0.\C,0,3.138511,2.711319,0.\C,0,0.,0.760101,0.\C,0,-2.256886,-
 2.436231,0.\C,0,-0.365395,-0.720041,0.\C,0,-1.876026,-0.955711,0.\O,0,
 2.352499,0.176679,0.\O,0,1.749338,2.343823,0.\H,0,-4.235468,-2.228565,
 0.880789\H,0,-4.235468,-2.228565,-0.880789\H,0,-4.00323,-3.736674,0.\H
 ,0,3.153724,3.796785,0.\H,0,3.636516,2.322018,-0.886207\H,0,3.636516,2

 Normal termination of Gaussian 16 at Sat Apr  5 23:10:29 2025.
 Gaussian 16:  ES64L-G16RevC.01  3-Jul-2019

 ----------------------------------------------------------------------
 #t hf aug-cc-pvdz iop(5/13=1,5/36=2,99/5=2) pseudo=read geom=check gue
 ss=(read,tcheck) scf=(maxcycle=1)
 ----------------------------------------------------------------------
 -----
 title
 -----
 Structure from the checkpoint file:  "methyl_hexanoate.chk"
 Charge =  0 Multiplicity = 1

                         Standard orientation:
 ---------------------------------------------------------------------
 Center     Atomic      Atomic             Coordinates (Angstroms)
 Number     Number       Type             X           Y           Z
 ---------------------------------------------------------------------
      1          6           0        1.488939    1.017839    0.000000
      2          6           0       -3.766272   -2.671936    0.000000
      3          6           0        3.138511    2.711318    0.000000
      4          6           0        0.000000    0.760101    0.000000
      5          6           0       -2.256886   -2.436231    0.000000
      6          6           0       -0.365395   -0.720041    0.000000
      7          6           0       -1.876026   -0.955711    0.000000
      8          8           0        2.352499    0.176679    0.000000
      9          8           0        1.749338    2.343823    0.000000
     10          1           0       -4.235468   -2.228564    0.880789
     11          1           0       -4.235468   -2.228564   -0.880789
     12          1           0       -4.003231   -3.736673    0.000000
     13          1           0        3.153724    3.796784    0.000000
     14          1           0        3.636516    2.322017   -0.886207
     15          1           0        3.636516    2.322017    0.886207
     16          1           0       -0.422849    1.270771   -0.869472
     17          1           0       -0.422849    1.270771    0.869472
     18          1           0       -1.811862   -2.921057   -0.873831
     19          1           0       -1.811862   -2.921057    0.873831
     20          1           0        0.084585   -1.201251    0.871034
     21          1           0        0.084585   -1.201251   -0.871034
     22          1           0       -2.322130   -0.469995   -0.874710
     23          1           0       -2.322130   -0.469995    0.874710
 ---------------------------------------------------------------------

 SCF Done:  E(RHF) =  -423.475537418     A.U. after    2 cycles

 The electronic state is 1-A'.
 Alpha  occ. eigenvalues --  -20.58601 -20.53070 -11.38339 -11.29383 -11.24859
 Alpha  occ. eigenvalues --  -11.22951 -11.22779 -11.22641 -11.22196  -1.53876
 Alpha  occ. eigenvalues --   -1.44612  -1.09867  -1.04645  -0.98459  -0.93250
 Alpha  occ. eigenvalues --   -0.84787  -0.79821  -0.77231  -0.70255  -0.68289
 Alpha  occ. eigenvalues --   -0.67408  -0.65529  -0.61398  -0.60490  -0.57981
 Alpha  occ. eigenvalues --   -0.57015  -0.56156  -0.52799  -0.52453  -0.51588
 Alpha  occ. eigenvalues --   -0.48970  -0.47914  -0.47295  -0.47091  -0.45237
 Alpha  occ. eigenvalues --   -0.43633
 Alpha virt. eigenvalues --    0.03428   0.03725   0.03789   0.04060   0.04916
 Alpha virt. eigenvalues --    0.05539   0.05725   0.06662   0.06936   0.07731
 Alpha virt. eigenvalues --    0.07783   0.09855   0.10037   0.10874   0.11203

 Mulliken charges:
               1
     1  C    2.371816
     2  C   -0.373712
     3  C    0.264850
     4  C   -0.776033
     5  C   -0.180601
     6  C   -0.104415
     7  C   -0.358286
     8  O   -1.246173
     9  O   -1.393246
    10  H    0.155818
    11  H    0.155818
    12  H    0.109623
    13  H   -0.000220
    14  H    0.172002
    15  H    0.172002
    16  H    0.193895
    17  H    0.193895
    18  H    0.112382
    19  H    0.112382
    20  H    0.111238
    21  H    0.111238
    22  H    0.097863
    23  H    0.097863
 Sum of Mulliken charges =  -0.00000

 Dipole moment (field-independent basis, Debye):
    X=             -1.0000    Y=              1.3827    Z=              0.0000  Tot=              1.7064

 Test job not archived.
 1\1\GINC-SE183\SP\RHF\Aug-CC-pVDZ\C7H14O2\OHZDE\05-Apr-2025\0\\#t hf a
 ug-cc-pvdz iop(5/13=1,5/36=2,99/5=2) pseudo=read geom=check guess=(rea
 d,tcheck) scf=(maxcycle=1)\\title\\0,1\C,0,1.488939,1.017839,0.\C,0,-3
 .766271,-2.671937,0.\C,0,3.138511,2.711319,0.\C,0,0.,0.760101,0.\C,0,-
 2.256886,-2.436231,0.\C,0,-0.365395,-0.720041,0.\C,0,-1.876026,-0.9557
 11,0.\O,0,2.352499,0.176679,0.\O,0,1.749338,2.343823,0.\H,0,-4.235468,
 -2.228565,0.880789\H,0,-4.235468,-2.228565,-0.880789\H,0,-4.00323,-3.7
 36674,0.\H,0,3.153724,3.796785,0.\H,0,3.636516,2.322018,-0.886207\H,0,

 Normal termination of Gaussian 16 at Sat Apr  5 23:10:38 2025.
