 Gaussian 16, Revision C.01,

 ----------------------------------------------------------------------
 #t hf aug-cc-pvdz symm=none int=(grid=ultrafine) guess=(read,tcheck) s
 table=(opt,rrhf)
 ----------------------------------------------------------------------
 -----
 title
 -----
 Symbolic Z-matrix:
 Charge =  0 Multiplicity = 1

 SCF Done:  E(RHF) =  -455.332017630     A.U. after   15 cycles
 Normal termination of Gaussian 16 at Sat Apr  5 23:09:03 2025.
 Gaussian 16:  ES64L-G16RevC.01  3-Jul-2019

 ----------------------------------------------------------------------
 #t hf aug-cc-pvdz iop(5/13=1,5/36=2,99/5=2) pseudo=read geom=check gue
 ss=(read,tcheck) scf=(maxcycle=1)
 ----------------------------------------------------------------------
 -----
 title
 -----
 Structure from the checkpoint file:  "methyl-3-furancarboxylate.chk"
 Charge =  0 Multiplicity = 1

                         Standard orientation:
 ---------------------------------------------------------------------
 Center     Atomic      Atomic             Coordinates (Angstroms)
 Number     Number       Type             X           Y           Z
 ---------------------------------------------------------------------
      1          6           0       -1.374452    0.901229    0.000000
      2          6           0       -1.354402    2.251618    0.000000
      3          6           0        0.741286    1.626446    0.000000
      4          6           0        0.000000    0.483904    0.000000
      5          6           0        0.566044   -0.870351    0.000000
      6          6           0        0.057679   -3.174642    0.000000
      7          8           0        1.747782   -1.126769    0.000000
      8          8           0       -0.063377    2.708616    0.000000
      9          8           0       -0.400911   -1.813271    0.000000
     10          1           0       -2.241521    0.265834    0.000000
     11          1           0       -2.117954    3.007351    0.000000
     12          1           0        1.801169    1.802830    0.000000
     13          1           0        0.656818   -3.374632    0.886389
     14          1           0        0.656818   -3.374632   -0.886389
     15          1           0       -0.840215   -3.784584    0.000000
 ---------------------------------------------------------------------

 SCF Done:  E(RHF) =  -455.785450757     A.U. after    2 cycles

 The electronic state is 1-A'.
 Alpha  occ. eigenvalues --  -20.62951 -20.59320 -20.53200 -11.39593 -11.32386
 Alpha  occ. eigenvalues --  -11.30792 -11.29779 -11.25451 -11.25343  -1.56545
 Alpha  occ. eigenvalues --   -1.54430  -1.44959  -1.12357  -1.03392  -0.98783
 Alpha  occ. eigenvalues --   -0.87469  -0.81706  -0.78686  -0.76212  -0.68431
 Alpha  occ. eigenvalues --   -0.67736  -0.67040  -0.64924  -0.63029  -0.59893
 Alpha  occ. eigenvalues --   -0.59093  -0.56134  -0.56052  -0.53295  -0.45898
 Alpha  occ. eigenvalues --   -0.44879  -0.41638  -0.34579
 Alpha virt. eigenvalues --    0.03312   0.03673   0.04494   0.05169   0.05977
 Alpha virt. eigenvalues --    0.06335   0.08007   0.09675   0.10117   0.11039
 Alpha virt. eigenvalues --    0.11446   0.11720   0.13503   0.13716   0.14178

 Mulliken charges:
               1
     1  C   -0.142718
     2  C    0.915670
     3  C    0.370684
     4  C    1.271757
     5  C    2.003129
     6  C    0.209446
     7  O   -1.361936
     8  O   -1.526852
     9  O   -1.428339
    10  H   -0.272982
    11  H   -0.149529
    12  H   -0.256575
    13  H    0.186009
    14  H    0.186009
    15  H   -0.003772
 Sum of Mulliken charges =  -0.00000

 Dipole moment (field-independent basis, Debye):
    X=             -2.1222    Y=             -0.1905    Z=              0.0000  Tot=              2.1307

 Test job not archived.
 1\1\GINC-SE040\SP\RHF\Aug-CC-pVDZ\C6H6O3\OHZDE\05-Apr-2025\0\\#t hf au
 g-cc-pvdz iop(5/13=1,5/36=2,99/5=2) pseudo=read geom=check guess=(read
 ,tcheck) scf=(maxcycle=1)\\title\\0,1\C,0,-1.374452,0.901229,0.\C,0,-1
 .354402,2.251618,0.\C,0,0.741286,1.626446,0.\C,0,0.,0.483904,0.\C,0,0.
 566044,-0.870351,0.\C,0,0.057679,-3.174642,0.\O,0,1.747782,-1.126769,0
 .\O,0,-0.063377,2.708616,0.\O,0,-0.400911,-1.813271,0.\H,0,-2.241521,0
 .265834,0.\H,0,-2.117954,3.007351,0.\H,0,1.801169,1.80283,0.\H,0,0.656
 818,-3.374632,0.886389\H,0,0.656818,-3.374632,-0.886389\H,0,-0.840215,

 Normal termination of Gaussian 16 at Sat Apr  5 23:09:17 2025.
