 Gaussian 16, Revision C.01,

 ----------------------------------------------------------------------
 #t hf aug-cc-pvdz symm=none int=(grid=ultrafine) guess=(read,tcheck) s
 table=(opt,rrhf)
 ----------------------------------------------------------------------
 -----
 title
 -----
 Symbolic Z-matrix:
 Charge =  0 Multiplicity = 1

 SCF Done:  E(RHF) =  -281.535784730     A.U. after   15 cycles
 Normal termination of Gaussian 16 at Sat Apr  5 23:08:47 2025.
 Gaussian 16:  ES64L-G16RevC.01  3-Jul-2019

 ----------------------------------------------------------------------
 #t hf aug-cc-pvdz iop(5/13=1,5/36=2,99/5=2) pseudo=read geom=check gue
 ss=(read,tcheck) scf=(maxcycle=1)
 ----------------------------------------------------------------------
 -----
 title
 -----
 Structure from the checkpoint file:  "methyl_peroxycyanate.chk"
 Charge =  0 Multiplicity = 1

                         Standard orientation:
 ---------------------------------------------------------------------
 Center     Atomic      Atomic             Coordinates (Angstroms)
 Number     Number       Type             X           Y           Z
 ---------------------------------------------------------------------
      1          8           0        0.168175    0.731979   -0.169936
      2          8           0       -0.875385    0.011600    0.633516
      3          7           0        2.292619   -0.465281   -0.025231
      4          6           0        1.271007    0.074684   -0.071494
      5          6           0       -1.910219   -0.317169   -0.281016
      6          1           0       -2.328484    0.577593   -0.741855
      7          1           0       -1.568489   -1.027299   -1.034576
      8          1           0       -2.658412   -0.787050    0.359468
 ---------------------------------------------------------------------

 SCF Done:  E(RHF) =  -281.808299870     A.U. after    2 cycles

 The electronic state is 1-A.
 Alpha  occ. eigenvalues --  -20.69867 -20.68861 -15.52253 -11.34936 -11.33298
 Alpha  occ. eigenvalues --   -1.65588  -1.41282  -1.23795  -0.97517  -0.82837
 Alpha  occ. eigenvalues --   -0.73305  -0.72175  -0.66501  -0.62563  -0.61504
 Alpha  occ. eigenvalues --   -0.59107  -0.52201  -0.49557  -0.47638
 Alpha virt. eigenvalues --    0.02724   0.04482   0.04892   0.07063   0.07733
 Alpha virt. eigenvalues --    0.11005   0.11411   0.11789   0.13310   0.14698
 Alpha virt. eigenvalues --    0.14806   0.16972   0.19119   0.19658   0.21095

 Mulliken charges:
               1
     1  O   -0.588653
     2  O   -0.635584
     3  N    0.624386
     4  C   -0.177059
     5  C    0.393066
     6  H    0.158073
     7  H    0.151448
     8  H    0.074324
 Sum of Mulliken charges =  -0.00000

 Dipole moment (field-independent basis, Debye):
    X=             -5.4990    Y=              0.4675    Z=             -0.8954  Tot=              5.5910

 Test job not archived.
 1\1\GINC-SE115\SP\RHF\Aug-CC-pVDZ\C2H3N1O2\OHZDE\05-Apr-2025\0\\#t hf
 aug-cc-pvdz iop(5/13=1,5/36=2,99/5=2) pseudo=read geom=check guess=(re
 ad,tcheck) scf=(maxcycle=1)\\title\\0,1\O,0,0.168175,0.731979,-0.16993
 6\O,0,-0.875385,0.0116,0.633516\N,0,2.292619,-0.465281,-0.025231\C,0,1
 .271007,0.074684,-0.071494\C,0,-1.910219,-0.317169,-0.281016\H,0,-2.32
 8484,0.577593,-0.741855\H,0,-1.568489,-1.027299,-1.034576\H,0,-2.65841
 2,-0.78705,0.359468\\Version=ES64L-G16RevC.01\State=1-A\HF=-281.808299
 9\RMSD=1.128e-02\Dipole=-2.1634571,0.1839349,-0.3522655\Quadrupole=-2.

 Normal termination of Gaussian 16 at Sat Apr  5 23:08:50 2025.
