 Gaussian 16, Revision C.01,

 ----------------------------------------------------------------------
 #t hf aug-cc-pvdz symm=none int=(grid=ultrafine) guess=(read,tcheck) s
 table=(opt,rrhf)
 ----------------------------------------------------------------------
 -----
 title
 -----
 Symbolic Z-matrix:
 Charge =  0 Multiplicity = 1

 SCF Done:  E(RHF) =  -437.730316646     A.U. after   11 cycles
 Normal termination of Gaussian 16 at Sat Apr  5 23:08:00 2025.
 Gaussian 16:  ES64L-G16RevC.01  3-Jul-2019

 ----------------------------------------------------------------------
 #t hf aug-cc-pvdz iop(5/13=1,5/36=2,99/5=2) pseudo=read geom=check gue
 ss=(read,tcheck) scf=(maxcycle=1)
 ----------------------------------------------------------------------
 -----
 title
 -----
 Structure from the checkpoint file:  "methanethiol.chk"
 Charge =  0 Multiplicity = 1

                         Standard orientation:
 ---------------------------------------------------------------------
 Center     Atomic      Atomic             Coordinates (Angstroms)
 Number     Number       Type             X           Y           Z
 ---------------------------------------------------------------------
      1          6           0        0.048051    1.161675    0.000000
      2         16           0        0.048051   -0.668872    0.000000
      3          1           0       -0.431921    1.553804    0.892468
      4          1           0       -0.431921    1.553804   -0.892468
      5          1           0        1.092879    1.462961    0.000000
      6          1           0       -1.286160   -0.838674    0.000000
 ---------------------------------------------------------------------

 SCF Done:  E(RHF) =  -437.837877000     A.U. after    2 cycles

 The electronic state is 1-A'.
 Alpha  occ. eigenvalues --  -93.94954 -11.27062  -8.23025  -6.20882  -6.20735
 Alpha  occ. eigenvalues --   -6.20501  -1.05955  -0.88675  -0.61691  -0.60052
 Alpha  occ. eigenvalues --   -0.53640  -0.46777  -0.36486
 Alpha virt. eigenvalues --    0.03513   0.04614   0.05503   0.06036   0.10212
 Alpha virt. eigenvalues --    0.11887   0.13793   0.14195   0.15904   0.16062
 Alpha virt. eigenvalues --    0.16807   0.21385   0.24587   0.26079   0.26345

 Mulliken charges:
               1
     1  C   -0.677260
     2  S   -0.107299
     3  H    0.152020
     4  H    0.152020
     5  H    0.154339
     6  H    0.326180
 Sum of Mulliken charges =  -0.00000

 Dipole moment (field-independent basis, Debye):
    X=             -0.8276    Y=              1.5395    Z=              0.0000  Tot=              1.7479

 Test job not archived.
 1\1\GINC-SE187\SP\RHF\Aug-CC-pVDZ\C1H4S1\OHZDE\05-Apr-2025\0\\#t hf au
 g-cc-pvdz iop(5/13=1,5/36=2,99/5=2) pseudo=read geom=check guess=(read
 ,tcheck) scf=(maxcycle=1)\\title\\0,1\C,0,0.048051,1.161675,0.\S,0,0.0
 48051,-0.668872,0.\H,0,-0.431921,1.553804,0.892468\H,0,-0.431921,1.553
 804,-0.892468\H,0,1.092879,1.462961,0.\H,0,-1.28616,-0.838674,0.\\Vers
 ion=ES64L-G16RevC.01\State=1-A'\HF=-437.837877\RMSD=5.829e-03\Dipole=-
 0.3256036,0.6056911,0.\Quadrupole=1.2068677,0.3648846,-1.5717524,1.021
 3316,0.,0.\PG=CS [SG(C1H2S1),X(H2)]\\@

 Normal termination of Gaussian 16 at Sat Apr  5 23:08:03 2025.
