 Gaussian 16, Revision C.01,

 ----------------------------------------------------------------------
 #t hf aug-cc-pvdz symm=none int=(grid=ultrafine) guess=(read,tcheck) s
 table=(opt,rrhf)
 ----------------------------------------------------------------------
 -----
 title
 -----
 Symbolic Z-matrix:
 Charge =  0 Multiplicity = 1

 SCF Done:  E(RHF) =  -457.404667689     A.U. after   16 cycles
 Normal termination of Gaussian 16 at Sat Apr  5 23:09:38 2025.
 Gaussian 16:  ES64L-G16RevC.01  3-Jul-2019

 ----------------------------------------------------------------------
 #t hf aug-cc-pvdz iop(5/13=1,5/36=2,99/5=2) pseudo=read geom=check gue
 ss=(read,tcheck) scf=(maxcycle=1)
 ----------------------------------------------------------------------
 -----
 title
 -----
 Structure from the checkpoint file:  "methyl_benzoate.chk"
 Charge =  0 Multiplicity = 1

                         Standard orientation:
 ---------------------------------------------------------------------
 Center     Atomic      Atomic             Coordinates (Angstroms)
 Number     Number       Type             X           Y           Z
 ---------------------------------------------------------------------
      1          6           0       -1.629703    2.519691    0.000000
      2          6           0       -0.245437    2.661629    0.000000
      3          6           0       -2.199329    1.250750    0.000000
      4          6           0        0.567055    1.537570    0.000000
      5          6           0       -1.389364    0.123082    0.000000
      6          6           0        0.000000    0.261893    0.000000
      7          6           0        0.918942   -0.909822    0.000000
      8          6           0        1.082579   -3.263273    0.000000
      9          8           0        2.125324   -0.833326    0.000000
     10          8           0        0.258943   -2.087035    0.000000
     11          1           0       -2.263404    3.396510    0.000000
     12          1           0        0.198432    3.647794    0.000000
     13          1           0       -3.275165    1.139998    0.000000
     14          1           0        1.643793    1.627324    0.000000
     15          1           0       -1.827393   -0.863439    0.000000
     16          1           0        1.713986   -3.286294    0.886283
     17          1           0        1.713986   -3.286294   -0.886283
     18          1           0        0.393171   -4.101840    0.000000
 ---------------------------------------------------------------------

 SCF Done:  E(RHF) =  -457.867301300     A.U. after    2 cycles

 The electronic state is 1-A'.
 Alpha  occ. eigenvalues --  -20.59007 -20.53097 -11.39027 -11.29620 -11.25880
 Alpha  occ. eigenvalues --  -11.25822 -11.25727 -11.25506 -11.25071 -11.24988
 Alpha  occ. eigenvalues --   -1.54316  -1.44789  -1.17154  -1.05497  -1.03062
 Alpha  occ. eigenvalues --   -0.97568  -0.87470  -0.84698  -0.78849  -0.75013
 Alpha  occ. eigenvalues --   -0.69485  -0.68086  -0.67341  -0.64304  -0.64137
 Alpha  occ. eigenvalues --   -0.61296  -0.59300  -0.56590  -0.53846  -0.52945
 Alpha  occ. eigenvalues --   -0.51466  -0.51330  -0.45629  -0.44510  -0.35999
 Alpha  occ. eigenvalues --   -0.35641
 Alpha virt. eigenvalues --    0.03181   0.03499   0.03941   0.04830   0.05376
 Alpha virt. eigenvalues --    0.06047   0.06927   0.07040   0.07536   0.09996
 Alpha virt. eigenvalues --    0.10454   0.10732   0.11483   0.12990   0.13625

 Mulliken charges:
               1
     1  C   -0.079440
     2  C    0.399145
     3  C    0.256180
     4  C   -0.399108
     5  C    0.033995
     6  C    2.016315
     7  C    1.395580
     8  C    0.207100
     9  O   -1.358969
    10  O   -1.530795
    11  H   -0.218446
    12  H   -0.219938
    13  H   -0.234363
    14  H   -0.340810
    15  H   -0.303430
    16  H    0.194413
    17  H    0.194413
    18  H   -0.011843
 Sum of Mulliken charges =  -0.00000

 Dipole moment (field-independent basis, Debye):
    X=             -2.0941    Y=             -0.1769    Z=             -0.0000  Tot=              2.1016

 Test job not archived.
 1\1\GINC-SE188\SP\RHF\Aug-CC-pVDZ\C8H8O2\OHZDE\05-Apr-2025\0\\#t hf au
 g-cc-pvdz iop(5/13=1,5/36=2,99/5=2) pseudo=read geom=check guess=(read
 ,tcheck) scf=(maxcycle=1)\\title\\0,1\C,0,-1.629703,2.519691,0.\C,0,-0
 .245437,2.661629,0.\C,0,-2.199329,1.25075,0.\C,0,0.567055,1.53757,0.\C
 ,0,-1.389364,0.123082,0.\C,0,0.,0.261893,0.\C,0,0.918942,-0.909822,0.\
 C,0,1.082579,-3.263273,0.\O,0,2.125324,-0.833326,0.\O,0,0.258943,-2.08
 7035,0.\H,0,-2.263404,3.39651,0.\H,0,0.198432,3.647794,0.\H,0,-3.27516
 5,1.139998,0.\H,0,1.643793,1.627324,0.\H,0,-1.827393,-0.863439,0.\H,0,

 Normal termination of Gaussian 16 at Sat Apr  5 23:10:27 2025.
