 Gaussian 16, Revision C.01,

 ----------------------------------------------------------------------
 #t hf aug-cc-pvdz symm=none int=(grid=ultrafine) guess=(read,tcheck) s
 table=(opt,rrhf)
 ----------------------------------------------------------------------
 -----
 title
 -----
 Symbolic Z-matrix:
 Charge =  0 Multiplicity = 1

 SCF Done:  E(RHF) =  -816.962883021     A.U. after   15 cycles
 Normal termination of Gaussian 16 at Sat Apr  5 23:10:19 2025.
 Gaussian 16:  ES64L-G16RevC.01  3-Jul-2019

 ----------------------------------------------------------------------
 #t hf aug-cc-pvdz iop(5/13=1,5/36=2,99/5=2) pseudo=read geom=check gue
 ss=(read,tcheck) scf=(maxcycle=1)
 ----------------------------------------------------------------------
 -----
 title
 -----
 Structure from the checkpoint file:  "methylphenylsulfone.chk"
 Charge =  0 Multiplicity = 1

                         Standard orientation:
 ---------------------------------------------------------------------
 Center     Atomic      Atomic             Coordinates (Angstroms)
 Number     Number       Type             X           Y           Z
 ---------------------------------------------------------------------
      1          6           0        0.091342    3.082579   -0.000000
      2          6           0        0.094844    2.390597    1.206836
      3          6           0        0.094844    2.390597   -1.206836
      4          6           0        0.094844    1.001048    1.213029
      5          6           0        0.094844    1.001048   -1.213029
      6          6           0        0.088331    0.322160   -0.000000
      7          6           0       -1.655962   -1.917459    0.000000
      8          8           0        0.656057   -1.929130   -1.266976
      9          8           0        0.656057   -1.929130    1.266976
     10         16           0        0.091079   -1.476746    0.000000
     11          1           0        0.094921    4.164148   -0.000000
     12          1           0        0.106394    2.931653    2.142942
     13          1           0        0.106394    2.931653   -2.142942
     14          1           0        0.122551    0.445707    2.139560
     15          1           0        0.122551    0.445707   -2.139560
     16          1           0       -2.120878   -1.521537   -0.898564
     17          1           0       -1.683749   -3.005188    0.000000
     18          1           0       -2.120878   -1.521537    0.898564
 ---------------------------------------------------------------------

 SCF Done:  E(RHF) =  -817.453460957     A.U. after    2 cycles

 The electronic state is 1-A'.
 Alpha  occ. eigenvalues --  -94.19022 -20.53074 -20.53067 -11.28655 -11.28643
 Alpha  occ. eigenvalues --  -11.27491 -11.27486 -11.27204 -11.26649 -11.26635
 Alpha  occ. eigenvalues --   -8.44286  -6.42403  -6.42196  -6.42122  -1.54343
 Alpha  occ. eigenvalues --   -1.42647  -1.19036  -1.08384  -1.04760  -1.03732
 Alpha  occ. eigenvalues --   -0.90908  -0.86684  -0.82109  -0.74989  -0.69375
 Alpha  occ. eigenvalues --   -0.68144  -0.66944  -0.65349  -0.64905  -0.62980
 Alpha  occ. eigenvalues --   -0.60974  -0.60381  -0.55644  -0.54084  -0.53500
 Alpha  occ. eigenvalues --   -0.48603  -0.48599  -0.45518  -0.43566  -0.38129
 Alpha  occ. eigenvalues --   -0.37236
 Alpha virt. eigenvalues --    0.02672   0.03235   0.03357   0.04579   0.05203
 Alpha virt. eigenvalues --    0.05788   0.06831   0.07288   0.07338   0.08525
 Alpha virt. eigenvalues --    0.10089   0.10734   0.12021   0.12319   0.13562

 Mulliken charges:
               1
     1  C   -0.000127
     2  C    0.466136
     3  C    0.466136
     4  C   -0.353615
     5  C   -0.353615
     6  C    0.774022
     7  C   -0.864369
     8  O   -1.634430
     9  O   -1.634430
    10  S    3.635542
    11  H   -0.211241
    12  H   -0.217354
    13  H   -0.217354
    14  H   -0.257867
    15  H   -0.257867
    16  H    0.223380
    17  H    0.213672
    18  H    0.223380
 Sum of Mulliken charges =   0.00000

 Dipole moment (field-independent basis, Debye):
    X=             -3.8477    Y=              4.0367    Z=              0.0000  Tot=              5.5767

 Test job not archived.
 1\1\GINC-SE210\SP\RHF\Aug-CC-pVDZ\C7H8O2S1\OHZDE\05-Apr-2025\0\\#t hf
 aug-cc-pvdz iop(5/13=1,5/36=2,99/5=2) pseudo=read geom=check guess=(re
 ad,tcheck) scf=(maxcycle=1)\\title\\0,1\C,0,0.091342,3.082579,0.\C,0,0
 .094844,2.390597,1.206836\C,0,0.094844,2.390597,-1.206836\C,0,0.094844
 ,1.001048,1.213029\C,0,0.094844,1.001048,-1.213029\C,0,0.088331,0.3221
 6,0.\C,0,-1.655962,-1.917459,0.\O,0,0.656057,-1.92913,-1.266976\O,0,0.
 656057,-1.92913,1.266976\S,0,0.091079,-1.476746,0.\H,0,0.094921,4.1641
 48,0.\H,0,0.106394,2.931653,2.142942\H,0,0.106394,2.931653,-2.142942\H

 Normal termination of Gaussian 16 at Sat Apr  5 23:10:26 2025.
