 Gaussian 16, Revision C.01,

 ----------------------------------------------------------------------
 #t hf aug-cc-pvdz symm=none int=(grid=ultrafine) guess=(read,tcheck) s
 table=(opt,rrhf)
 ----------------------------------------------------------------------
 -----
 title
 -----
 Symbolic Z-matrix:
 Charge =  0 Multiplicity = 1

 SCF Done:  E(RHF) =  -227.821752327     A.U. after   13 cycles
 Normal termination of Gaussian 16 at Sat Apr  5 23:08:25 2025.
 Gaussian 16:  ES64L-G16RevC.01  3-Jul-2019

 ----------------------------------------------------------------------
 #t hf aug-cc-pvdz iop(5/13=1,5/36=2,99/5=2) pseudo=read geom=check gue
 ss=(read,tcheck) scf=(maxcycle=1)
 ----------------------------------------------------------------------
 -----
 title
 -----
 Structure from the checkpoint file:  "methyl_formate.chk"
 Charge =  0 Multiplicity = 1

                         Standard orientation:
 ---------------------------------------------------------------------
 Center     Atomic      Atomic             Coordinates (Angstroms)
 Number     Number       Type             X           Y           Z
 ---------------------------------------------------------------------
      1          6           0        0.932507   -0.092918    0.000000
      2          6           0       -1.369372    0.416095    0.000000
      3          8           0        0.725872   -1.275132    0.000000
      4          8           0        0.000000    0.866990    0.000000
      5          1           0        1.926421    0.370591    0.000000
      6          1           0       -1.972732    1.317760    0.000000
      7          1           0       -1.569738   -0.181136    0.887236
      8          1           0       -1.569738   -0.181136   -0.887236
 ---------------------------------------------------------------------

 SCF Done:  E(RHF) =  -228.049581958     A.U. after    2 cycles

 The electronic state is 1-A'.
 Alpha  occ. eigenvalues --  -20.60123 -20.54670 -11.39572 -11.30371  -1.55174
 Alpha  occ. eigenvalues --   -1.46155  -0.99561  -0.82843  -0.74476  -0.68608
 Alpha  occ. eigenvalues --   -0.67760  -0.60228  -0.56036  -0.53841  -0.46319
 Alpha  occ. eigenvalues --   -0.45624
 Alpha virt. eigenvalues --    0.03579   0.04384   0.05539   0.05794   0.09997
 Alpha virt. eigenvalues --    0.10126   0.10739   0.14299   0.15553   0.15739
 Alpha virt. eigenvalues --    0.17181   0.17547   0.18548   0.21038   0.25239

 Mulliken charges:
               1
     1  C    1.320072
     2  C    0.264866
     3  O   -0.932920
     4  O   -1.059490
     5  H    0.117060
     6  H    0.003111
     7  H    0.143651
     8  H    0.143651
 Sum of Mulliken charges =  -0.00000

 Dipole moment (field-independent basis, Debye):
    X=             -0.8689    Y=              1.8144    Z=              0.0000  Tot=              2.0117

 Test job not archived.
 1\1\GINC-SE115\SP\RHF\Aug-CC-pVDZ\C2H4O2\OHZDE\05-Apr-2025\0\\#t hf au
 g-cc-pvdz iop(5/13=1,5/36=2,99/5=2) pseudo=read geom=check guess=(read
 ,tcheck) scf=(maxcycle=1)\\title\\0,1\C,0,0.932507,-0.092918,0.\C,0,-1
 .369372,0.416095,0.\O,0,0.725872,-1.275132,0.\O,0,0.,0.86699,0.\H,0,1.
 926421,0.370591,0.\H,0,-1.972732,1.31776,0.\H,0,-1.569738,-0.181136,0.
 887236\H,0,-1.569738,-0.181136,-0.887236\\Version=ES64L-G16RevC.01\Sta
 te=1-A'\HF=-228.049582\RMSD=7.646e-03\Dipole=-0.3418343,0.713858,0.\Qu
 adrupole=3.4602399,-3.8682186,0.4079787,1.0592616,0.,0.\PG=CS [SG(C2H2

 Normal termination of Gaussian 16 at Sat Apr  5 23:08:28 2025.
