 Gaussian 16, Revision C.01,

 ----------------------------------------------------------------------
 #t hf aug-cc-pvdz symm=none int=(grid=ultrafine) guess=(read,tcheck) s
 table=(opt,rrhf)
 ----------------------------------------------------------------------
 -----
 title
 -----
 Symbolic Z-matrix:
 Charge =  0 Multiplicity = 1

 SCF Done:  E(RHF) =  -354.402222982     A.U. after   15 cycles
 Normal termination of Gaussian 16 at Sat Apr  5 23:08:57 2025.
 Gaussian 16:  ES64L-G16RevC.01  3-Jul-2019

 ----------------------------------------------------------------------
 #t hf aug-cc-pvdz iop(5/13=1,5/36=2,99/5=2) pseudo=read geom=check gue
 ss=(read,tcheck) scf=(maxcycle=1)
 ----------------------------------------------------------------------
 -----
 title
 -----
 Structure from the checkpoint file:  "methyliminomethylenemalononitrile.chk"
 Charge =  0 Multiplicity = 1

                         Standard orientation:
 ---------------------------------------------------------------------
 Center     Atomic      Atomic             Coordinates (Angstroms)
 Number     Number       Type             X           Y           Z
 ---------------------------------------------------------------------
      1          7           0        1.861945    0.000000   -0.456084
      2          7           0       -1.883795   -2.246172    0.097385
      3          7           0       -1.883789    2.246175    0.097385
      4          6           0       -0.633316   -0.000000   -0.061156
      5          6           0        0.702935   -0.000000   -0.213424
      6          6           0       -1.327965   -1.238667    0.025608
      7          6           0       -1.327962    1.238668    0.025608
      8          6           0        3.099732   -0.000002    0.296584
      9          1           0        3.669604    0.881017    0.009638
     10          1           0        3.669563   -0.881067    0.009698
     11          1           0        2.919761    0.000038    1.370540
 ---------------------------------------------------------------------

 SCF Done:  E(RHF) =  -354.748386996     A.U. after    2 cycles

 The electronic state is 1-A.
 Alpha  occ. eigenvalues --  -15.60777 -15.52995 -15.52981 -11.40660 -11.34077
 Alpha  occ. eigenvalues --  -11.33882 -11.30628 -11.30624  -1.35106  -1.25755
 Alpha  occ. eigenvalues --   -1.24602  -1.14258  -1.06369  -0.86159  -0.83482
 Alpha  occ. eigenvalues --   -0.78265  -0.71340  -0.69085  -0.62440  -0.62094
 Alpha  occ. eigenvalues --   -0.61475  -0.56415  -0.55672  -0.53212  -0.52982
 Alpha  occ. eigenvalues --   -0.51566  -0.40281
 Alpha virt. eigenvalues --    0.01247   0.03785   0.03902   0.05214   0.06034
 Alpha virt. eigenvalues --    0.06578   0.08096   0.08112   0.08997   0.10957
 Alpha virt. eigenvalues --    0.11082   0.11903   0.12457   0.12884   0.13365

 Mulliken charges:
               1
     1  N    0.879143
     2  N    0.912382
     3  N    0.912383
     4  C    2.559609
     5  C   -1.297580
     6  C   -2.114812
     7  C   -2.114816
     8  C   -0.201741
     9  H    0.167448
    10  H    0.167452
    11  H    0.130533
 Sum of Mulliken charges =  -0.00000

 Dipole moment (field-independent basis, Debye):
    X=              7.9104    Y=             -0.0000    Z=              0.6356  Tot=              7.9359

 Test job not archived.
 1\1\GINC-SE106\SP\RHF\Aug-CC-pVDZ\C5H3N3\OHZDE\05-Apr-2025\0\\#t hf au
 g-cc-pvdz iop(5/13=1,5/36=2,99/5=2) pseudo=read geom=check guess=(read
 ,tcheck) scf=(maxcycle=1)\\title\\0,1\N,0,1.861945,0.,-0.456084\N,0,-1
 .883795,-2.246172,0.097385\N,0,-1.883789,2.246175,0.097385\C,0,-0.6333
 16,0.,-0.061156\C,0,0.702935,0.,-0.213424\C,0,-1.327965,-1.238667,0.02
 5608\C,0,-1.327962,1.238668,0.025608\C,0,3.099732,-0.000002,0.296584\H
 ,0,3.669604,0.881017,0.009638\H,0,3.669563,-0.881067,0.009698\H,0,2.91
 9761,0.000038,1.37054\\Version=ES64L-G16RevC.01\State=1-A\HF=-354.7483

 Normal termination of Gaussian 16 at Sat Apr  5 23:09:16 2025.
