 Gaussian 16, Revision C.01,

 ----------------------------------------------------------------------
 #t hf aug-cc-pvdz symm=none int=(grid=ultrafine) guess=(read,tcheck) s
 table=(opt,rrhf)
 ----------------------------------------------------------------------
 -----
 title
 -----
 Symbolic Z-matrix:
 Charge =  0 Multiplicity = 1

 SCF Done:  E(RHF) =  -460.904214075     A.U. after   14 cycles

 1\1\GINC-SE213\Stability\RHF\Aug-CC-pVDZ\C8H14O2\OHZDE\05-Apr-2025\0\\
 #t hf aug-cc-pvdz symm=none int=(grid=ultrafine) guess=(read,tcheck) s
 table=(opt,rrhf)\\title\\0,1\C,0,-1.111854,-0.407602,0.125096\C,0,2.51
 9955,0.35947,-0.688408\C,0,1.969676,-1.052974,-0.470654\C,0,1.411901,1
 .411583,-0.589259\C,0,1.194356,-1.168658,0.84717\C,0,0.666104,1.312877
 ,0.744533\C,0,0.0999,-0.101797,0.994429\C,0,-3.28167,0.319162,-0.47119
 8\O,0,-1.25017,-1.37067,-0.588255\O,0,-2.07217,0.532062,0.27385\H,0,3.
 28442,0.574297,0.066511\H,0,3.016327,0.424143,-1.65902\H,0,1.308119,-1

 Normal termination of Gaussian 16 at Sat Apr  5 23:11:58 2025.
 Gaussian 16:  ES64L-G16RevC.01  3-Jul-2019

 ----------------------------------------------------------------------
 #t hf aug-cc-pvdz iop(5/13=1,5/36=2,99/5=2) pseudo=read geom=check gue
 ss=(read,tcheck) scf=(maxcycle=1)
 ----------------------------------------------------------------------
 -----
 title
 -----
 Structure from the checkpoint file:  "methylcyclohexanoate.chk"
 Charge =  0 Multiplicity = 1

                         Standard orientation:
 ---------------------------------------------------------------------
 Center     Atomic      Atomic             Coordinates (Angstroms)
 Number     Number       Type             X           Y           Z
 ---------------------------------------------------------------------
      1          6           0       -1.111854   -0.407602    0.125096
      2          6           0        2.519955    0.359470   -0.688408
      3          6           0        1.969676   -1.052974   -0.470654
      4          6           0        1.411901    1.411583   -0.589259
      5          6           0        1.194356   -1.168658    0.847170
      6          6           0        0.666104    1.312877    0.744533
      7          6           0        0.099900   -0.101797    0.994429
      8          6           0       -3.281670    0.319161   -0.471198
      9          8           0       -1.250170   -1.370670   -0.588255
     10          8           0       -2.072170    0.532062    0.273850
     11          1           0        3.284420    0.574297    0.066511
     12          1           0        3.016327    0.424143   -1.659020
     13          1           0        1.308119   -1.318004   -1.297782
     14          1           0        2.784895   -1.779646   -0.477318
     15          1           0        1.828010    2.414978   -0.702103
     16          1           0        0.706946    1.275720   -1.416225
     17          1           0        0.756983   -2.162764    0.937526
     18          1           0        1.888488   -1.047022    1.684150
     19          1           0        1.361886    1.538168    1.557947
     20          1           0       -0.133635    2.050051    0.799485
     21          1           0       -0.284837   -0.125874    2.018897
     22          1           0       -3.073608    0.295601   -1.539403
     23          1           0       -3.927090    1.157270   -0.226901
     24          1           0       -3.748380   -0.620420   -0.180785
 ---------------------------------------------------------------------

 SCF Done:  E(RHF) =  -461.386818700     A.U. after    2 cycles

 The electronic state is 1-A.
 Alpha  occ. eigenvalues --  -20.58498 -20.52923 -11.38021 -11.29347 -11.24882
 Alpha  occ. eigenvalues --  -11.23272 -11.22614 -11.22570 -11.22222 -11.21781
 Alpha  occ. eigenvalues --   -1.53842  -1.44443  -1.12869  -1.03388  -1.00726
 Alpha  occ. eigenvalues --   -0.96814  -0.86478  -0.83830  -0.79207  -0.75445
 Alpha  occ. eigenvalues --   -0.68747  -0.67973  -0.67454  -0.65108  -0.61944
 Alpha  occ. eigenvalues --   -0.61059  -0.59544  -0.56186  -0.54179  -0.53733
 Alpha  occ. eigenvalues --   -0.53379  -0.52236  -0.51333  -0.49203  -0.47010
 Alpha  occ. eigenvalues --   -0.45211  -0.44146  -0.44065  -0.42601
 Alpha virt. eigenvalues --    0.03304   0.03365   0.03582   0.04061   0.05227
 Alpha virt. eigenvalues --    0.05508   0.05762   0.05978   0.06515   0.08156
 Alpha virt. eigenvalues --    0.08422   0.08915   0.09411   0.09830   0.12617

 Mulliken charges:
               1
     1  C    2.386088
     2  C   -0.208262
     3  C   -0.223458
     4  C   -0.243390
     5  C   -0.049209
     6  C   -0.182635
     7  C   -0.658553
     8  C    0.216802
     9  O   -1.326223
    10  O   -1.525398
    11  H    0.144550
    12  H    0.089428
    13  H    0.160764
    14  H    0.100816
    15  H    0.096105
    16  H    0.153242
    17  H    0.102503
    18  H    0.147503
    19  H    0.154951
    20  H    0.106128
    21  H    0.258959
    22  H    0.150788
    23  H    0.000405
    24  H    0.148095
 Sum of Mulliken charges =  -0.00000

 Dipole moment (field-independent basis, Debye):
    X=             -0.1516    Y=              1.5913    Z=              0.8329  Tot=              1.8025

 Test job not archived.
 1\1\GINC-SE213\SP\RHF\Aug-CC-pVDZ\C8H14O2\OHZDE\05-Apr-2025\0\\#t hf a
 ug-cc-pvdz iop(5/13=1,5/36=2,99/5=2) pseudo=read geom=check guess=(rea
 d,tcheck) scf=(maxcycle=1)\\title\\0,1\C,0,-1.111854,-0.407602,0.12509
 6\C,0,2.519955,0.35947,-0.688408\C,0,1.969676,-1.052974,-0.470654\C,0,
 1.411901,1.411583,-0.589259\C,0,1.194356,-1.168658,0.84717\C,0,0.66610
 4,1.312877,0.744533\C,0,0.0999,-0.101797,0.994429\C,0,-3.28167,0.31916
 2,-0.471198\O,0,-1.25017,-1.37067,-0.588255\O,0,-2.07217,0.532062,0.27
 385\H,0,3.28442,0.574297,0.066511\H,0,3.016327,0.424143,-1.65902\H,0,1

 Normal termination of Gaussian 16 at Sat Apr  5 23:12:37 2025.
