 Gaussian 16, Revision C.01,

 ----------------------------------------------------------------------
 #t hf aug-cc-pvdz symm=none int=(grid=ultrafine) guess=(read,tcheck) s
 table=(opt,rrhf)
 ----------------------------------------------------------------------
 -----
 title
 -----
 Symbolic Z-matrix:
 Charge =  0 Multiplicity = 1

 SCF Done:  E(RHF) =  -273.272199886     A.U. after   11 cycles
 Normal termination of Gaussian 16 at Sat Apr  5 23:09:43 2025.
 Gaussian 16:  ES64L-G16RevC.01  3-Jul-2019

 ----------------------------------------------------------------------
 #t hf aug-cc-pvdz iop(5/13=1,5/36=2,99/5=2) pseudo=read geom=check gue
 ss=(read,tcheck) scf=(maxcycle=1)
 ----------------------------------------------------------------------
 -----
 title
 -----
 Structure from the checkpoint file:  "methylcyclohexane.chk"
 Charge =  0 Multiplicity = 1

                         Standard orientation:
 ---------------------------------------------------------------------
 Center     Atomic      Atomic             Coordinates (Angstroms)
 Number     Number       Type             X           Y           Z
 ---------------------------------------------------------------------
      1          6           0       -0.739782   -1.773761   -0.000000
      2          6           0       -0.089048   -1.206811    1.264899
      3          6           0       -0.089048   -1.206811   -1.264899
      4          6           0       -0.089048    0.324852    1.260545
      5          6           0       -0.089048    0.324852   -1.260545
      6          6           0        0.566508    0.906527    0.000000
      7          6           0        0.533702    2.434333    0.000000
      8          1           0       -0.680166   -2.864513   -0.000000
      9          1           0       -1.805477   -1.520961   -0.000000
     10          1           0       -0.602476   -1.579676    2.154131
     11          1           0        0.943314   -1.566555    1.330389
     12          1           0        0.943314   -1.566555   -1.330389
     13          1           0       -0.602476   -1.579676   -2.154131
     14          1           0       -1.122408    0.686328    1.318579
     15          1           0        0.419978    0.704095    2.150588
     16          1           0        0.419978    0.704095   -2.150588
     17          1           0       -1.122408    0.686328   -1.318579
     18          1           0        1.617471    0.591208    0.000000
     19          1           0        1.030791    2.842574    0.882126
     20          1           0        1.030791    2.842574   -0.882126
     21          1           0       -0.495635    2.801645    0.000000
 ---------------------------------------------------------------------

 SCF Done:  E(RHF) =  -273.578160906     A.U. after    2 cycles

 The electronic state is 1-A'.
 Alpha  occ. eigenvalues --  -11.22384 -11.21941 -11.21934 -11.21903 -11.21786
 Alpha  occ. eigenvalues --  -11.21757 -11.21626  -1.12064  -1.02931  -0.99954
 Alpha  occ. eigenvalues --   -0.91634  -0.83224  -0.80215  -0.75226  -0.64874
 Alpha  occ. eigenvalues --   -0.61556  -0.60599  -0.60592  -0.57253  -0.53875
 Alpha  occ. eigenvalues --   -0.53037  -0.51807  -0.49691  -0.48496  -0.47337
 Alpha  occ. eigenvalues --   -0.45125  -0.43332  -0.42848
 Alpha virt. eigenvalues --    0.03420   0.03533   0.03534   0.04196   0.05639
 Alpha virt. eigenvalues --    0.05827   0.06177   0.06260   0.06516   0.09068
 Alpha virt. eigenvalues --    0.09152   0.09435   0.09618   0.09764   0.13452

 Mulliken charges:
               1
     1  C   -0.229041
     2  C   -0.229892
     3  C   -0.229892
     4  C   -0.017326
     5  C   -0.017326
     6  C   -1.032884
     7  C   -0.159283
     8  H    0.097429
     9  H    0.145660
    10  H    0.100648
    11  H    0.155195
    12  H    0.155195
    13  H    0.100648
    14  H    0.173623
    15  H    0.085032
    16  H    0.085032
    17  H    0.173623
    18  H    0.124592
    19  H    0.156068
    20  H    0.156068
    21  H    0.206834
 Sum of Mulliken charges =  -0.00000

 Dipole moment (field-independent basis, Debye):
    X=              0.0605    Y=             -0.1042    Z=              0.0000  Tot=              0.1205

 Test job not archived.
 1\1\GINC-SE175\SP\RHF\Aug-CC-pVDZ\C7H14\OHZDE\05-Apr-2025\0\\#t hf aug
 -cc-pvdz iop(5/13=1,5/36=2,99/5=2) pseudo=read geom=check guess=(read,
 tcheck) scf=(maxcycle=1)\\title\\0,1\C,0,-0.739782,-1.773761,0.\C,0,-0
 .089048,-1.206811,1.264899\C,0,-0.089048,-1.206811,-1.264899\C,0,-0.08
 9048,0.324852,1.260545\C,0,-0.089048,0.324852,-1.260545\C,0,0.566508,0
 .906527,0.\C,0,0.533702,2.434333,0.\H,0,-0.680166,-2.864513,0.\H,0,-1.
 805477,-1.520961,0.\H,0,-0.602476,-1.579676,2.154131\H,0,0.943314,-1.5
 66555,1.330389\H,0,0.943314,-1.566555,-1.330389\H,0,-0.602476,-1.57967

 Normal termination of Gaussian 16 at Sat Apr  5 23:10:24 2025.
