 Gaussian 16, Revision C.01,

 ----------------------------------------------------------------------
 #t hf aug-cc-pvdz symm=none int=(grid=ultrafine) guess=(read,tcheck) s
 table=(opt,rrhf)
 ----------------------------------------------------------------------
 -----
 title
 -----
 Symbolic Z-matrix:
 Charge =  0 Multiplicity = 1

 SCF Done:  E(RHF) =  -542.303983610     A.U. after   16 cycles
 Normal termination of Gaussian 16 at Sat Apr  5 23:09:17 2025.
 Gaussian 16:  ES64L-G16RevC.01  3-Jul-2019

 ----------------------------------------------------------------------
 #t hf aug-cc-pvdz iop(5/13=1,5/36=2,99/5=2) pseudo=read geom=check gue
 ss=(read,tcheck) scf=(maxcycle=1)
 ----------------------------------------------------------------------
 -----
 title
 -----
 Structure from the checkpoint file:  "methyl_4-amino-1-2-5-oxadiazole-3-carboxylate.chk"
 Charge =  0 Multiplicity = 1

                         Standard orientation:
 ---------------------------------------------------------------------
 Center     Atomic      Atomic             Coordinates (Angstroms)
 Number     Number       Type             X           Y           Z
 ---------------------------------------------------------------------
      1          8           0        2.016475   -1.532303    0.023208
      2          8           0       -1.977891   -0.721593   -0.043326
      3          8           0       -1.306736    1.428753    0.077244
      4          7           0        0.673411   -1.516062    0.017123
      5          7           0        2.549934   -0.243148    0.003763
      6          7           0        1.568662    1.902573   -0.089651
      7          6           0        0.322741   -0.259915   -0.006268
      8          6           0        1.509470    0.550011   -0.017954
      9          6           0       -1.061961    0.241317    0.012304
     10          6           0       -3.352842   -0.290458   -0.016320
     11          1           0        0.715764    2.400412    0.105126
     12          1           0        2.442779    2.350901    0.120191
     13          1           0       -3.562178    0.355303   -0.866446
     14          1           0       -3.561230    0.246902    0.906438
     15          1           0       -3.938417   -1.201652   -0.071525
 ---------------------------------------------------------------------

 SCF Done:  E(RHF) =  -542.837907403     A.U. after    2 cycles

 The electronic state is 1-A.
 Alpha  occ. eigenvalues --  -20.66916 -20.61808 -20.56838 -15.62692 -15.57029
 Alpha  occ. eigenvalues --  -15.53861 -11.43033 -11.34814 -11.31613 -11.31455
 Alpha  occ. eigenvalues --   -1.62090  -1.57573  -1.48335  -1.28202  -1.23267
 Alpha  occ. eigenvalues --   -1.16823  -1.02277  -0.94073  -0.88931  -0.83918
 Alpha  occ. eigenvalues --   -0.78284  -0.76257  -0.74062  -0.72088  -0.70623
 Alpha  occ. eigenvalues --   -0.69353  -0.64590  -0.61038  -0.58894  -0.57391
 Alpha  occ. eigenvalues --   -0.57108  -0.55688  -0.53875  -0.48681  -0.48355
 Alpha  occ. eigenvalues --   -0.46675  -0.40949
 Alpha virt. eigenvalues --    0.03137   0.03641   0.03893   0.04820   0.05088
 Alpha virt. eigenvalues --    0.07114   0.07486   0.09953   0.10683   0.11336
 Alpha virt. eigenvalues --    0.12364   0.12494   0.13479   0.13540   0.14349

 Mulliken charges:
               1
     1  O   -1.519105
     2  O   -1.501513
     3  O   -1.355695
     4  N    1.439305
     5  N    1.489855
     6  N    0.872872
     7  C   -0.940032
     8  C   -2.191880
     9  C    2.936793
    10  C    0.146501
    11  H    0.198396
    12  H    0.051312
    13  H    0.174447
    14  H    0.173561
    15  H    0.025184
 Sum of Mulliken charges =  -0.00000

 Dipole moment (field-independent basis, Debye):
    X=             -3.1794    Y=              2.5647    Z=              0.4845  Tot=              4.1135

 Test job not archived.
 1\1\GINC-SE196\SP\RHF\Aug-CC-pVDZ\C4H5N3O3\OHZDE\05-Apr-2025\0\\#t hf
 aug-cc-pvdz iop(5/13=1,5/36=2,99/5=2) pseudo=read geom=check guess=(re
 ad,tcheck) scf=(maxcycle=1)\\title\\0,1\O,0,2.016475,-1.532303,0.02320
 8\O,0,-1.977891,-0.721593,-0.043326\O,0,-1.306736,1.428753,0.077244\N,
 0,0.673411,-1.516062,0.017123\N,0,2.549934,-0.243148,0.003763\N,0,1.56
 8662,1.902573,-0.089651\C,0,0.322741,-0.259915,-0.006268\C,0,1.50947,0
 .550011,-0.017954\C,0,-1.061961,0.241317,0.012304\C,0,-3.352842,-0.290
 458,-0.01632\H,0,0.715764,2.400412,0.105126\H,0,2.442779,2.350901,0.12

 Normal termination of Gaussian 16 at Sat Apr  5 23:10:25 2025.
