 Gaussian 16, Revision C.01,

 ----------------------------------------------------------------------
 #t hf aug-cc-pvdz symm=none int=(grid=ultrafine) guess=(read,tcheck) s
 table=(opt,rrhf)
 ----------------------------------------------------------------------
 -----
 title
 -----
 Symbolic Z-matrix:
 Charge =  0 Multiplicity = 1

 SCF Done:  E(RHF) =  -590.620380887     A.U. after   14 cycles
 Normal termination of Gaussian 16 at Sat Apr  5 23:09:00 2025.
 Gaussian 16:  ES64L-G16RevC.01  3-Jul-2019

 ----------------------------------------------------------------------
 #t hf aug-cc-pvdz iop(5/13=1,5/36=2,99/5=2) pseudo=read geom=check gue
 ss=(read,tcheck) scf=(maxcycle=1)
 ----------------------------------------------------------------------
 -----
 title
 -----
 Structure from the checkpoint file:  "methylethylsulfoxide.chk"
 Charge =  0 Multiplicity = 1

                         Standard orientation:
 ---------------------------------------------------------------------
 Center     Atomic      Atomic             Coordinates (Angstroms)
 Number     Number       Type             X           Y           Z
 ---------------------------------------------------------------------
      1          6           0       -2.236697    0.080678   -0.129130
      2          1           0       -2.322637   -0.067126   -1.206237
      3          1           0       -3.133658   -0.332835    0.333139
      4          1           0       -2.233285    1.152437    0.067774
      5          6           0       -1.000479   -0.609481    0.429352
      6          1           0       -1.046984   -1.689171    0.288441
      7          1           0       -0.841528   -0.414738    1.490353
      8          6           0        0.730938    1.540292    0.218013
      9          1           0       -0.093205    2.158259   -0.133594
     10         16           0        0.566260   -0.160011   -0.432652
     11          8           0        1.651899   -0.967090    0.229435
     12          1           0        1.671904    1.924647   -0.167830
     13          1           0        0.761474    1.496490    1.305499
 ---------------------------------------------------------------------

 SCF Done:  E(RHF) =  -590.889777724     A.U. after    2 cycles

 The electronic state is 1-A.
 Alpha  occ. eigenvalues --  -94.06396 -20.48859 -11.27682 -11.27298 -11.25533
 Alpha  occ. eigenvalues --   -8.33225  -6.31066  -6.30950  -6.30736  -1.41936
 Alpha  occ. eigenvalues --   -1.09912  -1.02121  -0.91401  -0.81911  -0.66418
 Alpha  occ. eigenvalues --   -0.64450  -0.62237  -0.59852  -0.58174  -0.56505
 Alpha  occ. eigenvalues --   -0.53645  -0.52367  -0.50848  -0.40557  -0.36033
 Alpha virt. eigenvalues --    0.02986   0.03546   0.03996   0.04802   0.06293
 Alpha virt. eigenvalues --    0.06591   0.07391   0.08394   0.10173   0.11961
 Alpha virt. eigenvalues --    0.13047   0.13819   0.14645   0.14830   0.15223

 Mulliken charges:
               1
     1  C   -0.305840
     2  H    0.194885
     3  H    0.141513
     4  H    0.126507
     5  C   -0.669309
     6  H    0.192238
     7  H    0.190036
     8  C   -0.677129
     9  H    0.230449
    10  S    1.702044
    11  O   -1.515916
    12  H    0.184707
    13  H    0.205816
 Sum of Mulliken charges =  -0.00000

 Dipole moment (field-independent basis, Debye):
    X=             -3.8557    Y=              2.7898    Z=              0.0092  Tot=              4.7591

 Test job not archived.
 1\1\GINC-SE046\SP\RHF\Aug-CC-pVDZ\C3H8O1S1\OHZDE\05-Apr-2025\0\\#t hf
 aug-cc-pvdz iop(5/13=1,5/36=2,99/5=2) pseudo=read geom=check guess=(re
 ad,tcheck) scf=(maxcycle=1)\\title\\0,1\C,0,-2.236697,0.080677,-0.1291
 3\H,0,-2.322637,-0.067127,-1.206237\H,0,-3.133658,-0.332836,0.333139\H
 ,0,-2.233285,1.152436,0.067774\C,0,-1.000479,-0.609481,0.429352\H,0,-1
 .046983,-1.689171,0.288441\H,0,-0.841528,-0.414738,1.490353\C,0,0.7309
 37,1.540292,0.218013\H,0,-0.093206,2.158259,-0.133594\S,0,0.56626,-0.1
 60011,-0.432652\O,0,1.651899,-0.967089,0.229435\H,0,1.671903,1.924648,

 Normal termination of Gaussian 16 at Sat Apr  5 23:09:13 2025.
