 Gaussian 16, Revision C.01,

 ----------------------------------------------------------------------
 #t hf aug-cc-pvdz symm=none int=(grid=ultrafine) guess=(read,tcheck) s
 table=(opt,rrhf)
 ----------------------------------------------------------------------
 -----
 title
 -----
 Symbolic Z-matrix:
 Charge =  0 Multiplicity = 1

 SCF Done:  E(RHF) =  -150.233251968     A.U. after   12 cycles
 Normal termination of Gaussian 16 at Sat Apr  5 23:08:43 2025.
 Gaussian 16:  ES64L-G16RevC.01  3-Jul-2019

 ----------------------------------------------------------------------
 #t hf aug-cc-pvdz iop(5/13=1,5/36=2,99/5=2) pseudo=read geom=check gue
 ss=(read,tcheck) scf=(maxcycle=1)
 ----------------------------------------------------------------------
 -----
 title
 -----
 Structure from the checkpoint file:  "methylhydrazine.chk"
 Charge =  0 Multiplicity = 1

                         Standard orientation:
 ---------------------------------------------------------------------
 Center     Atomic      Atomic             Coordinates (Angstroms)
 Number     Number       Type             X           Y           Z
 ---------------------------------------------------------------------
      1          6           0       -1.176124   -0.240930   -0.001430
      2          7           0        0.026647    0.569467   -0.122671
      3          7           0        1.244597   -0.148622    0.053689
      4          1           0        1.130779   -0.914669    0.717137
      5          1           0        1.508519   -0.549814   -0.837623
      6          1           0       -1.242751   -0.927801   -0.846695
      7          1           0       -1.212149   -0.834846    0.925321
      8          1           0       -2.049950    0.411665   -0.026287
      9          1           0        0.023585    1.315124    0.559605
 ---------------------------------------------------------------------

 SCF Done:  E(RHF) =  -150.399372428     A.U. after    2 cycles

 The electronic state is 1-A.
 Alpha  occ. eigenvalues --  -15.51238 -15.50818 -11.25637  -1.26446  -1.06167
 Alpha  occ. eigenvalues --   -0.90615  -0.71843  -0.68491  -0.66309  -0.58530
 Alpha  occ. eigenvalues --   -0.54746  -0.45417  -0.42588
 Alpha virt. eigenvalues --    0.03486   0.05092   0.05547   0.05747   0.07127
 Alpha virt. eigenvalues --    0.07472   0.11196   0.13885   0.14794   0.16168
 Alpha virt. eigenvalues --    0.17932   0.18289   0.20236   0.20482   0.21487

 Mulliken charges:
               1
     1  C   -0.370018
     2  N   -0.172576
     3  N   -0.130499
     4  H    0.119187
     5  H    0.128548
     6  H    0.106391
     7  H    0.122294
     8  H    0.037069
     9  H    0.159604
 Sum of Mulliken charges =  -0.00000

 Dipole moment (field-independent basis, Debye):
    X=             -1.2169    Y=             -1.3825    Z=              0.6979  Tot=              1.9695

 Test job not archived.
 1\1\GINC-SE047\SP\RHF\Aug-CC-pVDZ\C1H6N2\OHZDE\05-Apr-2025\0\\#t hf au
 g-cc-pvdz iop(5/13=1,5/36=2,99/5=2) pseudo=read geom=check guess=(read
 ,tcheck) scf=(maxcycle=1)\\title\\0,1\C,0,-1.176124,-0.24093,-0.00143\
 N,0,0.026647,0.569467,-0.122671\N,0,1.244597,-0.148622,0.053689\H,0,1.
 130779,-0.914669,0.717137\H,0,1.508519,-0.549814,-0.837623\H,0,-1.2427
 51,-0.927801,-0.846695\H,0,-1.212149,-0.834846,0.925321\H,0,-2.04995,0
 .411665,-0.026287\H,0,0.023585,1.315124,0.559605\\Version=ES64L-G16Rev
 C.01\State=1-A\HF=-150.3993724\RMSD=1.638e-02\Dipole=-0.4787609,-0.543

 Normal termination of Gaussian 16 at Sat Apr  5 23:08:46 2025.
