 Gaussian 16, Revision C.01,

 ----------------------------------------------------------------------
 #t hf aug-cc-pvdz symm=none int=(grid=ultrafine) guess=(read,tcheck) s
 table=(opt,rrhf)
 ----------------------------------------------------------------------
 -----
 title
 -----
 Symbolic Z-matrix:
 Charge =  0 Multiplicity = 1

 SCF Done:  E(RHF) =  -343.765923563     A.U. after   14 cycles
 Normal termination of Gaussian 16 at Sat Apr  5 23:09:15 2025.
 Gaussian 16:  ES64L-G16RevC.01  3-Jul-2019

 ----------------------------------------------------------------------
 #t hf aug-cc-pvdz iop(5/13=1,5/36=2,99/5=2) pseudo=read geom=check gue
 ss=(read,tcheck) scf=(maxcycle=1)
 ----------------------------------------------------------------------
 -----
 title
 -----
 Structure from the checkpoint file:  "methylcrotonate.chk"
 Charge =  0 Multiplicity = 1

                         Standard orientation:
 ---------------------------------------------------------------------
 Center     Atomic      Atomic             Coordinates (Angstroms)
 Number     Number       Type             X           Y           Z
 ---------------------------------------------------------------------
      1          8           0       -0.793144    1.368201   -0.000236
      2          6           0       -0.564751    0.180694   -0.000163
      3          6           0        0.769320   -0.452538   -0.000259
      4          6           0        1.881122    0.280508    0.000126
      5          6           0        3.269891   -0.259619    0.000137
      6          8           0       -1.538842   -0.759642    0.000060
      7          6           0       -2.885236   -0.262814    0.000226
      8          1           0        0.797736   -1.534345   -0.001112
      9          1           0        1.768232    1.360075    0.000946
     10          1           0        3.819852    0.096612    0.875095
     11          1           0        3.287143   -1.348669   -0.000445
     12          1           0        3.820235    0.097410   -0.874284
     13          1           0       -3.068501    0.342864    0.886099
     14          1           0       -3.068919    0.342320   -0.885935
     15          1           0       -3.521975   -1.142120    0.000642
 ---------------------------------------------------------------------

 SCF Done:  E(RHF) =  -344.118429849     A.U. after    2 cycles

 The electronic state is 1-A.
 Alpha  occ. eigenvalues --  -20.58464 -20.52334 -11.38322 -11.29111 -11.27010
 Alpha  occ. eigenvalues --  -11.24845 -11.24349  -1.53489  -1.44047  -1.10205
 Alpha  occ. eigenvalues --   -1.00484  -0.94865  -0.82608  -0.75735  -0.72197
 Alpha  occ. eigenvalues --   -0.67695  -0.66660  -0.61444  -0.60510  -0.59106
 Alpha  occ. eigenvalues --   -0.55961  -0.55241  -0.53103  -0.52236  -0.45099
 Alpha  occ. eigenvalues --   -0.43796  -0.38430
 Alpha virt. eigenvalues --    0.03410   0.03886   0.04380   0.05120   0.05809
 Alpha virt. eigenvalues --    0.06092   0.06448   0.08161   0.08826   0.10776
 Alpha virt. eigenvalues --    0.11756   0.13048   0.14055   0.14108   0.14430

 Mulliken charges:
               1
     1  O   -1.346422
     2  C    1.733882
     3  C    0.693617
     4  C    0.194577
     5  C   -0.629323
     6  O   -1.381764
     7  C    0.231458
     8  H   -0.276187
     9  H   -0.165562
    10  H    0.250324
    11  H    0.102236
    12  H    0.250276
    13  H    0.175482
    14  H    0.175480
    15  H   -0.008074
 Sum of Mulliken charges =   0.00000

 Dipole moment (field-independent basis, Debye):
    X=              1.0866    Y=             -1.5723    Z=              0.0004  Tot=              1.9113

 Test job not archived.
 1\1\GINC-SE187\SP\RHF\Aug-CC-pVDZ\C5H8O2\OHZDE\05-Apr-2025\0\\#t hf au
 g-cc-pvdz iop(5/13=1,5/36=2,99/5=2) pseudo=read geom=check guess=(read
 ,tcheck) scf=(maxcycle=1)\\title\\0,1\O,0,-0.793144,1.368201,-0.000236
 \C,0,-0.564751,0.180694,-0.000163\C,0,0.76932,-0.452538,-0.000259\C,0,
 1.881122,0.280508,0.000126\C,0,3.269891,-0.259619,0.000137\O,0,-1.5388
 42,-0.759642,0.00006\C,0,-2.885236,-0.262814,0.000226\H,0,0.797736,-1.
 534345,-0.001112\H,0,1.768232,1.360075,0.000946\H,0,3.819852,0.096612,
 0.875095\H,0,3.287143,-1.348669,-0.000445\H,0,3.820235,0.09741,-0.8742

 Normal termination of Gaussian 16 at Sat Apr  5 23:10:23 2025.
