 Gaussian 16, Revision C.01,

 ----------------------------------------------------------------------
 #t hf aug-cc-pvdz symm=none int=(grid=ultrafine) guess=(read,tcheck) s
 table=(opt,rrhf)
 ----------------------------------------------------------------------
 -----
 title
 -----
 Symbolic Z-matrix:
 Charge =  0 Multiplicity = 1

 SCF Done:  E(RHF) =  -115.061543901     A.U. after   11 cycles
 Normal termination of Gaussian 16 at Sat Apr  5 23:08:00 2025.
 Gaussian 16:  ES64L-G16RevC.01  3-Jul-2019

 ----------------------------------------------------------------------
 #t hf aug-cc-pvdz iop(5/13=1,5/36=2,99/5=2) pseudo=read geom=check gue
 ss=(read,tcheck) scf=(maxcycle=1)
 ----------------------------------------------------------------------
 -----
 title
 -----
 Structure from the checkpoint file:  "methanol.chk"
 Charge =  0 Multiplicity = 1

                         Standard orientation:
 ---------------------------------------------------------------------
 Center     Atomic      Atomic             Coordinates (Angstroms)
 Number     Number       Type             X           Y           Z
 ---------------------------------------------------------------------
      1          6           0        0.046493    0.666056    0.000000
      2          8           0        0.046493   -0.757300    0.000000
      3          1           0       -0.438632    1.076138    0.890767
      4          1           0       -0.438632    1.076138   -0.890767
      5          1           0        1.088355    0.979641    0.000000
      6          1           0       -0.861989   -1.069858    0.000000
 ---------------------------------------------------------------------

 SCF Done:  E(RHF) =  -115.184025927     A.U. after    2 cycles

 The electronic state is 1-A'.
 Alpha  occ. eigenvalues --  -20.54815 -11.28285  -1.44328  -0.93011  -0.69074
 Alpha  occ. eigenvalues --   -0.62250  -0.59500  -0.50365  -0.44505
 Alpha virt. eigenvalues --    0.03592   0.04911   0.05549   0.06364   0.11615
 Alpha virt. eigenvalues --    0.14097   0.15393   0.16909   0.20731   0.22142
 Alpha virt. eigenvalues --    0.24311   0.27903   0.28149   0.32471   0.33713

 Mulliken charges:
               1
     1  C    0.461365
     2  O   -0.994585
     3  H    0.084349
     4  H    0.084349
     5  H    0.037597
     6  H    0.326925
 Sum of Mulliken charges =  -0.00000

 Dipole moment (field-independent basis, Debye):
    X=             -1.4081    Y=              1.0249    Z=             -0.0000  Tot=              1.7416

 Test job not archived.
 1\1\GINC-SE040\SP\RHF\Aug-CC-pVDZ\C1H4O1\OHZDE\05-Apr-2025\0\\#t hf au
 g-cc-pvdz iop(5/13=1,5/36=2,99/5=2) pseudo=read geom=check guess=(read
 ,tcheck) scf=(maxcycle=1)\\title\\0,1\C,0,0.046493,0.666056,0.\O,0,0.0
 46493,-0.7573,0.\H,0,-0.438632,1.076138,0.890767\H,0,-0.438632,1.07613
 8,-0.890767\H,0,1.088355,0.979641,0.\H,0,-0.861989,-1.069858,0.\\Versi
 on=ES64L-G16RevC.01\State=1-A'\HF=-115.1840259\RMSD=7.647e-03\Dipole=-
 0.5539794,0.4032266,0.\Quadrupole=0.9370528,-0.3301619,-0.6068909,1.60
 70055,0.,0.\PG=CS [SG(C1H2O1),X(H2)]\\@

 Normal termination of Gaussian 16 at Sat Apr  5 23:08:02 2025.
