 Gaussian 16, Revision C.01,

 ----------------------------------------------------------------------
 #t hf aug-cc-pvdz symm=none int=(grid=ultrafine) guess=(read,tcheck) s
 table=(opt,rrhf)
 ----------------------------------------------------------------------
 -----
 title
 -----
 Symbolic Z-matrix:
 Charge =  0 Multiplicity = 1

 SCF Done:  E(RHF) =  -286.039209891     A.U. after   12 cycles
 Normal termination of Gaussian 16 at Sat Apr  5 23:10:47 2025.
 Gaussian 16:  ES64L-G16RevC.01  3-Jul-2019

 ----------------------------------------------------------------------
 #t hf aug-cc-pvdz iop(5/13=1,5/36=2,99/5=2) pseudo=read geom=check gue
 ss=(read,tcheck) scf=(maxcycle=1)
 ----------------------------------------------------------------------
 -----
 title
 -----
 Structure from the checkpoint file:  "morpholine.chk"
 Charge =  0 Multiplicity = 1

                         Standard orientation:
 ---------------------------------------------------------------------
 Center     Atomic      Atomic             Coordinates (Angstroms)
 Number     Number       Type             X           Y           Z
 ---------------------------------------------------------------------
      1          6           0       -0.005439    0.742948    1.206807
      2          6           0       -0.005439    0.742948   -1.206807
      3          6           0       -0.005439   -0.778359    1.177882
      4          6           0       -0.005439   -0.778359   -1.177882
      5          7           0        0.657361    1.234334    0.000000
      6          8           0       -0.635671   -1.270842    0.000000
      7          1           0       -1.046564    1.092682    1.289352
      8          1           0        0.540160    1.092900    2.084922
      9          1           0        0.540160    1.092900   -2.084922
     10          1           0       -1.046564    1.092682   -1.289352
     11          1           0        1.027148   -1.146672    1.227425
     12          1           0       -0.566071   -1.185206    2.018469
     13          1           0       -0.566071   -1.185206   -2.018469
     14          1           0        1.027148   -1.146672   -1.227425
     15          1           0        0.705027    2.243917    0.000000
 ---------------------------------------------------------------------

 SCF Done:  E(RHF) =  -286.342418878     A.U. after    2 cycles

 The electronic state is 1-A'.
 Alpha  occ. eigenvalues --  -20.53764 -15.48683 -11.27717 -11.27625 -11.25607
 Alpha  occ. eigenvalues --  -11.25581  -1.45400  -1.20684  -1.03806  -0.94005
 Alpha  occ. eigenvalues --   -0.88110  -0.78577  -0.72521  -0.64681  -0.64615
 Alpha  occ. eigenvalues --   -0.62700  -0.61474  -0.60035  -0.55557  -0.50928
 Alpha  occ. eigenvalues --   -0.50679  -0.45703  -0.42425  -0.39601
 Alpha virt. eigenvalues --    0.03606   0.04365   0.04572   0.04722   0.05865
 Alpha virt. eigenvalues --    0.05962   0.06064   0.07009   0.09880   0.11306
 Alpha virt. eigenvalues --    0.12923   0.13196   0.14168   0.14878   0.15057

 Mulliken charges:
               1
     1  C   -0.428888
     2  C   -0.428888
     3  C    0.472843
     4  C    0.472843
     5  N    0.299897
     6  O   -1.298427
     7  H    0.105036
     8  H    0.055718
     9  H    0.055718
    10  H    0.105036
    11  H    0.202379
    12  H   -0.007971
    13  H   -0.007971
    14  H    0.202379
    15  H    0.200296
 Sum of Mulliken charges =  -0.00000

 Dipole moment (field-independent basis, Debye):
    X=              0.0887    Y=              1.5004    Z=             -0.0000  Tot=              1.5030

 Test job not archived.
 1\1\GINC-SE220\SP\RHF\Aug-CC-pVDZ\C4H9N1O1\OHZDE\05-Apr-2025\0\\#t hf
 aug-cc-pvdz iop(5/13=1,5/36=2,99/5=2) pseudo=read geom=check guess=(re
 ad,tcheck) scf=(maxcycle=1)\\title\\0,1\C,0,-0.005439,0.742948,1.20680
 7\C,0,-0.005439,0.742948,-1.206807\C,0,-0.005439,-0.778359,1.177882\C,
 0,-0.005439,-0.778359,-1.177882\N,0,0.657361,1.234334,0.\O,0,-0.635671
 ,-1.270842,0.\H,0,-1.046564,1.092682,1.289352\H,0,0.54016,1.0929,2.084
 922\H,0,0.54016,1.0929,-2.084922\H,0,-1.046564,1.092682,-1.289352\H,0,
 1.027148,-1.146672,1.227425\H,0,-0.566071,-1.185206,2.018469\H,0,-0.56

 Normal termination of Gaussian 16 at Sat Apr  5 23:10:52 2025.
