 Gaussian 16, Revision C.01,

 ----------------------------------------------------------------------
 #t hf aug-cc-pvdz symm=none int=(grid=ultrafine) guess=(read,tcheck) s
 table=(opt,rrhf)
 ----------------------------------------------------------------------
 -----
 title
 -----
 Symbolic Z-matrix:
 Charge =  0 Multiplicity = 1

 SCF Done:  E(RHF) =  -299.574094801     A.U. after   15 cycles
 Normal termination of Gaussian 16 at Sat Apr  5 22:51:38 2025.
 Gaussian 16:  ES64L-G16RevC.01  3-Jul-2019

 ----------------------------------------------------------------------
 #t hf aug-cc-pvdz iop(5/13=1,5/36=2,99/5=2) pseudo=read geom=check gue
 ss=(read,tcheck) scf=(maxcycle=1)
 ----------------------------------------------------------------------
 -----
 title
 -----
 Structure from the checkpoint file:  "N--ethynoxymethanimidamide.chk"
 Charge =  0 Multiplicity = 1

                         Standard orientation:
 ---------------------------------------------------------------------
 Center     Atomic      Atomic             Coordinates (Angstroms)
 Number     Number       Type             X           Y           Z
 ---------------------------------------------------------------------
      1          8           0       -0.689613    0.644791   -0.033712
      2          7           0        0.397947   -0.341322   -0.020979
      3          7           0        2.699526   -0.326539   -0.051220
      4          6           0        1.495578    0.309910    0.018594
      5          6           0       -1.853711    0.076390   -0.000732
      6          6           0       -2.964471   -0.373779    0.028776
      7          1           0        3.498737    0.148468    0.328845
      8          1           0        2.698373   -1.329150    0.048330
      9          1           0        1.518689    1.394723    0.066269
     10          1           0       -3.945580   -0.772460    0.051811
 ---------------------------------------------------------------------

 SCF Done:  E(RHF) =  -299.873918522     A.U. after    2 cycles

 The electronic state is 1-A.
 Alpha  occ. eigenvalues --  -20.62131 -15.56466 -15.54969 -11.34901 -11.28837
 Alpha  occ. eigenvalues --  -11.21695  -1.53952  -1.28662  -1.17281  -1.00559
 Alpha  occ. eigenvalues --   -0.87782  -0.81481  -0.74396  -0.72676  -0.69411
 Alpha  occ. eigenvalues --   -0.65677  -0.65117  -0.57739  -0.51444  -0.44481
 Alpha  occ. eigenvalues --   -0.38825  -0.35502
 Alpha virt. eigenvalues --    0.02172   0.04689   0.04827   0.05508   0.08570
 Alpha virt. eigenvalues --    0.10043   0.10498   0.11644   0.12433   0.13200
 Alpha virt. eigenvalues --    0.13905   0.15010   0.15224   0.15698   0.16855

 Mulliken charges:
               1
     1  O   -1.202486
     2  N    0.928034
     3  N    0.428274
     4  C   -0.857240
     5  C    0.243962
     6  C    0.620106
     7  H    0.126986
     8  H    0.074331
     9  H    0.017666
    10  H   -0.379632
 Sum of Mulliken charges =   0.00000

 Dipole moment (field-independent basis, Debye):
    X=              4.3990    Y=              0.7533    Z=              0.9094  Tot=              4.5547

 Test job not archived.
 1\1\GINC-SE011\SP\RHF\Aug-CC-pVDZ\C3H4N2O1\OHZDE\05-Apr-2025\0\\#t hf
 aug-cc-pvdz iop(5/13=1,5/36=2,99/5=2) pseudo=read geom=check guess=(re
 ad,tcheck) scf=(maxcycle=1)\\title\\0,1\O,0,-0.689613,0.644791,-0.0337
 12\N,0,0.397947,-0.341322,-0.020979\N,0,2.699526,-0.326539,-0.05122\C,
 0,1.495578,0.30991,0.018594\C,0,-1.853711,0.07639,-0.000732\C,0,-2.964
 471,-0.373779,0.028776\H,0,3.498737,0.148468,0.328845\H,0,2.698373,-1.
 32915,0.04833\H,0,1.518689,1.394723,0.066269\H,0,-3.94558,-0.77246,0.0
 51811\\Version=ES64L-G16RevC.01\State=1-A\HF=-299.8739185\RMSD=2.293e-

 Normal termination of Gaussian 16 at Sat Apr  5 22:52:47 2025.
