 Gaussian 16, Revision C.01,

 ----------------------------------------------------------------------
 #t hf aug-cc-pvdz symm=none int=(grid=ultrafine) guess=(read,tcheck) s
 table=(opt,rrhf)
 ----------------------------------------------------------------------
 -----
 title
 -----
 Symbolic Z-matrix:
 Charge =  0 Multiplicity = 1

 SCF Done:  E(RHF) =  -262.989913464     A.U. after   13 cycles
 Normal termination of Gaussian 16 at Sat Apr  5 22:51:46 2025.
 Gaussian 16:  ES64L-G16RevC.01  3-Jul-2019

 ----------------------------------------------------------------------
 #t hf aug-cc-pvdz iop(5/13=1,5/36=2,99/5=2) pseudo=read geom=check gue
 ss=(read,tcheck) scf=(maxcycle=1)
 ----------------------------------------------------------------------
 -----
 title
 -----
 Structure from the checkpoint file:  "N--methylformic_hydrazide.chk"
 Charge =  0 Multiplicity = 1

                         Standard orientation:
 ---------------------------------------------------------------------
 Center     Atomic      Atomic             Coordinates (Angstroms)
 Number     Number       Type             X           Y           Z
 ---------------------------------------------------------------------
      1          6           0       -1.389634    0.299814   -0.198766
      2          6           0        1.952053   -0.334792   -0.368307
      3          7           0       -0.126016    0.752446    0.062428
      4          7           0        0.873407   -0.070871    0.575294
      5          8           0       -1.831251   -0.798313    0.032910
      6          1           0       -1.989676    1.107143   -0.659469
      7          1           0        2.420897    0.574948   -0.769208
      8          1           0        1.565322   -0.922739   -1.199271
      9          1           0        2.715072   -0.922090    0.141351
     10          1           0        0.119098    1.672856   -0.284035
     11          1           0        1.213038    0.315233    1.445736
 ---------------------------------------------------------------------

 SCF Done:  E(RHF) =  -263.262095353     A.U. after    2 cycles

 The electronic state is 1-A.
 Alpha  occ. eigenvalues --  -20.51302 -15.55817 -15.53736 -11.35823 -11.27009
 Alpha  occ. eigenvalues --   -1.45996  -1.31387  -1.13295  -0.94637  -0.84753
 Alpha  occ. eigenvalues --   -0.79562  -0.71580  -0.68454  -0.62215  -0.60829
 Alpha  occ. eigenvalues --   -0.56628  -0.56514  -0.45261  -0.43229  -0.42623
 Alpha virt. eigenvalues --    0.02630   0.04393   0.04718   0.05150   0.06131
 Alpha virt. eigenvalues --    0.06966   0.09236   0.10927   0.13019   0.13100
 Alpha virt. eigenvalues --    0.14412   0.15648   0.16428   0.17167   0.18055

 Mulliken charges:
               1
     1  C    0.682028
     2  C   -0.300764
     3  N    0.222930
     4  N   -0.210117
     5  O   -1.100277
     6  H    0.110511
     7  H    0.126901
     8  H    0.107531
     9  H    0.048269
    10  H    0.109962
    11  H    0.203025
 Sum of Mulliken charges =  -0.00000

 Dipole moment (field-independent basis, Debye):
    X=              3.1854    Y=              3.7443    Z=             -0.7518  Tot=              4.9731

 Test job not archived.
 1\1\GINC-SE013\SP\RHF\Aug-CC-pVDZ\C2H6N2O1\OHZDE\05-Apr-2025\0\\#t hf
 aug-cc-pvdz iop(5/13=1,5/36=2,99/5=2) pseudo=read geom=check guess=(re
 ad,tcheck) scf=(maxcycle=1)\\title\\0,1\C,0,-1.389634,0.299814,-0.1987
 66\C,0,1.952053,-0.334792,-0.368307\N,0,-0.126016,0.752446,0.062428\N,
 0,0.873407,-0.070871,0.575294\O,0,-1.831251,-0.798313,0.03291\H,0,-1.9
 89676,1.107143,-0.659469\H,0,2.420897,0.574948,-0.769208\H,0,1.565322,
 -0.922739,-1.199271\H,0,2.715072,-0.92209,0.141351\H,0,0.119098,1.6728
 56,-0.284035\H,0,1.213038,0.315233,1.445736\\Version=ES64L-G16RevC.01\

 Normal termination of Gaussian 16 at Sat Apr  5 22:52:47 2025.
