 Gaussian 16, Revision C.01,

 ----------------------------------------------------------------------
 #t hf aug-cc-pvdz symm=none int=(grid=ultrafine) guess=(read,tcheck) s
 table=(opt,rrhf)
 ----------------------------------------------------------------------
 -----
 title
 -----
 Symbolic Z-matrix:
 Charge =  0 Multiplicity = 1

 SCF Done:  E(RHF) =  -323.938800866     A.U. after   14 cycles
 Normal termination of Gaussian 16 at Sat Apr  5 22:52:16 2025.
 Gaussian 16:  ES64L-G16RevC.01  3-Jul-2019

 ----------------------------------------------------------------------
 #t hf aug-cc-pvdz iop(5/13=1,5/36=2,99/5=2) pseudo=read geom=check gue
 ss=(read,tcheck) scf=(maxcycle=1)
 ----------------------------------------------------------------------
 -----
 title
 -----
 Structure from the checkpoint file:  "N-1E-1-propen-1-ylacetamide.chk"
 Charge =  0 Multiplicity = 1

                         Standard orientation:
 ---------------------------------------------------------------------
 Center     Atomic      Atomic             Coordinates (Angstroms)
 Number     Number       Type             X           Y           Z
 ---------------------------------------------------------------------
      1          6           0       -1.936874   -0.817158    0.000000
      2          6           0       -0.619074   -0.628886    0.000000
      3          6           0        1.363850    0.795633    0.000000
      4          6           0       -2.590378   -2.163353    0.000000
      5          6           0        1.836552    2.234079    0.000000
      6          7           0        0.000000    0.623665    0.000000
      7          8           0        2.140869   -0.141131    0.000000
      8          1           0       -2.595791    0.047326    0.000000
      9          1           0        0.088707   -1.445676    0.000000
     10          1           0       -3.229377   -2.296211    0.877032
     11          1           0       -3.229377   -2.296211   -0.877032
     12          1           0       -1.850634   -2.963831    0.000000
     13          1           0        2.460883    2.395109   -0.878171
     14          1           0        2.460883    2.395109    0.878171
     15          1           0        1.027080    2.963093    0.000000
     16          1           0       -0.583780    1.442786    0.000000
 ---------------------------------------------------------------------

 SCF Done:  E(RHF) =  -324.277256386     A.U. after    2 cycles

 The electronic state is 1-A'.
 Alpha  occ. eigenvalues --  -20.51038 -15.54123 -11.36494 -11.27520 -11.25275
 Alpha  occ. eigenvalues --  -11.23497 -11.23342  -1.46106  -1.25927  -1.07334
 Alpha  occ. eigenvalues --   -1.02070  -0.93908  -0.83434  -0.81441  -0.70673
 Alpha  occ. eigenvalues --   -0.69075  -0.63903  -0.60832  -0.59474  -0.58001
 Alpha  occ. eigenvalues --   -0.57935  -0.55805  -0.55120  -0.51900  -0.46750
 Alpha  occ. eigenvalues --   -0.42708  -0.33831
 Alpha virt. eigenvalues --    0.02699   0.03858   0.04288   0.05383   0.05511
 Alpha virt. eigenvalues --    0.05750   0.05974   0.08238   0.08858   0.10429
 Alpha virt. eigenvalues --    0.11404   0.12293   0.12634   0.13936   0.14216

 Mulliken charges:
               1
     1  C    0.962740
     2  C   -0.751007
     3  C    0.549506
     4  C   -0.766697
     5  C   -0.355205
     6  N    1.023353
     7  O   -1.338810
     8  H   -0.276410
     9  H   -0.283613
    10  H    0.234667
    11  H    0.234667
    12  H    0.110569
    13  H    0.254665
    14  H    0.254665
    15  H    0.087062
    16  H    0.059850
 Sum of Mulliken charges =  -0.00000

 Dipole moment (field-independent basis, Debye):
    X=             -2.4613    Y=              2.6826    Z=             -0.0000  Tot=              3.6407

 Test job not archived.
 1\1\GINC-SE014\SP\RHF\Aug-CC-pVDZ\C5H9N1O1\OHZDE\05-Apr-2025\0\\#t hf
 aug-cc-pvdz iop(5/13=1,5/36=2,99/5=2) pseudo=read geom=check guess=(re
 ad,tcheck) scf=(maxcycle=1)\\title\\0,1\C,0,-1.936874,-0.817158,0.\C,0
 ,-0.619074,-0.628886,0.\C,0,1.36385,0.795633,0.\C,0,-2.590379,-2.16335
 2,0.\C,0,1.836552,2.234079,0.\N,0,0.,0.623665,0.\O,0,2.140869,-0.14113
 1,0.\H,0,-2.595791,0.047327,0.\H,0,0.088707,-1.445676,0.\H,0,-3.229378
 ,-2.29621,0.877032\H,0,-3.229378,-2.29621,-0.877032\H,0,-1.850635,-2.9
 63831,0.\H,0,2.460883,2.395108,-0.878171\H,0,2.460883,2.395108,0.87817

 Normal termination of Gaussian 16 at Sat Apr  5 22:52:49 2025.
