 Gaussian 16, Revision C.01,

 ----------------------------------------------------------------------
 #t hf aug-cc-pvdz symm=none int=(grid=ultrafine) guess=(read,tcheck) s
 table=(opt,rrhf)
 ----------------------------------------------------------------------
 -----
 title
 -----
 Symbolic Z-matrix:
 Charge =  0 Multiplicity = 1

 SCF Done:  E(RHF) =  -453.574309933     A.U. after   15 cycles
 Normal termination of Gaussian 16 at Sat Apr  5 22:53:18 2025.
 Gaussian 16:  ES64L-G16RevC.01  3-Jul-2019

 ----------------------------------------------------------------------
 #t hf aug-cc-pvdz iop(5/13=1,5/36=2,99/5=2) pseudo=read geom=check gue
 ss=(read,tcheck) scf=(maxcycle=1)
 ----------------------------------------------------------------------
 -----
 title
 -----
 Structure from the checkpoint file:  "N-4-pyridinylacetamide.chk"
 Charge =  0 Multiplicity = 1

                         Standard orientation:
 ---------------------------------------------------------------------
 Center     Atomic      Atomic             Coordinates (Angstroms)
 Number     Number       Type             X           Y           Z
 ---------------------------------------------------------------------
      1          6           0        1.276347   -0.143704    0.000000
      2          6           0       -0.094534    1.815947    0.000000
      3          6           0        2.368941    0.714696    0.000000
      4          6           0        1.065879    2.570549    0.000000
      5          6           0       -0.000000    0.420948    0.000000
      6          6           0       -1.364098   -1.686589    0.000000
      7          6           0       -2.811083   -2.138228    0.000000
      8          7           0        2.292696    2.045547    0.000000
      9          7           0       -1.189731   -0.317431    0.000000
     10          8           0       -0.446472   -2.481401    0.000000
     11          1           0        1.408310   -1.211468    0.000000
     12          1           0       -1.059712    2.307235    0.000000
     13          1           0        3.368384    0.294912    0.000000
     14          1           0        1.004291    3.652813    0.000000
     15          1           0       -2.977485   -2.760972    0.878119
     16          1           0       -2.977485   -2.760972   -0.878119
     17          1           0       -3.532976   -1.322843    0.000000
     18          1           0       -2.031016    0.233980    0.000000
 ---------------------------------------------------------------------

 SCF Done:  E(RHF) =  -454.034791317     A.U. after    2 cycles

 The electronic state is 1-A'.
 Alpha  occ. eigenvalues --  -20.52816 -15.56216 -15.49651 -11.38240 -11.31635
 Alpha  occ. eigenvalues --  -11.28306 -11.27971 -11.26391 -11.24913 -11.23796
 Alpha  occ. eigenvalues --   -1.47970  -1.28657  -1.25249  -1.09561  -1.04179
 Alpha  occ. eigenvalues --   -1.02591  -0.90907  -0.88646  -0.82678  -0.77576
 Alpha  occ. eigenvalues --   -0.71420  -0.68539  -0.67714  -0.65556  -0.64813
 Alpha  occ. eigenvalues --   -0.61532  -0.60887  -0.59105  -0.58698  -0.54905
 Alpha  occ. eigenvalues --   -0.53884  -0.48289  -0.46348  -0.43452  -0.37288
 Alpha  occ. eigenvalues --   -0.36141
 Alpha virt. eigenvalues --    0.02045   0.03492   0.04374   0.05061   0.05201
 Alpha virt. eigenvalues --    0.05642   0.07324   0.07672   0.07759   0.09828
 Alpha virt. eigenvalues --    0.09954   0.11203   0.11533   0.12051   0.12054

 Mulliken charges:
               1
     1  C    2.228968
     2  C    1.558726
     3  C   -1.612200
     4  C   -1.188166
     5  C   -2.188440
     6  C    0.961519
     7  C   -0.371339
     8  N    1.147437
     9  N    1.247916
    10  O   -1.460305
    11  H   -0.274467
    12  H   -0.357938
    13  H   -0.184964
    14  H   -0.187967
    15  H    0.252002
    16  H    0.252002
    17  H    0.068799
    18  H    0.108418
 Sum of Mulliken charges =  -0.00000

 Dipole moment (field-independent basis, Debye):
    X=             -5.1828    Y=              0.2624    Z=             -0.0000  Tot=              5.1895

 Test job not archived.
 1\1\GINC-SE220\SP\RHF\Aug-CC-pVDZ\C7H8N2O1\OHZDE\05-Apr-2025\0\\#t hf
 aug-cc-pvdz iop(5/13=1,5/36=2,99/5=2) pseudo=read geom=check guess=(re
 ad,tcheck) scf=(maxcycle=1)\\title\\0,1\C,0,1.276347,-0.143704,0.\C,0,
 -0.094534,1.815947,0.\C,0,2.368941,0.714696,0.\C,0,1.065879,2.570549,0
 .\C,0,0.,0.420948,0.\C,0,-1.364098,-1.686589,0.\C,0,-2.811083,-2.13822
 8,0.\N,0,2.292696,2.045547,0.\N,0,-1.189731,-0.317431,0.\O,0,-0.446472
 ,-2.481401,0.\H,0,1.40831,-1.211468,0.\H,0,-1.059712,2.307235,0.\H,0,3
 .368384,0.294912,0.\H,0,1.004291,3.652813,0.\H,0,-2.977485,-2.760972,0

 Normal termination of Gaussian 16 at Sat Apr  5 22:53:27 2025.
