 Gaussian 16, Revision C.01,

 ----------------------------------------------------------------------
 #t hf aug-cc-pvdz symm=none int=(grid=ultrafine) guess=(read,tcheck) s
 table=(opt,rrhf)
 ----------------------------------------------------------------------
 -----
 title
 -----
 Symbolic Z-matrix:
 Charge =  0 Multiplicity = 1

 SCF Done:  E(RHF) =  -359.801244630     A.U. after   13 cycles
 Normal termination of Gaussian 16 at Sat Apr  5 22:51:54 2025.
 Gaussian 16:  ES64L-G16RevC.01  3-Jul-2019

 ----------------------------------------------------------------------
 #t hf aug-cc-pvdz iop(5/13=1,5/36=2,99/5=2) pseudo=read geom=check gue
 ss=(read,tcheck) scf=(maxcycle=1)
 ----------------------------------------------------------------------
 -----
 title
 -----
 Structure from the checkpoint file:  "N-acetylacetamide.chk"
 Charge =  0 Multiplicity = 1

                         Standard orientation:
 ---------------------------------------------------------------------
 Center     Atomic      Atomic             Coordinates (Angstroms)
 Number     Number       Type             X           Y           Z
 ---------------------------------------------------------------------
      1          6           0        0.000000    1.265036   -0.119107
      2          6           0       -0.000000   -1.265036   -0.119107
      3          6           0        0.000000    2.401004    0.887119
      4          6           0       -0.000000   -2.401004    0.887119
      5          7           0       -0.000000   -0.000000    0.490686
      6          8           0        0.000000    1.434626   -1.309734
      7          8           0       -0.000000   -1.434626   -1.309734
      8          1           0        0.000000    3.342860    0.347946
      9          1           0       -0.882484    2.352586    1.527823
     10          1           0        0.882484    2.352586    1.527823
     11          1           0       -0.882484   -2.352586    1.527823
     12          1           0        0.882484   -2.352586    1.527823
     13          1           0       -0.000000   -3.342860    0.347946
     14          1           0       -0.000000   -0.000000    1.497619
 ---------------------------------------------------------------------

 SCF Done:  E(RHF) =  -360.165065681     A.U. after    2 cycles

 The electronic state is 1-A1.
 Alpha  occ. eigenvalues --  -20.52925 -20.52924 -15.55481 -11.37806 -11.37771
 Alpha  occ. eigenvalues --  -11.26156 -11.26155  -1.48669  -1.47158  -1.26211
 Alpha  occ. eigenvalues --   -1.05196  -1.01676  -0.88074  -0.81269  -0.71743
 Alpha  occ. eigenvalues --   -0.68788  -0.66316  -0.62972  -0.62197  -0.61523
 Alpha  occ. eigenvalues --   -0.59580  -0.57651  -0.56503  -0.50637  -0.46286
 Alpha  occ. eigenvalues --   -0.44516  -0.41361
 Alpha virt. eigenvalues --    0.02053   0.03794   0.03960   0.04432   0.05708
 Alpha virt. eigenvalues --    0.06288   0.07825   0.08141   0.10780   0.11326
 Alpha virt. eigenvalues --    0.12096   0.12798   0.13877   0.13990   0.15653

 Mulliken charges:
               1
     1  C    0.705766
     2  C    0.705766
     3  C   -0.478371
     4  C   -0.478371
     5  N    0.646629
     6  O   -1.216685
     7  O   -1.216685
     8  H    0.135563
     9  H    0.238045
    10  H    0.238045
    11  H    0.238045
    12  H    0.238045
    13  H    0.135563
    14  H    0.108643
 Sum of Mulliken charges =  -0.00000

 Dipole moment (field-independent basis, Debye):
    X=              0.0000    Y=              0.0000    Z=              6.4937  Tot=              6.4937

 Test job not archived.
 1\1\GINC-SE205\SP\RHF\Aug-CC-pVDZ\C4H7N1O2\OHZDE\05-Apr-2025\0\\#t hf
 aug-cc-pvdz iop(5/13=1,5/36=2,99/5=2) pseudo=read geom=check guess=(re
 ad,tcheck) scf=(maxcycle=1)\\title\\0,1\C,0,0.,1.265036,-0.119107\C,0,
 0.,-1.265036,-0.119107\C,0,0.,2.401004,0.887119\C,0,0.,-2.401004,0.887
 119\N,0,0.,0.,0.490686\O,0,0.,1.434626,-1.309734\O,0,0.,-1.434626,-1.3
 09734\H,0,0.,3.34286,0.347946\H,0,-0.882484,2.352586,1.527823\H,0,0.88
 2484,2.352586,1.527823\H,0,-0.882484,-2.352586,1.527823\H,0,0.882484,-
 2.352586,1.527823\H,0,0.,-3.34286,0.347946\H,0,0.,0.,1.497619\\Version

 Normal termination of Gaussian 16 at Sat Apr  5 22:52:48 2025.
