 Gaussian 16, Revision C.01,

 ----------------------------------------------------------------------
 #t hf aug-cc-pvdz symm=none int=(grid=ultrafine) guess=(read,tcheck) s
 table=(opt,rrhf)
 ----------------------------------------------------------------------
 -----
 title
 -----
 Symbolic Z-matrix:
 Charge =  0 Multiplicity = 1

 SCF Done:  E(RHF) =  -677.306485142     A.U. after   16 cycles
 Normal termination of Gaussian 16 at Sat Apr  5 22:51:56 2025.
 Gaussian 16:  ES64L-G16RevC.01  3-Jul-2019

 ----------------------------------------------------------------------
 #t hf aug-cc-pvdz iop(5/13=1,5/36=2,99/5=2) pseudo=read geom=check gue
 ss=(read,tcheck) scf=(maxcycle=1)
 ----------------------------------------------------------------------
 -----
 title
 -----
 Structure from the checkpoint file:  "N-azido-2-3-dihydro-1-2-thiazole.chk"
 Charge =  0 Multiplicity = 1

                         Standard orientation:
 ---------------------------------------------------------------------
 Center     Atomic      Atomic             Coordinates (Angstroms)
 Number     Number       Type             X           Y           Z
 ---------------------------------------------------------------------
      1         16           0        0.865517   -1.220324    0.000033
      2          7           0       -0.472803   -0.109850    0.001005
      3          7           0       -1.693397   -0.595410   -0.000089
      4          7           0       -2.596092    0.285480   -0.000471
      5          6           0       -0.129116    1.320148    0.000374
      6          6           0        1.958652    0.149745   -0.000464
      7          6           0        1.366917    1.340992   -0.000208
      8          1           0       -3.475838   -0.230300   -0.001183
      9          1           0       -0.574130    1.802666   -0.877164
     10          1           0       -0.573436    1.803341    0.877870
     11          1           0        3.018570   -0.049441   -0.000901
     12          1           0        1.913894    2.272063   -0.000472
 ---------------------------------------------------------------------

 SCF Done:  E(RHF) =  -677.648262033     A.U. after    2 cycles

 The electronic state is 1-A.
 Alpha  occ. eigenvalues --  -94.00320 -15.61625 -15.56968 -15.52489 -11.29310
 Alpha  occ. eigenvalues --  -11.29015 -11.26393  -8.28108  -6.25897  -6.25754
 Alpha  occ. eigenvalues --   -6.25436  -1.41237  -1.25084  -1.12734  -1.04499
 Alpha  occ. eigenvalues --   -0.97207  -0.81619  -0.81135  -0.75307  -0.69986
 Alpha  occ. eigenvalues --   -0.69748  -0.65680  -0.59443  -0.58499  -0.56882
 Alpha  occ. eigenvalues --   -0.51000  -0.49578  -0.46197  -0.42362  -0.31776
 Alpha virt. eigenvalues --    0.03189   0.03867   0.04392   0.05537   0.06116
 Alpha virt. eigenvalues --    0.08113   0.08463   0.09060   0.10165   0.11066
 Alpha virt. eigenvalues --    0.12363   0.13214   0.14054   0.14065   0.14661

 Mulliken charges:
               1
     1  S    0.609303
     2  N   -0.291317
     3  N   -0.335010
     4  N    0.223319
     5  C   -0.436265
     6  C   -0.543877
     7  C    0.720967
     8  H    0.085496
     9  H    0.122414
    10  H    0.122419
    11  H   -0.161950
    12  H   -0.115498
 Sum of Mulliken charges =  -0.00000

 Dipole moment (field-independent basis, Debye):
    X=              2.2062    Y=              1.3265    Z=             -0.0017  Tot=              2.5743

 Test job not archived.
 1\1\GINC-SE206\SP\RHF\Aug-CC-pVDZ\C3H5N3S1\OHZDE\05-Apr-2025\0\\#t hf
 aug-cc-pvdz iop(5/13=1,5/36=2,99/5=2) pseudo=read geom=check guess=(re
 ad,tcheck) scf=(maxcycle=1)\\title\\0,1\S,0,0.865517,-1.220324,0.00003
 3\N,0,-0.472803,-0.10985,0.001005\N,0,-1.693397,-0.59541,-0.000089\N,0
 ,-2.596092,0.285481,-0.000471\C,0,-0.129116,1.320148,0.000374\C,0,1.95
 8652,0.149745,-0.000464\C,0,1.366917,1.340992,-0.000208\H,0,-3.475838,
 -0.230299,-0.001183\H,0,-0.57413,1.802666,-0.877164\H,0,-0.573436,1.80
 3341,0.87787\H,0,3.01857,-0.049442,-0.000901\H,0,1.913895,2.272063,-0.

 Normal termination of Gaussian 16 at Sat Apr  5 22:52:49 2025.
