 Gaussian 16, Revision C.01,

 ----------------------------------------------------------------------
 #t hf aug-cc-pvdz symm=none int=(grid=ultrafine) guess=(read,tcheck) s
 table=(opt,rrhf)
 ----------------------------------------------------------------------
 -----
 title
 -----
 Symbolic Z-matrix:
 Charge =  0 Multiplicity = 1

 SCF Done:  E(RHF) =  -368.498033445     A.U. after   12 cycles

 1\1\GINC-SE208\Stability\RHF\Aug-CC-pVDZ\C8H19N1\OHZDE\05-Apr-2025\0\\
 #t hf aug-cc-pvdz symm=none int=(grid=ultrafine) guess=(read,tcheck) s
 table=(opt,rrhf)\\title\\0,1\C,0,-0.455055,0.007781,5.01409\C,0,-0.455
 055,0.007781,-5.01409\C,0,0.435676,-0.020717,3.773122\C,0,0.435676,-0.
 020717,-3.773122\C,0,-0.355461,0.027942,2.465843\C,0,-0.355461,0.02794
 2,-2.465843\C,0,0.527885,-0.001819,1.223683\C,0,0.527885,-0.001819,-1.
 223683\N,0,-0.261779,0.067908,0.\H,0,0.13597,-0.027454,5.930256\H,0,-1
 .060071,0.916136,5.043881\H,0,-1.138956,-0.843381,5.027731\H,0,0.13597

 Normal termination of Gaussian 16 at Sat Apr  5 22:54:09 2025.
 Gaussian 16:  ES64L-G16RevC.01  3-Jul-2019

 ----------------------------------------------------------------------
 #t hf aug-cc-pvdz iop(5/13=1,5/36=2,99/5=2) pseudo=read geom=check gue
 ss=(read,tcheck) scf=(maxcycle=1)
 ----------------------------------------------------------------------
 -----
 title
 -----
 Structure from the checkpoint file:  "N-butyl-1-butanamine.chk"
 Charge =  0 Multiplicity = 1

                         Standard orientation:
 ---------------------------------------------------------------------
 Center     Atomic      Atomic             Coordinates (Angstroms)
 Number     Number       Type             X           Y           Z
 ---------------------------------------------------------------------
      1          6           0       -0.455055    0.007781    5.014090
      2          6           0       -0.455055    0.007781   -5.014090
      3          6           0        0.435676   -0.020717    3.773122
      4          6           0        0.435676   -0.020717   -3.773122
      5          6           0       -0.355461    0.027942    2.465843
      6          6           0       -0.355461    0.027942   -2.465843
      7          6           0        0.527885   -0.001819    1.223683
      8          6           0        0.527885   -0.001819   -1.223683
      9          7           0       -0.261779    0.067908   -0.000000
     10          1           0        0.135970   -0.027454    5.930256
     11          1           0       -1.060071    0.916136    5.043881
     12          1           0       -1.138956   -0.843381    5.027731
     13          1           0        0.135970   -0.027454   -5.930256
     14          1           0       -1.138956   -0.843381   -5.027731
     15          1           0       -1.060071    0.916136   -5.043881
     16          1           0        1.130138    0.824101    3.804951
     17          1           0        1.054579   -0.922676    3.790225
     18          1           0        1.054579   -0.922676   -3.790225
     19          1           0        1.130138    0.824101   -3.804951
     20          1           0       -1.049164   -0.820022    2.434262
     21          1           0       -0.971786    0.930230    2.437138
     22          1           0       -0.971786    0.930230   -2.437138
     23          1           0       -1.049164   -0.820022   -2.434262
     24          1           0        1.201869    0.860165    1.235204
     25          1           0        1.172318   -0.897454    1.253831
     26          1           0        1.172318   -0.897454   -1.253831
     27          1           0        1.201869    0.860165   -1.235204
     28          1           0       -0.953883   -0.672892   -0.000000
 ---------------------------------------------------------------------

 SCF Done:  E(RHF) =  -368.912458129     A.U. after    2 cycles

 The electronic state is 1-A'.
 Alpha  occ. eigenvalues --  -15.47588 -11.24725 -11.24721 -11.22483 -11.22474
 Alpha  occ. eigenvalues --  -11.22066 -11.22059 -11.22014 -11.22001  -1.20139
 Alpha  occ. eigenvalues --   -1.07336  -1.06144  -0.98573  -0.94567  -0.86102
 Alpha  occ. eigenvalues --   -0.83697  -0.80378  -0.78894  -0.68281  -0.64740
 Alpha  occ. eigenvalues --   -0.63601  -0.63487  -0.60832  -0.58089  -0.57487
 Alpha  occ. eigenvalues --   -0.57401  -0.53497  -0.53390  -0.51692  -0.49867
 Alpha  occ. eigenvalues --   -0.49579  -0.48022  -0.47612  -0.47152  -0.46623
 Alpha  occ. eigenvalues --   -0.45831  -0.39620
 Alpha virt. eigenvalues --    0.03636   0.03720   0.03870   0.03986   0.04411
 Alpha virt. eigenvalues --    0.04427   0.04642   0.05994   0.06627   0.07125
 Alpha virt. eigenvalues --    0.07672   0.08102   0.08623   0.09355   0.09707

 Mulliken charges:
               1
     1  C   -0.383527
     2  C   -0.383527
     3  C   -0.182322
     4  C   -0.182322
     5  C   -0.280308
     6  C   -0.280308
     7  C   -0.568217
     8  C   -0.568217
     9  N    0.564650
    10  H    0.112988
    11  H    0.158713
    12  H    0.155084
    13  H    0.112988
    14  H    0.155084
    15  H    0.158713
    16  H    0.117214
    17  H    0.112137
    18  H    0.112137
    19  H    0.117214
    20  H    0.095405
    21  H    0.144129
    22  H    0.144129
    23  H    0.095405
    24  H    0.021135
    25  H    0.060871
    26  H    0.060871
    27  H    0.021135
    28  H    0.308745
 Sum of Mulliken charges =   0.00000

 Dipole moment (field-independent basis, Debye):
    X=              0.4924    Y=             -0.8838    Z=             -0.0000  Tot=              1.0117

 Test job not archived.
 1\1\GINC-SE208\SP\RHF\Aug-CC-pVDZ\C8H19N1\OHZDE\05-Apr-2025\0\\#t hf a
 ug-cc-pvdz iop(5/13=1,5/36=2,99/5=2) pseudo=read geom=check guess=(rea
 d,tcheck) scf=(maxcycle=1)\\title\\0,1\C,0,-0.455055,0.007781,5.01409\
 C,0,-0.455055,0.007781,-5.01409\C,0,0.435676,-0.020717,3.773122\C,0,0.
 435676,-0.020717,-3.773122\C,0,-0.355461,0.027942,2.465843\C,0,-0.3554
 61,0.027942,-2.465843\C,0,0.527885,-0.001819,1.223683\C,0,0.527885,-0.
 001819,-1.223683\N,0,-0.261779,0.067908,0.\H,0,0.13597,-0.027454,5.930
 256\H,0,-1.060071,0.916136,5.043881\H,0,-1.138956,-0.843381,5.027731\H

 Normal termination of Gaussian 16 at Sat Apr  5 22:54:42 2025.
