 Gaussian 16, Revision C.01,

 ----------------------------------------------------------------------
 #t hf aug-cc-pvdz symm=none int=(grid=ultrafine) guess=(read,tcheck) s
 table=(opt,rrhf)
 ----------------------------------------------------------------------
 -----
 title
 -----
 Symbolic Z-matrix:
 Charge =  0 Multiplicity = 1

 SCF Done:  E(RHF) =  -817.518964835     A.U. after   13 cycles
 Normal termination of Gaussian 16 at Sat Apr  5 22:51:59 2025.
 Gaussian 16:  ES64L-G16RevC.01  3-Jul-2019

 ----------------------------------------------------------------------
 #t hf aug-cc-pvdz iop(5/13=1,5/36=2,99/5=2) pseudo=read geom=check gue
 ss=(read,tcheck) scf=(maxcycle=1)
 ----------------------------------------------------------------------
 -----
 title
 -----
 Structure from the checkpoint file:  "N-chlorosuccinimide.chk"
 Charge =  0 Multiplicity = 1

                         Standard orientation:
 ---------------------------------------------------------------------
 Center     Atomic      Atomic             Coordinates (Angstroms)
 Number     Number       Type             X           Y           Z
 ---------------------------------------------------------------------
      1          6           0       -0.000029   -1.883915    0.767287
      2          7           0        0.000023    0.323654    0.000000
      3          6           0        0.000000   -0.423893   -1.187980
      4          6           0       -0.000029   -1.883915   -0.767287
      5          6           0        0.000000   -0.423893    1.187980
      6         17           0        0.000020    2.020882    0.000000
      7          1           0        0.876572   -2.363854   -1.200021
      8          1           0       -0.876661   -2.363803   -1.200016
      9          1           0        0.876572   -2.363854    1.200021
     10          1           0       -0.876661   -2.363803    1.200016
     11          8           0        0.000000    0.033027   -2.295994
     12          8           0        0.000000    0.033027    2.295994
 ---------------------------------------------------------------------

 SCF Done:  E(RHF) =  -817.948565416     A.U. after    2 cycles

 The electronic state is 1-A'.
 Alpha  occ. eigenvalues -- -105.62836 -20.55729 -20.55727 -15.61662 -11.40291
 Alpha  occ. eigenvalues --  -11.40290 -11.28920 -11.28918 -10.67264  -7.84268
 Alpha  occ. eigenvalues --   -7.83717  -7.83691  -1.51394  -1.50384  -1.32716
 Alpha  occ. eigenvalues --   -1.14542  -1.04559  -0.99165  -0.89740  -0.78682
 Alpha  occ. eigenvalues --   -0.72602  -0.71675  -0.68816  -0.64933  -0.64375
 Alpha  occ. eigenvalues --   -0.62780  -0.60811  -0.60008  -0.52272  -0.51958
 Alpha  occ. eigenvalues --   -0.50204  -0.47924  -0.44726  -0.43746
 Alpha virt. eigenvalues --    0.02596   0.03668   0.04330   0.06092   0.06179
 Alpha virt. eigenvalues --    0.07584   0.09813   0.09823   0.09867   0.11067
 Alpha virt. eigenvalues --    0.12231   0.13770   0.14058   0.14531   0.14883

 Mulliken charges:
               1
     1  C   -0.228161
     2  N    0.568664
     3  C    0.665623
     4  C   -0.228161
     5  C    0.665623
     6  Cl   0.184636
     7  H    0.236105
     8  H    0.236114
     9  H    0.236105
    10  H    0.236114
    11  O   -1.286331
    12  O   -1.286331
 Sum of Mulliken charges =  -0.00000

 Dipole moment (field-independent basis, Debye):
    X=             -0.0001    Y=             -3.7336    Z=              0.0000  Tot=              3.7336

 Test job not archived.
 1\1\GINC-SE213\SP\RHF\Aug-CC-pVDZ\C4H4Cl1N1O2\OHZDE\05-Apr-2025\0\\#t
 hf aug-cc-pvdz iop(5/13=1,5/36=2,99/5=2) pseudo=read geom=check guess=
 (read,tcheck) scf=(maxcycle=1)\\title\\0,1\C,0,-0.000029,-1.883915,0.7
 67287\N,0,0.000023,0.323654,0.\C,0,0.,-0.423893,-1.18798\C,0,-0.000029
 ,-1.883915,-0.767287\C,0,0.,-0.423893,1.18798\Cl,0,0.00002,2.020882,0.
 \H,0,0.876572,-2.363854,-1.200021\H,0,-0.876661,-2.363803,-1.200016\H,
 0,0.876572,-2.363854,1.200021\H,0,-0.876661,-2.363803,1.200016\O,0,0.,
 0.033027,-2.295994\O,0,0.,0.033027,2.295994\\Version=ES64L-G16RevC.01\

 Normal termination of Gaussian 16 at Sat Apr  5 22:52:49 2025.
