 Gaussian 16, Revision C.01,

 ----------------------------------------------------------------------
 #t hf aug-cc-pvdz symm=none int=(grid=ultrafine) guess=(read,tcheck) s
 table=(opt,rrhf)
 ----------------------------------------------------------------------
 -----
 title
 -----
 Symbolic Z-matrix:
 Charge =  0 Multiplicity = 1

 SCF Done:  E(RHF) =  -738.723799819     A.U. after   15 cycles
 Normal termination of Gaussian 16 at Sat Apr  5 22:51:53 2025.
 Gaussian 16:  ES64L-G16RevC.01  3-Jul-2019

 ----------------------------------------------------------------------
 #t hf aug-cc-pvdz iop(5/13=1,5/36=2,99/5=2) pseudo=read geom=check gue
 ss=(read,tcheck) scf=(maxcycle=1)
 ----------------------------------------------------------------------
 -----
 title
 -----
 Structure from the checkpoint file:  "N-chloro-N-cyano-N--methylimidoformamide.chk"
 Charge =  0 Multiplicity = 1

                         Standard orientation:
 ---------------------------------------------------------------------
 Center     Atomic      Atomic             Coordinates (Angstroms)
 Number     Number       Type             X           Y           Z
 ---------------------------------------------------------------------
      1         17           0       -0.857697    1.572767    0.000268
      2          7           0       -0.570057   -0.129205   -0.000081
      3          7           0        1.743589    0.140834    0.000082
      4          7           0       -2.544730   -1.638675   -0.000357
      5          6           0        0.749729   -0.615993   -0.000106
      6          6           0       -1.632177   -0.928384   -0.000224
      7          6           0        3.070199   -0.442365    0.000029
      8          1           0        0.755182   -1.709286   -0.000314
      9          1           0        3.613291   -0.089928    0.877506
     10          1           0        3.613351   -0.089629   -0.877292
     11          1           0        3.070905   -1.538419   -0.000158
 ---------------------------------------------------------------------

 SCF Done:  E(RHF) =  -739.077031466     A.U. after    2 cycles

 The electronic state is 1-A.
 Alpha  occ. eigenvalues -- -105.64139 -15.63846 -15.53150 -15.52247 -11.36364
 Alpha  occ. eigenvalues --  -11.33583 -11.28109 -10.68535  -7.85522  -7.84976
 Alpha  occ. eigenvalues --   -7.84936  -1.36328  -1.26450  -1.23600  -1.08699
 Alpha  occ. eigenvalues --   -1.01253  -0.90417  -0.80854  -0.72231  -0.70239
 Alpha  occ. eigenvalues --   -0.68505  -0.62570  -0.62477  -0.59729  -0.53464
 Alpha  occ. eigenvalues --   -0.53100  -0.51096  -0.50091  -0.47976  -0.42425
 Alpha virt. eigenvalues --    0.02918   0.04017   0.04730   0.05096   0.05341
 Alpha virt. eigenvalues --    0.07972   0.08762   0.09311   0.10861   0.11305
 Alpha virt. eigenvalues --    0.11747   0.12628   0.13977   0.14030   0.14876

 Mulliken charges:
               1
     1  Cl   0.213749
     2  N    0.415969
     3  N    0.645632
     4  N    0.962739
     5  C   -0.723677
     6  C   -1.392696
     7  C   -0.328966
     8  H   -0.162888
     9  H    0.123121
    10  H    0.123129
    11  H    0.123889
 Sum of Mulliken charges =  -0.00000

 Dipole moment (field-independent basis, Debye):
    X=              3.9006    Y=              0.3472    Z=              0.0001  Tot=              3.9160

 Test job not archived.
 1\1\GINC-SE209\SP\RHF\Aug-CC-pVDZ\C3H4Cl1N3\OHZDE\05-Apr-2025\0\\#t hf
  aug-cc-pvdz iop(5/13=1,5/36=2,99/5=2) pseudo=read geom=check guess=(r
 ead,tcheck) scf=(maxcycle=1)\\title\\0,1\Cl,0,-0.857697,1.572767,0.000
 268\N,0,-0.570057,-0.129205,-0.000081\N,0,1.743589,0.140834,0.000082\N
 ,0,-2.54473,-1.638675,-0.000357\C,0,0.749729,-0.615993,-0.000106\C,0,-
 1.632177,-0.928384,-0.000224\C,0,3.070199,-0.442365,0.000029\H,0,0.755
 182,-1.709286,-0.000314\H,0,3.613291,-0.089928,0.877506\H,0,3.613351,-
 0.089629,-0.877292\H,0,3.070905,-1.538419,-0.000158\\Version=ES64L-G16

 Normal termination of Gaussian 16 at Sat Apr  5 22:52:48 2025.
