 Gaussian 16, Revision C.01,

 ----------------------------------------------------------------------
 #t hf aug-cc-pvdz symm=none int=(grid=ultrafine) guess=(read,tcheck) s
 table=(opt,rrhf)
 ----------------------------------------------------------------------
 -----
 title
 -----
 Symbolic Z-matrix:
 Charge =  0 Multiplicity = 1

 SCF Done:  E(RHF) =  -758.594042926     A.U. after   15 cycles
 Normal termination of Gaussian 16 at Sat Apr  5 22:51:54 2025.
 Gaussian 16:  ES64L-G16RevC.01  3-Jul-2019

 ----------------------------------------------------------------------
 #t hf aug-cc-pvdz iop(5/13=1,5/36=2,99/5=2) pseudo=read geom=check gue
 ss=(read,tcheck) scf=(maxcycle=1)
 ----------------------------------------------------------------------
 -----
 title
 -----
 Structure from the checkpoint file:  "N-chloro-N-cyanomethylformamide.chk"
 Charge =  0 Multiplicity = 1

                         Standard orientation:
 ---------------------------------------------------------------------
 Center     Atomic      Atomic             Coordinates (Angstroms)
 Number     Number       Type             X           Y           Z
 ---------------------------------------------------------------------
      1         17           0       -0.701864    1.462003   -0.034783
      2          8           0       -2.283438   -0.979375   -0.549331
      3          7           0       -0.344081   -0.165493    0.372382
      4          7           0        2.914608   -0.191919   -0.838450
      5          6           0        0.978044   -0.423781    0.908893
      6          6           0       -1.224862   -1.151741   -0.010019
      7          6           0        2.060093   -0.287664   -0.076810
      8          1           0        1.172647    0.247397    1.745782
      9          1           0        0.982654   -1.443332    1.297214
     10          1           0       -0.829457   -2.142106    0.273049
 ---------------------------------------------------------------------

 SCF Done:  E(RHF) =  -758.960510063     A.U. after    2 cycles

 The electronic state is 1-A.
 Alpha  occ. eigenvalues -- -105.63346 -20.55630 -15.61953 -15.54296 -11.40195
 Alpha  occ. eigenvalues --  -11.37356 -11.30614 -10.67797  -7.84781  -7.84267
 Alpha  occ. eigenvalues --   -7.84225  -1.50546  -1.32717  -1.26091  -1.10137
 Alpha  occ. eigenvalues --   -1.05544  -0.86507  -0.80094  -0.76090  -0.72590
 Alpha  occ. eigenvalues --   -0.66512  -0.64762  -0.63866  -0.61954  -0.53918
 Alpha  occ. eigenvalues --   -0.53259  -0.52344  -0.50925  -0.46906  -0.44289
 Alpha virt. eigenvalues --    0.02060   0.03679   0.05078   0.05691   0.06398
 Alpha virt. eigenvalues --    0.08471   0.09269   0.09791   0.11015   0.11811
 Alpha virt. eigenvalues --    0.12842   0.13639   0.13758   0.14579   0.14872

 Mulliken charges:
               1
     1  Cl   0.126826
     2  O   -1.023007
     3  N    0.289589
     4  N    0.830471
     5  C   -0.210236
     6  C    0.701618
     7  C   -1.232097
     8  H    0.165059
     9  H    0.220000
    10  H    0.131776
 Sum of Mulliken charges =  -0.00000

 Dipole moment (field-independent basis, Debye):
    X=              0.1809    Y=             -1.1742    Z=              4.3464  Tot=              4.5058

 Test job not archived.
 1\1\GINC-SE212\SP\RHF\Aug-CC-pVDZ\C3H3Cl1N2O1\OHZDE\05-Apr-2025\0\\#t
 hf aug-cc-pvdz iop(5/13=1,5/36=2,99/5=2) pseudo=read geom=check guess=
 (read,tcheck) scf=(maxcycle=1)\\title\\0,1\Cl,0,-0.701864,1.462003,-0.
 034783\O,0,-2.283438,-0.979375,-0.549331\N,0,-0.344081,-0.165493,0.372
 382\N,0,2.914608,-0.191919,-0.83845\C,0,0.978044,-0.423781,0.908893\C,
 0,-1.224862,-1.151741,-0.010019\C,0,2.060093,-0.287664,-0.07681\H,0,1.
 172647,0.247397,1.745782\H,0,0.982654,-1.443332,1.297214\H,0,-0.829457
 ,-2.142106,0.273049\\Version=ES64L-G16RevC.01\State=1-A\HF=-758.960510

 Normal termination of Gaussian 16 at Sat Apr  5 22:52:48 2025.
