 Gaussian 16, Revision C.01,

 ----------------------------------------------------------------------
 #t hf aug-cc-pvdz symm=none int=(grid=ultrafine) guess=(read,tcheck) s
 table=(opt,rrhf)
 ----------------------------------------------------------------------
 -----
 title
 -----
 Symbolic Z-matrix:
 Charge =  0 Multiplicity = 1

 SCF Done:  E(RHF) =  -1178.32919937     A.U. after   15 cycles
 Normal termination of Gaussian 16 at Sat Apr  5 22:52:13 2025.
 Gaussian 16:  ES64L-G16RevC.01  3-Jul-2019

 ----------------------------------------------------------------------
 #t hf aug-cc-pvdz iop(5/13=1,5/36=2,99/5=2) pseudo=read geom=check gue
 ss=(read,tcheck) scf=(maxcycle=1)
 ----------------------------------------------------------------------
 -----
 title
 -----
 Structure from the checkpoint file:  "N-chlorocysteine.chk"
 Charge =  0 Multiplicity = 1

                         Standard orientation:
 ---------------------------------------------------------------------
 Center     Atomic      Atomic             Coordinates (Angstroms)
 Number     Number       Type             X           Y           Z
 ---------------------------------------------------------------------
      1         17           0        1.560711    1.893407   -0.220108
      2         16           0       -2.790812    0.329751   -0.047708
      3          8           0        1.341983   -2.035398   -1.015709
      4          8           0        1.598920   -1.268082    1.083308
      5          7           0        0.161310    1.041443    0.439465
      6          6           0       -0.069935   -0.213443   -0.269978
      7          6           0        1.035385   -1.265596   -0.146657
      8          6           0       -1.382089   -0.820778    0.246351
      9          1           0       -3.701568   -0.633058   -0.277035
     10          1           0        2.276249   -1.960533    1.095104
     11          1           0        0.436799    0.846291    1.397865
     12          1           0       -0.173273    0.009303   -1.329322
     13          1           0       -1.303752   -1.040723    1.310335
     14          1           0       -1.570111   -1.748572   -0.287123
 ---------------------------------------------------------------------

 SCF Done:  E(RHF) =  -1178.78454240     A.U. after    2 cycles

 The electronic state is 1-A.
 Alpha  occ. eigenvalues -- -105.59567 -93.96339 -20.62365 -20.56128 -15.58415
 Alpha  occ. eigenvalues --  -11.41506 -11.31842 -11.30101 -10.64104  -8.24362
 Alpha  occ. eigenvalues --   -7.81056  -7.80608  -7.80579  -6.22200  -6.22062
 Alpha  occ. eigenvalues --   -6.21825  -1.57076  -1.47686  -1.26946  -1.10980
 Alpha  occ. eigenvalues --   -1.03097  -0.97606  -0.89366  -0.84998  -0.74992
 Alpha  occ. eigenvalues --   -0.73224  -0.68198  -0.67094  -0.65146  -0.63296
 Alpha  occ. eigenvalues --   -0.60441  -0.57002  -0.56022  -0.54321  -0.49718
 Alpha  occ. eigenvalues --   -0.48450  -0.47521  -0.46904  -0.43090  -0.37886
 Alpha virt. eigenvalues --    0.03006   0.03655   0.04820   0.05204   0.05794
 Alpha virt. eigenvalues --    0.06635   0.07489   0.09529   0.09973   0.10899
 Alpha virt. eigenvalues --    0.12389   0.12688   0.13608   0.14465   0.14677

 Mulliken charges:
               1
     1  Cl   0.056318
     2  S    0.127548
     3  O   -1.297555
     4  O   -1.333970
     5  N    0.370530
     6  C   -1.162339
     7  C    2.391446
     8  C   -0.601976
     9  H    0.334780
    10  H    0.377574
    11  H    0.363723
    12  H    0.072218
    13  H    0.189638
    14  H    0.112064
 Sum of Mulliken charges =  -0.00000

 Dipole moment (field-independent basis, Debye):
    X=             -0.0293    Y=             -2.2750    Z=              2.0664  Tot=              3.0735

 Test job not archived.
 1\1\GINC-SE210\SP\RHF\Aug-CC-pVDZ\C3H6Cl1N1O2S1\OHZDE\05-Apr-2025\0\\#
 t hf aug-cc-pvdz iop(5/13=1,5/36=2,99/5=2) pseudo=read geom=check gues
 s=(read,tcheck) scf=(maxcycle=1)\\title\\0,1\Cl,0,1.560711,1.893407,-0
 .220108\S,0,-2.790812,0.329751,-0.047708\O,0,1.341983,-2.035398,-1.015
 709\O,0,1.59892,-1.268082,1.083308\N,0,0.16131,1.041443,0.439465\C,0,-
 0.069935,-0.213443,-0.269978\C,0,1.035385,-1.265596,-0.146657\C,0,-1.3
 82089,-0.820778,0.246351\H,0,-3.701568,-0.633058,-0.277035\H,0,2.27624
 9,-1.960533,1.095104\H,0,0.436799,0.846291,1.397865\H,0,-0.173273,0.00

 Normal termination of Gaussian 16 at Sat Apr  5 22:52:50 2025.
