 Gaussian 16, Revision C.01,

 ----------------------------------------------------------------------
 #t hf aug-cc-pvdz symm=none int=(grid=ultrafine) guess=(read,tcheck) s
 table=(opt,rrhf)
 ----------------------------------------------------------------------
 -----
 title
 -----
 Symbolic Z-matrix:
 Charge =  0 Multiplicity = 1

 SCF Done:  E(RHF) =  -240.830717288     A.U. after   15 cycles
 Normal termination of Gaussian 16 at Sat Apr  5 22:51:44 2025.
 Gaussian 16:  ES64L-G16RevC.01  3-Jul-2019

 ----------------------------------------------------------------------
 #t hf aug-cc-pvdz iop(5/13=1,5/36=2,99/5=2) pseudo=read geom=check gue
 ss=(read,tcheck) scf=(maxcycle=1)
 ----------------------------------------------------------------------
 -----
 title
 -----
 Structure from the checkpoint file:  "N-cyanoimidoformamide.chk"
 Charge =  0 Multiplicity = 1

                         Standard orientation:
 ---------------------------------------------------------------------
 Center     Atomic      Atomic             Coordinates (Angstroms)
 Number     Number       Type             X           Y           Z
 ---------------------------------------------------------------------
      1          7           0       -0.047335    0.494707    0.000095
      2          7           0       -2.426020   -0.243839   -0.000088
      3          7           0        2.256899   -0.124368    0.000008
      4          6           0       -1.325935    0.106762   -0.000003
      5          6           0        1.029441   -0.407626   -0.000048
      6          1           0        0.145193    1.485628    0.000247
      7          1           0        2.449675    0.876936    0.000174
      8          1           0        0.699288   -1.442885   -0.000220
 ---------------------------------------------------------------------

 SCF Done:  E(RHF) =  -241.071055349     A.U. after    2 cycles

 The electronic state is 1-A.
 Alpha  occ. eigenvalues --  -15.60333 -15.52754 -15.51751 -11.36658 -11.33323
 Alpha  occ. eigenvalues --   -1.34168  -1.25044  -1.21572  -0.93477  -0.88374
 Alpha  occ. eigenvalues --   -0.79295  -0.66924  -0.66581  -0.62390  -0.53405
 Alpha  occ. eigenvalues --   -0.53253  -0.50727  -0.44960
 Alpha virt. eigenvalues --    0.01991   0.04926   0.05005   0.08220   0.08633
 Alpha virt. eigenvalues --    0.09467   0.10752   0.11073   0.13025   0.13057
 Alpha virt. eigenvalues --    0.13714   0.14800   0.16246   0.18200   0.18228

 Mulliken charges:
               1
     1  N    0.469369
     2  N    0.841618
     3  N    0.692993
     4  C   -1.377156
     5  C   -0.840744
     6  H    0.165603
     7  H    0.085332
     8  H   -0.037015
 Sum of Mulliken charges =  -0.00000

 Dipole moment (field-independent basis, Debye):
    X=              2.0624    Y=              2.6178    Z=              0.0005  Tot=              3.3326

 Test job not archived.
 1\1\GINC-SE213\SP\RHF\Aug-CC-pVDZ\C2H3N3\OHZDE\05-Apr-2025\0\\#t hf au
 g-cc-pvdz iop(5/13=1,5/36=2,99/5=2) pseudo=read geom=check guess=(read
 ,tcheck) scf=(maxcycle=1)\\title\\0,1\N,0,-0.047335,0.494707,0.000095\
 N,0,-2.42602,-0.243839,-0.000088\N,0,2.256899,-0.124368,0.000008\C,0,-
 1.325935,0.106762,-0.000003\C,0,1.029441,-0.407626,-0.000048\H,0,0.145
 193,1.485628,0.000247\H,0,2.449675,0.876936,0.000174\H,0,0.699288,-1.4
 42885,-0.00022\\Version=ES64L-G16RevC.01\State=1-A\HF=-241.0710553\RMS
 D=2.168e-02\Dipole=0.8113973,1.0299071,0.0001882\Quadrupole=-10.016358

 Normal termination of Gaussian 16 at Sat Apr  5 22:52:46 2025.
