 Gaussian 16, Revision C.01,

 ----------------------------------------------------------------------
 #t hf aug-cc-pvdz symm=none int=(grid=ultrafine) guess=(read,tcheck) s
 table=(opt,rrhf)
 ----------------------------------------------------------------------
 -----
 title
 -----
 Symbolic Z-matrix:
 Charge =  0 Multiplicity = 1

 SCF Done:  E(RHF) =  -1003.06032824     A.U. after   14 cycles
 Normal termination of Gaussian 16 at Sat Apr  5 22:51:40 2025.
 Gaussian 16:  ES64L-G16RevC.01  3-Jul-2019

 ----------------------------------------------------------------------
 #t hf aug-cc-pvdz iop(5/13=1,5/36=2,99/5=2) pseudo=read geom=check gue
 ss=(read,tcheck) scf=(maxcycle=1)
 ----------------------------------------------------------------------
 -----
 title
 -----
 Structure from the checkpoint file:  "N-disulfanylacetamide.chk"
 Charge =  0 Multiplicity = 1

                         Standard orientation:
 ---------------------------------------------------------------------
 Center     Atomic      Atomic             Coordinates (Angstroms)
 Number     Number       Type             X           Y           Z
 ---------------------------------------------------------------------
      1         16           0       -0.977841    0.897750    0.426091
      2         16           0       -2.081995   -0.635586   -0.451951
      3          8           0        1.307860   -0.949315    1.030107
      4          7           0        0.582338    0.797816   -0.241341
      5          6           0        1.521372   -0.149599    0.148699
      6          6           0        2.812887   -0.107552   -0.640961
      7          1           0       -1.741791   -1.618901    0.408674
      8          1           0        0.761070    1.334091   -1.076406
      9          1           0        2.715102   -0.758963   -1.511499
     10          1           0        3.614677   -0.492310   -0.016893
     11          1           0        3.063516    0.894181   -0.987999
 ---------------------------------------------------------------------

 SCF Done:  E(RHF) =  -1003.39200800     A.U. after    2 cycles

 The electronic state is 1-A.
 Alpha  occ. eigenvalues --  -94.01925 -93.98292 -20.52806 -15.55938 -11.37716
 Alpha  occ. eigenvalues --  -11.26108  -8.29442  -8.26309  -6.27224  -6.27002
 Alpha  occ. eigenvalues --   -6.26732  -6.24124  -6.23947  -6.23717  -1.47880
 Alpha  occ. eigenvalues --   -1.26335  -1.08846  -1.02335  -0.92452  -0.83130
 Alpha  occ. eigenvalues --   -0.71430  -0.67695  -0.65046  -0.61318  -0.58934
 Alpha  occ. eigenvalues --   -0.57433  -0.55649  -0.49487  -0.44597  -0.43475
 Alpha  occ. eigenvalues --   -0.40193  -0.38871
 Alpha virt. eigenvalues --    0.02912   0.04532   0.04735   0.05380   0.06171
 Alpha virt. eigenvalues --    0.07180   0.09167   0.10145   0.11528   0.11568
 Alpha virt. eigenvalues --    0.11995   0.13100   0.13786   0.14157   0.14986

 Mulliken charges:
               1
     1  S    0.158054
     2  S   -0.359172
     3  O   -1.251288
     4  N    0.326407
     5  C    0.509631
     6  C   -0.409511
     7  H    0.435652
     8  H    0.002979
     9  H    0.262120
    10  H    0.179360
    11  H    0.145769
 Sum of Mulliken charges =  -0.00000

 Dipole moment (field-independent basis, Debye):
    X=              1.5952    Y=              1.0257    Z=             -2.5291  Tot=              3.1612

 Test job not archived.
 1\1\GINC-SE214\SP\RHF\Aug-CC-pVDZ\C2H5N1O1S2\OHZDE\05-Apr-2025\0\\#t h
 f aug-cc-pvdz iop(5/13=1,5/36=2,99/5=2) pseudo=read geom=check guess=(
 read,tcheck) scf=(maxcycle=1)\\title\\0,1\S,0,-0.977841,0.89775,0.4260
 91\S,0,-2.081995,-0.635586,-0.451951\O,0,1.30786,-0.949315,1.030107\N,
 0,0.582338,0.797816,-0.241341\C,0,1.521372,-0.149599,0.148699\C,0,2.81
 2887,-0.107552,-0.640961\H,0,-1.741791,-1.618901,0.408674\H,0,0.76107,
 1.334091,-1.076406\H,0,2.715102,-0.758963,-1.511499\H,0,3.614677,-0.49
 231,-0.016893\H,0,3.063516,0.894181,-0.987999\\Version=ES64L-G16RevC.0

 Normal termination of Gaussian 16 at Sat Apr  5 22:52:48 2025.
