 Gaussian 16, Revision C.01,

 ----------------------------------------------------------------------
 #t hf aug-cc-pvdz symm=none int=(grid=ultrafine) guess=(read,tcheck) s
 table=(opt,rrhf)
 ----------------------------------------------------------------------
 -----
 title
 -----
 Symbolic Z-matrix:
 Charge =  0 Multiplicity = 1

 SCF Done:  E(RHF) =  -703.551335183     A.U. after   15 cycles
 Normal termination of Gaussian 16 at Sat Apr  5 22:53:40 2025.
 Gaussian 16:  ES64L-G16RevC.01  3-Jul-2019

 ----------------------------------------------------------------------
 #t hf aug-cc-pvdz iop(5/13=1,5/36=2,99/5=2) pseudo=read geom=check gue
 ss=(read,tcheck) scf=(maxcycle=1)
 ----------------------------------------------------------------------
 -----
 title
 -----
 Structure from the checkpoint file:  "N-ethynylcarbamoyl_chloride.chk"
 Charge =  0 Multiplicity = 1

                         Standard orientation:
 ---------------------------------------------------------------------
 Center     Atomic      Atomic             Coordinates (Angstroms)
 Number     Number       Type             X           Y           Z
 ---------------------------------------------------------------------
      1         17           0        2.020286   -0.360915    0.000049
      2          8           0        0.203450    1.555974   -0.000169
      3          7           0       -0.574181   -0.605015    0.000072
      4          6           0        0.376440    0.384407   -0.000039
      5          6           0       -1.897702   -0.346943    0.000026
      6          6           0       -3.075438   -0.133700   -0.000002
      7          1           0       -0.254865   -1.560965    0.000162
      8          1           0       -4.118136    0.061245   -0.000060
 ---------------------------------------------------------------------

 SCF Done:  E(RHF) =  -703.867494459     A.U. after    2 cycles

 The electronic state is 1-A.
 Alpha  occ. eigenvalues -- -105.60076 -20.57786 -15.60370 -11.45957 -11.30224
 Alpha  occ. eigenvalues --  -11.26197 -10.64922  -7.81854  -7.81451  -7.81451
 Alpha  occ. eigenvalues --   -1.53879  -1.31987  -1.11345  -1.04908  -0.91764
 Alpha  occ. eigenvalues --   -0.85104  -0.74030  -0.72953  -0.68256  -0.66023
 Alpha  occ. eigenvalues --   -0.55128  -0.51398  -0.49203  -0.47534  -0.44145
 Alpha  occ. eigenvalues --   -0.40120
 Alpha virt. eigenvalues --    0.02872   0.03963   0.07674   0.09439   0.09598
 Alpha virt. eigenvalues --    0.09728   0.10213   0.11091   0.11825   0.13239
 Alpha virt. eigenvalues --    0.13405   0.13906   0.15540   0.15814   0.15899

 Mulliken charges:
               1
     1  Cl  -0.015456
     2  O   -0.950277
     3  N    0.907168
     4  C    0.497406
     5  C   -1.389353
     6  C    1.120470
     7  H    0.168184
     8  H   -0.338143
 Sum of Mulliken charges =  -0.00000

 Dipole moment (field-independent basis, Debye):
    X=             -1.1996    Y=             -2.6830    Z=              0.0002  Tot=              2.9390

 Test job not archived.
 1\1\GINC-SE252\SP\RHF\Aug-CC-pVDZ\C3H2Cl1N1O1\OHZDE\05-Apr-2025\0\\#t
 hf aug-cc-pvdz iop(5/13=1,5/36=2,99/5=2) pseudo=read geom=check guess=
 (read,tcheck) scf=(maxcycle=1)\\title\\0,1\Cl,0,2.020286,-0.360915,0.0
 00049\O,0,0.20345,1.555974,-0.000169\N,0,-0.574181,-0.605015,0.000072\
 C,0,0.37644,0.384407,-0.000039\C,0,-1.897702,-0.346943,0.000026\C,0,-3
 .075438,-0.1337,-0.000002\H,0,-0.254865,-1.560965,0.000162\H,0,-4.1181
 36,0.061245,-0.00006\\Version=ES64L-G16RevC.01\State=1-A\HF=-703.86749
 45\RMSD=3.066e-02\Dipole=-0.4719664,-1.0555833,0.0000888\Quadrupole=4.

 Normal termination of Gaussian 16 at Sat Apr  5 22:53:43 2025.
