 Gaussian 16, Revision C.01,

 ----------------------------------------------------------------------
 #t hf aug-cc-pvdz symm=none int=(grid=ultrafine) guess=(read,tcheck) s
 table=(opt,rrhf)
 ----------------------------------------------------------------------
 -----
 title
 -----
 Symbolic Z-matrix:
 Charge =  0 Multiplicity = 1

 SCF Done:  E(RHF) =  -363.839092038     A.U. after   15 cycles

 1\1\GINC-SE249\Stability\RHF\Aug-CC-pVDZ\C8H11N1\OHZDE\05-Apr-2025\0\\
 #t hf aug-cc-pvdz symm=none int=(grid=ultrafine) guess=(read,tcheck) s
 table=(opt,rrhf)\\title\\0,1\C,0,2.85544,0.252651,0.039517\C,0,1.95525
 1,1.308154,-0.00683\C,0,2.360141,-1.050018,0.041527\C,0,0.583533,1.082
 28,-0.050241\C,0,0.997959,-1.289253,-0.005941\C,0,0.08029,-0.226157,-0
 .05636\C,0,-3.683656,-0.105023,0.0191\C,0,-2.294319,0.511126,0.087695\
 N,0,-1.276349,-0.497538,-0.143162\H,0,3.919858,0.436494,0.075585\H,0,2
 .318186,2.327791,-0.005576\H,0,3.043134,-1.888633,0.080058\H,0,-0.0905

 Normal termination of Gaussian 16 at Sat Apr  5 22:52:45 2025.
 Gaussian 16:  ES64L-G16RevC.01  3-Jul-2019

 ----------------------------------------------------------------------
 #t hf aug-cc-pvdz iop(5/13=1,5/36=2,99/5=2) pseudo=read geom=check gue
 ss=(read,tcheck) scf=(maxcycle=1)
 ----------------------------------------------------------------------
 -----
 title
 -----
 Structure from the checkpoint file:  "N-ethylaniline.chk"
 Charge =  0 Multiplicity = 1

                         Standard orientation:
 ---------------------------------------------------------------------
 Center     Atomic      Atomic             Coordinates (Angstroms)
 Number     Number       Type             X           Y           Z
 ---------------------------------------------------------------------
      1          6           0        2.855440    0.252651    0.039517
      2          6           0        1.955251    1.308154   -0.006830
      3          6           0        2.360141   -1.050018    0.041527
      4          6           0        0.583533    1.082280   -0.050241
      5          6           0        0.997959   -1.289253   -0.005941
      6          6           0        0.080290   -0.226157   -0.056360
      7          6           0       -3.683656   -0.105023    0.019100
      8          6           0       -2.294319    0.511126    0.087695
      9          7           0       -1.276349   -0.497538   -0.143162
     10          1           0        3.919858    0.436494    0.075585
     11          1           0        2.318186    2.327791   -0.005576
     12          1           0        3.043134   -1.888633    0.080058
     13          1           0       -0.090520    1.925367   -0.082058
     14          1           0        0.628256   -2.307784   -0.011219
     15          1           0       -3.861554   -0.559934   -0.955872
     16          1           0       -3.812010   -0.873971    0.784186
     17          1           0       -4.445779    0.655703    0.185234
     18          1           0       -2.153505    1.006369    1.058333
     19          1           0       -2.204125    1.287273   -0.676443
     20          1           0       -1.535324   -1.428467    0.139104
 ---------------------------------------------------------------------

 SCF Done:  E(RHF) =  -364.225120173     A.U. after    2 cycles

 The electronic state is 1-A.
 Alpha  occ. eigenvalues --  -15.50278 -11.27911 -11.26871 -11.23790 -11.23738
 Alpha  occ. eigenvalues --  -11.23534 -11.22608 -11.22422 -11.22064  -1.24070
 Alpha  occ. eigenvalues --   -1.13319  -1.03860  -1.01100  -0.97530  -0.87272
 Alpha  occ. eigenvalues --   -0.83276  -0.80980  -0.73529  -0.68651  -0.66578
 Alpha  occ. eigenvalues --   -0.65036  -0.61844  -0.60594  -0.59086  -0.55736
 Alpha  occ. eigenvalues --   -0.55189  -0.52612  -0.51650  -0.50381  -0.49298
 Alpha  occ. eigenvalues --   -0.44418  -0.34237  -0.30087
 Alpha virt. eigenvalues --    0.03355   0.03723   0.03935   0.04455   0.04693
 Alpha virt. eigenvalues --    0.04748   0.06646   0.07144   0.07320   0.09086
 Alpha virt. eigenvalues --    0.09928   0.10728   0.11192   0.11693   0.13026

 Mulliken charges:
               1
     1  C   -0.016773
     2  C    0.624602
     3  C    0.487832
     4  C    0.119847
     5  C    0.495406
     6  C   -1.188098
     7  C   -0.371156
     8  C   -0.148585
     9  N    0.874908
    10  H   -0.235109
    11  H   -0.245045
    12  H   -0.233245
    13  H   -0.397249
    14  H   -0.352384
    15  H    0.204577
    16  H    0.135835
    17  H    0.130473
    18  H    0.003264
    19  H   -0.008825
    20  H    0.119725
 Sum of Mulliken charges =  -0.00000

 Dipole moment (field-independent basis, Debye):
    X=             -1.5369    Y=             -0.1543    Z=              0.5751  Tot=              1.6482

 Test job not archived.
 1\1\GINC-SE249\SP\RHF\Aug-CC-pVDZ\C8H11N1\OHZDE\05-Apr-2025\0\\#t hf a
 ug-cc-pvdz iop(5/13=1,5/36=2,99/5=2) pseudo=read geom=check guess=(rea
 d,tcheck) scf=(maxcycle=1)\\title\\0,1\C,0,2.85544,0.252651,0.039517\C
 ,0,1.955251,1.308154,-0.00683\C,0,2.360141,-1.050018,0.041527\C,0,0.58
 3533,1.08228,-0.050241\C,0,0.997959,-1.289253,-0.005941\C,0,0.08029,-0
 .226157,-0.05636\C,0,-3.683656,-0.105023,0.0191\C,0,-2.294319,0.511126
 ,0.087695\N,0,-1.276349,-0.497538,-0.143162\H,0,3.919858,0.436494,0.07
 5585\H,0,2.318186,2.327791,-0.005576\H,0,3.043134,-1.888633,0.080058\H

 Normal termination of Gaussian 16 at Sat Apr  5 22:52:54 2025.
