 Gaussian 16, Revision C.01,

 ----------------------------------------------------------------------
 #t hf aug-cc-pvdz symm=none int=(grid=ultrafine) guess=(read,tcheck) s
 table=(opt,rrhf)
 ----------------------------------------------------------------------
 -----
 title
 -----
 Symbolic Z-matrix:
 Charge =  0 Multiplicity = 1

 SCF Done:  E(RHF) =  -207.528981218     A.U. after   13 cycles
 Normal termination of Gaussian 16 at Sat Apr  5 22:51:44 2025.
 Gaussian 16:  ES64L-G16RevC.01  3-Jul-2019

 ----------------------------------------------------------------------
 #t hf aug-cc-pvdz iop(5/13=1,5/36=2,99/5=2) pseudo=read geom=check gue
 ss=(read,tcheck) scf=(maxcycle=1)
 ----------------------------------------------------------------------
 -----
 title
 -----
 Structure from the checkpoint file:  "N-ethynylacetylenamine.chk"
 Charge =  0 Multiplicity = 1

                         Standard orientation:
 ---------------------------------------------------------------------
 Center     Atomic      Atomic             Coordinates (Angstroms)
 Number     Number       Type             X           Y           Z
 ---------------------------------------------------------------------
      1          7           0       -0.000000    0.712570   -0.000004
      2          6           0        1.187127    0.077814   -0.000007
      3          6           0       -1.187127    0.077815   -0.000007
      4          6           0        2.251031   -0.475403    0.000008
      5          6           0       -2.251031   -0.475403    0.000009
      6          1           0       -0.000000    1.720650    0.000024
      7          1           0        3.189310   -0.968793   -0.000008
      8          1           0       -3.189310   -0.968793   -0.000007
 ---------------------------------------------------------------------

 SCF Done:  E(RHF) =  -207.741912136     A.U. after    2 cycles

 The electronic state is 1-A.
 Alpha  occ. eigenvalues --  -15.58223 -11.28905 -11.28875 -11.24186 -11.24178
 Alpha  occ. eigenvalues --   -1.29610  -1.05050  -1.01622  -0.86653  -0.82036
 Alpha  occ. eigenvalues --   -0.71977  -0.71369  -0.62739  -0.43303  -0.43202
 Alpha  occ. eigenvalues --   -0.41854  -0.35382
 Alpha virt. eigenvalues --    0.02941   0.03947   0.04541   0.09512   0.10851
 Alpha virt. eigenvalues --    0.10892   0.11023   0.11339   0.11849   0.13648
 Alpha virt. eigenvalues --    0.13657   0.13778   0.14367   0.15906   0.17783

 Mulliken charges:
               1
     1  N    0.813014
     2  C   -1.166151
     3  C   -1.166150
     4  C    0.986506
     5  C    0.986504
     6  H    0.200729
     7  H   -0.327226
     8  H   -0.327226
 Sum of Mulliken charges =  -0.00000

 Dipole moment (field-independent basis, Debye):
    X=              0.0000    Y=              0.8918    Z=             -0.0000  Tot=              0.8918

 Test job not archived.
 1\1\GINC-SE249\SP\RHF\Aug-CC-pVDZ\C4H3N1\OHZDE\05-Apr-2025\0\\#t hf au
 g-cc-pvdz iop(5/13=1,5/36=2,99/5=2) pseudo=read geom=check guess=(read
 ,tcheck) scf=(maxcycle=1)\\title\\0,1\N,0,0.,0.71257,-0.000004\C,0,1.1
 87127,0.077814,-0.000007\C,0,-1.187127,0.077815,-0.000007\C,0,2.251031
 ,-0.475403,0.000008\C,0,-2.251031,-0.475403,0.000009\H,0,0.,1.72065,0.
 000024\H,0,3.18931,-0.968793,-0.000008\H,0,-3.18931,-0.968793,-0.00000
 7\\Version=ES64L-G16RevC.01\State=1-A\HF=-207.7419121\RMSD=3.160e-02\D
 ipole=0.0000014,0.3508582,-0.0000031\Quadrupole=3.4277544,1.0293531,-4

 Normal termination of Gaussian 16 at Sat Apr  5 22:52:46 2025.
