 Gaussian 16, Revision C.01,

 ----------------------------------------------------------------------
 #t hf aug-cc-pvdz symm=none int=(grid=ultrafine) guess=(read,tcheck) s
 table=(opt,rrhf)
 ----------------------------------------------------------------------
 -----
 title
 -----
 Symbolic Z-matrix:
 Charge =  0 Multiplicity = 1

 SCF Done:  E(RHF) =  -381.654026531     A.U. after   14 cycles
 Normal termination of Gaussian 16 at Sat Apr  5 22:51:37 2025.
 Gaussian 16:  ES64L-G16RevC.01  3-Jul-2019

 ----------------------------------------------------------------------
 #t hf aug-cc-pvdz iop(5/13=1,5/36=2,99/5=2) pseudo=read geom=check gue
 ss=(read,tcheck) scf=(maxcycle=1)
 ----------------------------------------------------------------------
 -----
 title
 -----
 Structure from the checkpoint file:  "N-fluoroglycine.chk"
 Charge =  0 Multiplicity = 1

                         Standard orientation:
 ---------------------------------------------------------------------
 Center     Atomic      Atomic             Coordinates (Angstroms)
 Number     Number       Type             X           Y           Z
 ---------------------------------------------------------------------
      1          9           0        2.523812   -0.000530    0.037332
      2          8           0       -1.881341   -1.007854   -0.239265
      3          8           0       -1.539739    1.170779    0.004238
      4          7           0        1.215026   -0.004014   -0.555021
      5          6           0       -1.136839   -0.128298    0.067470
      6          6           0        0.302592   -0.347682    0.537573
      7          1           0       -0.888066    1.766285    0.392635
      8          1           0        1.117050    0.980700   -0.797020
      9          1           0        0.422906   -1.402721    0.762868
     10          1           0        0.502739    0.241088    1.440632
 ---------------------------------------------------------------------

 SCF Done:  E(RHF) =  -382.025598994     A.U. after    2 cycles

 The electronic state is 1-A.
 Alpha  occ. eigenvalues --  -26.48805 -20.62697 -20.56176 -15.63002 -11.42140
 Alpha  occ. eigenvalues --  -11.32041  -1.59645  -1.56781  -1.48222  -1.21272
 Alpha  occ. eigenvalues --   -1.00210  -0.86440  -0.79920  -0.74393  -0.72231
 Alpha  occ. eigenvalues --   -0.69047  -0.68027  -0.64192  -0.62157  -0.59861
 Alpha  occ. eigenvalues --   -0.58311  -0.50133  -0.49692  -0.46732
 Alpha virt. eigenvalues --    0.01999   0.04203   0.05003   0.06184   0.08948
 Alpha virt. eigenvalues --    0.10053   0.10905   0.11188   0.12233   0.12606
 Alpha virt. eigenvalues --    0.14128   0.15955   0.17305   0.18718   0.19060

 Mulliken charges:
               1
     1  F   -0.638876
     2  O   -1.166097
     3  O   -1.245720
     4  N    0.693149
     5  C    2.146570
     6  C   -0.666386
     7  H    0.420732
     8  H    0.173818
     9  H    0.113318
    10  H    0.169492
 Sum of Mulliken charges =   0.00000

 Dipole moment (field-independent basis, Debye):
    X=              1.4379    Y=              3.0416    Z=              2.1802  Tot=              4.0090

 Test job not archived.
 1\1\GINC-SE255\SP\RHF\Aug-CC-pVDZ\C2H4F1N1O2\OHZDE\05-Apr-2025\0\\#t h
 f aug-cc-pvdz iop(5/13=1,5/36=2,99/5=2) pseudo=read geom=check guess=(
 read,tcheck) scf=(maxcycle=1)\\title\\0,1\F,0,2.523812,-0.00053,0.0373
 32\O,0,-1.881341,-1.007854,-0.239265\O,0,-1.539739,1.170779,0.004238\N
 ,0,1.215026,-0.004014,-0.555021\C,0,-1.136839,-0.128298,0.06747\C,0,0.
 302592,-0.347682,0.537573\H,0,-0.888066,1.766285,0.392635\H,0,1.11705,
 0.9807,-0.79702\H,0,0.422906,-1.402721,0.762868\H,0,0.502739,0.241088,
 1.440632\\Version=ES64L-G16RevC.01\State=1-A\HF=-382.025599\RMSD=1.118

 Normal termination of Gaussian 16 at Sat Apr  5 22:51:41 2025.
