 Gaussian 16, Revision C.01,

 ----------------------------------------------------------------------
 #t hf aug-cc-pvdz symm=none int=(grid=ultrafine) guess=(read,tcheck) s
 table=(opt,rrhf)
 ----------------------------------------------------------------------
 -----
 title
 -----
 Symbolic Z-matrix:
 Charge =  0 Multiplicity = 1

 SCF Done:  E(RHF) =  -336.665489630     A.U. after   14 cycles
 Normal termination of Gaussian 16 at Sat Apr  5 22:52:55 2025.
 Gaussian 16:  ES64L-G16RevC.01  3-Jul-2019

 ----------------------------------------------------------------------
 #t hf aug-cc-pvdz iop(5/13=1,5/36=2,99/5=2) pseudo=read geom=check gue
 ss=(read,tcheck) scf=(maxcycle=1)
 ----------------------------------------------------------------------
 -----
 title
 -----
 Structure from the checkpoint file:  "N-formyloxyimidoformamide.chk"
 Charge =  0 Multiplicity = 1

                         Standard orientation:
 ---------------------------------------------------------------------
 Center     Atomic      Atomic             Coordinates (Angstroms)
 Number     Number       Type             X           Y           Z
 ---------------------------------------------------------------------
      1          8           0        0.398686   -0.658181    0.432310
      2          8           0        2.110858    0.540150   -0.435213
      3          7           0       -0.324934    0.558558    0.529684
      4          7           0       -2.184383   -0.564932   -0.359925
      5          6           0        1.635791   -0.499882   -0.069258
      6          6           0       -1.596806    0.501735   -0.024181
      7          1           0        0.269573    1.312628    0.194878
      8          1           0       -3.129950   -0.371180   -0.673543
      9          1           0        2.131567   -1.475260   -0.070979
     10          1           0       -2.016233    1.511565   -0.054807
 ---------------------------------------------------------------------

 SCF Done:  E(RHF) =  -336.999668372     A.U. after    2 cycles

 The electronic state is 1-A.
 Alpha  occ. eigenvalues --  -20.64447 -20.56827 -15.59419 -15.49368 -11.41717
 Alpha  occ. eigenvalues --  -11.33946  -1.59316  -1.49161  -1.26049  -1.16680
 Alpha  occ. eigenvalues --   -0.91599  -0.86572  -0.77948  -0.74192  -0.70988
 Alpha  occ. eigenvalues --   -0.69766  -0.66520  -0.59783  -0.57802  -0.49647
 Alpha  occ. eigenvalues --   -0.48407  -0.48166  -0.43279
 Alpha virt. eigenvalues --    0.03214   0.04420   0.05171   0.06407   0.08566
 Alpha virt. eigenvalues --    0.09237   0.09914   0.11579   0.12795   0.13251
 Alpha virt. eigenvalues --    0.14854   0.15108   0.15746   0.16662   0.18247

 Mulliken charges:
               1
     1  O   -1.099872
     2  O   -0.957987
     3  N    0.795102
     4  N    0.549570
     5  C    1.259471
     6  C   -0.941592
     7  H    0.207397
     8  H    0.156506
     9  H    0.131776
    10  H   -0.100371
 Sum of Mulliken charges =  -0.00000

 Dipole moment (field-independent basis, Debye):
    X=             -0.5529    Y=              1.3518    Z=             -0.2100  Tot=              1.4755

 Test job not archived.
 1\1\GINC-SE042\SP\RHF\Aug-CC-pVDZ\C2H4N2O2\OHZDE\05-Apr-2025\0\\#t hf
 aug-cc-pvdz iop(5/13=1,5/36=2,99/5=2) pseudo=read geom=check guess=(re
 ad,tcheck) scf=(maxcycle=1)\\title\\0,1\O,0,0.398686,-0.658181,0.43231
 \O,0,2.110858,0.54015,-0.435213\N,0,-0.324934,0.558558,0.529684\N,0,-2
 .184383,-0.564932,-0.359925\C,0,1.635791,-0.499882,-0.069258\C,0,-1.59
 6806,0.501735,-0.024181\H,0,0.269573,1.312628,0.194878\H,0,-3.12995,-0
 .37118,-0.673543\H,0,2.131567,-1.47526,-0.070979\H,0,-2.016233,1.51156
 5,-0.054807\\Version=ES64L-G16RevC.01\State=1-A\HF=-336.9996684\RMSD=1

 Normal termination of Gaussian 16 at Sat Apr  5 22:53:10 2025.
