 Gaussian 16, Revision C.01,

 ----------------------------------------------------------------------
 #t hf aug-cc-pvdz symm=none int=(grid=ultrafine) guess=(read,tcheck) s
 table=(opt,rrhf)
 ----------------------------------------------------------------------
 -----
 title
 -----
 Symbolic Z-matrix:
 Charge =  0 Multiplicity = 1

 SCF Done:  E(RHF) =  -319.441403385     A.U. after   16 cycles
 Normal termination of Gaussian 16 at Sat Apr  5 22:53:16 2025.
 Gaussian 16:  ES64L-G16RevC.01  3-Jul-2019

 ----------------------------------------------------------------------
 #t hf aug-cc-pvdz iop(5/13=1,5/36=2,99/5=2) pseudo=read geom=check gue
 ss=(read,tcheck) scf=(maxcycle=1)
 ----------------------------------------------------------------------
 -----
 title
 -----
 Structure from the checkpoint file:  "N-hydroxy-2-propynamide.chk"
 Charge =  0 Multiplicity = 1

                         Standard orientation:
 ---------------------------------------------------------------------
 Center     Atomic      Atomic             Coordinates (Angstroms)
 Number     Number       Type             X           Y           Z
 ---------------------------------------------------------------------
      1          8           0        0.003808    1.878896   -0.058549
      2          8           0       -1.325093   -1.341271   -0.193926
      3          7           0       -1.242362    0.008951    0.182819
      4          6           0       -0.039394    0.667675    0.014547
      5          6           0        1.144130   -0.169618    0.016092
      6          6           0        2.171403   -0.787527    0.007182
      7          1           0       -1.418255   -1.824660    0.635941
      8          1           0       -2.054044    0.531650   -0.119875
      9          1           0        3.082284   -1.333822   -0.002916
 ---------------------------------------------------------------------

 SCF Done:  E(RHF) =  -319.757492542     A.U. after    2 cycles

 The electronic state is 1-A.
 Alpha  occ. eigenvalues --  -20.62267 -20.54307 -15.59465 -11.40311 -11.27968
 Alpha  occ. eigenvalues --  -11.26938  -1.53326  -1.48572  -1.19074  -1.07067
 Alpha  occ. eigenvalues --   -0.92789  -0.79712  -0.76009  -0.73676  -0.71061
 Alpha  occ. eigenvalues --   -0.64851  -0.59341  -0.53709  -0.47621  -0.45807
 Alpha  occ. eigenvalues --   -0.43341  -0.43099
 Alpha virt. eigenvalues --    0.03047   0.03771   0.05198   0.07072   0.09514
 Alpha virt. eigenvalues --    0.10198   0.10216   0.11220   0.11501   0.13208
 Alpha virt. eigenvalues --    0.14557   0.14998   0.15692   0.17604   0.17942

 Mulliken charges:
               1
     1  O   -1.214185
     2  O   -1.102059
     3  N    1.044787
     4  C    0.486693
     5  C    0.398172
     6  C    0.268132
     7  H    0.316723
     8  H    0.159922
     9  H   -0.358188
 Sum of Mulliken charges =   0.00000

 Dipole moment (field-independent basis, Debye):
    X=             -0.2658    Y=             -3.3247    Z=              0.8497  Tot=              3.4419

 Test job not archived.
 1\1\GINC-SE028\SP\RHF\Aug-CC-pVDZ\C3H3N1O2\OHZDE\05-Apr-2025\0\\#t hf
 aug-cc-pvdz iop(5/13=1,5/36=2,99/5=2) pseudo=read geom=check guess=(re
 ad,tcheck) scf=(maxcycle=1)\\title\\0,1\O,0,0.003809,1.878896,-0.05854
 9\O,0,-1.325094,-1.34127,-0.193926\N,0,-1.242362,0.008952,0.182819\C,0
 ,-0.039394,0.667675,0.014547\C,0,1.14413,-0.169619,0.016092\C,0,2.1714
 02,-0.787529,0.007182\H,0,-1.418256,-1.824659,0.635941\H,0,-2.054044,0
 .531652,-0.119875\H,0,3.082283,-1.333824,-0.002916\\Version=ES64L-G16R
 evC.01\State=1-A\HF=-319.7574925\RMSD=2.264e-02\Dipole=-0.1045766,-1.3

 Normal termination of Gaussian 16 at Sat Apr  5 22:53:20 2025.
