 Gaussian 16, Revision C.01,

 ----------------------------------------------------------------------
 #t hf aug-cc-pvdz symm=none int=(grid=ultrafine) guess=(read,tcheck) s
 table=(opt,rrhf)
 ----------------------------------------------------------------------
 -----
 title
 -----
 Symbolic Z-matrix:
 Charge =  0 Multiplicity = 1

 SCF Done:  E(RHF) =  -321.850245179     A.U. after   15 cycles
 Normal termination of Gaussian 16 at Sat Apr  5 22:53:19 2025.
 Gaussian 16:  ES64L-G16RevC.01  3-Jul-2019

 ----------------------------------------------------------------------
 #t hf aug-cc-pvdz iop(5/13=1,5/36=2,99/5=2) pseudo=read geom=check gue
 ss=(read,tcheck) scf=(maxcycle=1)
 ----------------------------------------------------------------------
 -----
 title
 -----
 Structure from the checkpoint file:  "N-hydroxy-N-methylacetamide.chk"
 Charge =  0 Multiplicity = 1

                         Standard orientation:
 ---------------------------------------------------------------------
 Center     Atomic      Atomic             Coordinates (Angstroms)
 Number     Number       Type             X           Y           Z
 ---------------------------------------------------------------------
      1          6           0        0.691531   -0.351810   -0.035843
      2          6           0        1.785942    0.685648    0.044153
      3          6           0       -1.753536   -0.709923    0.070079
      4          7           0       -0.596467    0.122694   -0.200791
      5          8           0        0.907289   -1.549850   -0.004258
      6          8           0       -0.805591    1.479569    0.133264
      7          1           0        2.738393    0.164728    0.040895
      8          1           0        1.688929    1.273709    0.956539
      9          1           0        1.741301    1.381719   -0.792856
     10          1           0       -2.070590   -0.610444    1.110769
     11          1           0       -1.471281   -1.739112   -0.127674
     12          1           0       -2.574605   -0.421529   -0.584996
     13          1           0       -1.034080    1.910829   -0.699522
 ---------------------------------------------------------------------

 SCF Done:  E(RHF) =  -322.178911761     A.U. after    2 cycles

 The electronic state is 1-A.
 Alpha  occ. eigenvalues --  -20.61038 -20.51504 -15.57706 -11.36310 -11.27088
 Alpha  occ. eigenvalues --  -11.24479  -1.52006  -1.46036  -1.18948  -1.03279
 Alpha  occ. eigenvalues --   -0.94955  -0.79607  -0.73795  -0.69851  -0.68637
 Alpha  occ. eigenvalues --   -0.61075  -0.59661  -0.59390  -0.57783  -0.56175
 Alpha  occ. eigenvalues --   -0.52246  -0.51744  -0.42772  -0.41468
 Alpha virt. eigenvalues --    0.02921   0.04561   0.04822   0.05376   0.06078
 Alpha virt. eigenvalues --    0.06789   0.07396   0.09089   0.12357   0.12531
 Alpha virt. eigenvalues --    0.13311   0.14593   0.15925   0.15996   0.16628

 Mulliken charges:
               1
     1  C    0.631245
     2  C   -0.382241
     3  C   -0.263135
     4  N    1.126569
     5  O   -1.240800
     6  O   -1.161398
     7  H    0.140223
     8  H    0.274177
     9  H    0.241019
    10  H    0.147307
    11  H    0.082936
    12  H    0.104723
    13  H    0.299375
 Sum of Mulliken charges =  -0.00000

 Dipole moment (field-independent basis, Debye):
    X=             -1.3339    Y=              2.8809    Z=             -0.9158  Tot=              3.3042

 Test job not archived.
 1\1\GINC-SE158\SP\RHF\Aug-CC-pVDZ\C3H7N1O2\OHZDE\05-Apr-2025\0\\#t hf
 aug-cc-pvdz iop(5/13=1,5/36=2,99/5=2) pseudo=read geom=check guess=(re
 ad,tcheck) scf=(maxcycle=1)\\title\\0,1\C,0,0.691531,-0.35181,-0.03584
 3\C,0,1.785942,0.685648,0.044153\C,0,-1.753536,-0.709923,0.070079\N,0,
 -0.596467,0.122694,-0.200791\O,0,0.907289,-1.54985,-0.004258\O,0,-0.80
 5591,1.479569,0.133264\H,0,2.738393,0.164728,0.040895\H,0,1.688929,1.2
 73709,0.956539\H,0,1.741301,1.381719,-0.792856\H,0,-2.07059,-0.610444,
 1.110769\H,0,-1.471281,-1.739112,-0.127674\H,0,-2.574605,-0.421529,-0.

 Normal termination of Gaussian 16 at Sat Apr  5 22:53:23 2025.
