 Gaussian 16, Revision C.01,

 ----------------------------------------------------------------------
 #t hf aug-cc-pvdz symm=none int=(grid=ultrafine) guess=(read,tcheck) s
 table=(opt,rrhf)
 ----------------------------------------------------------------------
 -----
 title
 -----
 Symbolic Z-matrix:
 Charge =  0 Multiplicity = 1

 SCF Done:  E(RHF) =  -403.118617101     A.U. after   14 cycles
 Normal termination of Gaussian 16 at Sat Apr  5 22:55:12 2025.
 Gaussian 16:  ES64L-G16RevC.01  3-Jul-2019

 ----------------------------------------------------------------------
 #t hf aug-cc-pvdz iop(5/13=1,5/36=2,99/5=2) pseudo=read geom=check gue
 ss=(read,tcheck) scf=(maxcycle=1)
 ----------------------------------------------------------------------
 -----
 title
 -----
 Structure from the checkpoint file:  "N-hydroxyheptan-2-imine.chk"
 Charge =  0 Multiplicity = 1

                         Standard orientation:
 ---------------------------------------------------------------------
 Center     Atomic      Atomic             Coordinates (Angstroms)
 Number     Number       Type             X           Y           Z
 ---------------------------------------------------------------------
      1          8           0        3.657272   -0.908486    0.267264
      2          7           0        2.280419   -1.049466   -0.034086
      3          6           0        1.723395    0.078313   -0.240657
      4          6           0        0.252045    0.045182   -0.552072
      5          6           0       -0.612702    0.655783    0.563633
      6          6           0        2.452308    1.390511   -0.181512
      7          6           0       -2.104484    0.739914    0.222819
      8          6           0       -2.812872   -0.610021    0.085967
      9          6           0       -4.311099   -0.469861   -0.179030
     10          1           0        3.935602   -1.821933    0.382506
     11          1           0        0.079088    0.601638   -1.480057
     12          1           0       -0.033680   -0.989673   -0.733020
     13          1           0       -0.477778    0.065952    1.474702
     14          1           0       -0.249404    1.660864    0.792252
     15          1           0        1.801297    2.215730   -0.461660
     16          1           0        3.314651    1.372956   -0.848863
     17          1           0        2.840303    1.572750    0.821967
     18          1           0       -2.605873    1.318775    1.004289
     19          1           0       -2.232338    1.310663   -0.703449
     20          1           0       -2.358845   -1.189949   -0.720907
     21          1           0       -2.656457   -1.188678    1.001435
     22          1           0       -4.805958    0.071843    0.629774
     23          1           0       -4.498308    0.078583   -1.104556
     24          1           0       -4.792947   -1.444298   -0.268812
 ---------------------------------------------------------------------

 SCF Done:  E(RHF) =  -403.550497981     A.U. after    2 cycles

 The electronic state is 1-A.
 Alpha  occ. eigenvalues --  -20.57275 -15.54573 -11.27925 -11.23710 -11.23613
 Alpha  occ. eigenvalues --  -11.23343 -11.22843 -11.22653 -11.22228  -1.48215
 Alpha  occ. eigenvalues --   -1.18734  -1.08977  -1.02727  -0.98531  -0.93641
 Alpha  occ. eigenvalues --   -0.85085  -0.79088  -0.74441  -0.70041  -0.67353
 Alpha  occ. eigenvalues --   -0.64487  -0.62650  -0.60733  -0.59632  -0.58129
 Alpha  occ. eigenvalues --   -0.56376  -0.55283  -0.54948  -0.52528  -0.51606
 Alpha  occ. eigenvalues --   -0.49978  -0.48064  -0.47158  -0.46350  -0.45018
 Alpha  occ. eigenvalues --   -0.39348
 Alpha virt. eigenvalues --    0.03341   0.03522   0.03679   0.04105   0.05158
 Alpha virt. eigenvalues --    0.05512   0.05560   0.06303   0.06863   0.07761
 Alpha virt. eigenvalues --    0.07909   0.08596   0.09432   0.10515   0.11227

 Mulliken charges:
               1
     1  O   -1.207730
     2  N    1.632729
     3  C   -1.174352
     4  C   -0.053810
     5  C   -0.154966
     6  C   -0.474091
     7  C   -0.345326
     8  C   -0.194064
     9  C   -0.393381
    10  H    0.301035
    11  H    0.157326
    12  H    0.190539
    13  H    0.128647
    14  H    0.126385
    15  H    0.036032
    16  H    0.231772
    17  H    0.306578
    18  H    0.129614
    19  H    0.112228
    20  H    0.102544
    21  H    0.105504
    22  H    0.156613
    23  H    0.167032
    24  H    0.113143
 Sum of Mulliken charges =   0.00000

 Dipole moment (field-independent basis, Debye):
    X=             -0.8971    Y=              1.2911    Z=             -0.1440  Tot=              1.5787

 Test job not archived.
 1\1\GINC-SE041\SP\RHF\Aug-CC-pVDZ\C7H15N1O1\OHZDE\05-Apr-2025\0\\#t hf
  aug-cc-pvdz iop(5/13=1,5/36=2,99/5=2) pseudo=read geom=check guess=(r
 ead,tcheck) scf=(maxcycle=1)\\title\\0,1\O,0,3.657272,-0.908486,0.2672
 64\N,0,2.280419,-1.049466,-0.034086\C,0,1.723395,0.078313,-0.240657\C,
 0,0.252045,0.045182,-0.552072\C,0,-0.612702,0.655783,0.563633\C,0,2.45
 2308,1.390511,-0.181512\C,0,-2.104484,0.739914,0.222819\C,0,-2.812872,
 -0.610021,0.085967\C,0,-4.311099,-0.469861,-0.17903\H,0,3.935602,-1.82
 1933,0.382506\H,0,0.079088,0.601638,-1.480057\H,0,-0.03368,-0.989673,-

 Normal termination of Gaussian 16 at Sat Apr  5 22:55:58 2025.
