 Gaussian 16, Revision C.01,

 ----------------------------------------------------------------------
 #t hf aug-cc-pvdz symm=none int=(grid=ultrafine) guess=(read,tcheck) s
 table=(opt,rrhf)
 ----------------------------------------------------------------------
 -----
 title
 -----
 Symbolic Z-matrix:
 Charge =  0 Multiplicity = 1

 SCF Done:  E(RHF) =  -489.342430486     A.U. after   16 cycles
 Normal termination of Gaussian 16 at Sat Apr  5 22:54:29 2025.
 Gaussian 16:  ES64L-G16RevC.01  3-Jul-2019

 ----------------------------------------------------------------------
 #t hf aug-cc-pvdz iop(5/13=1,5/36=2,99/5=2) pseudo=read geom=check gue
 ss=(read,tcheck) scf=(maxcycle=1)
 ----------------------------------------------------------------------
 -----
 title
 -----
 Structure from the checkpoint file:  "N-hydroxy-3-pyridinecarboximidic_acid.chk"
 Charge =  0 Multiplicity = 1

                         Standard orientation:
 ---------------------------------------------------------------------
 Center     Atomic      Atomic             Coordinates (Angstroms)
 Number     Number       Type             X           Y           Z
 ---------------------------------------------------------------------
      1          6           0       -2.434690    1.007305    0.195988
      2          6           0       -1.066080    1.206618    0.141234
      3          6           0       -2.925749   -0.286900    0.055755
      4          6           0       -0.831663   -1.149867   -0.199198
      5          6           0       -0.234965    0.103590   -0.047113
      6          6           0        1.234805    0.320466   -0.099690
      7          7           0       -2.146220   -1.349895   -0.145302
      8          7           0        2.025184   -0.770786    0.116502
      9          8           0        1.753325    1.403823   -0.352026
     10          8           0        3.394425   -0.509645    0.206692
     11          1           0       -3.113977    1.834745    0.344733
     12          1           0       -0.627372    2.189562    0.238840
     13          1           0       -3.991491   -0.478121    0.101031
     14          1           0       -0.227759   -2.027390   -0.401000
     15          1           0        1.753487   -1.488411    0.769860
     16          1           0        3.422406    0.453688    0.028951
 ---------------------------------------------------------------------

 SCF Done:  E(RHF) =  -489.831950536     A.U. after    2 cycles

 The electronic state is 1-A.
 Alpha  occ. eigenvalues --  -20.59986 -20.54073 -15.59248 -15.52585 -11.38815
 Alpha  occ. eigenvalues --  -11.31031 -11.30600 -11.28861 -11.27738 -11.26739
 Alpha  occ. eigenvalues --   -1.53224  -1.46926  -1.28608  -1.19630  -1.12018
 Alpha  occ. eigenvalues --   -1.06809  -0.93195  -0.89976  -0.87268  -0.79226
 Alpha  occ. eigenvalues --   -0.74273  -0.73369  -0.71062  -0.66787  -0.65794
 Alpha  occ. eigenvalues --   -0.62576  -0.61508  -0.60304  -0.58891  -0.56509
 Alpha  occ. eigenvalues --   -0.53637  -0.48385  -0.46124  -0.42599  -0.42437
 Alpha  occ. eigenvalues --   -0.38248
 Alpha virt. eigenvalues --    0.02851   0.03703   0.04054   0.04976   0.05466
 Alpha virt. eigenvalues --    0.05829   0.06542   0.07279   0.09141   0.09369
 Alpha virt. eigenvalues --    0.10141   0.11604   0.11934   0.12177   0.13110

 Mulliken charges:
               1
     1  C    0.408205
     2  C    0.251395
     3  C   -0.838418
     4  C   -0.941621
     5  C    1.789654
     6  C   -0.161022
     7  N    0.997816
     8  N    1.590867
     9  O   -1.452799
    10  O   -1.286735
    11  H   -0.177201
    12  H   -0.282697
    13  H   -0.161887
    14  H   -0.236227
    15  H    0.127683
    16  H    0.372987
 Sum of Mulliken charges =   0.00000

 Dipole moment (field-independent basis, Debye):
    X=             -2.2302    Y=              0.9154    Z=              1.5200  Tot=              2.8499

 Test job not archived.
 1\1\GINC-SE050\SP\RHF\Aug-CC-pVDZ\C6H6N2O2\OHZDE\05-Apr-2025\0\\#t hf
 aug-cc-pvdz iop(5/13=1,5/36=2,99/5=2) pseudo=read geom=check guess=(re
 ad,tcheck) scf=(maxcycle=1)\\title\\0,1\C,0,-2.43469,1.007305,0.195988
 \C,0,-1.06608,1.206618,0.141234\C,0,-2.925749,-0.2869,0.055755\C,0,-0.
 831663,-1.149867,-0.199198\C,0,-0.234965,0.10359,-0.047113\C,0,1.23480
 5,0.320466,-0.09969\N,0,-2.14622,-1.349895,-0.145302\N,0,2.025184,-0.7
 70786,0.116502\O,0,1.753325,1.403823,-0.352026\O,0,3.394425,-0.509645,
 0.206692\H,0,-3.113977,1.834745,0.344733\H,0,-0.627372,2.189562,0.2388

 Normal termination of Gaussian 16 at Sat Apr  5 22:54:41 2025.
