 Gaussian 16, Revision C.01,

 ----------------------------------------------------------------------
 #t hf aug-cc-pvdz symm=none int=(grid=ultrafine) guess=(read,tcheck) s
 table=(opt,rrhf)
 ----------------------------------------------------------------------
 -----
 title
 -----
 Symbolic Z-matrix:
 Charge =  0 Multiplicity = 1

 SCF Done:  E(RHF) =  -243.766052625     A.U. after   14 cycles
 Normal termination of Gaussian 16 at Sat Apr  5 22:53:10 2025.
 Gaussian 16:  ES64L-G16RevC.01  3-Jul-2019

 ----------------------------------------------------------------------
 #t hf aug-cc-pvdz iop(5/13=1,5/36=2,99/5=2) pseudo=read geom=check gue
 ss=(read,tcheck) scf=(maxcycle=1)
 ----------------------------------------------------------------------
 -----
 title
 -----
 Structure from the checkpoint file:  "N-hydroxyformamide.chk"
 Charge =  0 Multiplicity = 1

                         Standard orientation:
 ---------------------------------------------------------------------
 Center     Atomic      Atomic             Coordinates (Angstroms)
 Number     Number       Type             X           Y           Z
 ---------------------------------------------------------------------
      1          6           0       -0.776157    0.482170    0.010862
      2          7           0        0.561163    0.638019   -0.078048
      3          8           0       -1.303837   -0.617381    0.001319
      4          8           0        1.345896   -0.512290    0.011708
      5          1           0       -1.318051    1.436615    0.052353
      6          1           0        1.043410    1.455182    0.258679
      7          1           0        0.666967   -1.213576    0.065911
 ---------------------------------------------------------------------

 SCF Done:  E(RHF) =  -244.008391895     A.U. after    2 cycles

 The electronic state is 1-A.
 Alpha  occ. eigenvalues --  -20.60838 -20.54082 -15.59882 -11.38344  -1.53583
 Alpha  occ. eigenvalues --   -1.47080  -1.19665  -0.90315  -0.79824  -0.73035
 Alpha  occ. eigenvalues --   -0.67170  -0.63345  -0.60293  -0.53554  -0.46218
 Alpha  occ. eigenvalues --   -0.42321
 Alpha virt. eigenvalues --    0.02758   0.04977   0.06100   0.08835   0.10463
 Alpha virt. eigenvalues --    0.12003   0.13604   0.15172   0.15846   0.17619
 Alpha virt. eigenvalues --    0.18316   0.20689   0.22158   0.24407   0.25080

 Mulliken charges:
               1
     1  C    0.547759
     2  N    1.041397
     3  O   -1.043437
     4  O   -1.110611
     5  H    0.090917
     6  H    0.112380
     7  H    0.361595
 Sum of Mulliken charges =   0.00000

 Dipole moment (field-independent basis, Debye):
    X=              0.5619    Y=              2.7884    Z=              0.7545  Tot=              2.9428

 Test job not archived.
 1\1\GINC-SE194\SP\RHF\Aug-CC-pVDZ\C1H3N1O2\OHZDE\05-Apr-2025\0\\#t hf
 aug-cc-pvdz iop(5/13=1,5/36=2,99/5=2) pseudo=read geom=check guess=(re
 ad,tcheck) scf=(maxcycle=1)\\title\\0,1\C,0,-0.776157,0.48217,0.010862
 \N,0,0.561163,0.638019,-0.078048\O,0,-1.303837,-0.617381,0.001319\O,0,
 1.345896,-0.51229,0.011708\H,0,-1.318051,1.436615,0.052353\H,0,1.04341
 ,1.455182,0.258679\H,0,0.666967,-1.213576,0.065911\\Version=ES64L-G16R
 evC.01\State=1-A\HF=-244.0083919\RMSD=1.263e-02\Dipole=0.2210613,1.097
 0319,0.2968478\Quadrupole=-2.968981,3.7071006,-0.7381196,-1.3402177,0.

 Normal termination of Gaussian 16 at Sat Apr  5 22:53:12 2025.
