 Gaussian 16, Revision C.01,

 ----------------------------------------------------------------------
 #t hf aug-cc-pvdz symm=none int=(grid=ultrafine) guess=(read,tcheck) s
 table=(opt,rrhf)
 ----------------------------------------------------------------------
 -----
 title
 -----
 Symbolic Z-matrix:
 Charge =  0 Multiplicity = 1

 SCF Done:  E(RHF) =  -699.486204724     A.U. after   15 cycles
 Normal termination of Gaussian 16 at Sat Apr  5 22:57:13 2025.
 Gaussian 16:  ES64L-G16RevC.01  3-Jul-2019

 ----------------------------------------------------------------------
 #t hf aug-cc-pvdz iop(5/13=1,5/36=2,99/5=2) pseudo=read geom=check gue
 ss=(read,tcheck) scf=(maxcycle=1)
 ----------------------------------------------------------------------
 -----
 title
 -----
 Structure from the checkpoint file:  "N-methyl-N-2-2-2-trifluoroethylaniline.chk"
 Charge =  0 Multiplicity = 1

                         Standard orientation:
 ---------------------------------------------------------------------
 Center     Atomic      Atomic             Coordinates (Angstroms)
 Number     Number       Type             X           Y           Z
 ---------------------------------------------------------------------
      1          6           0       -3.674067   -0.853951   -0.083418
      2          6           0       -2.544884   -1.650937    0.067775
      3          6           0       -3.509148    0.522321   -0.154373
      4          6           0       -1.279010   -1.090719    0.146626
      5          6           0       -2.248330    1.098967   -0.065846
      6          6           0       -1.102333    0.302544    0.091353
      7          6           0        0.314133    2.318038    0.012392
      8          6           0        1.235426    0.205711    0.866884
      9          6           0        2.316851   -0.367967   -0.044102
     10          7           0        0.170829    0.879498    0.166684
     11          9           0        3.284492   -0.950410    0.698778
     12          9           0        1.843375   -1.300588   -0.890331
     13          9           0        2.908950    0.584737   -0.794752
     14          1           0       -4.657463   -1.297035   -0.151204
     15          1           0       -2.643137   -2.727701    0.109315
     16          1           0       -4.370757    1.166188   -0.272823
     17          1           0       -0.425739   -1.747886    0.213334
     18          1           0       -2.166729    2.173555   -0.110469
     19          1           0       -0.155118    2.650083   -0.912697
     20          1           0        1.369780    2.566254   -0.050624
     21          1           0       -0.127388    2.879150    0.846120
     22          1           0        1.743693    0.891876    1.548447
     23          1           0        0.853873   -0.618659    1.466816
 ---------------------------------------------------------------------

 SCF Done:  E(RHF) =  -700.171081239     A.U. after    2 cycles

 The electronic state is 1-A.
 Alpha  occ. eigenvalues --  -26.50422 -26.50296 -26.50283 -15.52652 -11.51414
 Alpha  occ. eigenvalues --  -11.30691 -11.29224 -11.27570 -11.24590 -11.24570
 Alpha  occ. eigenvalues --  -11.23595 -11.23572 -11.23102  -1.71036  -1.60976
 Alpha  occ. eigenvalues --   -1.60922  -1.27415  -1.14855  -1.06267  -1.02529
 Alpha  occ. eigenvalues --   -1.01264  -0.94803  -0.90828  -0.84064  -0.82548
 Alpha  occ. eigenvalues --   -0.80888  -0.80580  -0.77709  -0.74302  -0.69759
 Alpha  occ. eigenvalues --   -0.68706  -0.67657  -0.67239  -0.64651  -0.64349
 Alpha  occ. eigenvalues --   -0.63284  -0.62808  -0.61709  -0.61552  -0.60461
 Alpha  occ. eigenvalues --   -0.57969  -0.57293  -0.55655  -0.52782  -0.52312
 Alpha  occ. eigenvalues --   -0.50337  -0.44721  -0.35071  -0.31421
 Alpha virt. eigenvalues --    0.03250   0.03617   0.03739   0.04491   0.04706
 Alpha virt. eigenvalues --    0.05402   0.06544   0.07433   0.07496   0.08414
 Alpha virt. eigenvalues --    0.08943   0.10298   0.10651   0.11678   0.12839

 Mulliken charges:
               1
     1  C    0.031413
     2  C    0.569510
     3  C    0.644776
     4  C    0.359516
     5  C    0.214455
     6  C   -1.292548
     7  C   -0.191746
     8  C   -1.118108
     9  C    3.022022
    10  N    1.163986
    11  F   -0.782652
    12  F   -0.897540
    13  F   -0.836145
    14  H   -0.236102
    15  H   -0.244139
    16  H   -0.243475
    17  H   -0.323624
    18  H   -0.460060
    19  H    0.161181
    20  H    0.006877
    21  H    0.224596
    22  H    0.095769
    23  H    0.132036
 Sum of Mulliken charges =  -0.00000

 Dipole moment (field-independent basis, Debye):
    X=             -1.0648    Y=              1.5300    Z=              1.4671  Tot=              2.3721

 Test job not archived.
 1\1\GINC-SE177\SP\RHF\Aug-CC-pVDZ\C9H10F3N1\OHZDE\05-Apr-2025\0\\#t hf
  aug-cc-pvdz iop(5/13=1,5/36=2,99/5=2) pseudo=read geom=check guess=(r
 ead,tcheck) scf=(maxcycle=1)\\title\\0,1\C,0,-3.674067,-0.853951,-0.08
 3418\C,0,-2.544884,-1.650937,0.067775\C,0,-3.509148,0.522321,-0.154373
 \C,0,-1.27901,-1.090719,0.146626\C,0,-2.24833,1.098967,-0.065846\C,0,-
 1.102333,0.302544,0.091353\C,0,0.314133,2.318038,0.012392\C,0,1.235426
 ,0.205711,0.866884\C,0,2.316851,-0.367967,-0.044102\N,0,0.170829,0.879
 498,0.166684\F,0,3.284492,-0.95041,0.698778\F,0,1.843375,-1.300588,-0.

 Normal termination of Gaussian 16 at Sat Apr  5 22:58:24 2025.
