 Gaussian 16, Revision C.01,

 ----------------------------------------------------------------------
 #t hf aug-cc-pvdz symm=none int=(grid=ultrafine) guess=(read,tcheck) s
 table=(opt,rrhf)
 ----------------------------------------------------------------------
 -----
 title
 -----
 Symbolic Z-matrix:
 Charge =  0 Multiplicity = 1

 SCF Done:  E(RHF) =  -324.797636762     A.U. after   15 cycles
 Normal termination of Gaussian 16 at Sat Apr  5 22:53:51 2025.
 Gaussian 16:  ES64L-G16RevC.01  3-Jul-2019

 ----------------------------------------------------------------------
 #t hf aug-cc-pvdz iop(5/13=1,5/36=2,99/5=2) pseudo=read geom=check gue
 ss=(read,tcheck) scf=(maxcycle=1)
 ----------------------------------------------------------------------
 -----
 title
 -----
 Structure from the checkpoint file:  "N-methylaniline.chk"
 Charge =  0 Multiplicity = 1

                         Standard orientation:
 ---------------------------------------------------------------------
 Center     Atomic      Atomic             Coordinates (Angstroms)
 Number     Number       Type             X           Y           Z
 ---------------------------------------------------------------------
      1          6           0        2.308280    0.333913    0.032715
      2          6           0        1.874791   -0.990670    0.036977
      3          6           0        1.359701    1.346306   -0.009499
      4          6           0        0.525138   -1.293489   -0.004025
      5          6           0       -0.000206    1.056554   -0.046565
      6          6           0       -0.440752   -0.273922   -0.049701
      7          6           0       -2.835641    0.363095    0.089889
      8          7           0       -1.783597   -0.606016   -0.128315
      9          1           0        3.363058    0.567419    0.063881
     10          1           0        2.596525   -1.796291    0.072123
     11          1           0        1.674892    2.381687   -0.010024
     12          1           0        0.202937   -2.328068   -0.007472
     13          1           0       -0.713687    1.866797   -0.075478
     14          1           0       -2.839553    1.117185   -0.699380
     15          1           0       -2.751251    0.880801    1.053410
     16          1           0       -3.794605   -0.149894    0.057667
     17          1           0       -2.001002   -1.548246    0.144734
 ---------------------------------------------------------------------

 SCF Done:  E(RHF) =  -325.139989386     A.U. after    2 cycles

 The electronic state is 1-A.
 Alpha  occ. eigenvalues --  -15.50563 -11.27999 -11.26713 -11.23861 -11.23810
 Alpha  occ. eigenvalues --  -11.22680 -11.22492 -11.22117  -1.23995  -1.13268
 Alpha  occ. eigenvalues --   -1.01401  -1.00637  -0.93223  -0.83927  -0.81308
 Alpha  occ. eigenvalues --   -0.73778  -0.69276  -0.66010  -0.62908  -0.61922
 Alpha  occ. eigenvalues --   -0.60416  -0.59171  -0.55388  -0.52338  -0.51661
 Alpha  occ. eigenvalues --   -0.49521  -0.44788  -0.34313  -0.30146
 Alpha virt. eigenvalues --    0.03223   0.03904   0.04049   0.04825   0.05001
 Alpha virt. eigenvalues --    0.05599   0.07128   0.08069   0.09671   0.10216
 Alpha virt. eigenvalues --    0.10956   0.12013   0.12961   0.13607   0.13766

 Mulliken charges:
               1
     1  C   -0.091096
     2  C    0.433166
     3  C    0.531371
     4  C    0.311013
     5  C    0.439867
     6  C   -1.000054
     7  C   -0.319450
     8  N    0.800493
     9  H   -0.235476
    10  H   -0.223746
    11  H   -0.228895
    12  H   -0.323829
    13  H   -0.403253
    14  H    0.116140
    15  H    0.150868
    16  H   -0.031188
    17  H    0.074071
 Sum of Mulliken charges =  -0.00000

 Dipole moment (field-independent basis, Debye):
    X=             -1.3698    Y=             -0.2957    Z=              0.5829  Tot=              1.5177

 Test job not archived.
 1\1\GINC-SE052\SP\RHF\Aug-CC-pVDZ\C7H9N1\OHZDE\05-Apr-2025\0\\#t hf au
 g-cc-pvdz iop(5/13=1,5/36=2,99/5=2) pseudo=read geom=check guess=(read
 ,tcheck) scf=(maxcycle=1)\\title\\0,1\C,0,2.30828,0.333913,0.032715\C,
 0,1.874791,-0.99067,0.036977\C,0,1.359701,1.346306,-0.009499\C,0,0.525
 138,-1.293489,-0.004025\C,0,-0.000206,1.056554,-0.046565\C,0,-0.440752
 ,-0.273922,-0.049701\C,0,-2.835641,0.363095,0.089889\N,0,-1.783597,-0.
 606016,-0.128315\H,0,3.363058,0.567419,0.063881\H,0,2.596525,-1.796291
 ,0.072123\H,0,1.674892,2.381687,-0.010024\H,0,0.202937,-2.328068,-0.00

 Normal termination of Gaussian 16 at Sat Apr  5 22:53:58 2025.
