 Gaussian 16, Revision C.01,

 ----------------------------------------------------------------------
 #t hf aug-cc-pvdz symm=none int=(grid=ultrafine) guess=(read,tcheck) s
 table=(opt,rrhf)
 ----------------------------------------------------------------------
 -----
 title
 -----
 Symbolic Z-matrix:
 Charge =  0 Multiplicity = 1

 SCF Done:  E(RHF) =  -829.123816591     A.U. after   16 cycles
 Normal termination of Gaussian 16 at Sat Apr  5 22:55:01 2025.
 Gaussian 16:  ES64L-G16RevC.01  3-Jul-2019

 ----------------------------------------------------------------------
 #t hf aug-cc-pvdz iop(5/13=1,5/36=2,99/5=2) pseudo=read geom=check gue
 ss=(read,tcheck) scf=(maxcycle=1)
 ----------------------------------------------------------------------
 -----
 title
 -----
 Structure from the checkpoint file:  "N-methylpyrimidine-5-sulfinamide.chk"
 Charge =  0 Multiplicity = 1

                         Standard orientation:
 ---------------------------------------------------------------------
 Center     Atomic      Atomic             Coordinates (Angstroms)
 Number     Number       Type             X           Y           Z
 ---------------------------------------------------------------------
      1          6           0       -1.066927    0.993447    0.503517
      2          6           0       -1.369945   -1.059353   -0.651102
      3          6           0       -3.086115   -0.027909    0.398756
      4          6           0       -0.518719   -0.048949   -0.236276
      5          6           0        3.264554   -0.589277    0.915395
      6          7           0       -2.356726    1.004528    0.828796
      7          7           0       -2.664799   -1.059267   -0.329369
      8          7           0        1.810425   -0.382266    0.877742
      9          8           0        1.609131    1.384777   -0.978583
     10         16           0        1.227894   -0.030720   -0.731013
     11          1           0       -0.454317    1.827531    0.822442
     12          1           0       -1.012893   -1.886063   -1.256520
     13          1           0       -4.135818   -0.021604    0.667155
     14          1           0        3.754433    0.313715    0.557523
     15          1           0        3.609015   -1.442093    0.321297
     16          1           0        3.556910   -0.741479    1.953119
     17          1           0        1.303932   -1.185425    1.237919
 ---------------------------------------------------------------------

 SCF Done:  E(RHF) =  -829.620242455     A.U. after    2 cycles

 The electronic state is 1-A.
 Alpha  occ. eigenvalues --  -94.11730 -20.51823 -15.54092 -15.53154 -15.53037
 Alpha  occ. eigenvalues --  -11.33948 -11.33054 -11.32584 -11.28844 -11.28039
 Alpha  occ. eigenvalues --   -8.38082  -6.35910  -6.35797  -6.35550  -1.46332
 Alpha  occ. eigenvalues --   -1.33334  -1.23517  -1.22148  -1.11780  -0.99996
 Alpha  occ. eigenvalues --   -0.94182  -0.93255  -0.88179  -0.77534  -0.77149
 Alpha  occ. eigenvalues --   -0.73280  -0.66453  -0.65854  -0.64004  -0.63133
 Alpha  occ. eigenvalues --   -0.62259  -0.61413  -0.57428  -0.56389  -0.54070
 Alpha  occ. eigenvalues --   -0.47873  -0.47400  -0.47005  -0.45221  -0.42159
 Alpha  occ. eigenvalues --   -0.38629
 Alpha virt. eigenvalues --    0.02734   0.03730   0.04146   0.04566   0.05048
 Alpha virt. eigenvalues --    0.05649   0.05925   0.06237   0.07067   0.08595
 Alpha virt. eigenvalues --    0.08885   0.09673   0.10168   0.11192   0.12026

 Mulliken charges:
               1
     1  C   -1.179665
     2  C   -0.670566
     3  C   -0.745010
     4  C    0.511963
     5  C   -0.395163
     6  N    0.899228
     7  N    0.839467
     8  N   -0.188349
     9  O   -1.564109
    10  S    2.263661
    11  H   -0.154705
    12  H   -0.114856
    13  H   -0.014164
    14  H    0.129813
    15  H    0.159413
    16  H    0.068629
    17  H    0.154412
 Sum of Mulliken charges =  -0.00000

 Dipole moment (field-independent basis, Debye):
    X=              1.1066    Y=             -3.5593    Z=              1.0654  Tot=              3.8767

 Test job not archived.
 1\1\GINC-SE053\SP\RHF\Aug-CC-pVDZ\C5H7N3O1S1\OHZDE\05-Apr-2025\0\\#t h
 f aug-cc-pvdz iop(5/13=1,5/36=2,99/5=2) pseudo=read geom=check guess=(
 read,tcheck) scf=(maxcycle=1)\\title\\0,1\C,0,-1.066927,0.993447,0.503
 517\C,0,-1.369945,-1.059353,-0.651102\C,0,-3.086115,-0.027909,0.398756
 \C,0,-0.518719,-0.048949,-0.236276\C,0,3.264554,-0.589277,0.915395\N,0
 ,-2.356726,1.004528,0.828796\N,0,-2.664799,-1.059267,-0.329369\N,0,1.8
 10425,-0.382266,0.877742\O,0,1.609131,1.384777,-0.978583\S,0,1.227894,
 -0.03072,-0.731013\H,0,-0.454317,1.827531,0.822442\H,0,-1.012893,-1.88

 Normal termination of Gaussian 16 at Sat Apr  5 22:55:54 2025.
