 Gaussian 16, Revision C.01,

 ----------------------------------------------------------------------
 #t hf aug-cc-pvdz symm=none int=(grid=ultrafine) guess=(read,tcheck) s
 table=(opt,rrhf)
 ----------------------------------------------------------------------
 -----
 title
 -----
 Symbolic Z-matrix:
 Charge =  0 Multiplicity = 1

 SCF Done:  E(RHF) =  -247.042321938     A.U. after   13 cycles
 Normal termination of Gaussian 16 at Sat Apr  5 22:53:16 2025.
 Gaussian 16:  ES64L-G16RevC.01  3-Jul-2019

 ----------------------------------------------------------------------
 #t hf aug-cc-pvdz iop(5/13=1,5/36=2,99/5=2) pseudo=read geom=check gue
 ss=(read,tcheck) scf=(maxcycle=1)
 ----------------------------------------------------------------------
 -----
 title
 -----
 Structure from the checkpoint file:  "N-methylacetamide.chk"
 Charge =  0 Multiplicity = 1

                         Standard orientation:
 ---------------------------------------------------------------------
 Center     Atomic      Atomic             Coordinates (Angstroms)
 Number     Number       Type             X           Y           Z
 ---------------------------------------------------------------------
      1          6           0        0.484528    0.165592    0.000016
      2          6           0        1.812482   -0.565934   -0.000009
      3          6           0       -1.975116   -0.101915   -0.000016
      4          7           0       -0.623641   -0.629072    0.000038
      5          8           0        0.425955    1.384169   -0.000000
      6          1           0        2.378559   -0.258444   -0.878404
      7          1           0        2.378838   -0.257978    0.878038
      8          1           0        1.716856   -1.651294    0.000288
      9          1           0       -2.523186   -0.423664   -0.887098
     10          1           0       -1.906742    0.982265   -0.000850
     11          1           0       -2.522801   -0.422285    0.887811
     12          1           0       -0.495040   -1.624899    0.000005
 ---------------------------------------------------------------------

 SCF Done:  E(RHF) =  -247.300780087     A.U. after    2 cycles

 The electronic state is 1-A.
 Alpha  occ. eigenvalues --  -20.49868 -15.52611 -11.35423 -11.26698 -11.24600
 Alpha  occ. eigenvalues --   -1.44897  -1.23782  -1.02417  -0.94539  -0.82037
 Alpha  occ. eigenvalues --   -0.70698  -0.67068  -0.64781  -0.59498  -0.58771
 Alpha  occ. eigenvalues --   -0.56713  -0.55626  -0.51250  -0.41737  -0.41247
 Alpha virt. eigenvalues --    0.02932   0.04327   0.05051   0.05230   0.06076
 Alpha virt. eigenvalues --    0.06331   0.07630   0.10597   0.12590   0.12829
 Alpha virt. eigenvalues --    0.13151   0.14837   0.15185   0.16401   0.17184

 Mulliken charges:
               1
     1  C    0.624425
     2  C   -0.383408
     3  C   -0.381871
     4  N    0.509983
     5  O   -1.331091
     6  H    0.233130
     7  H    0.233088
     8  H    0.090146
     9  H    0.119290
    10  H    0.064957
    11  H    0.119427
    12  H    0.101924
 Sum of Mulliken charges =  -0.00000

 Dipole moment (field-independent basis, Debye):
    X=             -0.5191    Y=             -3.7770    Z=             -0.0002  Tot=              3.8125

 Test job not archived.
 1\1\GINC-SE190\SP\RHF\Aug-CC-pVDZ\C3H7N1O1\OHZDE\05-Apr-2025\0\\#t hf
 aug-cc-pvdz iop(5/13=1,5/36=2,99/5=2) pseudo=read geom=check guess=(re
 ad,tcheck) scf=(maxcycle=1)\\title\\0,1\C,0,0.484528,0.165592,0.000016
 \C,0,1.812482,-0.565934,-0.000009\C,0,-1.975116,-0.101915,-0.000016\N,
 0,-0.623641,-0.629072,0.000038\O,0,0.425955,1.384169,0.\H,0,2.378559,-
 0.258444,-0.878404\H,0,2.378838,-0.257978,0.878038\H,0,1.716856,-1.651
 294,0.000288\H,0,-2.523186,-0.423664,-0.887098\H,0,-1.906742,0.982265,
 -0.00085\H,0,-2.522801,-0.422285,0.887811\H,0,-0.49504,-1.624899,0.000

 Normal termination of Gaussian 16 at Sat Apr  5 22:53:20 2025.
