 Gaussian 16, Revision C.01,

 ----------------------------------------------------------------------
 #t hf aug-cc-pvdz symm=none int=(grid=ultrafine) guess=(read,tcheck) s
 table=(opt,rrhf)
 ----------------------------------------------------------------------
 -----
 title
 -----
 Symbolic Z-matrix:
 Charge =  0 Multiplicity = 1

 SCF Done:  E(RHF) =  -469.567695605     A.U. after   16 cycles
 Normal termination of Gaussian 16 at Sat Apr  5 22:54:52 2025.
 Gaussian 16:  ES64L-G16RevC.01  3-Jul-2019

 ----------------------------------------------------------------------
 #t hf aug-cc-pvdz iop(5/13=1,5/36=2,99/5=2) pseudo=read geom=check gue
 ss=(read,tcheck) scf=(maxcycle=1)
 ----------------------------------------------------------------------
 -----
 title
 -----
 Structure from the checkpoint file:  "N-methylpyrimidine-2-carboxamide.chk"
 Charge =  0 Multiplicity = 1

                         Standard orientation:
 ---------------------------------------------------------------------
 Center     Atomic      Atomic             Coordinates (Angstroms)
 Number     Number       Type             X           Y           Z
 ---------------------------------------------------------------------
      1          6           0       -2.911807   -0.353161    0.000000
      2          6           0       -1.970075   -1.370420    0.000028
      3          6           0       -2.420063    0.945020   -0.000029
      4          6           0       -0.295388    0.168403   -0.000001
      5          6           0        1.202333    0.467839    0.000009
      6          6           0        3.415957   -0.609641   -0.000010
      7          7           0       -0.663500   -1.117055    0.000026
      8          7           0       -1.117120    1.213429   -0.000028
      9          7           0        1.969122   -0.648818   -0.000052
     10          8           0        1.629250    1.606620    0.000055
     11          1           0       -3.971769   -0.560591    0.000002
     12          1           0       -2.264814   -2.413448    0.000052
     13          1           0       -3.089232    1.798175   -0.000054
     14          1           0        3.820894   -1.101243   -0.886355
     15          1           0        3.820882   -1.099999    0.887039
     16          1           0        3.726013    0.431675   -0.000714
     17          1           0        1.478770   -1.528660   -0.000016
 ---------------------------------------------------------------------

 SCF Done:  E(RHF) =  -470.041048622     A.U. after    2 cycles

 The electronic state is 1-A.
 Alpha  occ. eigenvalues --  -20.50421 -15.53229 -15.52426 -15.52022 -11.35724
 Alpha  occ. eigenvalues --  -11.33624 -11.31908 -11.31555 -11.27023 -11.26485
 Alpha  occ. eigenvalues --   -1.45396  -1.33072  -1.24063  -1.21465  -1.10151
 Alpha  occ. eigenvalues --   -0.98998  -0.93563  -0.92510  -0.82429  -0.79135
 Alpha  occ. eigenvalues --   -0.76014  -0.70955  -0.66483  -0.64780  -0.64745
 Alpha  occ. eigenvalues --   -0.62815  -0.61749  -0.60173  -0.55928  -0.53926
 Alpha  occ. eigenvalues --   -0.53483  -0.47243  -0.46772  -0.42566  -0.40750
 Alpha  occ. eigenvalues --   -0.40332
 Alpha virt. eigenvalues --    0.02594   0.03512   0.03886   0.04777   0.05284
 Alpha virt. eigenvalues --    0.05399   0.05584   0.06652   0.08149   0.08938
 Alpha virt. eigenvalues --    0.09479   0.10415   0.11794   0.11890   0.12761

 Mulliken charges:
               1
     1  C    0.545465
     2  C   -0.293009
     3  C   -0.277570
     4  C   -3.134035
     5  C    1.559525
     6  C   -0.338891
     7  N    1.148191
     8  N    1.520230
     9  N    0.616509
    10  O   -1.417424
    11  H   -0.134458
    12  H   -0.153293
    13  H   -0.155673
    14  H    0.149288
    15  H    0.149463
    16  H    0.066123
    17  H    0.149560
 Sum of Mulliken charges =  -0.00000

 Dipole moment (field-independent basis, Debye):
    X=             -3.4556    Y=             -4.1507    Z=             -0.0001  Tot=              5.4009

 Test job not archived.
 1\1\GINC-SE040\SP\RHF\Aug-CC-pVDZ\C6H7N3O1\OHZDE\05-Apr-2025\0\\#t hf
 aug-cc-pvdz iop(5/13=1,5/36=2,99/5=2) pseudo=read geom=check guess=(re
 ad,tcheck) scf=(maxcycle=1)\\title\\0,1\C,0,-2.911807,-0.353161,0.\C,0
 ,-1.970075,-1.37042,0.000028\C,0,-2.420063,0.94502,-0.000029\C,0,-0.29
 5388,0.168403,-0.000001\C,0,1.202333,0.467839,0.000009\C,0,3.415957,-0
 .609641,-0.00001\N,0,-0.6635,-1.117055,0.000026\N,0,-1.11712,1.213429,
 -0.000028\N,0,1.969122,-0.648818,-0.000052\O,0,1.62925,1.60662,0.00005
 5\H,0,-3.971769,-0.560591,0.000002\H,0,-2.264814,-2.413448,0.000052\H,

 Normal termination of Gaussian 16 at Sat Apr  5 22:55:01 2025.
