 Gaussian 16, Revision C.01,

 ----------------------------------------------------------------------
 #t hf aug-cc-pvdz symm=none int=(grid=ultrafine) guess=(read,tcheck) s
 table=(opt,rrhf)
 ----------------------------------------------------------------------
 -----
 title
 -----
 Symbolic Z-matrix:
 Charge =  0 Multiplicity = 1

 SCF Done:  E(RHF) =  -211.166847627     A.U. after   13 cycles
 Normal termination of Gaussian 16 at Sat Apr  5 22:53:14 2025.
 Gaussian 16:  ES64L-G16RevC.01  3-Jul-2019

 ----------------------------------------------------------------------
 #t hf aug-cc-pvdz iop(5/13=1,5/36=2,99/5=2) pseudo=read geom=check gue
 ss=(read,tcheck) scf=(maxcycle=1)
 ----------------------------------------------------------------------
 -----
 title
 -----
 Structure from the checkpoint file:  "N-methyl-2-propanimine.chk"
 Charge =  0 Multiplicity = 1

                         Standard orientation:
 ---------------------------------------------------------------------
 Center     Atomic      Atomic             Coordinates (Angstroms)
 Number     Number       Type             X           Y           Z
 ---------------------------------------------------------------------
      1          6           0        0.000000    0.400135    0.000000
      2          6           0       -0.559646    1.800763    0.000000
      3          6           0        1.512118    0.333612    0.000000
      4          6           0       -0.421806   -1.955288    0.000000
      5          7           0       -0.823365   -0.565462    0.000000
      6          1           0       -0.214550    2.354611    0.877083
      7          1           0       -0.214550    2.354611   -0.877083
      8          1           0       -1.645869    1.770131    0.000000
      9          1           0        1.903128    0.856799    0.875493
     10          1           0        1.903128    0.856799   -0.875493
     11          1           0        1.909280   -0.676287    0.000000
     12          1           0       -0.857799   -2.442000   -0.874888
     13          1           0       -0.857799   -2.442000    0.874888
     14          1           0        0.654591   -2.149764    0.000000
 ---------------------------------------------------------------------

 SCF Done:  E(RHF) =  -211.397732257     A.U. after    2 cycles

 The electronic state is 1-A'.
 Alpha  occ. eigenvalues --  -15.48008 -11.28163 -11.24669 -11.23818 -11.22615
 Alpha  occ. eigenvalues --   -1.22181  -1.03332  -0.96077  -0.92521  -0.72362
 Alpha  occ. eigenvalues --   -0.66271  -0.63963  -0.62070  -0.57701  -0.55588
 Alpha  occ. eigenvalues --   -0.54997  -0.53654  -0.52505  -0.41655  -0.41485
 Alpha virt. eigenvalues --    0.03592   0.04406   0.04666   0.04840   0.06115
 Alpha virt. eigenvalues --    0.06311   0.07049   0.07553   0.09726   0.10176
 Alpha virt. eigenvalues --    0.13958   0.14065   0.14664   0.15490   0.15588

 Mulliken charges:
               1
     1  C   -1.417205
     2  C   -0.279920
     3  C   -0.227319
     4  C   -0.336023
     5  N    0.858234
     6  H    0.243701
     7  H    0.243701
     8  H    0.125664
     9  H    0.250092
    10  H    0.250092
    11  H    0.002460
    12  H    0.122646
    13  H    0.122646
    14  H    0.041231
 Sum of Mulliken charges =  -0.00000

 Dipole moment (field-independent basis, Debye):
    X=              2.2572    Y=              0.6226    Z=              0.0000  Tot=              2.3415

 Test job not archived.
 1\1\GINC-SE115\SP\RHF\Aug-CC-pVDZ\C4H9N1\OHZDE\05-Apr-2025\0\\#t hf au
 g-cc-pvdz iop(5/13=1,5/36=2,99/5=2) pseudo=read geom=check guess=(read
 ,tcheck) scf=(maxcycle=1)\\title\\0,1\C,0,0.,0.400135,0.\C,0,-0.559646
 ,1.800763,0.\C,0,1.512118,0.333612,0.\C,0,-0.421806,-1.955288,0.\N,0,-
 0.823365,-0.565462,0.\H,0,-0.21455,2.354611,0.877083\H,0,-0.21455,2.35
 4611,-0.877083\H,0,-1.645869,1.770131,0.\H,0,1.903128,0.856799,0.87549
 3\H,0,1.903128,0.856799,-0.875493\H,0,1.90928,-0.676287,0.\H,0,-0.8577
 99,-2.442,-0.874888\H,0,-0.857799,-2.442,0.874888\H,0,0.654591,-2.1497

 Normal termination of Gaussian 16 at Sat Apr  5 22:53:17 2025.
