 Gaussian 16, Revision C.01,

 ----------------------------------------------------------------------
 #t hf aug-cc-pvdz symm=none int=(grid=ultrafine) guess=(read,tcheck) s
 table=(opt,rrhf)
 ----------------------------------------------------------------------
 -----
 title
 -----
 Symbolic Z-matrix:
 Charge =  0 Multiplicity = 1

 SCF Done:  E(RHF) =  -681.467451593     A.U. after   13 cycles
 Normal termination of Gaussian 16 at Sat Apr  5 22:53:57 2025.
 Gaussian 16:  ES64L-G16RevC.01  3-Jul-2019

 ----------------------------------------------------------------------
 #t hf aug-cc-pvdz iop(5/13=1,5/36=2,99/5=2) pseudo=read geom=check gue
 ss=(read,tcheck) scf=(maxcycle=1)
 ----------------------------------------------------------------------
 -----
 title
 -----
 Structure from the checkpoint file:  "N-methylmethanesulfonamide.chk"
 Charge =  0 Multiplicity = 1

                         Standard orientation:
 ---------------------------------------------------------------------
 Center     Atomic      Atomic             Coordinates (Angstroms)
 Number     Number       Type             X           Y           Z
 ---------------------------------------------------------------------
      1          6           0        2.232485    0.157277   -0.013976
      2          6           0       -0.853826    1.545278   -0.325744
      3          7           0        1.037219   -0.489380   -0.546136
      4          8           0       -0.349336   -0.241094    1.524633
      5          8           0       -1.388574   -1.007151   -0.660628
      6         16           0       -0.465777   -0.166383    0.079766
      7          1           0        3.102438   -0.419526   -0.323302
      8          1           0        2.182272    0.139562    1.071682
      9          1           0        2.358894    1.190381   -0.351993
     10          1           0       -0.896515    1.650085   -1.406514
     11          1           0       -1.825830    1.753160    0.115159
     12          1           0       -0.099483    2.195057    0.110415
     13          1           0        1.001456   -0.650307   -1.542474
 ---------------------------------------------------------------------

 SCF Done:  E(RHF) =  -681.827162392     A.U. after    2 cycles

 The electronic state is 1-A.
 Alpha  occ. eigenvalues --  -94.21167 -20.53438 -20.53421 -15.54385 -11.29096
 Alpha  occ. eigenvalues --  -11.28879  -8.46059  -6.44196  -6.44014  -6.43887
 Alpha  occ. eigenvalues --   -1.55768  -1.43623  -1.25022  -1.05765  -0.97803
 Alpha  occ. eigenvalues --   -0.85930  -0.75063  -0.70509  -0.69227  -0.65418
 Alpha  occ. eigenvalues --   -0.63295  -0.61540  -0.60723  -0.57958  -0.50690
 Alpha  occ. eigenvalues --   -0.48905  -0.47245  -0.46083  -0.45356
 Alpha virt. eigenvalues --    0.02554   0.03779   0.04271   0.04879   0.06090
 Alpha virt. eigenvalues --    0.06438   0.07706   0.10310   0.11282   0.12284
 Alpha virt. eigenvalues --    0.13521   0.14606   0.15315   0.15538   0.15869

 Mulliken charges:
               1
     1  C   -0.395488
     2  C   -0.629191
     3  N   -0.126123
     4  O   -1.519536
     5  O   -1.485202
     6  S    2.949900
     7  H    0.069541
     8  H    0.150592
     9  H    0.137860
    10  H    0.238347
    11  H    0.253169
    12  H    0.230277
    13  H    0.125855
 Sum of Mulliken charges =  -0.00000

 Dipole moment (field-independent basis, Debye):
    X=              2.9593    Y=              4.0222    Z=             -2.5421  Tot=              5.6033

 Test job not archived.
 1\1\GINC-SE042\SP\RHF\Aug-CC-pVDZ\C2H7N1O2S1\OHZDE\05-Apr-2025\0\\#t h
 f aug-cc-pvdz iop(5/13=1,5/36=2,99/5=2) pseudo=read geom=check guess=(
 read,tcheck) scf=(maxcycle=1)\\title\\0,1\C,0,2.232485,0.157278,-0.013
 976\C,0,-0.853827,1.545278,-0.325744\N,0,1.037219,-0.48938,-0.546136\O
 ,0,-0.349336,-0.241094,1.524633\O,0,-1.388574,-1.007152,-0.660628\S,0,
 -0.465777,-0.166383,0.079766\H,0,3.102438,-0.419525,-0.323302\H,0,2.18
 2272,0.139563,1.071682\H,0,2.358894,1.190382,-0.351993\H,0,-0.896516,1
 .650085,-1.406514\H,0,-1.825831,1.753159,0.115159\H,0,-0.099484,2.1950

 Normal termination of Gaussian 16 at Sat Apr  5 22:54:38 2025.
