 Gaussian 16, Revision C.01,

 ----------------------------------------------------------------------
 #t hf aug-cc-pvdz symm=none int=(grid=ultrafine) guess=(read,tcheck) s
 table=(opt,rrhf)
 ----------------------------------------------------------------------
 -----
 title
 -----
 Symbolic Z-matrix:
 Charge =  0 Multiplicity = 1

 SCF Done:  E(RHF) =  -227.183367807     A.U. after   13 cycles
 Normal termination of Gaussian 16 at Sat Apr  5 22:53:11 2025.
 Gaussian 16:  ES64L-G16RevC.01  3-Jul-2019

 ----------------------------------------------------------------------
 #t hf aug-cc-pvdz iop(5/13=1,5/36=2,99/5=2) pseudo=read geom=check gue
 ss=(read,tcheck) scf=(maxcycle=1)
 ----------------------------------------------------------------------
 -----
 title
 -----
 Structure from the checkpoint file:  "N-methylacetamidine.chk"
 Charge =  0 Multiplicity = 1

                         Standard orientation:
 ---------------------------------------------------------------------
 Center     Atomic      Atomic             Coordinates (Angstroms)
 Number     Number       Type             X           Y           Z
 ---------------------------------------------------------------------
      1          6           0        0.504007    0.162021   -0.000522
      2          6           0        1.815083   -0.581549    0.000816
      3          6           0       -1.959986   -0.145515    0.001321
      4          7           0        0.504425    1.442302    0.000085
      5          7           0       -0.605061   -0.647080   -0.003604
      6          1           0        1.900600   -1.219397    0.883090
      7          1           0        1.902657   -1.218858   -0.881594
      8          1           0        2.630056    0.134964    0.002108
      9          1           0       -2.164863    0.459162    0.889530
     10          1           0       -2.648126   -0.987715   -0.000986
     11          1           0       -2.167537    0.465376   -0.881811
     12          1           0       -0.436074    1.830537   -0.000616
     13          1           0       -0.466885   -1.640362    0.005221
 ---------------------------------------------------------------------

 SCF Done:  E(RHF) =  -227.427356558     A.U. after    2 cycles

 The electronic state is 1-A.
 Alpha  occ. eigenvalues --  -15.51623 -15.45314 -11.31241 -11.27560 -11.23434
 Alpha  occ. eigenvalues --   -1.26699  -1.15201  -1.00947  -0.94129  -0.80213
 Alpha  occ. eigenvalues --   -0.73512  -0.69225  -0.64369  -0.58666  -0.57335
 Alpha  occ. eigenvalues --   -0.56801  -0.55189  -0.48888  -0.45476  -0.39232
 Alpha virt. eigenvalues --    0.02964   0.04342   0.04582   0.05473   0.05847
 Alpha virt. eigenvalues --    0.05943   0.07101   0.08839   0.10024   0.12894
 Alpha virt. eigenvalues --    0.13791   0.14567   0.15726   0.15997   0.16255

 Mulliken charges:
               1
     1  C   -1.763155
     2  C   -0.132779
     3  C   -0.473090
     4  N    0.779349
     5  N    0.506449
     6  H    0.202970
     7  H    0.205097
     8  H    0.195855
     9  H    0.171468
    10  H   -0.040278
    11  H    0.170846
    12  H    0.081101
    13  H    0.096167
 Sum of Mulliken charges =  -0.00000

 Dipole moment (field-independent basis, Debye):
    X=             -2.0088    Y=             -3.4284    Z=              0.0162  Tot=              3.9736

 Test job not archived.
 1\1\GINC-SE190\SP\RHF\Aug-CC-pVDZ\C3H8N2\OHZDE\05-Apr-2025\0\\#t hf au
 g-cc-pvdz iop(5/13=1,5/36=2,99/5=2) pseudo=read geom=check guess=(read
 ,tcheck) scf=(maxcycle=1)\\title\\0,1\C,0,0.504007,0.162021,-0.000522\
 C,0,1.815083,-0.58155,0.000816\C,0,-1.959986,-0.145515,0.001321\N,0,0.
 504425,1.442302,0.000085\N,0,-0.605061,-0.64708,-0.003604\H,0,1.9006,-
 1.219398,0.88309\H,0,1.902657,-1.218859,-0.881594\H,0,2.630056,0.13496
 3,0.002108\H,0,-2.164863,0.459162,0.88953\H,0,-2.648126,-0.987714,-0.0
 00986\H,0,-2.167537,0.465376,-0.881811\H,0,-0.436074,1.830537,-0.00061

 Normal termination of Gaussian 16 at Sat Apr  5 22:53:14 2025.
