 Gaussian 16, Revision C.01,

 ----------------------------------------------------------------------
 #t hf aug-cc-pvdz symm=none int=(grid=ultrafine) guess=(read,tcheck) s
 table=(opt,rrhf)
 ----------------------------------------------------------------------
 -----
 title
 -----
 Symbolic Z-matrix:
 Charge =  0 Multiplicity = 1

 SCF Done:  E(RHF) =  -661.638173025     A.U. after   14 cycles
 Normal termination of Gaussian 16 at Sat Apr  5 22:54:03 2025.
 Gaussian 16:  ES64L-G16RevC.01  3-Jul-2019

 ----------------------------------------------------------------------
 #t hf aug-cc-pvdz iop(5/13=1,5/36=2,99/5=2) pseudo=read geom=check gue
 ss=(read,tcheck) scf=(maxcycle=1)
 ----------------------------------------------------------------------
 -----
 title
 -----
 Structure from the checkpoint file:  "N-methylsulfinamoylmethanamine.chk"
 Charge =  0 Multiplicity = 1

                         Standard orientation:
 ---------------------------------------------------------------------
 Center     Atomic      Atomic             Coordinates (Angstroms)
 Number     Number       Type             X           Y           Z
 ---------------------------------------------------------------------
      1          6           0        2.348792   -0.536780    0.248659
      2          6           0       -2.054949   -0.747002    0.633612
      3          7           0        0.953152   -0.827439   -0.095931
      4          7           0       -1.433378   -0.277244   -0.614256
      5          8           0        0.101328    1.411281    0.730744
      6         16           0        0.030842    0.587441   -0.500901
      7          1           0        2.820782   -1.466819    0.562554
      8          1           0        2.364292    0.153252    1.088342
      9          1           0        2.932278   -0.107281   -0.573544
     10          1           0       -2.298120    0.067754    1.317861
     11          1           0       -1.373670   -1.430882    1.131354
     12          1           0       -2.964289   -1.286454    0.373636
     13          1           0        0.877511   -1.467415   -0.879936
     14          1           0       -2.064357    0.284026   -1.174130
 ---------------------------------------------------------------------

 SCF Done:  E(RHF) =  -661.978895893     A.U. after    2 cycles

 The electronic state is 1-A.
 Alpha  occ. eigenvalues --  -94.11666 -20.50600 -15.52968 -15.52317 -11.26717
 Alpha  occ. eigenvalues --  -11.26632  -8.37729  -6.35557  -6.35424  -6.35165
 Alpha  occ. eigenvalues --   -1.45786  -1.24585  -1.19766  -0.98959  -0.92921
 Alpha  occ. eigenvalues --   -0.85543  -0.72595  -0.70998  -0.66529  -0.63572
 Alpha  occ. eigenvalues --   -0.61763  -0.60262  -0.55852  -0.55480  -0.54485
 Alpha  occ. eigenvalues --   -0.47610  -0.46158  -0.43507  -0.38079
 Alpha virt. eigenvalues --    0.03307   0.04194   0.05066   0.05304   0.05621
 Alpha virt. eigenvalues --    0.06269   0.07164   0.07544   0.09857   0.10620
 Alpha virt. eigenvalues --    0.11767   0.13479   0.13697   0.15158   0.15793

 Mulliken charges:
               1
     1  C   -0.460522
     2  C   -0.477478
     3  N   -0.319369
     4  N   -0.149385
     5  O   -1.498558
     6  S    1.904860
     7  H    0.068911
     8  H    0.096623
     9  H    0.135080
    10  H    0.159358
    11  H    0.160918
    12  H    0.042839
    13  H    0.187539
    14  H    0.149185
 Sum of Mulliken charges =  -0.00000

 Dipole moment (field-independent basis, Debye):
    X=             -0.3794    Y=             -2.0218    Z=             -1.9539  Tot=              2.8371

 Test job not archived.
 1\1\GINC-SE173\SP\RHF\Aug-CC-pVDZ\C2H8N2O1S1\OHZDE\05-Apr-2025\0\\#t h
 f aug-cc-pvdz iop(5/13=1,5/36=2,99/5=2) pseudo=read geom=check guess=(
 read,tcheck) scf=(maxcycle=1)\\title\\0,1\C,0,2.348792,-0.53678,0.2486
 59\C,0,-2.054949,-0.747002,0.633612\N,0,0.953152,-0.827439,-0.095931\N
 ,0,-1.433378,-0.277244,-0.614256\O,0,0.101328,1.411281,0.730744\S,0,0.
 030842,0.587441,-0.500901\H,0,2.820782,-1.466819,0.562554\H,0,2.364292
 ,0.153252,1.088342\H,0,2.932278,-0.107281,-0.573544\H,0,-2.29812,0.067
 754,1.317861\H,0,-1.37367,-1.430882,1.131354\H,0,-2.964289,-1.286453,0

 Normal termination of Gaussian 16 at Sat Apr  5 22:54:37 2025.
