 Gaussian 16, Revision C.01,

 ----------------------------------------------------------------------
 #t hf aug-cc-pvdz symm=none int=(grid=ultrafine) guess=(read,tcheck) s
 table=(opt,rrhf)
 ----------------------------------------------------------------------
 -----
 title
 -----
 Symbolic Z-matrix:
 Charge =  0 Multiplicity = 1

 SCF Done:  E(RHF) =  -903.986667153     A.U. after   15 cycles
 Normal termination of Gaussian 16 at Sat Apr  5 22:55:21 2025.
 Gaussian 16:  ES64L-G16RevC.01  3-Jul-2019

 ----------------------------------------------------------------------
 #t hf aug-cc-pvdz iop(5/13=1,5/36=2,99/5=2) pseudo=read geom=check gue
 ss=(read,tcheck) scf=(maxcycle=1)
 ----------------------------------------------------------------------
 -----
 title
 -----
 Structure from the checkpoint file:  "N-methylpyrimidine-5-sulfonamide.chk"
 Charge =  0 Multiplicity = 1

                         Standard orientation:
 ---------------------------------------------------------------------
 Center     Atomic      Atomic             Coordinates (Angstroms)
 Number     Number       Type             X           Y           Z
 ---------------------------------------------------------------------
      1          6           0       -1.325488   -1.023014   -0.620671
      2          6           0       -1.153772    0.908207    0.754322
      3          6           0       -3.123935    0.272789   -0.162363
      4          6           0       -0.530909   -0.169977    0.137241
      5          6           0        1.986994    1.737827   -1.056432
      6          7           0       -2.628272   -0.802402   -0.775809
      7          7           0       -2.457181    1.136617    0.601107
      8          7           0        1.994174    0.281587   -0.935689
      9          8           0        1.635439    0.218540    1.535945
     10          8           0        1.440056   -1.889346    0.122330
     11         16           0        1.229691   -0.470095    0.327322
     12          1           0       -0.905378   -1.902771   -1.092500
     13          1           0       -0.596738    1.583105    1.391696
     14          1           0       -4.183013    0.459325   -0.293879
     15          1           0        1.020179    2.141933   -1.369626
     16          1           0        2.740545    2.019831   -1.789059
     17          1           0        2.264660    2.168978   -0.098408
     18          1           0        1.902340   -0.248049   -1.791428
 ---------------------------------------------------------------------

 SCF Done:  E(RHF) =  -904.559321917     A.U. after    2 cycles

 The electronic state is 1-A.
 Alpha  occ. eigenvalues --  -94.23213 -20.55184 -20.55177 -15.55572 -15.53848
 Alpha  occ. eigenvalues --  -15.53806 -11.34787 -11.33724 -11.33683 -11.29870
 Alpha  occ. eigenvalues --  -11.29787  -8.48008  -6.46162  -6.45960  -6.45859
 Alpha  occ. eigenvalues --   -1.57650  -1.45549  -1.34165  -1.26215  -1.22955
 Alpha  occ. eigenvalues --   -1.12735  -1.00794  -0.96144  -0.94935  -0.88285
 Alpha  occ. eigenvalues --   -0.79763  -0.77962  -0.76848  -0.71875  -0.71022
 Alpha  occ. eigenvalues --   -0.65392  -0.64707  -0.64011  -0.63682  -0.63025
 Alpha  occ. eigenvalues --   -0.59131  -0.56346  -0.52161  -0.51122  -0.49681
 Alpha  occ. eigenvalues --   -0.48521  -0.48119  -0.47884  -0.46978  -0.42363
 Alpha virt. eigenvalues --    0.02577   0.03663   0.03789   0.04654   0.04847
 Alpha virt. eigenvalues --    0.05123   0.05285   0.06116   0.06958   0.08644
 Alpha virt. eigenvalues --    0.09223   0.10049   0.10539   0.11503   0.12255

 Mulliken charges:
               1
     1  C   -1.003575
     2  C   -0.868165
     3  C   -0.762680
     4  C    0.470139
     5  C   -0.429138
     6  N    0.889939
     7  N    0.889112
     8  N   -0.097747
     9  O   -1.628007
    10  O   -1.588448
    11  S    3.987407
    12  H   -0.151404
    13  H   -0.177950
    14  H   -0.016341
    15  H    0.184994
    16  H    0.050608
    17  H    0.124720
    18  H    0.126537
 Sum of Mulliken charges =  -0.00000

 Dipole moment (field-independent basis, Debye):
    X=             -0.5076    Y=              2.6279    Z=             -3.4177  Tot=              4.3410

 Test job not archived.
 1\1\GINC-SE158\SP\RHF\Aug-CC-pVDZ\C5H7N3O2S1\OHZDE\05-Apr-2025\0\\#t h
 f aug-cc-pvdz iop(5/13=1,5/36=2,99/5=2) pseudo=read geom=check guess=(
 read,tcheck) scf=(maxcycle=1)\\title\\0,1\C,0,-1.325488,-1.023014,-0.6
 20671\C,0,-1.153772,0.908207,0.754322\C,0,-3.123935,0.272789,-0.162363
 \C,0,-0.530909,-0.169977,0.137241\C,0,1.986994,1.737827,-1.056432\N,0,
 -2.628272,-0.802402,-0.775809\N,0,-2.457181,1.136617,0.601107\N,0,1.99
 4174,0.281587,-0.935689\O,0,1.635439,0.21854,1.535945\O,0,1.440056,-1.
 889346,0.12233\S,0,1.229691,-0.470095,0.327322\H,0,-0.905378,-1.902771

 Normal termination of Gaussian 16 at Sat Apr  5 22:55:56 2025.
