 Gaussian 16, Revision C.01,

 ----------------------------------------------------------------------
 #t hf aug-cc-pvdz symm=none int=(grid=ultrafine) guess=(read,tcheck) s
 table=(opt,rrhf)
 ----------------------------------------------------------------------
 -----
 title
 -----
 Symbolic Z-matrix:
 Charge =  0 Multiplicity = 1

 SCF Done:  E(RHF) =  -606.603713143     A.U. after   14 cycles
 Normal termination of Gaussian 16 at Sat Apr  5 22:53:47 2025.
 Gaussian 16:  ES64L-G16RevC.01  3-Jul-2019

 ----------------------------------------------------------------------
 #t hf aug-cc-pvdz iop(5/13=1,5/36=2,99/5=2) pseudo=read geom=check gue
 ss=(read,tcheck) scf=(maxcycle=1)
 ----------------------------------------------------------------------
 -----
 title
 -----
 Structure from the checkpoint file:  "N-methylmethanesulfinamide.chk"
 Charge =  0 Multiplicity = 1

                         Standard orientation:
 ---------------------------------------------------------------------
 Center     Atomic      Atomic             Coordinates (Angstroms)
 Number     Number       Type             X           Y           Z
 ---------------------------------------------------------------------
      1          6           0       -2.176225   -0.108634    0.025106
      2          6           0        1.750470   -0.864926    0.195527
      3          7           0       -0.860662   -0.714324    0.273353
      4          8           0        0.496434    1.481896    0.368384
      5         16           0        0.435590    0.228882   -0.434302
      6          1           0       -2.186081    0.887800    0.460796
      7          1           0       -2.927918   -0.708978    0.535442
      8          1           0       -2.441606   -0.034928   -1.035315
      9          1           0        1.646109   -0.917873    1.276493
     10          1           0        2.694683   -0.403665   -0.084828
     11          1           0        1.666868   -1.848965   -0.264591
     12          1           0       -0.813806   -1.649042   -0.123504
 ---------------------------------------------------------------------

 SCF Done:  E(RHF) =  -606.886792655     A.U. after    2 cycles

 The electronic state is 1-A.
 Alpha  occ. eigenvalues --  -94.09429 -20.50178 -15.52897 -11.27412 -11.26985
 Alpha  occ. eigenvalues --   -8.35888  -6.33723  -6.33603  -6.33341  -1.44433
 Alpha  occ. eigenvalues --   -1.22181  -1.04830  -0.93463  -0.85594  -0.71057
 Alpha  occ. eigenvalues --   -0.65980  -0.64818  -0.61481  -0.59196  -0.57419
 Alpha  occ. eigenvalues --   -0.55007  -0.53651  -0.46320  -0.43319  -0.36889
 Alpha virt. eigenvalues --    0.02958   0.04049   0.04852   0.05209   0.06183
 Alpha virt. eigenvalues --    0.06542   0.07777   0.09109   0.11119   0.12400
 Alpha virt. eigenvalues --    0.13601   0.13829   0.15270   0.15540   0.16730

 Mulliken charges:
               1
     1  C   -0.433077
     2  C   -0.662989
     3  N   -0.305289
     4  O   -1.468935
     5  S    1.690421
     6  H    0.119749
     7  H    0.058397
     8  H    0.145538
     9  H    0.254640
    10  H    0.216003
    11  H    0.208157
    12  H    0.177384
 Sum of Mulliken charges =  -0.00000

 Dipole moment (field-independent basis, Debye):
    X=             -0.1534    Y=             -3.9546    Z=             -1.6276  Tot=              4.2792

 Test job not archived.
 1\1\GINC-SE036\SP\RHF\Aug-CC-pVDZ\C2H7N1O1S1\OHZDE\05-Apr-2025\0\\#t h
 f aug-cc-pvdz iop(5/13=1,5/36=2,99/5=2) pseudo=read geom=check guess=(
 read,tcheck) scf=(maxcycle=1)\\title\\0,1\C,0,-2.176225,-0.108634,0.02
 5106\C,0,1.75047,-0.864926,0.195527\N,0,-0.860662,-0.714324,0.273353\O
 ,0,0.496434,1.481896,0.368384\S,0,0.43559,0.228882,-0.434302\H,0,-2.18
 6081,0.8878,0.460796\H,0,-2.927918,-0.708978,0.535442\H,0,-2.441606,-0
 .034928,-1.035315\H,0,1.646109,-0.917873,1.276493\H,0,2.694683,-0.4036
 65,-0.084828\H,0,1.666868,-1.848965,-0.264591\H,0,-0.813806,-1.649042,

 Normal termination of Gaussian 16 at Sat Apr  5 22:53:51 2025.
