 Gaussian 16, Revision C.01,

 ----------------------------------------------------------------------
 #t hf aug-cc-pvdz symm=none int=(grid=ultrafine) guess=(read,tcheck) s
 table=(opt,rrhf)
 ----------------------------------------------------------------------
 -----
 title
 -----
 Symbolic Z-matrix:
 Charge =  0 Multiplicity = 1

 SCF Done:  E(RHF) =  -645.650830533     A.U. after   14 cycles
 Normal termination of Gaussian 16 at Sat Apr  5 22:53:40 2025.
 Gaussian 16:  ES64L-G16RevC.01  3-Jul-2019

 ----------------------------------------------------------------------
 #t hf aug-cc-pvdz iop(5/13=1,5/36=2,99/5=2) pseudo=read geom=check gue
 ss=(read,tcheck) scf=(maxcycle=1)
 ----------------------------------------------------------------------
 -----
 title
 -----
 Structure from the checkpoint file:  "N-methylethanesulfinamide.chk"
 Charge =  0 Multiplicity = 1

                         Standard orientation:
 ---------------------------------------------------------------------
 Center     Atomic      Atomic             Coordinates (Angstroms)
 Number     Number       Type             X           Y           Z
 ---------------------------------------------------------------------
      1          6           0       -2.139834   -0.710922    0.596826
      2          6           0        1.068695   -0.883406   -0.030439
      3          7           0       -1.459776   -0.309985   -0.644054
      4          8           0        0.011483    1.442982    0.707174
      5         16           0        0.021665    0.552366   -0.498920
      6          1           0       -1.644773   -1.577025    1.031747
      7          1           0       -3.157132   -1.003061    0.342196
      8          1           0       -2.170598    0.089547    1.338748
      9          6           0        2.503165   -0.427132    0.192491
     10          1           0        0.977363   -1.601303   -0.844626
     11          1           0        0.639979   -1.306459    0.877147
     12          1           0       -2.062842    0.266509   -1.218062
     13          1           0        2.551572    0.320870    0.982347
     14          1           0        2.931112    0.002810   -0.714236
     15          1           0        3.123098   -1.274945    0.485174
 ---------------------------------------------------------------------

 SCF Done:  E(RHF) =  -645.977516344     A.U. after    2 cycles

 The electronic state is 1-A.
 Alpha  occ. eigenvalues --  -94.08602 -20.49562 -15.52864 -11.27203 -11.27074
 Alpha  occ. eigenvalues --  -11.24083  -8.35085  -6.32922  -6.32780  -6.32568
 Alpha  occ. eigenvalues --   -1.43480  -1.22413  -1.07563  -0.97492  -0.90556
 Alpha  occ. eigenvalues --   -0.81805  -0.70987  -0.66863  -0.65171  -0.62520
 Alpha  occ. eigenvalues --   -0.60841  -0.56621  -0.55033  -0.53762  -0.53707
 Alpha  occ. eigenvalues --   -0.50718  -0.46313  -0.42273  -0.36880
 Alpha virt. eigenvalues --    0.03346   0.03724   0.04386   0.04983   0.05539
 Alpha virt. eigenvalues --    0.06308   0.07009   0.08021   0.09128   0.10674
 Alpha virt. eigenvalues --    0.10805   0.13029   0.14202   0.14442   0.14954

 Mulliken charges:
               1
     1  C   -0.435140
     2  C   -0.773415
     3  N   -0.217960
     4  O   -1.537235
     5  S    1.877145
     6  H    0.097338
     7  H    0.043500
     8  H    0.167833
     9  C   -0.279535
    10  H    0.189511
    11  H    0.197749
    12  H    0.158313
    13  H    0.191631
    14  H    0.180538
    15  H    0.139729
 Sum of Mulliken charges =  -0.00000

 Dipole moment (field-independent basis, Debye):
    X=             -0.3926    Y=             -2.8197    Z=             -1.0266  Tot=              3.0263

 Test job not archived.
 1\1\GINC-SE084\SP\RHF\Aug-CC-pVDZ\C3H9N1O1S1\OHZDE\05-Apr-2025\0\\#t h
 f aug-cc-pvdz iop(5/13=1,5/36=2,99/5=2) pseudo=read geom=check guess=(
 read,tcheck) scf=(maxcycle=1)\\title\\0,1\C,0,-2.139834,-0.710922,0.59
 6826\C,0,1.068695,-0.883406,-0.030439\N,0,-1.459776,-0.309985,-0.64405
 4\O,0,0.011483,1.442982,0.707174\S,0,0.021665,0.552366,-0.49892\H,0,-1
 .644773,-1.577025,1.031747\H,0,-3.157132,-1.003061,0.342196\H,0,-2.170
 598,0.089547,1.338748\C,0,2.503165,-0.427132,0.192491\H,0,0.977363,-1.
 601303,-0.844626\H,0,0.639979,-1.306459,0.877147\H,0,-2.062842,0.26650

 Normal termination of Gaussian 16 at Sat Apr  5 22:53:47 2025.
