 Gaussian 16, Revision C.01,

 ----------------------------------------------------------------------
 #t hf aug-cc-pvdz symm=none int=(grid=ultrafine) guess=(read,tcheck) s
 table=(opt,rrhf)
 ----------------------------------------------------------------------
 -----
 title
 -----
 Symbolic Z-matrix:
 Charge =  0 Multiplicity = 1

 SCF Done:  E(RHF) =  -133.080427865     A.U. after   12 cycles
 Normal termination of Gaussian 16 at Sat Apr  5 22:53:40 2025.
 Gaussian 16:  ES64L-G16RevC.01  3-Jul-2019

 ----------------------------------------------------------------------
 #t hf aug-cc-pvdz iop(5/13=1,5/36=2,99/5=2) pseudo=read geom=check gue
 ss=(read,tcheck) scf=(maxcycle=1)
 ----------------------------------------------------------------------
 -----
 title
 -----
 Structure from the checkpoint file:  "N-methylmethanimine.chk"
 Charge =  0 Multiplicity = 1

                         Standard orientation:
 ---------------------------------------------------------------------
 Center     Atomic      Atomic             Coordinates (Angstroms)
 Number     Number       Type             X           Y           Z
 ---------------------------------------------------------------------
      1          6           0       -1.074952   -0.423350    0.000000
      2          7           0        0.000000    0.548631    0.000000
      3          6           0        1.187443    0.128587    0.000000
      4          1           0       -0.726044   -1.464229    0.000000
      5          1           0       -1.702940   -0.256325    0.876539
      6          1           0       -1.702940   -0.256325   -0.876539
      7          1           0        1.449451   -0.937256    0.000000
      8          1           0        2.007530    0.842294    0.000000
 ---------------------------------------------------------------------

 SCF Done:  E(RHF) =  -133.223019385     A.U. after    2 cycles

 The electronic state is 1-A'.
 Alpha  occ. eigenvalues --  -15.50472 -11.28049 -11.25768  -1.23308  -0.97298
 Alpha  occ. eigenvalues --   -0.80632  -0.67552  -0.66147  -0.60380  -0.54498
 Alpha  occ. eigenvalues --   -0.44709  -0.44272
 Alpha virt. eigenvalues --    0.03665   0.05032   0.05068   0.05993   0.07091
 Alpha virt. eigenvalues --    0.08502   0.09955   0.14206   0.15142   0.15428
 Alpha virt. eigenvalues --    0.16202   0.16677   0.17703   0.19898   0.21326

 Mulliken charges:
               1
     1  C   -0.433526
     2  N    0.403173
     3  C   -0.386245
     4  H    0.091244
     5  H    0.120241
     6  H    0.120241
     7  H    0.061953
     8  H    0.022918
 Sum of Mulliken charges =  -0.00000

 Dipole moment (field-independent basis, Debye):
    X=              0.8331    Y=             -1.8122    Z=             -0.0000  Tot=              1.9946

 Test job not archived.
 1\1\GINC-SE173\SP\RHF\Aug-CC-pVDZ\C2H5N1\OHZDE\05-Apr-2025\0\\#t hf au
 g-cc-pvdz iop(5/13=1,5/36=2,99/5=2) pseudo=read geom=check guess=(read
 ,tcheck) scf=(maxcycle=1)\\title\\0,1\C,0,-1.074952,-0.42335,0.\N,0,0.
 ,0.548631,0.\C,0,1.187443,0.128587,0.\H,0,-0.726044,-1.464229,0.\H,0,-
 1.70294,-0.256326,0.876539\H,0,-1.70294,-0.256326,-0.876539\H,0,1.4494
 51,-0.937256,0.\H,0,2.00753,0.842294,0.\\Version=ES64L-G16RevC.01\Stat
 e=1-A'\HF=-133.2230194\RMSD=1.120e-02\Dipole=0.3277663,-0.7129868,0.\Q
 uadrupole=2.512307,-1.6065923,-0.9057147,0.5051505,0.,0.\PG=CS [SG(C2H

 Normal termination of Gaussian 16 at Sat Apr  5 22:53:42 2025.
