 Gaussian 16, Revision C.01,

 ----------------------------------------------------------------------
 #t hf aug-cc-pvdz symm=none int=(grid=ultrafine) guess=(read,tcheck) s
 table=(opt,rrhf)
 ----------------------------------------------------------------------
 -----
 title
 -----
 Symbolic Z-matrix:
 Charge =  0 Multiplicity = 1

 SCF Done:  E(RHF) =  -363.821016017     A.U. after   15 cycles

 1\1\GINC-SE173\Stability\RHF\Aug-CC-pVDZ\C8H11N1\OHZDE\05-Apr-2025\0\\
 #t hf aug-cc-pvdz symm=none int=(grid=ultrafine) guess=(read,tcheck) s
 table=(opt,rrhf)\\title\\0,1\C,0,-0.060027,-2.648826,0.\C,0,-0.034335,
 -1.937551,1.193561\C,0,-0.034335,-1.937551,-1.193561\C,0,0.022378,-0.5
 51433,1.203052\C,0,0.022378,-0.551433,-1.203052\C,0,0.066946,0.18052,0
 .\C,0,-0.034335,2.290729,1.239444\C,0,-0.034335,2.290729,-1.239444\N,0
 ,0.163911,1.564753,0.\H,0,-0.106296,-3.728607,0.\H,0,-0.063515,-2.4650
 3,2.138258\H,0,-0.063515,-2.46503,-2.138258\H,0,0.033546,-0.040931,2.1

 Normal termination of Gaussian 16 at Sat Apr  5 22:52:58 2025.
 Gaussian 16:  ES64L-G16RevC.01  3-Jul-2019

 ----------------------------------------------------------------------
 #t hf aug-cc-pvdz iop(5/13=1,5/36=2,99/5=2) pseudo=read geom=check gue
 ss=(read,tcheck) scf=(maxcycle=1)
 ----------------------------------------------------------------------
 -----
 title
 -----
 Structure from the checkpoint file:  "N-N-dimethylaniline.chk"
 Charge =  0 Multiplicity = 1

                         Standard orientation:
 ---------------------------------------------------------------------
 Center     Atomic      Atomic             Coordinates (Angstroms)
 Number     Number       Type             X           Y           Z
 ---------------------------------------------------------------------
      1          6           0       -0.060027   -2.648826    0.000000
      2          6           0       -0.034335   -1.937551    1.193561
      3          6           0       -0.034335   -1.937551   -1.193561
      4          6           0        0.022378   -0.551433    1.203052
      5          6           0        0.022378   -0.551433   -1.203052
      6          6           0        0.066946    0.180520   -0.000000
      7          6           0       -0.034335    2.290729    1.239444
      8          6           0       -0.034335    2.290729   -1.239444
      9          7           0        0.163911    1.564753   -0.000000
     10          1           0       -0.106296   -3.728607    0.000000
     11          1           0       -0.063515   -2.465030    2.138258
     12          1           0       -0.063515   -2.465030   -2.138258
     13          1           0        0.033546   -0.040931    2.153087
     14          1           0        0.033546   -0.040931   -2.153087
     15          1           0       -1.037990    2.148981    1.661823
     16          1           0        0.110493    3.352219    1.055557
     17          1           0        0.693922    1.986879    1.992824
     18          1           0        0.110493    3.352219   -1.055557
     19          1           0       -1.037990    2.148981   -1.661823
     20          1           0        0.693922    1.986879   -1.992824
 ---------------------------------------------------------------------

 SCF Done:  E(RHF) =  -364.204788855     A.U. after    2 cycles

 The electronic state is 1-A'.
 Alpha  occ. eigenvalues --  -15.50590 -11.27930 -11.26449 -11.26438 -11.23642
 Alpha  occ. eigenvalues --  -11.23626 -11.22398 -11.22393 -11.21970  -1.25294
 Alpha  occ. eigenvalues --   -1.13403  -1.01454  -1.01100  -0.97611  -0.90690
 Alpha  occ. eigenvalues --   -0.82583  -0.79568  -0.73095  -0.66977  -0.66428
 Alpha  occ. eigenvalues --   -0.65601  -0.62633  -0.59966  -0.59342  -0.56874
 Alpha  occ. eigenvalues --   -0.56158  -0.54030  -0.51889  -0.50968  -0.48937
 Alpha  occ. eigenvalues --   -0.42851  -0.34103  -0.29655
 Alpha virt. eigenvalues --    0.03401   0.03847   0.03945   0.04682   0.04697
 Alpha virt. eigenvalues --    0.05172   0.06176   0.07092   0.07608   0.08791
 Alpha virt. eigenvalues --    0.10191   0.11230   0.11350   0.11795   0.12927

 Mulliken charges:
               1
     1  C   -0.000250
     2  C    0.527826
     3  C    0.527826
     4  C    0.321361
     5  C    0.321361
     6  C   -1.125062
     7  C   -0.300137
     8  C   -0.300137
     9  N    1.013512
    10  H   -0.241415
    11  H   -0.241110
    12  H   -0.241110
    13  H   -0.445230
    14  H   -0.445230
    15  H    0.201259
    16  H   -0.028833
    17  H    0.141471
    18  H   -0.028833
    19  H    0.201259
    20  H    0.141471
 Sum of Mulliken charges =  -0.00000

 Dipole moment (field-independent basis, Debye):
    X=             -0.2793    Y=              1.5919    Z=              0.0000  Tot=              1.6162

 Test job not archived.
 1\1\GINC-SE173\SP\RHF\Aug-CC-pVDZ\C8H11N1\OHZDE\05-Apr-2025\0\\#t hf a
 ug-cc-pvdz iop(5/13=1,5/36=2,99/5=2) pseudo=read geom=check guess=(rea
 d,tcheck) scf=(maxcycle=1)\\title\\0,1\C,0,-0.060027,-2.648826,0.\C,0,
 -0.034335,-1.937551,1.193561\C,0,-0.034335,-1.937551,-1.193561\C,0,0.0
 22378,-0.551433,1.203052\C,0,0.022378,-0.551433,-1.203052\C,0,0.066946
 ,0.18052,0.\C,0,-0.034335,2.290729,1.239444\C,0,-0.034335,2.290729,-1.
 239444\N,0,0.163911,1.564753,0.\H,0,-0.106296,-3.728607,0.\H,0,-0.0635
 15,-2.46503,2.138258\H,0,-0.063515,-2.46503,-2.138258\H,0,0.033546,-0.

 Normal termination of Gaussian 16 at Sat Apr  5 22:53:13 2025.
