 Gaussian 16, Revision C.01,

 ----------------------------------------------------------------------
 #t hf aug-cc-pvdz symm=none int=(grid=ultrafine) guess=(read,tcheck) s
 table=(opt,rrhf)
 ----------------------------------------------------------------------
 -----
 title
 -----
 Symbolic Z-matrix:
 Charge =  0 Multiplicity = 1

 SCF Done:  E(RHF) =  -369.713854884     A.U. after   14 cycles
 Normal termination of Gaussian 16 at Sat Apr  5 22:51:50 2025.
 Gaussian 16:  ES64L-G16RevC.01  3-Jul-2019

 ----------------------------------------------------------------------
 #t hf aug-cc-pvdz iop(5/13=1,5/36=2,99/5=2) pseudo=read geom=check gue
 ss=(read,tcheck) scf=(maxcycle=1)
 ----------------------------------------------------------------------
 -----
 title
 -----
 Structure from the checkpoint file:  "N-N-difluoro-2-propen-1-amine.chk"
 Charge =  0 Multiplicity = 1

                         Standard orientation:
 ---------------------------------------------------------------------
 Center     Atomic      Atomic             Coordinates (Angstroms)
 Number     Number       Type             X           Y           Z
 ---------------------------------------------------------------------
      1          9           0       -1.941746   -0.828965   -0.048656
      2          9           0       -1.207342    1.234561    0.002398
      3          7           0       -0.837230   -0.049645   -0.459202
      4          6           0        0.253975   -0.468738    0.449582
      5          6           0        1.490150    0.334470    0.186438
      6          6           0        2.628245   -0.194799   -0.239489
      7          1           0        0.410259   -1.522526    0.224676
      8          1           0       -0.096603   -0.362385    1.478991
      9          1           0        1.421730    1.396780    0.385841
     10          1           0        2.723117   -1.253412   -0.447875
     11          1           0        3.509677    0.413089   -0.390093
 ---------------------------------------------------------------------

 SCF Done:  E(RHF) =  -370.070739423     A.U. after    2 cycles

 The electronic state is 1-A.
 Alpha  occ. eigenvalues --  -26.49788 -26.49772 -15.71384 -11.30423 -11.26643
 Alpha  occ. eigenvalues --  -11.26088  -1.65617  -1.57037  -1.18269  -1.07100
 Alpha  occ. eigenvalues --   -0.93898  -0.81213  -0.76475  -0.75728  -0.74117
 Alpha  occ. eigenvalues --   -0.67001  -0.65476  -0.63161  -0.62052  -0.60256
 Alpha  occ. eigenvalues --   -0.56786  -0.53128  -0.51005  -0.40635
 Alpha virt. eigenvalues --    0.03449   0.04153   0.04501   0.05985   0.06897
 Alpha virt. eigenvalues --    0.08609   0.10536   0.11974   0.12753   0.14511
 Alpha virt. eigenvalues --    0.14790   0.15282   0.15703   0.16232   0.16822

 Mulliken charges:
               1
     1  F   -0.644068
     2  F   -0.638751
     3  N    1.330807
     4  C   -0.658901
     5  C    0.688292
     6  C   -0.164224
     7  H    0.093347
     8  H    0.244555
     9  H   -0.120850
    10  H   -0.055793
    11  H   -0.074414
 Sum of Mulliken charges =  -0.00000

 Dipole moment (field-independent basis, Debye):
    X=              2.6755    Y=             -0.7857    Z=              1.0982  Tot=              2.9969

 Test job not archived.
 1\1\GINC-SE169\SP\RHF\Aug-CC-pVDZ\C3H5F2N1\OHZDE\05-Apr-2025\0\\#t hf
 aug-cc-pvdz iop(5/13=1,5/36=2,99/5=2) pseudo=read geom=check guess=(re
 ad,tcheck) scf=(maxcycle=1)\\title\\0,1\F,0,-1.941746,-0.828965,-0.048
 656\F,0,-1.207342,1.234561,0.002398\N,0,-0.83723,-0.049645,-0.459202\C
 ,0,0.253975,-0.468738,0.449582\C,0,1.49015,0.33447,0.186438\C,0,2.6282
 45,-0.194799,-0.239489\H,0,0.410259,-1.522526,0.224676\H,0,-0.096603,-
 0.362385,1.478991\H,0,1.42173,1.39678,0.385841\H,0,2.723117,-1.253412,
 -0.447875\H,0,3.509677,0.413089,-0.390093\\Version=ES64L-G16RevC.01\St

 Normal termination of Gaussian 16 at Sat Apr  5 22:52:47 2025.
