 Gaussian 16, Revision C.01,

 ----------------------------------------------------------------------
 #t hf aug-cc-pvdz symm=none int=(grid=ultrafine) guess=(read,tcheck) s
 table=(opt,rrhf)
 ----------------------------------------------------------------------
 -----
 title
 -----
 Symbolic Z-matrix:
 Charge =  0 Multiplicity = 1

 SCF Done:  E(RHF) =  -302.084663494     A.U. after   13 cycles
 Normal termination of Gaussian 16 at Sat Apr  5 22:52:02 2025.
 Gaussian 16:  ES64L-G16RevC.01  3-Jul-2019

 ----------------------------------------------------------------------
 #t hf aug-cc-pvdz iop(5/13=1,5/36=2,99/5=2) pseudo=read geom=check gue
 ss=(read,tcheck) scf=(maxcycle=1)
 ----------------------------------------------------------------------
 -----
 title
 -----
 Structure from the checkpoint file:  "N-N-dimethylurea.chk"
 Charge =  0 Multiplicity = 1

                         Standard orientation:
 ---------------------------------------------------------------------
 Center     Atomic      Atomic             Coordinates (Angstroms)
 Number     Number       Type             X           Y           Z
 ---------------------------------------------------------------------
      1          1           0        2.546292    0.664510    0.165310
      2          8           0        1.231997   -1.340449   -0.051260
      3          6           0        0.759803   -0.212659   -0.016985
      4          7           0       -0.589131    0.040718   -0.042504
      5          1           0        1.276432    1.747193    0.451488
      6          7           0        1.584512    0.906330   -0.005452
      7          1           0       -2.218134   -1.068197   -0.768577
      8          1           0       -2.090342   -1.011668    0.999406
      9          1           0       -0.951852   -1.996650    0.058184
     10          6           0       -1.517068   -1.071094    0.069328
     11          1           0       -1.231220    1.809057    0.957610
     12          1           0       -2.152797    1.337971   -0.470531
     13          1           0       -0.559592    2.045476   -0.673917
     14          6           0       -1.149808    1.378179   -0.047877
 ---------------------------------------------------------------------

 SCF Done:  E(RHF) =  -302.398566151     A.U. after    2 cycles

 The electronic state is 1-A.
 Alpha  occ. eigenvalues --  -20.48938 -15.52062 -15.51872 -11.37598 -11.28076
 Alpha  occ. eigenvalues --  -11.26134  -1.45036  -1.26216  -1.19709  -0.98811
 Alpha  occ. eigenvalues --   -0.95859  -0.80004  -0.76674  -0.71365  -0.67877
 Alpha  occ. eigenvalues --   -0.64890  -0.60726  -0.57812  -0.57727  -0.57154
 Alpha  occ. eigenvalues --   -0.54587  -0.45508  -0.42671  -0.39651
 Alpha virt. eigenvalues --    0.02878   0.04004   0.04519   0.04733   0.05914
 Alpha virt. eigenvalues --    0.06352   0.07577   0.08544   0.09761   0.12011
 Alpha virt. eigenvalues --    0.13313   0.13700   0.14539   0.15143   0.15952

 Mulliken charges:
               1
     1  H    0.226507
     2  O   -1.228945
     3  C   -0.032872
     4  N    0.525159
     5  H    0.061715
     6  N    0.495937
     7  H    0.150823
     8  H    0.207861
     9  H    0.006758
    10  C   -0.285947
    11  H    0.188103
    12  H    0.026129
    13  H    0.113558
    14  C   -0.454787
 Sum of Mulliken charges =  -0.00000

 Dipole moment (field-independent basis, Debye):
    X=             -1.9932    Y=              3.5067    Z=              1.0567  Tot=              4.1697

 Test job not archived.
 1\1\GINC-SE204\SP\RHF\Aug-CC-pVDZ\C3H8N2O1\OHZDE\05-Apr-2025\0\\#t hf
 aug-cc-pvdz iop(5/13=1,5/36=2,99/5=2) pseudo=read geom=check guess=(re
 ad,tcheck) scf=(maxcycle=1)\\title\\0,1\H,0,2.546292,0.66451,0.16531\O
 ,0,1.231997,-1.340449,-0.05126\C,0,0.759803,-0.212659,-0.016985\N,0,-0
 .589131,0.040718,-0.042504\H,0,1.276432,1.747193,0.451488\N,0,1.584512
 ,0.90633,-0.005452\H,0,-2.218134,-1.068197,-0.768577\H,0,-2.090342,-1.
 011668,0.999406\H,0,-0.951852,-1.99665,0.058184\C,0,-1.517068,-1.07109
 4,0.069328\H,0,-1.23122,1.809057,0.95761\H,0,-2.152797,1.337971,-0.470

 Normal termination of Gaussian 16 at Sat Apr  5 22:52:48 2025.
