 Gaussian 16, Revision C.01,

 ----------------------------------------------------------------------
 #t hf aug-cc-pvdz symm=none int=(grid=ultrafine) guess=(read,tcheck) s
 table=(opt,rrhf)
 ----------------------------------------------------------------------
 -----
 title
 -----
 Symbolic Z-matrix:
 Charge =  0 Multiplicity = 1

 SCF Done:  E(RHF) =  -1239.67519726     A.U. after   15 cycles
 Normal termination of Gaussian 16 at Sat Apr  5 22:52:06 2025.
 Gaussian 16:  ES64L-G16RevC.01  3-Jul-2019

 ----------------------------------------------------------------------
 #t hf aug-cc-pvdz iop(5/13=1,5/36=2,99/5=2) pseudo=read geom=check gue
 ss=(read,tcheck) scf=(maxcycle=1)
 ----------------------------------------------------------------------
 -----
 title
 -----
 Structure from the checkpoint file:  "N-N-dichloro-beta-alanine.chk"
 Charge =  0 Multiplicity = 1

                         Standard orientation:
 ---------------------------------------------------------------------
 Center     Atomic      Atomic             Coordinates (Angstroms)
 Number     Number       Type             X           Y           Z
 ---------------------------------------------------------------------
      1         17           0       -1.403966    1.580358   -0.186597
      2         17           0       -2.213265   -1.174993   -0.243708
      3          8           0        2.873057    0.758059   -0.738556
      4          8           0        2.277698   -1.354913   -0.264765
      5          7           0       -0.804970   -0.095332   -0.210337
      6          6           0       -0.056679   -0.361932    1.040612
      7          6           0        1.277873    0.375527    1.029972
      8          6           0        2.216236   -0.012637   -0.091722
      9          1           0        2.900728   -1.522198   -0.987239
     10          1           0        0.107577   -1.437333    1.044710
     11          1           0       -0.639389   -0.090423    1.923058
     12          1           0        1.143470    1.452829    0.989941
     13          1           0        1.784708    0.142322    1.970482
 ---------------------------------------------------------------------

 SCF Done:  E(RHF) =  -1240.14161108     A.U. after    2 cycles

 The electronic state is 1-A.
 Alpha  occ. eigenvalues -- -105.60964-105.60835 -20.61087 -20.54864 -15.64722
 Alpha  occ. eigenvalues --  -11.40681 -11.31064 -11.27721 -10.65501 -10.65380
 Alpha  occ. eigenvalues --   -7.82448  -7.82326  -7.81977  -7.81947  -7.81864
 Alpha  occ. eigenvalues --   -7.81829  -1.55844  -1.46373  -1.29104  -1.09722
 Alpha  occ. eigenvalues --   -1.06739  -0.99477  -0.88761  -0.82871  -0.72472
 Alpha  occ. eigenvalues --   -0.71307  -0.69626  -0.68138  -0.65304  -0.63327
 Alpha  occ. eigenvalues --   -0.59868  -0.57865  -0.56278  -0.54514  -0.49827
 Alpha  occ. eigenvalues --   -0.49304  -0.48353  -0.46647  -0.45438  -0.43865
 Alpha virt. eigenvalues --    0.03181   0.03957   0.04078   0.05094   0.05330
 Alpha virt. eigenvalues --    0.06740   0.07827   0.09420   0.09828   0.11193
 Alpha virt. eigenvalues --    0.12917   0.13436   0.13843   0.14581   0.15342

 Mulliken charges:
               1
     1  Cl   0.029287
     2  Cl   0.058553
     3  O   -1.203164
     4  O   -1.263455
     5  N    0.018359
     6  C   -0.279404
     7  C   -0.542034
     8  C    2.108198
     9  H    0.386886
    10  H    0.132079
    11  H    0.060014
    12  H    0.169718
    13  H    0.324963
 Sum of Mulliken charges =  -0.00000

 Dipole moment (field-independent basis, Debye):
    X=              0.0764    Y=             -1.5444    Z=              2.5421  Tot=              2.9754

 Test job not archived.
 1\1\GINC-SE170\SP\RHF\Aug-CC-pVDZ\C3H5Cl2N1O2\OHZDE\05-Apr-2025\0\\#t
 hf aug-cc-pvdz iop(5/13=1,5/36=2,99/5=2) pseudo=read geom=check guess=
 (read,tcheck) scf=(maxcycle=1)\\title\\0,1\Cl,0,-1.403966,1.580358,-0.
 186597\Cl,0,-2.213265,-1.174993,-0.243708\O,0,2.873057,0.758059,-0.738
 556\O,0,2.277698,-1.354913,-0.264765\N,0,-0.80497,-0.095332,-0.210337\
 C,0,-0.056679,-0.361932,1.040612\C,0,1.277873,0.375527,1.029972\C,0,2.
 216236,-0.012637,-0.091722\H,0,2.900728,-1.522198,-0.987239\H,0,0.1075
 77,-1.437333,1.04471\H,0,-0.639389,-0.090423,1.923058\H,0,1.14347,1.45

 Normal termination of Gaussian 16 at Sat Apr  5 22:52:49 2025.
