 Gaussian 16, Revision C.01,

 ----------------------------------------------------------------------
 #t hf aug-cc-pvdz symm=none int=(grid=ultrafine) guess=(read,tcheck) s
 table=(opt,rrhf)
 ----------------------------------------------------------------------
 -----
 title
 -----
 Symbolic Z-matrix:
 Charge =  0 Multiplicity = 1

 SCF Done:  E(RHF) =  -1239.66724574     A.U. after   15 cycles
 Normal termination of Gaussian 16 at Sat Apr  5 22:52:19 2025.
 Gaussian 16:  ES64L-G16RevC.01  3-Jul-2019

 ----------------------------------------------------------------------
 #t hf aug-cc-pvdz iop(5/13=1,5/36=2,99/5=2) pseudo=read geom=check gue
 ss=(read,tcheck) scf=(maxcycle=1)
 ----------------------------------------------------------------------
 -----
 title
 -----
 Structure from the checkpoint file:  "N-N-dichloroalanine.chk"
 Charge =  0 Multiplicity = 1

                         Standard orientation:
 ---------------------------------------------------------------------
 Center     Atomic      Atomic             Coordinates (Angstroms)
 Number     Number       Type             X           Y           Z
 ---------------------------------------------------------------------
      1         17           0        0.728531    1.497292    0.772640
      2         17           0        2.223389   -0.562465   -0.591632
      3          8           0       -2.668641   -0.240390    0.519523
      4          8           0       -1.881708    0.532517   -1.435981
      5          7           0        0.638389    0.232441   -0.474123
      6          6           0       -0.389595   -0.778712   -0.100354
      7          6           0       -1.770143   -0.126666   -0.269201
      8          6           0       -0.253722   -1.474534    1.243293
      9          1           0       -2.779254    0.895548   -1.477125
     10          1           0       -0.305243   -1.508256   -0.910817
     11          1           0        0.726260   -1.938756    1.327217
     12          1           0       -0.395120   -0.777206    2.064971
     13          1           0       -1.014466   -2.248024    1.326727
 ---------------------------------------------------------------------

 SCF Done:  E(RHF) =  -1240.13270362     A.U. after    2 cycles

 The electronic state is 1-A.
 Alpha  occ. eigenvalues -- -105.61324-105.61056 -20.61591 -20.55901 -15.64989
 Alpha  occ. eigenvalues --  -11.41517 -11.32613 -11.24700 -10.65846 -10.65586
 Alpha  occ. eigenvalues --   -7.82795  -7.82534  -7.82324  -7.82294  -7.82071
 Alpha  occ. eigenvalues --   -7.82036  -1.56747  -1.47385  -1.29316  -1.09037
 Alpha  occ. eigenvalues --   -1.07094  -0.97720  -0.91574  -0.81095  -0.73757
 Alpha  occ. eigenvalues --   -0.72635  -0.71268  -0.65082  -0.63581  -0.62757
 Alpha  occ. eigenvalues --   -0.60904  -0.56309  -0.55991  -0.54016  -0.50616
 Alpha  occ. eigenvalues --   -0.49506  -0.49199  -0.47075  -0.46113  -0.43686
 Alpha virt. eigenvalues --    0.03376   0.03717   0.04200   0.05010   0.05780
 Alpha virt. eigenvalues --    0.06465   0.08574   0.09474   0.10398   0.11206
 Alpha virt. eigenvalues --    0.12817   0.13449   0.14247   0.14761   0.14873

 Mulliken charges:
               1
     1  Cl   0.010009
     2  Cl   0.061844
     3  O   -1.234233
     4  O   -1.344795
     5  N    0.204756
     6  C   -1.181527
     7  C    2.429460
     8  C   -0.167604
     9  H    0.411112
    10  H    0.230055
    11  H    0.161501
    12  H    0.209769
    13  H    0.209653
 Sum of Mulliken charges =   0.00000

 Dipole moment (field-independent basis, Debye):
    X=             -0.1679    Y=             -1.1166    Z=             -0.3933  Tot=              1.1957

 Test job not archived.
 1\1\GINC-SE169\SP\RHF\Aug-CC-pVDZ\C3H5Cl2N1O2\OHZDE\05-Apr-2025\0\\#t
 hf aug-cc-pvdz iop(5/13=1,5/36=2,99/5=2) pseudo=read geom=check guess=
 (read,tcheck) scf=(maxcycle=1)\\title\\0,1\Cl,0,0.728531,1.497292,0.77
 264\Cl,0,2.223389,-0.562465,-0.591632\O,0,-2.668641,-0.24039,0.519523\
 O,0,-1.881708,0.532517,-1.435981\N,0,0.638389,0.232441,-0.474123\C,0,-
 0.389595,-0.778712,-0.100354\C,0,-1.770143,-0.126666,-0.269201\C,0,-0.
 253722,-1.474534,1.243293\H,0,-2.779254,0.895548,-1.477125\H,0,-0.3052
 43,-1.508256,-0.910817\H,0,0.72626,-1.938756,1.327217\H,0,-0.39512,-0.

 Normal termination of Gaussian 16 at Sat Apr  5 22:52:49 2025.
