 Gaussian 16, Revision C.01,

 ----------------------------------------------------------------------
 #t hf aug-cc-pvdz symm=none int=(grid=ultrafine) guess=(read,tcheck) s
 table=(opt,rrhf)
 ----------------------------------------------------------------------
 -----
 title
 -----
 Symbolic Z-matrix:
 Charge =  0 Multiplicity = 1

 SCF Done:  E(RHF) =  -302.088889654     A.U. after   13 cycles
 Normal termination of Gaussian 16 at Sat Apr  5 22:52:02 2025.
 Gaussian 16:  ES64L-G16RevC.01  3-Jul-2019

 ----------------------------------------------------------------------
 #t hf aug-cc-pvdz iop(5/13=1,5/36=2,99/5=2) pseudo=read geom=check gue
 ss=(read,tcheck) scf=(maxcycle=1)
 ----------------------------------------------------------------------
 -----
 title
 -----
 Structure from the checkpoint file:  "N-N--dimethylurea.chk"
 Charge =  0 Multiplicity = 1

                         Standard orientation:
 ---------------------------------------------------------------------
 Center     Atomic      Atomic             Coordinates (Angstroms)
 Number     Number       Type             X           Y           Z
 ---------------------------------------------------------------------
      1          6           0       -0.000000    0.000000    0.096002
      2          6           0        0.000000    2.447119    0.009890
      3          6           0       -0.000000   -2.447119    0.009890
      4          7           0        0.094200    1.156237   -0.651588
      5          7           0       -0.094200   -1.156237   -0.651588
      6          8           0       -0.000000    0.000000    1.316825
      7          1           0       -1.012864    2.672349    0.355132
      8          1           0        0.320580    3.222188   -0.683998
      9          1           0        0.658299    2.453848    0.874307
     10          1           0        1.012864   -2.672349    0.355132
     11          1           0       -0.320580   -3.222188   -0.683998
     12          1           0       -0.658299   -2.453848    0.874307
     13          1           0       -0.241505    1.113406   -1.598970
     14          1           0        0.241505   -1.113406   -1.598970
 ---------------------------------------------------------------------

 SCF Done:  E(RHF) =  -302.403759436     A.U. after    2 cycles

 The electronic state is 1-A.
 Alpha  occ. eigenvalues --  -20.49439 -15.51784 -15.51706 -11.37285 -11.26355
 Alpha  occ. eigenvalues --  -11.26351  -1.45341  -1.25426  -1.20356  -0.98592
 Alpha  occ. eigenvalues --   -0.92027  -0.81980  -0.78861  -0.69257  -0.66090
 Alpha  occ. eigenvalues --   -0.62251  -0.61714  -0.60907  -0.55484  -0.55450
 Alpha  occ. eigenvalues --   -0.54017  -0.43814  -0.42540  -0.41628
 Alpha virt. eigenvalues --    0.02778   0.04213   0.04849   0.05673   0.05749
 Alpha virt. eigenvalues --    0.05961   0.07186   0.07791   0.10056   0.12131
 Alpha virt. eigenvalues --    0.12985   0.13850   0.14225   0.15936   0.15983

 Mulliken charges:
               1
     1  C    0.044361
     2  C   -0.312616
     3  C   -0.312616
     4  N    0.459171
     5  N    0.459171
     6  O   -1.227313
     7  H    0.156558
     8  H    0.061148
     9  H    0.129672
    10  H    0.156558
    11  H    0.061148
    12  H    0.129672
    13  H    0.097543
    14  H    0.097543
 Sum of Mulliken charges =   0.00000

 Dipole moment (field-independent basis, Debye):
    X=             -0.0000    Y=             -0.0000    Z=             -3.6748  Tot=              3.6748

 Test job not archived.
 1\1\GINC-SE152\SP\RHF\Aug-CC-pVDZ\C3H8N2O1\OHZDE\05-Apr-2025\0\\#t hf
 aug-cc-pvdz iop(5/13=1,5/36=2,99/5=2) pseudo=read geom=check guess=(re
 ad,tcheck) scf=(maxcycle=1)\\title\\0,1\C,0,0.,0.,0.096002\C,0,0.,2.44
 7119,0.00989\C,0,0.,-2.447119,0.00989\N,0,0.0942,1.156237,-0.651588\N,
 0,-0.0942,-1.156237,-0.651588\O,0,0.,0.,1.316825\H,0,-1.012864,2.67234
 9,0.355132\H,0,0.32058,3.222188,-0.683998\H,0,0.658299,2.453848,0.8743
 07\H,0,1.012864,-2.672349,0.355132\H,0,-0.32058,-3.222188,-0.683998\H,
 0,-0.658299,-2.453848,0.874307\H,0,-0.241505,1.113406,-1.59897\H,0,0.2

 Normal termination of Gaussian 16 at Sat Apr  5 22:52:47 2025.
