 Gaussian 16, Revision C.01,

 ----------------------------------------------------------------------
 #t hf aug-cc-pvdz symm=none int=(grid=ultrafine) guess=(read,tcheck) s
 table=(opt,rrhf)
 ----------------------------------------------------------------------
 -----
 title
 -----
 Symbolic Z-matrix:
 Charge =  0 Multiplicity = 1

 SCF Done:  E(RHF) =  -330.669169225     A.U. after   14 cycles
 Normal termination of Gaussian 16 at Sat Apr  5 22:51:33 2025.
 Gaussian 16:  ES64L-G16RevC.01  3-Jul-2019

 ----------------------------------------------------------------------
 #t hf aug-cc-pvdz iop(5/13=1,5/36=2,99/5=2) pseudo=read geom=check gue
 ss=(read,tcheck) scf=(maxcycle=1)
 ----------------------------------------------------------------------
 -----
 title
 -----
 Structure from the checkpoint file:  "N-N-difluoroethenamine.chk"
 Charge =  0 Multiplicity = 1

                         Standard orientation:
 ---------------------------------------------------------------------
 Center     Atomic      Atomic             Coordinates (Angstroms)
 Number     Number       Type             X           Y           Z
 ---------------------------------------------------------------------
      1          9           0        1.116105    1.093260    0.040175
      2          9           0        1.116118   -1.093252    0.040168
      3          7           0        0.345864   -0.000000   -0.426963
      4          6           0       -0.813920   -0.000009    0.420336
      5          6           0       -2.001377   -0.000000   -0.157052
      6          1           0       -0.622645   -0.000022    1.485320
      7          1           0       -2.091523    0.000012   -1.234028
      8          1           0       -2.905105   -0.000005    0.434659
 ---------------------------------------------------------------------

 SCF Done:  E(RHF) =  -330.982048693     A.U. after    2 cycles

 The electronic state is 1-A.
 Alpha  occ. eigenvalues --  -26.49998 -26.49993 -15.72002 -11.30582 -11.28447
 Alpha  occ. eigenvalues --   -1.65816  -1.57054  -1.19619  -1.03327  -0.85743
 Alpha  occ. eigenvalues --   -0.77263  -0.75845  -0.73511  -0.67713  -0.64973
 Alpha  occ. eigenvalues --   -0.61274  -0.60378  -0.59113  -0.51788  -0.43352
 Alpha virt. eigenvalues --    0.03368   0.04524   0.05197   0.07405   0.10833
 Alpha virt. eigenvalues --    0.11405   0.11768   0.14302   0.14854   0.15961
 Alpha virt. eigenvalues --    0.17102   0.17480   0.17752   0.18809   0.20809

 Mulliken charges:
               1
     1  F   -0.618807
     2  F   -0.618807
     3  N    1.396751
     4  C   -0.218992
     5  C    0.079069
     6  H    0.043552
     7  H   -0.027317
     8  H   -0.035449
 Sum of Mulliken charges =   0.00000

 Dipole moment (field-independent basis, Debye):
    X=             -2.9290    Y=             -0.0000    Z=              0.8091  Tot=              3.0387

 Test job not archived.
 1\1\GINC-SE173\SP\RHF\Aug-CC-pVDZ\C2H3F2N1\OHZDE\05-Apr-2025\0\\#t hf
 aug-cc-pvdz iop(5/13=1,5/36=2,99/5=2) pseudo=read geom=check guess=(re
 ad,tcheck) scf=(maxcycle=1)\\title\\0,1\F,0,1.116105,1.09326,0.040175\
 F,0,1.116118,-1.093252,0.040168\N,0,0.345864,0.,-0.426963\C,0,-0.81392
 ,-0.000009,0.420336\C,0,-2.001377,0.,-0.157052\H,0,-0.622645,-0.000022
 ,1.48532\H,0,-2.091523,0.000012,-1.234028\H,0,-2.905105,-0.000005,0.43
 4659\\Version=ES64L-G16RevC.01\State=1-A\HF=-330.9820487\RMSD=1.685e-0
 2\Dipole=-1.1523544,-0.0000065,0.3183112\Quadrupole=2.0262506,-2.63619

 Normal termination of Gaussian 16 at Sat Apr  5 22:51:40 2025.
