 Gaussian 16, Revision C.01,

 ----------------------------------------------------------------------
 #t hf aug-cc-pvdz symm=none int=(grid=ultrafine) guess=(read,tcheck) s
 table=(opt,rrhf)
 ----------------------------------------------------------------------
 -----
 title
 -----
 Symbolic Z-matrix:
 Charge =  0 Multiplicity = 1

 SCF Done:  E(RHF) =  -736.500568424     A.U. after   13 cycles
 Normal termination of Gaussian 16 at Sat Apr  5 22:52:03 2025.
 Gaussian 16:  ES64L-G16RevC.01  3-Jul-2019

 ----------------------------------------------------------------------
 #t hf aug-cc-pvdz iop(5/13=1,5/36=2,99/5=2) pseudo=read geom=check gue
 ss=(read,tcheck) scf=(maxcycle=1)
 ----------------------------------------------------------------------
 -----
 title
 -----
 Structure from the checkpoint file:  "N-N--dimethylsulfamide.chk"
 Charge =  0 Multiplicity = 1

                         Standard orientation:
 ---------------------------------------------------------------------
 Center     Atomic      Atomic             Coordinates (Angstroms)
 Number     Number       Type             X           Y           Z
 ---------------------------------------------------------------------
      1          6           0       -2.061141    1.167898    0.047427
      2          6           0        2.042644    1.195619   -0.057100
      3          7           0       -0.984023    0.568342   -0.743304
      4          7           0        1.205917    0.297792    0.735190
      5          8           0       -0.706460   -1.214268    1.093487
      6          8           0        0.585495   -1.313495   -1.089732
      7         16           0        0.003297   -0.568296    0.006116
      8          1           0       -2.593209    1.870367   -0.591540
      9          1           0       -1.635479    1.730384    0.877392
     10          1           0       -2.760962    0.433271    0.448081
     11          1           0        1.506342    2.078498   -0.412353
     12          1           0        2.430424    0.647758   -0.912276
     13          1           0        2.883696    1.505789    0.560159
     14          1           0       -1.279673    0.182618   -1.630608
     15          1           0        0.921539    0.622114    1.648067
 ---------------------------------------------------------------------

 SCF Done:  E(RHF) =  -736.918421717     A.U. after    2 cycles

 The electronic state is 1-A.
 Alpha  occ. eigenvalues --  -94.23073 -20.53890 -20.53804 -15.54315 -15.54228
 Alpha  occ. eigenvalues --  -11.28749 -11.28415  -8.47660  -6.45804  -6.45609
 Alpha  occ. eigenvalues --   -6.45536  -1.56876  -1.44344  -1.26249  -1.23156
 Alpha  occ. eigenvalues --   -0.99755  -0.96338  -0.87041  -0.77778  -0.72794
 Alpha  occ. eigenvalues --   -0.70936  -0.68340  -0.65295  -0.63256  -0.61777
 Alpha  occ. eigenvalues --   -0.58295  -0.57829  -0.52021  -0.50776  -0.49286
 Alpha  occ. eigenvalues --   -0.47734  -0.46818  -0.44930
 Alpha virt. eigenvalues --    0.02883   0.03730   0.04515   0.04989   0.05632
 Alpha virt. eigenvalues --    0.05952   0.06798   0.08164   0.09775   0.11893
 Alpha virt. eigenvalues --    0.12383   0.13115   0.14756   0.15146   0.15241

 Mulliken charges:
               1
     1  C   -0.440238
     2  C   -0.426748
     3  N   -0.196148
     4  N   -0.084086
     5  O   -1.472774
     6  O   -1.517553
     7  S    3.098921
     8  H    0.067175
     9  H    0.112604
    10  H    0.146368
    11  H    0.163309
    12  H    0.161820
    13  H    0.060286
    14  H    0.177421
    15  H    0.149644
 Sum of Mulliken charges =  -0.00000

 Dipole moment (field-independent basis, Debye):
    X=             -0.7237    Y=              4.8638    Z=              0.0612  Tot=              4.9177

 Test job not archived.
 1\1\GINC-SE223\SP\RHF\Aug-CC-pVDZ\C2H8N2O2S1\OHZDE\05-Apr-2025\0\\#t h
 f aug-cc-pvdz iop(5/13=1,5/36=2,99/5=2) pseudo=read geom=check guess=(
 read,tcheck) scf=(maxcycle=1)\\title\\0,1\C,0,-2.061141,1.167898,0.047
 427\C,0,2.042644,1.195619,-0.0571\N,0,-0.984023,0.568342,-0.743304\N,0
 ,1.205917,0.297792,0.73519\O,0,-0.70646,-1.214268,1.093487\O,0,0.58549
 5,-1.313495,-1.089732\S,0,0.003297,-0.568296,0.006116\H,0,-2.593209,1.
 870367,-0.59154\H,0,-1.635479,1.730384,0.877392\H,0,-2.760962,0.433271
 ,0.448081\H,0,1.506342,2.078498,-0.412353\H,0,2.430424,0.647758,-0.912

 Normal termination of Gaussian 16 at Sat Apr  5 22:52:50 2025.
