 Gaussian 16, Revision C.01,

 ----------------------------------------------------------------------
 #t hf aug-cc-pvdz symm=none int=(grid=ultrafine) guess=(read,tcheck) s
 table=(opt,rrhf)
 ----------------------------------------------------------------------
 -----
 title
 -----
 Symbolic Z-matrix:
 Charge =  0 Multiplicity = 1

 SCF Done:  E(RHF) =  -305.222886156     A.U. after   14 cycles

 1\1\GINC-SE154\Stability\RHF\Aug-CC-pVDZ\C5H12N2\OHZDE\05-Apr-2025\0\\
 #t hf aug-cc-pvdz symm=none int=(grid=ultrafine) guess=(read,tcheck) s
 table=(opt,rrhf)\\title\\0,1\C,0,-0.187905,0.651224,0.062869\C,0,0.516
 351,1.963676,0.319752\C,0,-2.243533,-0.480238,-0.361032\C,0,0.408532,-
 1.679218,0.623345\C,0,2.013376,-0.300958,-0.547808\N,0,-1.463119,0.665
 717,0.054242\N,0,0.62009,-0.477546,-0.174016\H,0,-0.225648,2.696922,0.
 619317\H,0,1.012868,2.331307,-0.580297\H,0,1.278208,1.87296,1.096432\H
 ,0,-3.133483,-0.114305,-0.874912\H,0,-2.599264,-1.057251,0.498552\H,0,

 Normal termination of Gaussian 16 at Sat Apr  5 22:52:21 2025.
 Gaussian 16:  ES64L-G16RevC.01  3-Jul-2019

 ----------------------------------------------------------------------
 #t hf aug-cc-pvdz iop(5/13=1,5/36=2,99/5=2) pseudo=read geom=check gue
 ss=(read,tcheck) scf=(maxcycle=1)
 ----------------------------------------------------------------------
 -----
 title
 -----
 Structure from the checkpoint file:  "N-N-N--trimethylethanimidamide.chk"
 Charge =  0 Multiplicity = 1

                         Standard orientation:
 ---------------------------------------------------------------------
 Center     Atomic      Atomic             Coordinates (Angstroms)
 Number     Number       Type             X           Y           Z
 ---------------------------------------------------------------------
      1          6           0       -0.187905    0.651224    0.062869
      2          6           0        0.516349    1.963676    0.319752
      3          6           0       -2.243533   -0.480240   -0.361032
      4          6           0        0.408533   -1.679218    0.623345
      5          6           0        2.013376   -0.300956   -0.547808
      6          7           0       -1.463120    0.665716    0.054242
      7          7           0        0.620090   -0.477546   -0.174016
      8          1           0       -0.225650    2.696922    0.619317
      9          1           0        1.012866    2.331308   -0.580297
     10          1           0        1.278207    1.872961    1.096432
     11          1           0       -3.133483   -0.114307   -0.874912
     12          1           0       -2.599263   -1.057253    0.498552
     13          1           0       -1.707656   -1.161889   -1.031043
     14          1           0        1.084453   -1.699901    1.489156
     15          1           0        0.600245   -2.572869    0.025300
     16          1           0       -0.607802   -1.727618    0.994091
     17          1           0        2.367241   -1.220178   -1.017111
     18          1           0        2.668083   -0.091651    0.309584
     19          1           0        2.123038    0.500367   -1.273403
 ---------------------------------------------------------------------

 SCF Done:  E(RHF) =  -305.552104321     A.U. after    2 cycles

 The electronic state is 1-A.
 Alpha  occ. eigenvalues --  -15.50400 -15.46237 -11.30562 -11.26589 -11.26422
 Alpha  occ. eigenvalues --  -11.23890 -11.22891  -1.26612  -1.17792  -1.01603
 Alpha  occ. eigenvalues --   -0.97162  -0.92666  -0.90417  -0.74795  -0.68404
 Alpha  occ. eigenvalues --   -0.67288  -0.66283  -0.60122  -0.59273  -0.58181
 Alpha  occ. eigenvalues --   -0.56462  -0.56043  -0.55141  -0.54250  -0.52613
 Alpha  occ. eigenvalues --   -0.44885  -0.42388  -0.37064
 Alpha virt. eigenvalues --    0.03504   0.04194   0.04313   0.04594   0.05311
 Alpha virt. eigenvalues --    0.05576   0.06249   0.06490   0.06722   0.09017
 Alpha virt. eigenvalues --    0.09574   0.10134   0.10493   0.13513   0.14103

 Mulliken charges:
               1
     1  C   -2.076817
     2  C   -0.302998
     3  C   -0.342087
     4  C   -0.274003
     5  C   -0.262521
     6  N    0.954055
     7  N    0.679982
     8  H    0.087711
     9  H    0.303813
    10  H    0.281137
    11  H   -0.037274
    12  H    0.192379
    13  H    0.224156
    14  H    0.237474
    15  H    0.143865
    16  H   -0.107064
    17  H    0.045753
    18  H    0.180466
    19  H    0.071971
 Sum of Mulliken charges =  -0.00000

 Dipole moment (field-independent basis, Debye):
    X=              2.6948    Y=             -1.3654    Z=              0.0688  Tot=              3.0218

 Test job not archived.
 1\1\GINC-SE154\SP\RHF\Aug-CC-pVDZ\C5H12N2\OHZDE\05-Apr-2025\0\\#t hf a
 ug-cc-pvdz iop(5/13=1,5/36=2,99/5=2) pseudo=read geom=check guess=(rea
 d,tcheck) scf=(maxcycle=1)\\title\\0,1\C,0,-0.187905,0.651224,0.062869
 \C,0,0.516351,1.963676,0.319752\C,0,-2.243533,-0.480238,-0.361032\C,0,
 0.408532,-1.679218,0.623345\C,0,2.013376,-0.300958,-0.547808\N,0,-1.46
 3119,0.665717,0.054242\N,0,0.62009,-0.477546,-0.174016\H,0,-0.225648,2
 .696922,0.619317\H,0,1.012868,2.331307,-0.580297\H,0,1.278208,1.87296,
 1.096432\H,0,-3.133483,-0.114305,-0.874912\H,0,-2.599264,-1.057251,0.4

 Normal termination of Gaussian 16 at Sat Apr  5 22:52:51 2025.
