 Gaussian 16, Revision C.01,

 ----------------------------------------------------------------------
 #t hf aug-cc-pvdz symm=none int=(grid=ultrafine) guess=(read,tcheck) s
 table=(opt,rrhf)
 ----------------------------------------------------------------------
 -----
 title
 -----
 Symbolic Z-matrix:
 Charge =  0 Multiplicity = 1

 SCF Done:  E(RHF) =  -247.023993251     A.U. after   13 cycles
 Normal termination of Gaussian 16 at Sat Apr  5 22:51:48 2025.
 Gaussian 16:  ES64L-G16RevC.01  3-Jul-2019

 ----------------------------------------------------------------------
 #t hf aug-cc-pvdz iop(5/13=1,5/36=2,99/5=2) pseudo=read geom=check gue
 ss=(read,tcheck) scf=(maxcycle=1)
 ----------------------------------------------------------------------
 -----
 title
 -----
 Structure from the checkpoint file:  "N-N-dimethylformamide.chk"
 Charge =  0 Multiplicity = 1

                         Standard orientation:
 ---------------------------------------------------------------------
 Center     Atomic      Atomic             Coordinates (Angstroms)
 Number     Number       Type             X           Y           Z
 ---------------------------------------------------------------------
      1          6           0       -0.691463   -0.825035    0.000000
      2          6           0        1.451045    0.342396    0.000000
      3          6           0       -0.673160    1.625303    0.000000
      4          7           0        0.000000    0.344183    0.000000
      5          8           0       -0.204681   -1.939050    0.000000
      6          1           0       -1.782485   -0.660464    0.000000
      7          1           0        1.835600    0.852868    0.886378
      8          1           0        1.835600    0.852868   -0.886378
      9          1           0        1.793661   -0.687964    0.000000
     10          1           0       -0.406192    2.208353    0.885441
     11          1           0       -1.751076    1.473118    0.000000
     12          1           0       -0.406192    2.208353   -0.885441
 ---------------------------------------------------------------------

 SCF Done:  E(RHF) =  -247.280759589     A.U. after    2 cycles

 The electronic state is 1-A'.
 Alpha  occ. eigenvalues --  -20.50779 -15.53157 -11.35350 -11.28538 -11.26900
 Alpha  occ. eigenvalues --   -1.45348  -1.26187  -0.99750  -0.97159  -0.79774
 Alpha  occ. eigenvalues --   -0.72719  -0.67803  -0.67119  -0.59766  -0.58109
 Alpha  occ. eigenvalues --   -0.57761  -0.55532  -0.53744  -0.42442  -0.39946
 Alpha virt. eigenvalues --    0.02993   0.04357   0.04621   0.04915   0.06491
 Alpha virt. eigenvalues --    0.06952   0.07616   0.09931   0.10002   0.13038
 Alpha virt. eigenvalues --    0.13906   0.14952   0.15399   0.15428   0.16671

 Mulliken charges:
               1
     1  C    0.598519
     2  C   -0.374789
     3  C   -0.428979
     4  N    0.555008
     5  O   -1.102597
     6  H    0.073097
     7  H    0.160311
     8  H    0.160311
     9  H    0.003061
    10  H    0.169173
    11  H    0.017711
    12  H    0.169173
 Sum of Mulliken charges =  -0.00000

 Dipole moment (field-independent basis, Debye):
    X=             -0.4416    Y=              4.0751    Z=             -0.0000  Tot=              4.0989

 Test job not archived.
 1\1\GINC-SE202\SP\RHF\Aug-CC-pVDZ\C3H7N1O1\OHZDE\05-Apr-2025\0\\#t hf
 aug-cc-pvdz iop(5/13=1,5/36=2,99/5=2) pseudo=read geom=check guess=(re
 ad,tcheck) scf=(maxcycle=1)\\title\\0,1\C,0,-0.691463,-0.825035,0.\C,0
 ,1.451045,0.342396,0.\C,0,-0.67316,1.625303,0.\N,0,0.,0.344183,0.\O,0,
 -0.204681,-1.93905,0.\H,0,-1.782485,-0.660464,0.\H,0,1.8356,0.852868,0
 .886378\H,0,1.8356,0.852868,-0.886378\H,0,1.793661,-0.687964,0.\H,0,-0
 .406192,2.208353,0.885441\H,0,-1.751076,1.473118,0.\H,0,-0.406192,2.20
 8353,-0.885441\\Version=ES64L-G16RevC.01\State=1-A'\HF=-247.2807596\RM

 Normal termination of Gaussian 16 at Sat Apr  5 22:52:47 2025.
