 Gaussian 16, Revision C.01,

 ----------------------------------------------------------------------
 #t hf aug-cc-pvdz symm=none int=(grid=ultrafine) guess=(read,tcheck) s
 table=(opt,rrhf)
 ----------------------------------------------------------------------
 -----
 title
 -----
 Symbolic Z-matrix:
 Charge =  0 Multiplicity = 1

 SCF Done:  E(RHF) =  -407.548258953     A.U. after   15 cycles
 Normal termination of Gaussian 16 at Sat Apr  5 22:53:00 2025.
 Gaussian 16:  ES64L-G16RevC.01  3-Jul-2019

 ----------------------------------------------------------------------
 #t hf aug-cc-pvdz iop(5/13=1,5/36=2,99/5=2) pseudo=read geom=check gue
 ss=(read,tcheck) scf=(maxcycle=1)
 ----------------------------------------------------------------------
 -----
 title
 -----
 Structure from the checkpoint file:  "N-N-difluorobut-2-yn-1-amine.chk"
 Charge =  0 Multiplicity = 1

                         Standard orientation:
 ---------------------------------------------------------------------
 Center     Atomic      Atomic             Coordinates (Angstroms)
 Number     Number       Type             X           Y           Z
 ---------------------------------------------------------------------
      1          9           0        2.662788   -0.389952   -0.184145
      2          9           0        1.350478    1.307291    0.242723
      3          7           0        1.365233    0.093381   -0.468109
      4          6           0        0.486442   -0.814523    0.318269
      5          6           0       -0.906899   -0.447656    0.149345
      6          6           0       -3.460800    0.209456   -0.144708
      7          6           0       -2.062686   -0.155069    0.017364
      8          1           0        0.689215   -1.805176   -0.090461
      9          1           0        0.800414   -0.789621    1.363966
     10          1           0       -3.548554    1.185872   -0.623577
     11          1           0       -3.988577   -0.517719   -0.763260
     12          1           0       -3.964868    0.263674    0.821272
 ---------------------------------------------------------------------

 SCF Done:  E(RHF) =  -407.943627144     A.U. after    2 cycles

 The electronic state is 1-A.
 Alpha  occ. eigenvalues --  -26.50033 -26.49917 -15.71786 -11.32503 -11.27016
 Alpha  occ. eigenvalues --  -11.25951 -11.24727  -1.65966  -1.57266  -1.18364
 Alpha  occ. eigenvalues --   -1.07713  -1.00111  -0.93874  -0.77815  -0.76755
 Alpha  occ. eigenvalues --   -0.76065  -0.68201  -0.65705  -0.65036  -0.62643
 Alpha  occ. eigenvalues --   -0.61100  -0.60799  -0.60508  -0.59601  -0.51331
 Alpha  occ. eigenvalues --   -0.41021  -0.40184
 Alpha virt. eigenvalues --    0.03055   0.03977   0.04651   0.05457   0.06201
 Alpha virt. eigenvalues --    0.08402   0.09750   0.11998   0.13233   0.13506
 Alpha virt. eigenvalues --    0.14127   0.14505   0.15429   0.15640   0.16166

 Mulliken charges:
               1
     1  F   -0.654035
     2  F   -0.630825
     3  N    1.420504
     4  C   -0.962937
     5  C    0.552007
     6  C   -0.785149
     7  C   -0.324469
     8  H    0.219996
     9  H    0.315274
    10  H    0.292085
    11  H    0.276922
    12  H    0.280626
 Sum of Mulliken charges =   0.00000

 Dipole moment (field-independent basis, Debye):
    X=             -2.8580    Y=             -1.3812    Z=              0.8356  Tot=              3.2825

 Test job not archived.
 1\1\GINC-SE171\SP\RHF\Aug-CC-pVDZ\C4H5F2N1\OHZDE\05-Apr-2025\0\\#t hf
 aug-cc-pvdz iop(5/13=1,5/36=2,99/5=2) pseudo=read geom=check guess=(re
 ad,tcheck) scf=(maxcycle=1)\\title\\0,1\F,0,2.662788,-0.389952,-0.1841
 45\F,0,1.350478,1.307291,0.242723\N,0,1.365233,0.093381,-0.468109\C,0,
 0.486442,-0.814523,0.318269\C,0,-0.906899,-0.447656,0.149345\C,0,-3.46
 08,0.209456,-0.144708\C,0,-2.062686,-0.155069,0.017364\H,0,0.689215,-1
 .805176,-0.090461\H,0,0.800414,-0.789621,1.363966\H,0,-3.548554,1.1858
 72,-0.623577\H,0,-3.988577,-0.517719,-0.76326\H,0,-3.964868,0.263674,0

 Normal termination of Gaussian 16 at Sat Apr  5 22:53:11 2025.
