 Gaussian 16, Revision C.01,

 ----------------------------------------------------------------------
 #t hf aug-cc-pvdz symm=none int=(grid=ultrafine) guess=(read,tcheck) s
 table=(opt,rrhf)
 ----------------------------------------------------------------------
 -----
 title
 -----
 Symbolic Z-matrix:
 Charge =  0 Multiplicity = 1

 SCF Done:  E(RHF) =  -817.539466011     A.U. after   15 cycles
 Normal termination of Gaussian 16 at Sat Apr  5 22:53:56 2025.
 Gaussian 16:  ES64L-G16RevC.01  3-Jul-2019

 ----------------------------------------------------------------------
 #t hf aug-cc-pvdz iop(5/13=1,5/36=2,99/5=2) pseudo=read geom=check gue
 ss=(read,tcheck) scf=(maxcycle=1)
 ----------------------------------------------------------------------
 -----
 title
 -----
 Structure from the checkpoint file:  "N-oxomethylene-beta-alanyl_chloride.chk"
 Charge =  0 Multiplicity = 1

                         Standard orientation:
 ---------------------------------------------------------------------
 Center     Atomic      Atomic             Coordinates (Angstroms)
 Number     Number       Type             X           Y           Z
 ---------------------------------------------------------------------
      1         17           0       -3.060401   -0.655123   -0.000036
      2          8           0       -1.695936    1.586291    0.000019
      3          8           0        4.467584   -0.178785   -0.000057
      4          7           0        2.105957   -0.328874    0.000063
      5          6           0       -0.315239   -0.391161    0.000014
      6          6           0        0.924008    0.501299    0.000045
      7          6           0       -1.585387    0.409377    0.000004
      8          6           0        3.297525   -0.188848   -0.000003
      9          1           0       -0.325259   -1.048562    0.871003
     10          1           0       -0.325232   -1.048540   -0.870992
     11          1           0        0.918478    1.146124    0.879487
     12          1           0        0.918511    1.146144   -0.879383
 ---------------------------------------------------------------------

 SCF Done:  E(RHF) =  -817.967412169     A.U. after    2 cycles

 The electronic state is 1-A.
 Alpha  occ. eigenvalues -- -105.58788 -20.60528 -20.60058 -15.54137 -11.43538
 Alpha  occ. eigenvalues --  -11.42189 -11.32790 -11.29545 -10.63642  -7.80564
 Alpha  occ. eigenvalues --   -7.80196  -7.80180  -1.55093  -1.54982  -1.29795
 Alpha  occ. eigenvalues --   -1.13428  -1.08347  -0.97080  -0.79622  -0.78243
 Alpha  occ. eigenvalues --   -0.73498  -0.71872  -0.69895  -0.68137  -0.66642
 Alpha  occ. eigenvalues --   -0.66026  -0.60979  -0.58864  -0.55595  -0.49670
 Alpha  occ. eigenvalues --   -0.48492  -0.47840  -0.46193  -0.45912
 Alpha virt. eigenvalues --    0.02988   0.04318   0.04500   0.05971   0.06711
 Alpha virt. eigenvalues --    0.08426   0.09378   0.09610   0.09664   0.10436
 Alpha virt. eigenvalues --    0.10451   0.11908   0.13682   0.13916   0.14412

 Mulliken charges:
               1
     1  Cl  -0.126415
     2  O   -1.095745
     3  O   -0.938955
     4  N    0.863664
     5  C   -0.366330
     6  C   -0.119436
     7  C    0.839456
     8  C    0.221007
     9  H    0.294252
    10  H    0.294250
    11  H    0.067133
    12  H    0.067119
 Sum of Mulliken charges =  -0.00000

 Dipole moment (field-independent basis, Debye):
    X=              0.1560    Y=             -0.3001    Z=             -0.0000  Tot=              0.3382

 Test job not archived.
 1\1\GINC-SE115\SP\RHF\Aug-CC-pVDZ\C4H4Cl1N1O2\OHZDE\05-Apr-2025\0\\#t
 hf aug-cc-pvdz iop(5/13=1,5/36=2,99/5=2) pseudo=read geom=check guess=
 (read,tcheck) scf=(maxcycle=1)\\title\\0,1\Cl,0,-3.060401,-0.655123,-0
 .000036\O,0,-1.695936,1.586291,0.000019\O,0,4.467584,-0.178785,-0.0000
 57\N,0,2.105957,-0.328874,0.000063\C,0,-0.315239,-0.391161,0.000014\C,
 0,0.924008,0.501299,0.000045\C,0,-1.585387,0.409377,0.000004\C,0,3.297
 525,-0.188848,-0.000003\H,0,-0.325259,-1.048562,0.871003\H,0,-0.325232
 ,-1.04854,-0.870992\H,0,0.918478,1.146124,0.879487\H,0,0.918511,1.1461

 Normal termination of Gaussian 16 at Sat Apr  5 22:54:38 2025.
