 Gaussian 16, Revision C.01,

 ----------------------------------------------------------------------
 #t hf aug-cc-pvdz symm=none int=(grid=ultrafine) guess=(read,tcheck) s
 table=(opt,rrhf)
 ----------------------------------------------------------------------
 -----
 title
 -----
 Symbolic Z-matrix:
 Charge =  0 Multiplicity = 1

 SCF Done:  E(RHF) =  -793.054177044     A.U. after   17 cycles
 Normal termination of Gaussian 16 at Sat Apr  5 22:54:16 2025.
 Gaussian 16:  ES64L-G16RevC.01  3-Jul-2019

 ----------------------------------------------------------------------
 #t hf aug-cc-pvdz iop(5/13=1,5/36=2,99/5=2) pseudo=read geom=check gue
 ss=(read,tcheck) scf=(maxcycle=1)
 ----------------------------------------------------------------------
 -----
 title
 -----
 Structure from the checkpoint file:  "N-oxocysteine.chk"
 Charge =  0 Multiplicity = 1

                         Standard orientation:
 ---------------------------------------------------------------------
 Center     Atomic      Atomic             Coordinates (Angstroms)
 Number     Number       Type             X           Y           Z
 ---------------------------------------------------------------------
      1         16           0        2.138126   -0.471424   -0.497762
      2          8           0       -1.262728    1.239322   -1.123753
      3          8           0       -0.184106    2.173393    0.574489
      4          8           0       -2.195916   -1.611940    0.020091
      5          7           0       -1.071021   -1.335428   -0.264211
      6          6           0       -0.489680   -0.243773    0.615987
      7          6           0       -0.694454    1.099412   -0.085165
      8          6           0        0.973673   -0.594469    0.910781
      9          1           0        2.200865    0.872262   -0.543734
     10          1           0        0.192088    1.925376    1.427496
     11          1           0       -1.071763   -0.233746    1.544268
     12          1           0        1.349553   -0.008418    1.748575
     13          1           0        1.021152   -1.637918    1.220832
 ---------------------------------------------------------------------

 SCF Done:  E(RHF) =  -793.496677402     A.U. after    2 cycles

 The electronic state is 1-A.
 Alpha  occ. eigenvalues --  -93.97688 -20.64118 -20.62907 -20.56174 -15.66423
 Alpha  occ. eigenvalues --  -11.42402 -11.32890 -11.32152  -8.25730  -6.23574
 Alpha  occ. eigenvalues --   -6.23430  -6.23192  -1.62604  -1.57023  -1.48386
 Alpha  occ. eigenvalues --   -1.17022  -1.06611  -0.95985  -0.91309  -0.84882
 Alpha  occ. eigenvalues --   -0.78272  -0.74457  -0.71380  -0.67454  -0.66939
 Alpha  occ. eigenvalues --   -0.64555  -0.63427  -0.60437  -0.58758  -0.56081
 Alpha  occ. eigenvalues --   -0.50235  -0.49219  -0.46900  -0.43426  -0.39182
 Alpha virt. eigenvalues --    0.01677   0.03541   0.04064   0.05017   0.05398
 Alpha virt. eigenvalues --    0.06474   0.08836   0.09600   0.11116   0.11321
 Alpha virt. eigenvalues --    0.11604   0.12542   0.13428   0.14097   0.14647

 Mulliken charges:
               1
     1  S    0.105375
     2  O   -1.240257
     3  O   -1.293021
     4  O   -1.028398
     5  N    1.398278
     6  C   -1.064803
     7  C    2.306517
     8  C   -0.599735
     9  H    0.350106
    10  H    0.432829
    11  H    0.256463
    12  H    0.116446
    13  H    0.260201
 Sum of Mulliken charges =  -0.00000

 Dipole moment (field-independent basis, Debye):
    X=              2.1112    Y=              0.3008    Z=              5.3454  Tot=              5.7551

 Test job not archived.
 1\1\GINC-SE085\SP\RHF\Aug-CC-pVDZ\C3H5N1O3S1\OHZDE\05-Apr-2025\0\\#t h
 f aug-cc-pvdz iop(5/13=1,5/36=2,99/5=2) pseudo=read geom=check guess=(
 read,tcheck) scf=(maxcycle=1)\\title\\0,1\S,0,2.138126,-0.471424,-0.49
 7762\O,0,-1.262728,1.239322,-1.123753\O,0,-0.184106,2.173393,0.574489\
 O,0,-2.195916,-1.61194,0.020091\N,0,-1.071021,-1.335428,-0.264211\C,0,
 -0.48968,-0.243773,0.615987\C,0,-0.694454,1.099412,-0.085165\C,0,0.973
 673,-0.594469,0.910781\H,0,2.200865,0.872262,-0.543734\H,0,0.192088,1.
 925376,1.427496\H,0,-1.071763,-0.233746,1.544268\H,0,1.349553,-0.00841

 Normal termination of Gaussian 16 at Sat Apr  5 22:54:38 2025.
