 Gaussian 16, Revision C.01,

 ----------------------------------------------------------------------
 #t hf aug-cc-pvdz symm=none int=(grid=ultrafine) guess=(read,tcheck) s
 table=(opt,rrhf)
 ----------------------------------------------------------------------
 -----
 title
 -----
 Symbolic Z-matrix:
 Charge =  0 Multiplicity = 1

 SCF Done:  E(RHF) =  -344.966752626     A.U. after   13 cycles

 1\1\GINC-SE221\Stability\RHF\Aug-CC-pVDZ\C5H10O2\OHZDE\05-Apr-2025\0\\
 #t hf aug-cc-pvdz symm=none int=(grid=ultrafine) guess=(read,tcheck) s
 table=(opt,rrhf)\\title\\0,1\C,0,-1.505345,0.854261,0.\C,0,2.618558,-2
 .127663,0.\C,0,0.,0.771586,0.\C,0,2.06835,-0.70264,0.\C,0,0.540531,-0.
 653982,0.\O,0,-2.272406,-0.073756,0.\O,0,-1.931154,2.143966,0.\H,0,3.7
 09158,-2.132876,0.\H,0,2.28356,-2.679277,0.880542\H,0,2.28356,-2.67927
 7,-0.880542\H,0,0.357515,1.331075,-0.869047\H,0,0.357515,1.331075,0.86
 9047\H,0,2.448656,-0.165278,-0.874152\H,0,2.448656,-0.165278,0.874152\

 Normal termination of Gaussian 16 at Sat Apr  5 23:11:16 2025.
 Gaussian 16:  ES64L-G16RevC.01  3-Jul-2019

 ----------------------------------------------------------------------
 #t hf aug-cc-pvdz iop(5/13=1,5/36=2,99/5=2) pseudo=read geom=check gue
 ss=(read,tcheck) scf=(maxcycle=1)
 ----------------------------------------------------------------------
 -----
 title
 -----
 Structure from the checkpoint file:  "n-pentanoic_acid.chk"
 Charge =  0 Multiplicity = 1

                         Standard orientation:
 ---------------------------------------------------------------------
 Center     Atomic      Atomic             Coordinates (Angstroms)
 Number     Number       Type             X           Y           Z
 ---------------------------------------------------------------------
      1          6           0       -1.505345    0.854261    0.000000
      2          6           0        2.618558   -2.127663    0.000000
      3          6           0        0.000000    0.771586    0.000000
      4          6           0        2.068350   -0.702640    0.000000
      5          6           0        0.540531   -0.653982    0.000000
      6          8           0       -2.272406   -0.073756    0.000000
      7          8           0       -1.931154    2.143966    0.000000
      8          1           0        3.709158   -2.132876    0.000000
      9          1           0        2.283560   -2.679277    0.880542
     10          1           0        2.283560   -2.679277   -0.880542
     11          1           0        0.357515    1.331075   -0.869047
     12          1           0        0.357515    1.331075    0.869047
     13          1           0        2.448656   -0.165278   -0.874152
     14          1           0        2.448656   -0.165278    0.874152
     15          1           0        0.153343   -1.186524   -0.871351
     16          1           0        0.153343   -1.186524    0.871351
     17          1           0       -2.899395    2.121831    0.000000
 ---------------------------------------------------------------------

 SCF Done:  E(RHF) =  -345.327003976     A.U. after    2 cycles

 The electronic state is 1-A'.
 Alpha  occ. eigenvalues --  -20.59890 -20.53843 -11.39362 -11.25459 -11.23385
 Alpha  occ. eigenvalues --  -11.23339 -11.22538  -1.54607  -1.45152  -1.09744
 Alpha  occ. eigenvalues --   -1.02246  -0.91623  -0.82292  -0.79046  -0.70723
 Alpha  occ. eigenvalues --   -0.68968  -0.67444  -0.62976  -0.59942  -0.58954
 Alpha  occ. eigenvalues --   -0.57607  -0.54655  -0.51480  -0.49499  -0.48673
 Alpha  occ. eigenvalues --   -0.47982  -0.47467  -0.44356
 Alpha virt. eigenvalues --    0.03591   0.03639   0.04004   0.04300   0.05363
 Alpha virt. eigenvalues --    0.06491   0.07172   0.07401   0.08468   0.10301
 Alpha virt. eigenvalues --    0.11014   0.11738   0.13459   0.14128   0.14681

 Mulliken charges:
               1
     1  C    2.321928
     2  C   -0.382666
     3  C   -0.623753
     4  C   -0.225661
     5  C   -0.202916
     6  O   -1.242994
     7  O   -1.373174
     8  H    0.117807
     9  H    0.157582
    10  H    0.157582
    11  H    0.211392
    12  H    0.211392
    13  H    0.103332
    14  H    0.103332
    15  H    0.111555
    16  H    0.111555
    17  H    0.443705
 Sum of Mulliken charges =  -0.00000

 Dipole moment (field-independent basis, Debye):
    X=              1.3296    Y=              1.1364    Z=             -0.0000  Tot=              1.7491

 Test job not archived.
 1\1\GINC-SE221\SP\RHF\Aug-CC-pVDZ\C5H10O2\OHZDE\05-Apr-2025\0\\#t hf a
 ug-cc-pvdz iop(5/13=1,5/36=2,99/5=2) pseudo=read geom=check guess=(rea
 d,tcheck) scf=(maxcycle=1)\\title\\0,1\C,0,-1.505345,0.854261,0.\C,0,2
 .618558,-2.127663,0.\C,0,0.,0.771586,0.\C,0,2.06835,-0.70264,0.\C,0,0.
 540531,-0.653982,0.\O,0,-2.272406,-0.073756,0.\O,0,-1.931154,2.143966,
 0.\H,0,3.709158,-2.132876,0.\H,0,2.28356,-2.679277,0.880542\H,0,2.2835
 6,-2.679277,-0.880542\H,0,0.357515,1.331075,-0.869047\H,0,0.357515,1.3
 31075,0.869047\H,0,2.448656,-0.165278,-0.874152\H,0,2.448656,-0.165278

 Normal termination of Gaussian 16 at Sat Apr  5 23:11:23 2025.
