 Gaussian 16, Revision C.01,

 ----------------------------------------------------------------------
 #t hf aug-cc-pvdz symm=none int=(grid=ultrafine) guess=(read,tcheck) s
 table=(opt,rrhf)
 ----------------------------------------------------------------------
 -----
 title
 -----
 Symbolic Z-matrix:
 Charge =  0 Multiplicity = 1

 SCF Done:  E(RHF) =  -401.705390514     A.U. after   15 cycles

 1\1\GINC-SE179\Stability\RHF\Aug-CC-pVDZ\C9H11N1\OHZDE\05-Apr-2025\0\\
 #t hf aug-cc-pvdz symm=none int=(grid=ultrafine) guess=(read,tcheck) s
 table=(opt,rrhf)\\title\\0,1\C,0,2.998166,-0.117026,0.186742\C,0,2.250
 26,-1.206555,-0.245165\C,0,2.377431,1.12006,0.32829\C,0,0.896545,-1.06
 7455,-0.525584\C,0,1.027004,1.269555,0.042344\C,0,0.267676,0.172124,-0
 .374549\C,0,-2.052493,0.014676,0.007335\C,0,-3.450793,0.232807,-0.5032
 77\C,0,-1.944865,-0.58286,1.389174\N,0,-1.07882,0.35005,-0.736188\H,0,
 4.051545,-0.228318,0.403476\H,0,2.72157,-2.173091,-0.366506\H,0,2.9491

 Normal termination of Gaussian 16 at Sat Apr  5 22:55:59 2025.
 Gaussian 16:  ES64L-G16RevC.01  3-Jul-2019

 ----------------------------------------------------------------------
 #t hf aug-cc-pvdz iop(5/13=1,5/36=2,99/5=2) pseudo=read geom=check gue
 ss=(read,tcheck) scf=(maxcycle=1)
 ----------------------------------------------------------------------
 -----
 title
 -----
 Structure from the checkpoint file:  "N-phenylpropan-2-imine.chk"
 Charge =  0 Multiplicity = 1

                         Standard orientation:
 ---------------------------------------------------------------------
 Center     Atomic      Atomic             Coordinates (Angstroms)
 Number     Number       Type             X           Y           Z
 ---------------------------------------------------------------------
      1          6           0        2.998166   -0.117026    0.186742
      2          6           0        2.250260   -1.206555   -0.245165
      3          6           0        2.377431    1.120060    0.328290
      4          6           0        0.896545   -1.067455   -0.525584
      5          6           0        1.027004    1.269555    0.042344
      6          6           0        0.267676    0.172124   -0.374549
      7          6           0       -2.052493    0.014676    0.007335
      8          6           0       -3.450793    0.232807   -0.503277
      9          6           0       -1.944865   -0.582860    1.389174
     10          7           0       -1.078820    0.350050   -0.736188
     11          1           0        4.051545   -0.228318    0.403476
     12          1           0        2.721570   -2.173091   -0.366506
     13          1           0        2.949124    1.977574    0.658099
     14          1           0        0.319634   -1.913528   -0.874264
     15          1           0        0.548756    2.235247    0.134308
     16          1           0       -4.006387    0.889434    0.170715
     17          1           0       -3.995891   -0.713622   -0.539447
     18          1           0       -3.427654    0.672409   -1.496672
     19          1           0       -2.429938   -1.561221    1.412890
     20          1           0       -2.478210    0.046473    2.105055
     21          1           0       -0.914394   -0.693657    1.713800
 ---------------------------------------------------------------------

 SCF Done:  E(RHF) =  -402.126824317     A.U. after    2 cycles

 The electronic state is 1-A.
 Alpha  occ. eigenvalues --  -15.49228 -11.30015 -11.27011 -11.24149 -11.23931
 Alpha  occ. eigenvalues --  -11.23890 -11.23633 -11.23099 -11.22998 -11.22979
 Alpha  occ. eigenvalues --   -1.25008  -1.14285  -1.05028  -1.01290  -0.99014
 Alpha  occ. eigenvalues --   -0.96110  -0.85121  -0.83342  -0.76080  -0.69563
 Alpha  occ. eigenvalues --   -0.67051  -0.65299  -0.63989  -0.61882  -0.61290
 Alpha  occ. eigenvalues --   -0.59358  -0.56697  -0.55794  -0.53626  -0.52718
 Alpha  occ. eigenvalues --   -0.51029  -0.50607  -0.44912  -0.44072  -0.34328
 Alpha  occ. eigenvalues --   -0.32052
 Alpha virt. eigenvalues --    0.03332   0.03740   0.03866   0.04255   0.04535
 Alpha virt. eigenvalues --    0.04738   0.06175   0.06812   0.07051   0.07793
 Alpha virt. eigenvalues --    0.08595   0.10355   0.10768   0.11620   0.12249

 Mulliken charges:
               1
     1  C    0.136926
     2  C    0.561626
     3  C    0.504860
     4  C    0.524636
     5  C    0.335241
     6  C   -1.294092
     7  C   -1.470670
     8  C   -0.261633
     9  C   -0.169726
    10  N    1.330651
    11  H   -0.227277
    12  H   -0.237419
    13  H   -0.229669
    14  H   -0.303029
    15  H   -0.308449
    16  H    0.247702
    17  H    0.244250
    18  H    0.126060
    19  H    0.219674
    20  H    0.210034
    21  H    0.060305
 Sum of Mulliken charges =  -0.00000

 Dipole moment (field-independent basis, Debye):
    X=             -1.5924    Y=             -0.8996    Z=              2.0337  Tot=              2.7352

 Test job not archived.
 1\1\GINC-SE179\SP\RHF\Aug-CC-pVDZ\C9H11N1\OHZDE\05-Apr-2025\0\\#t hf a
 ug-cc-pvdz iop(5/13=1,5/36=2,99/5=2) pseudo=read geom=check guess=(rea
 d,tcheck) scf=(maxcycle=1)\\title\\0,1\C,0,2.998166,-0.117026,0.186742
 \C,0,2.25026,-1.206555,-0.245165\C,0,2.377431,1.12006,0.32829\C,0,0.89
 6545,-1.067455,-0.525584\C,0,1.027004,1.269555,0.042344\C,0,0.267676,0
 .172124,-0.374549\C,0,-2.052493,0.014676,0.007335\C,0,-3.450793,0.2328
 07,-0.503277\C,0,-1.944865,-0.58286,1.389174\N,0,-1.07882,0.35005,-0.7
 36188\H,0,4.051545,-0.228318,0.403476\H,0,2.72157,-2.173091,-0.366506\

 Normal termination of Gaussian 16 at Sat Apr  5 22:56:12 2025.
