 Gaussian 16, Revision C.01,

 ----------------------------------------------------------------------
 #t hf aug-cc-pvdz symm=none int=(grid=ultrafine) guess=(read,tcheck) s
 table=(opt,rrhf)
 ----------------------------------------------------------------------
 -----
 title
 -----
 Symbolic Z-matrix:
 Charge =  0 Multiplicity = 1

 SCF Done:  E(RHF) =  -344.955610930     A.U. after   13 cycles

 1\1\GINC-SE223\Stability\RHF\Aug-CC-pVDZ\C5H10O2\OHZDE\05-Apr-2025\0\\
 #t hf aug-cc-pvdz symm=none int=(grid=ultrafine) guess=(read,tcheck) s
 table=(opt,rrhf)\\title\\0,1\C,0,-1.603643,0.174878,-0.000006\C,0,-2.7
 67397,-0.780438,0.000006\C,0,3.283501,0.155432,0.000008\C,0,1.963727,-
 0.615105,-0.000005\C,0,0.76915,0.317432,-0.000001\O,0,-1.68809,1.37780
 8,-0.000001\O,0,-0.429939,-0.489876,-0.000012\H,0,-2.721291,-1.424419,
 0.878141\H,0,-2.721158,-1.424638,-0.877958\H,0,-3.696732,-0.219858,-0.
 000125\H,0,3.372308,0.793346,0.88123\H,0,4.132141,-0.528255,0.000005\H

 Normal termination of Gaussian 16 at Sat Apr  5 23:10:59 2025.
 Gaussian 16:  ES64L-G16RevC.01  3-Jul-2019

 ----------------------------------------------------------------------
 #t hf aug-cc-pvdz iop(5/13=1,5/36=2,99/5=2) pseudo=read geom=check gue
 ss=(read,tcheck) scf=(maxcycle=1)
 ----------------------------------------------------------------------
 -----
 title
 -----
 Structure from the checkpoint file:  "n-propyl_acetate.chk"
 Charge =  0 Multiplicity = 1

                         Standard orientation:
 ---------------------------------------------------------------------
 Center     Atomic      Atomic             Coordinates (Angstroms)
 Number     Number       Type             X           Y           Z
 ---------------------------------------------------------------------
      1          6           0       -1.603643    0.174878   -0.000006
      2          6           0       -2.767397   -0.780438    0.000006
      3          6           0        3.283501    0.155432    0.000008
      4          6           0        1.963727   -0.615105   -0.000005
      5          6           0        0.769150    0.317432   -0.000001
      6          8           0       -1.688090    1.377808   -0.000001
      7          8           0       -0.429939   -0.489876   -0.000012
      8          1           0       -2.721291   -1.424419    0.878141
      9          1           0       -2.721158   -1.424638   -0.877958
     10          1           0       -3.696732   -0.219858   -0.000125
     11          1           0        3.372308    0.793346    0.881230
     12          1           0        4.132141   -0.528255    0.000005
     13          1           0        3.372315    0.793363   -0.881202
     14          1           0        1.908444   -1.264592    0.876224
     15          1           0        1.908451   -1.264576   -0.876246
     16          1           0        0.758862    0.961481    0.880478
     17          1           0        0.758869    0.961496   -0.880469
 ---------------------------------------------------------------------

 SCF Done:  E(RHF) =  -345.315493068     A.U. after    2 cycles

 The electronic state is 1-A.
 Alpha  occ. eigenvalues --  -20.58375 -20.52947 -11.38574 -11.29277 -11.24884
 Alpha  occ. eigenvalues --  -11.23721 -11.23251  -1.53721  -1.44515  -1.07976
 Alpha  occ. eigenvalues --   -1.02222  -0.93611  -0.82613  -0.78602  -0.69331
 Alpha  occ. eigenvalues --   -0.69050  -0.67280  -0.62865  -0.59906  -0.58161
 Alpha  occ. eigenvalues --   -0.57824  -0.53729  -0.52687  -0.52370  -0.49671
 Alpha  occ. eigenvalues --   -0.49088  -0.44988  -0.43719
 Alpha virt. eigenvalues --    0.03544   0.03651   0.04115   0.04423   0.05637
 Alpha virt. eigenvalues --    0.06127   0.06615   0.07402   0.08332   0.09218
 Alpha virt. eigenvalues --    0.10463   0.11512   0.13895   0.14407   0.15008

 Mulliken charges:
               1
     1  C    1.736042
     2  C   -0.727042
     3  C   -0.327915
     4  C   -0.402535
     5  C    0.633359
     6  O   -1.186240
     7  O   -1.313691
     8  H    0.232238
     9  H    0.232209
    10  H    0.178932
    11  H    0.168984
    12  H    0.110250
    13  H    0.168986
    14  H    0.128905
    15  H    0.128906
    16  H    0.119307
    17  H    0.119304
 Sum of Mulliken charges =  -0.00000

 Dipole moment (field-independent basis, Debye):
    X=              0.9671    Y=             -2.0397    Z=              0.0000  Tot=              2.2574

 Test job not archived.
 1\1\GINC-SE223\SP\RHF\Aug-CC-pVDZ\C5H10O2\OHZDE\05-Apr-2025\0\\#t hf a
 ug-cc-pvdz iop(5/13=1,5/36=2,99/5=2) pseudo=read geom=check guess=(rea
 d,tcheck) scf=(maxcycle=1)\\title\\0,1\C,0,-1.603643,0.174878,-0.00000
 6\C,0,-2.767397,-0.780438,0.000006\C,0,3.283501,0.155432,0.000008\C,0,
 1.963727,-0.615105,-0.000005\C,0,0.76915,0.317432,-0.000001\O,0,-1.688
 09,1.377808,-0.000001\O,0,-0.429939,-0.489876,-0.000012\H,0,-2.721291,
 -1.424419,0.878141\H,0,-2.721158,-1.424638,-0.877958\H,0,-3.696732,-0.
 219858,-0.000125\H,0,3.372308,0.793346,0.88123\H,0,4.132141,-0.528255,

 Normal termination of Gaussian 16 at Sat Apr  5 23:11:24 2025.
