 Gaussian 16, Revision C.01,

 ----------------------------------------------------------------------
 #t hf aug-cc-pvdz symm=none int=(grid=ultrafine) guess=(read,tcheck) s
 table=(opt,rrhf)
 ----------------------------------------------------------------------
 -----
 title
 -----
 Symbolic Z-matrix:
 Charge =  0 Multiplicity = 1

 SCF Done:  E(RHF) =  -305.904589175     A.U. after   13 cycles
 Normal termination of Gaussian 16 at Sat Apr  5 23:10:42 2025.
 Gaussian 16:  ES64L-G16RevC.01  3-Jul-2019

 ----------------------------------------------------------------------
 #t hf aug-cc-pvdz iop(5/13=1,5/36=2,99/5=2) pseudo=read geom=check gue
 ss=(read,tcheck) scf=(maxcycle=1)
 ----------------------------------------------------------------------
 -----
 title
 -----
 Structure from the checkpoint file:  "n-propyl_formate.chk"
 Charge =  0 Multiplicity = 1

                         Standard orientation:
 ---------------------------------------------------------------------
 Center     Atomic      Atomic             Coordinates (Angstroms)
 Number     Number       Type             X           Y           Z
 ---------------------------------------------------------------------
      1          6           0       -1.071395   -1.776836    0.000000
      2          6           0        1.414442    2.421868    0.000000
      3          6           0        1.409577    0.893657    0.000000
      4          6           0        0.000000    0.338803    0.000000
      5          8           0       -2.169335   -1.290400    0.000000
      6          8           0        0.086608   -1.109139    0.000000
      7          1           0       -0.866386   -2.854791    0.000000
      8          1           0        0.909790    2.821701    0.881287
      9          1           0        2.434143    2.805918    0.000000
     10          1           0        0.909790    2.821701   -0.881287
     11          1           0        1.940343    0.515991    0.876316
     12          1           0        1.940343    0.515991   -0.876316
     13          1           0       -0.560976    0.652422    0.881239
     14          1           0       -0.560976    0.652422   -0.881239
 ---------------------------------------------------------------------

 SCF Done:  E(RHF) =  -306.220284101     A.U. after    2 cycles

 The electronic state is 1-A'.
 Alpha  occ. eigenvalues --  -20.59540 -20.54260 -11.39216 -11.30009 -11.24171
 Alpha  occ. eigenvalues --  -11.23598  -1.54672  -1.45731  -1.08052  -0.96373
 Alpha  occ. eigenvalues --   -0.84939  -0.81359  -0.73002  -0.69308  -0.68453
 Alpha  occ. eigenvalues --   -0.61838  -0.60899  -0.55144  -0.54510  -0.53300
 Alpha  occ. eigenvalues --   -0.50277  -0.49754  -0.45701  -0.45089
 Alpha virt. eigenvalues --    0.03550   0.03751   0.04188   0.04388   0.05935
 Alpha virt. eigenvalues --    0.07230   0.07743   0.07910   0.11175   0.11425
 Alpha virt. eigenvalues --    0.11438   0.13357   0.15106   0.15198   0.16122

 Mulliken charges:
               1
     1  C    1.287330
     2  C   -0.328617
     3  C   -0.494337
     4  C    0.598891
     5  O   -0.962894
     6  O   -1.106590
     7  H    0.083329
     8  H    0.169206
     9  H    0.111143
    10  H    0.169206
    11  H    0.145961
    12  H    0.145961
    13  H    0.090705
    14  H    0.090705
 Sum of Mulliken charges =  -0.00000

 Dipole moment (field-independent basis, Debye):
    X=              2.3002    Y=              0.6136    Z=              0.0000  Tot=              2.3806

 Test job not archived.
 1\1\GINC-SE155\SP\RHF\Aug-CC-pVDZ\C4H8O2\OHZDE\05-Apr-2025\0\\#t hf au
 g-cc-pvdz iop(5/13=1,5/36=2,99/5=2) pseudo=read geom=check guess=(read
 ,tcheck) scf=(maxcycle=1)\\title\\0,1\C,0,-1.071395,-1.776836,0.\C,0,1
 .414442,2.421868,0.\C,0,1.409577,0.893657,0.\C,0,0.,0.338803,0.\O,0,-2
 .169335,-1.2904,0.\O,0,0.086608,-1.109139,0.\H,0,-0.866386,-2.854791,0
 .\H,0,0.90979,2.821701,0.881287\H,0,2.434143,2.805918,0.\H,0,0.90979,2
 .821701,-0.881287\H,0,1.940343,0.515991,0.876316\H,0,1.940343,0.515991
 ,-0.876316\H,0,-0.560976,0.652422,0.881239\H,0,-0.560976,0.652422,-0.8

 Normal termination of Gaussian 16 at Sat Apr  5 23:10:47 2025.
