 Gaussian 16, Revision C.01,

 ----------------------------------------------------------------------
 #t hf aug-cc-pvdz symm=none int=(grid=ultrafine) guess=(read,tcheck) s
 table=(opt,rrhf)
 ----------------------------------------------------------------------
 -----
 title
 -----
 Symbolic Z-matrix:
 Charge =  0 Multiplicity = 1

 SCF Done:  E(RHF) =  -829.138059445     A.U. after   16 cycles
 Normal termination of Gaussian 16 at Sat Apr  5 22:55:01 2025.
 Gaussian 16:  ES64L-G16RevC.01  3-Jul-2019

 ----------------------------------------------------------------------
 #t hf aug-cc-pvdz iop(5/13=1,5/36=2,99/5=2) pseudo=read geom=check gue
 ss=(read,tcheck) scf=(maxcycle=1)
 ----------------------------------------------------------------------
 -----
 title
 -----
 Structure from the checkpoint file:  "N-pyrazin-2-ylmethanesulfinamide.chk"
 Charge =  0 Multiplicity = 1

                         Standard orientation:
 ---------------------------------------------------------------------
 Center     Atomic      Atomic             Coordinates (Angstroms)
 Number     Number       Type             X           Y           Z
 ---------------------------------------------------------------------
      1          6           0        3.276469   -0.292227    0.099087
      2          6           0        2.790514    0.999064    0.229996
      3          6           0        1.181024   -1.031756   -0.375895
      4          6           0        0.688197    0.275288   -0.221938
      5          6           0       -3.203955    0.336431   -0.890716
      6          7           0        2.463709   -1.307293   -0.206599
      7          7           0        1.497661    1.284923    0.078596
      8          7           0       -0.655790    0.607184   -0.433652
      9          8           0       -2.260256   -0.137191    1.534977
     10         16           0       -1.909653   -0.449316    0.121673
     11          1           0        4.326381   -0.516346    0.234552
     12          1           0        3.449330    1.825368    0.467782
     13          1           0        0.524349   -1.850733   -0.640400
     14          1           0       -4.132247   -0.170891   -0.639919
     15          1           0       -2.965474    0.215129   -1.944190
     16          1           0       -3.270616    1.387654   -0.614934
     17          1           0       -0.827771    1.581914   -0.201099
 ---------------------------------------------------------------------

 SCF Done:  E(RHF) =  -829.635317920     A.U. after    2 cycles

 The electronic state is 1-A.
 Alpha  occ. eigenvalues --  -94.11658 -20.51655 -15.55278 -15.53840 -15.53074
 Alpha  occ. eigenvalues --  -11.34148 -11.29672 -11.29151 -11.28842 -11.28226
 Alpha  occ. eigenvalues --   -8.38029  -6.35863  -6.35722  -6.35506  -1.46084
 Alpha  occ. eigenvalues --   -1.32949  -1.26134  -1.21791  -1.08131  -1.03813
 Alpha  occ. eigenvalues --   -0.94055  -0.92224  -0.88109  -0.78231  -0.75879
 Alpha  occ. eigenvalues --   -0.72143  -0.68598  -0.65750  -0.64943  -0.63429
 Alpha  occ. eigenvalues --   -0.60993  -0.60455  -0.59289  -0.56092  -0.55013
 Alpha  occ. eigenvalues --   -0.52190  -0.47810  -0.45664  -0.45053  -0.39586
 Alpha  occ. eigenvalues --   -0.35389
 Alpha virt. eigenvalues --    0.03023   0.03873   0.04366   0.04570   0.04748
 Alpha virt. eigenvalues --    0.04843   0.05527   0.07635   0.08672   0.09245
 Alpha virt. eigenvalues --    0.09763   0.10595   0.11364   0.11879   0.12789

 Mulliken charges:
               1
     1  C   -0.364381
     2  C   -0.246371
     3  C   -0.180987
     4  C   -2.248656
     5  C   -0.635705
     6  N    1.050085
     7  N    1.352050
     8  N    0.513496
     9  O   -1.483680
    10  S    1.951752
    11  H   -0.111904
    12  H   -0.156114
    13  H   -0.083020
    14  H    0.210811
    15  H    0.227542
    16  H    0.200691
    17  H    0.004390
 Sum of Mulliken charges =  -0.00000

 Dipole moment (field-independent basis, Debye):
    X=             -0.7046    Y=              1.0925    Z=             -3.1096  Tot=              3.3704

 Test job not archived.
 1\1\GINC-SE180\SP\RHF\Aug-CC-pVDZ\C5H7N3O1S1\OHZDE\05-Apr-2025\0\\#t h
 f aug-cc-pvdz iop(5/13=1,5/36=2,99/5=2) pseudo=read geom=check guess=(
 read,tcheck) scf=(maxcycle=1)\\title\\0,1\C,0,3.276469,-0.292227,0.099
 087\C,0,2.790514,0.999064,0.229996\C,0,1.181024,-1.031756,-0.375895\C,
 0,0.688197,0.275288,-0.221938\C,0,-3.203955,0.336431,-0.890716\N,0,2.4
 63709,-1.307293,-0.206599\N,0,1.497661,1.284923,0.078596\N,0,-0.65579,
 0.607184,-0.433652\O,0,-2.260256,-0.137191,1.534977\S,0,-1.909653,-0.4
 49316,0.121673\H,0,4.326381,-0.516346,0.234552\H,0,3.44933,1.825368,0.

 Normal termination of Gaussian 16 at Sat Apr  5 22:55:54 2025.
