 Gaussian 16, Revision C.01,

 ----------------------------------------------------------------------
 #t hf aug-cc-pvdz symm=none int=(grid=ultrafine) guess=(read,tcheck) s
 table=(opt,rrhf)
 ----------------------------------------------------------------------
 -----
 title
 -----
 Symbolic Z-matrix:
 Charge =  0 Multiplicity = 1

 SCF Done:  E(RHF) =  -903.993346583     A.U. after   15 cycles
 Normal termination of Gaussian 16 at Sat Apr  5 22:55:25 2025.
 Gaussian 16:  ES64L-G16RevC.01  3-Jul-2019

 ----------------------------------------------------------------------
 #t hf aug-cc-pvdz iop(5/13=1,5/36=2,99/5=2) pseudo=read geom=check gue
 ss=(read,tcheck) scf=(maxcycle=1)
 ----------------------------------------------------------------------
 -----
 title
 -----
 Structure from the checkpoint file:  "N-pyrazin-2-ylmethanesulfonamide.chk"
 Charge =  0 Multiplicity = 1

                         Standard orientation:
 ---------------------------------------------------------------------
 Center     Atomic      Atomic             Coordinates (Angstroms)
 Number     Number       Type             X           Y           Z
 ---------------------------------------------------------------------
      1          6           0        3.364850    0.398763    0.150943
      2          6           0        2.326412    1.312586    0.065958
      3          6           0        1.891085   -1.300109   -0.147133
      4          6           0        0.842900   -0.369826   -0.242482
      5          6           0       -2.122614    1.334764   -0.896648
      6          7           0        3.141045   -0.913697    0.037962
      7          7           0        1.065571    0.934122   -0.143705
      8          7           0       -0.461515   -0.797266   -0.495355
      9          8           0       -2.884414   -1.071196   -0.072187
     10          8           0       -1.587626    0.402262    1.509475
     11         16           0       -1.856311   -0.074094    0.169128
     12          1           0        4.385597    0.718852    0.312895
     13          1           0        2.507994    2.376178    0.160123
     14          1           0        1.700423   -2.365075   -0.225096
     15          1           0       -3.002391    1.842073   -0.507181
     16          1           0       -1.240827    1.965017   -0.832434
     17          1           0       -2.293340    0.973464   -1.906154
     18          1           0       -0.611669   -1.792707   -0.582644
 ---------------------------------------------------------------------

 SCF Done:  E(RHF) =  -904.565451232     A.U. after    2 cycles

 The electronic state is 1-A.
 Alpha  occ. eigenvalues --  -94.22545 -20.54701 -20.54535 -15.56574 -15.54753
 Alpha  occ. eigenvalues --  -15.54030 -11.35377 -11.30579 -11.30272 -11.29141
 Alpha  occ. eigenvalues --  -11.29095  -8.47431  -6.45542  -6.45383  -6.45244
 Alpha  occ. eigenvalues --   -1.56936  -1.44663  -1.33996  -1.27342  -1.22999
 Alpha  occ. eigenvalues --   -1.08497  -1.05544  -0.94821  -0.94422  -0.86741
 Alpha  occ. eigenvalues --   -0.80378  -0.77242  -0.73772  -0.72636  -0.69537
 Alpha  occ. eigenvalues --   -0.66988  -0.65892  -0.64125  -0.61639  -0.61400
 Alpha  occ. eigenvalues --   -0.60517  -0.56101  -0.55900  -0.52018  -0.49625
 Alpha  occ. eigenvalues --   -0.48408  -0.47437  -0.46779  -0.46109  -0.36517
 Alpha virt. eigenvalues --    0.02843   0.03627   0.03947   0.04023   0.04385
 Alpha virt. eigenvalues --    0.05062   0.06228   0.07769   0.08246   0.08667
 Alpha virt. eigenvalues --    0.09447   0.10288   0.11224   0.11842   0.12484

 Mulliken charges:
               1
     1  C   -0.524132
     2  C   -0.008304
     3  C   -0.248802
     4  C   -2.138499
     5  C   -0.690201
     6  N    1.136673
     7  N    1.449712
     8  N    0.298721
     9  O   -1.523126
    10  O   -1.536183
    11  S    3.256250
    12  H   -0.109433
    13  H   -0.166581
    14  H   -0.126347
    15  H    0.238373
    16  H    0.286296
    17  H    0.259686
    18  H    0.145898
 Sum of Mulliken charges =  -0.00000

 Dipole moment (field-independent basis, Debye):
    X=              1.8594    Y=              1.9220    Z=             -2.9131  Tot=              3.9544

 Test job not archived.
 1\1\GINC-SE226\SP\RHF\Aug-CC-pVDZ\C5H7N3O2S1\OHZDE\05-Apr-2025\0\\#t h
 f aug-cc-pvdz iop(5/13=1,5/36=2,99/5=2) pseudo=read geom=check guess=(
 read,tcheck) scf=(maxcycle=1)\\title\\0,1\C,0,3.36485,0.398763,0.15094
 3\C,0,2.326412,1.312586,0.065958\C,0,1.891085,-1.300109,-0.147133\C,0,
 0.8429,-0.369826,-0.242482\C,0,-2.122614,1.334764,-0.896648\N,0,3.1410
 45,-0.913697,0.037962\N,0,1.065571,0.934122,-0.143705\N,0,-0.461515,-0
 .797266,-0.495355\O,0,-2.884414,-1.071196,-0.072187\O,0,-1.587626,0.40
 2262,1.509475\S,0,-1.856311,-0.074094,0.169128\H,0,4.385597,0.718852,0

 Normal termination of Gaussian 16 at Sat Apr  5 22:55:56 2025.
