 Gaussian 16, Revision C.01,

 ----------------------------------------------------------------------
 #t hf aug-cc-pvdz symm=none int=(grid=ultrafine) guess=(read,tcheck) s
 table=(opt,rrhf)
 ----------------------------------------------------------------------
 -----
 title
 -----
 Symbolic Z-matrix:
 Charge =  0 Multiplicity = 1

 SCF Done:  E(RHF) =  -601.673150202     A.U. after   13 cycles
 Normal termination of Gaussian 16 at Sat Apr  5 22:53:42 2025.
 Gaussian 16:  ES64L-G16RevC.01  3-Jul-2019

 ----------------------------------------------------------------------
 #t hf aug-cc-pvdz iop(5/13=1,5/36=2,99/5=2) pseudo=read geom=check gue
 ss=(read,tcheck) scf=(maxcycle=1)
 ----------------------------------------------------------------------
 -----
 title
 -----
 Structure from the checkpoint file:  "N-sulfanylguanidine.chk"
 Charge =  0 Multiplicity = 1

                         Standard orientation:
 ---------------------------------------------------------------------
 Center     Atomic      Atomic             Coordinates (Angstroms)
 Number     Number       Type             X           Y           Z
 ---------------------------------------------------------------------
      1         16           0       -1.804112   -0.039089   -0.085409
      2          7           0       -0.228364   -0.684420    0.016954
      3          7           0        0.819790    1.392841   -0.011749
      4          7           0        2.070170   -0.650194    0.057789
      5          6           0        0.910802    0.124627   -0.000028
      6          1           0       -1.789467    0.778881    0.993822
      7          1           0       -0.146667   -1.513718    0.584188
      8          1           0        1.724397    1.840201   -0.118314
      9          1           0        2.927975   -0.134408   -0.049798
     10          1           0        2.053559   -1.500893   -0.484146
 ---------------------------------------------------------------------

 SCF Done:  E(RHF) =  -601.944371576     A.U. after    2 cycles

 The electronic state is 1-A.
 Alpha  occ. eigenvalues --  -93.98155 -15.54028 -15.53007 -15.46461 -11.35811
 Alpha  occ. eigenvalues --   -8.25842  -6.23704  -6.23491  -6.23260  -1.30703
 Alpha  occ. eigenvalues --   -1.20152  -1.15883  -0.99099  -0.83833  -0.77310
 Alpha  occ. eigenvalues --   -0.74794  -0.68084  -0.66313  -0.59416  -0.53568
 Alpha  occ. eigenvalues --   -0.48068  -0.45886  -0.41912  -0.37785
 Alpha virt. eigenvalues --    0.02513   0.04755   0.05178   0.05871   0.06658
 Alpha virt. eigenvalues --    0.09054   0.10649   0.11715   0.12756   0.14207
 Alpha virt. eigenvalues --    0.15073   0.15311   0.16247   0.16762   0.17988

 Mulliken charges:
               1
     1  S    0.002405
     2  N    0.104355
     3  N    0.569656
     4  N    0.340546
     5  C   -1.877701
     6  H    0.337593
     7  H    0.147529
     8  H    0.122779
     9  H    0.175853
    10  H    0.076985
 Sum of Mulliken charges =  -0.00000

 Dipole moment (field-independent basis, Debye):
    X=              2.5937    Y=             -2.1222    Z=              0.3612  Tot=              3.3707

 Test job not archived.
 1\1\GINC-SE107\SP\RHF\Aug-CC-pVDZ\C1H5N3S1\OHZDE\05-Apr-2025\0\\#t hf
 aug-cc-pvdz iop(5/13=1,5/36=2,99/5=2) pseudo=read geom=check guess=(re
 ad,tcheck) scf=(maxcycle=1)\\title\\0,1\S,0,-1.804112,-0.039089,-0.085
 409\N,0,-0.228364,-0.68442,0.016954\N,0,0.81979,1.392841,-0.011749\N,0
 ,2.07017,-0.650194,0.057789\C,0,0.910802,0.124627,-0.000028\H,0,-1.789
 467,0.778881,0.993822\H,0,-0.146667,-1.513718,0.584188\H,0,1.724397,1.
 840201,-0.118314\H,0,2.927975,-0.134408,-0.049798\H,0,2.053559,-1.5008
 93,-0.484146\\Version=ES64L-G16RevC.01\State=1-A\HF=-601.9443716\RMSD=

 Normal termination of Gaussian 16 at Sat Apr  5 22:53:46 2025.
