 Gaussian 16, Revision C.01,

 ----------------------------------------------------------------------
 #t hf aug-cc-pvdz symm=none int=(grid=ultrafine) guess=(read,tcheck) s
 table=(opt,rrhf)
 ----------------------------------------------------------------------
 -----
 title
 -----
 Symbolic Z-matrix:
 Charge =  0 Multiplicity = 1

 SCF Done:  E(RHF) =  -375.812352180     A.U. after   14 cycles
 Normal termination of Gaussian 16 at Sat Apr  5 22:54:02 2025.
 Gaussian 16:  ES64L-G16RevC.01  3-Jul-2019

 ----------------------------------------------------------------------
 #t hf aug-cc-pvdz iop(5/13=1,5/36=2,99/5=2) pseudo=read geom=check gue
 ss=(read,tcheck) scf=(maxcycle=1)
 ----------------------------------------------------------------------
 -----
 title
 -----
 Structure from the checkpoint file:  "N2-formylglycinamide.chk"
 Charge =  0 Multiplicity = 1

                         Standard orientation:
 ---------------------------------------------------------------------
 Center     Atomic      Atomic             Coordinates (Angstroms)
 Number     Number       Type             X           Y           Z
 ---------------------------------------------------------------------
      1          6           0        2.188329   -0.578455    0.000000
      2          6           0       -1.460704    0.073620    0.000000
      3          6           0        0.000000    0.510660    0.000000
      4          7           0       -2.360917    1.087263    0.000000
      5          7           0        0.840666   -0.658435    0.000000
      6          8           0        2.817916    0.462897    0.000000
      7          8           0       -1.784599   -1.100738    0.000000
      8          1           0        2.671946   -1.568981    0.000000
      9          1           0        0.198935    1.134237    0.876265
     10          1           0        0.198935    1.134237   -0.876265
     11          1           0       -3.341011    0.863104    0.000000
     12          1           0       -2.082734    2.051773    0.000000
     13          1           0        0.363396   -1.548392    0.000000
 ---------------------------------------------------------------------

 SCF Done:  E(RHF) =  -376.189953303     A.U. after    2 cycles

 The electronic state is 1-A'.
 Alpha  occ. eigenvalues --  -20.53322 -20.51549 -15.54833 -15.53412 -11.38394
 Alpha  occ. eigenvalues --  -11.35986 -11.30071  -1.48430  -1.45905  -1.25625
 Alpha  occ. eigenvalues --   -1.24457  -1.02722  -0.87727  -0.83622  -0.80089
 Alpha  occ. eigenvalues --   -0.75233  -0.69427  -0.68338  -0.66777  -0.61970
 Alpha  occ. eigenvalues --   -0.60047  -0.59660  -0.54065  -0.46024  -0.45357
 Alpha  occ. eigenvalues --   -0.43046  -0.42423
 Alpha virt. eigenvalues --    0.02217   0.04286   0.04971   0.05354   0.06019
 Alpha virt. eigenvalues --    0.07146   0.10178   0.10241   0.11064   0.11477
 Alpha virt. eigenvalues --    0.11496   0.13394   0.15103   0.15402   0.16400

 Mulliken charges:
               1
     1  C    0.428753
     2  C    0.611307
     3  C   -0.671955
     4  N    0.773372
     5  N    0.757880
     6  O   -1.119595
     7  O   -1.332237
     8  H    0.075068
     9  H    0.110110
    10  H    0.110110
    11  H    0.091879
    12  H    0.019880
    13  H    0.145427
 Sum of Mulliken charges =  -0.00000

 Dipole moment (field-independent basis, Debye):
    X=             -2.9150    Y=              1.3274    Z=              0.0000  Tot=              3.2029

 Test job not archived.
 1\1\GINC-SE145\SP\RHF\Aug-CC-pVDZ\C3H6N2O2\OHZDE\05-Apr-2025\0\\#t hf
 aug-cc-pvdz iop(5/13=1,5/36=2,99/5=2) pseudo=read geom=check guess=(re
 ad,tcheck) scf=(maxcycle=1)\\title\\0,1\C,0,2.188329,-0.578455,0.\C,0,
 -1.460704,0.07362,0.\C,0,0.,0.51066,0.\N,0,-2.360917,1.087263,0.\N,0,0
 .840666,-0.658435,0.\O,0,2.817916,0.462897,0.\O,0,-1.784599,-1.100738,
 0.\H,0,2.671946,-1.568981,0.\H,0,0.198935,1.134237,0.876265\H,0,0.1989
 35,1.134237,-0.876265\H,0,-3.341011,0.863104,0.\H,0,-2.082734,2.051773
 ,0.\H,0,0.363396,-1.548392,0.\\Version=ES64L-G16RevC.01\State=1-A'\HF=

 Normal termination of Gaussian 16 at Sat Apr  5 22:54:37 2025.
