 Gaussian 16, Revision C.01,

 ----------------------------------------------------------------------
 #t hf aug-cc-pvdz symm=none int=(grid=ultrafine) guess=(read,tcheck) s
 table=(opt,rrhf)
 ----------------------------------------------------------------------
 -----
 title
 -----
 Symbolic Z-matrix:
 Charge =  0 Multiplicity = 1

 SCF Done:  E(RHF) =  -554.392954651     A.U. after   16 cycles
 Normal termination of Gaussian 16 at Sat Apr  5 22:54:37 2025.
 Gaussian 16:  ES64L-G16RevC.01  3-Jul-2019

 ----------------------------------------------------------------------
 #t hf aug-cc-pvdz iop(5/13=1,5/36=2,99/5=2) pseudo=read geom=check gue
 ss=(read,tcheck) scf=(maxcycle=1)
 ----------------------------------------------------------------------
 -----
 title
 -----
 Structure from the checkpoint file:  "N3-N3-difluoro-3-4-pyridinediamine.chk"
 Charge =  0 Multiplicity = 1

                         Standard orientation:
 ---------------------------------------------------------------------
 Center     Atomic      Atomic             Coordinates (Angstroms)
 Number     Number       Type             X           Y           Z
 ---------------------------------------------------------------------
      1          9           0       -2.192510   -0.268440    1.108615
      2          9           0       -2.196021   -0.431782   -1.071868
      3          7           0       -1.580972    0.316470   -0.035136
      4          7           0        1.505260   -1.737413    0.024215
      5          7           0        0.347175    2.296354    0.002544
      6          6           0       -0.202650   -0.061410   -0.009063
      7          6           0        0.727919    0.992051   -0.013556
      8          6           0        0.228543   -1.384447    0.013005
      9          6           0        2.079236    0.604782   -0.004927
     10          6           0        2.400219   -0.735610    0.013200
     11          1           0        1.025447    3.014652   -0.169637
     12          1           0       -0.622485    2.526037   -0.124140
     13          1           0       -0.507894   -2.178420    0.017074
     14          1           0        2.859819    1.353746   -0.007846
     15          1           0        3.442048   -1.034086    0.020506
 ---------------------------------------------------------------------

 SCF Done:  E(RHF) =  -554.928075744     A.U. after    2 cycles

 The electronic state is 1-A.
 Alpha  occ. eigenvalues --  -26.50186 -26.49951 -15.72243 -15.54532 -15.50592
 Alpha  occ. eigenvalues --  -11.33862 -11.30612 -11.30128 -11.28538 -11.25510
 Alpha  occ. eigenvalues --   -1.65541  -1.56899  -1.29019  -1.25533  -1.18418
 Alpha  occ. eigenvalues --   -1.07613  -1.02593  -0.90470  -0.89186  -0.80349
 Alpha  occ. eigenvalues --   -0.78854  -0.77049  -0.75834  -0.73218  -0.68405
 Alpha  occ. eigenvalues --   -0.67198  -0.65222  -0.64956  -0.62391  -0.60465
 Alpha  occ. eigenvalues --   -0.60234  -0.55944  -0.54276  -0.53115  -0.46638
 Alpha  occ. eigenvalues --   -0.38693  -0.37757
 Alpha virt. eigenvalues --    0.02310   0.03725   0.04752   0.05657   0.06951
 Alpha virt. eigenvalues --    0.07048   0.08494   0.09448   0.11180   0.11334
 Alpha virt. eigenvalues --    0.12008   0.12340   0.12595   0.13305   0.13614

 Mulliken charges:
               1
     1  F   -0.704537
     2  F   -0.706140
     3  N    2.054665
     4  N    0.876636
     5  N    0.950920
     6  C    0.052206
     7  C   -2.229328
     8  C   -0.486723
     9  C    1.787440
    10  C   -1.022747
    11  H    0.001939
    12  H    0.032820
    13  H   -0.150831
    14  H   -0.264037
    15  H   -0.192283
 Sum of Mulliken charges =  -0.00000

 Dipole moment (field-independent basis, Debye):
    X=              2.1054    Y=              3.7494    Z=             -0.4966  Tot=              4.3286

 Test job not archived.
 1\1\GINC-SE146\SP\RHF\Aug-CC-pVDZ\C5H5F2N3\OHZDE\05-Apr-2025\0\\#t hf
 aug-cc-pvdz iop(5/13=1,5/36=2,99/5=2) pseudo=read geom=check guess=(re
 ad,tcheck) scf=(maxcycle=1)\\title\\0,1\F,0,-2.19251,-0.26844,1.108615
 \F,0,-2.196021,-0.431782,-1.071868\N,0,-1.580972,0.31647,-0.035136\N,0
 ,1.50526,-1.737413,0.024215\N,0,0.347175,2.296354,0.002544\C,0,-0.2026
 5,-0.06141,-0.009063\C,0,0.727919,0.992051,-0.013556\C,0,0.228543,-1.3
 84447,0.013005\C,0,2.079236,0.604782,-0.004927\C,0,2.400219,-0.73561,0
 .0132\H,0,1.025447,3.014652,-0.169637\H,0,-0.622485,2.526037,-0.12414\

 Normal termination of Gaussian 16 at Sat Apr  5 22:54:44 2025.
