 Gaussian 16, Revision C.01,

 ----------------------------------------------------------------------
 #t hf aug-cc-pvdz symm=none int=(grid=ultrafine) guess=(read,tcheck) s
 table=(opt,rrhf)
 ----------------------------------------------------------------------
 -----
 title
 -----
 Symbolic Z-matrix:
 Charge =  0 Multiplicity = 1

 SCF Done:  E(RHF) =  -458.267079722     A.U. after   16 cycles

 1\1\GINC-SE154\Stability\RHF\Aug-CC-pVDZ\C10H8O1\OHZDE\05-Apr-2025\0\\
 #t hf aug-cc-pvdz symm=none int=(grid=ultrafine) guess=(read,tcheck) s
 table=(opt,rrhf)\\title\\0,1\C,0,-2.810255,0.874015,0.\C,0,-2.014183,2
 .040128,0.\C,0,-2.216594,-0.361309,0.\C,0,-0.646606,1.950634,0.\C,0,-0
 .160779,-1.748178,0.\C,0,1.205234,-1.842363,0.\C,0,1.407649,0.566607,0
 .\C,0,-0.807166,-0.489734,0.\C,0,0.,0.689037,0.\C,0,1.997415,-0.671969
 ,0.\O,0,3.364255,-0.741235,0.\H,0,-3.888286,0.960491,0.\H,0,-2.491116,
 3.011227,0.\H,0,-2.821658,-1.259354,0.\H,0,-0.040456,2.847562,0.\H,0,-

 Normal termination of Gaussian 16 at Sat Apr  5 23:12:15 2025.
 Gaussian 16:  ES64L-G16RevC.01  3-Jul-2019

 ----------------------------------------------------------------------
 #t hf aug-cc-pvdz iop(5/13=1,5/36=2,99/5=2) pseudo=read geom=check gue
 ss=(read,tcheck) scf=(maxcycle=1)
 ----------------------------------------------------------------------
 -----
 title
 -----
 Structure from the checkpoint file:  "naphthalen-2-ol.chk"
 Charge =  0 Multiplicity = 1

                         Standard orientation:
 ---------------------------------------------------------------------
 Center     Atomic      Atomic             Coordinates (Angstroms)
 Number     Number       Type             X           Y           Z
 ---------------------------------------------------------------------
      1          6           0       -2.810255    0.874016    0.000000
      2          6           0       -2.014183    2.040128    0.000000
      3          6           0       -2.216594   -0.361309    0.000000
      4          6           0       -0.646606    1.950634    0.000000
      5          6           0       -0.160779   -1.748178    0.000000
      6          6           0        1.205234   -1.842363   -0.000000
      7          6           0        1.407649    0.566607   -0.000000
      8          6           0       -0.807166   -0.489734    0.000000
      9          6           0        0.000000    0.689037    0.000000
     10          6           0        1.997415   -0.671969   -0.000000
     11          8           0        3.364255   -0.741236   -0.000000
     12          1           0       -3.888286    0.960492    0.000000
     13          1           0       -2.491116    3.011227    0.000000
     14          1           0       -2.821658   -1.259353    0.000000
     15          1           0       -0.040456    2.847562    0.000000
     16          1           0       -0.762743   -2.647866    0.000000
     17          1           0        1.687193   -2.813217   -0.000000
     18          1           0        2.030075    1.451183   -0.000000
     19          1           0        3.644668   -1.661358   -0.000000
 ---------------------------------------------------------------------

 SCF Done:  E(RHF) =  -458.733342534     A.U. after    2 cycles

 The electronic state is 1-A'.
 Alpha  occ. eigenvalues --  -20.58213 -11.31107 -11.25542 -11.25319 -11.24888
 Alpha  occ. eigenvalues --  -11.24571 -11.24477 -11.24421 -11.23994 -11.23902
 Alpha  occ. eigenvalues --  -11.23278  -1.49475  -1.18075  -1.11277  -1.05519
 Alpha  occ. eigenvalues --   -1.00997  -0.98769  -0.87091  -0.85327  -0.82746
 Alpha  occ. eigenvalues --   -0.75606  -0.71950  -0.70410  -0.66779  -0.63703
 Alpha  occ. eigenvalues --   -0.61477  -0.60969  -0.59426  -0.59217  -0.57564
 Alpha  occ. eigenvalues --   -0.53492  -0.53088  -0.51386  -0.49051  -0.44446
 Alpha  occ. eigenvalues --   -0.39492  -0.32458  -0.29289
 Alpha virt. eigenvalues --    0.02858   0.03396   0.03672   0.04525   0.04883
 Alpha virt. eigenvalues --    0.06883   0.07021   0.07469   0.09301   0.09536
 Alpha virt. eigenvalues --    0.10202   0.10590   0.11437   0.11844   0.13013

 Mulliken charges:
               1
     1  C   -0.089132
     2  C   -0.200801
     3  C    0.154187
     4  C    0.017137
     5  C    0.202197
     6  C   -0.433499
     7  C   -0.095705
     8  C    0.941260
     9  C    1.415673
    10  C    1.514559
    11  O   -1.800424
    12  H   -0.241764
    13  H   -0.244010
    14  H   -0.312684
    15  H   -0.304177
    16  H   -0.306126
    17  H   -0.342996
    18  H   -0.291659
    19  H    0.417967
 Sum of Mulliken charges =  -0.00000

 Dipole moment (field-independent basis, Debye):
    X=             -0.3055    Y=             -1.5783    Z=              0.0000  Tot=              1.6076

 Test job not archived.
 1\1\GINC-SE154\SP\RHF\Aug-CC-pVDZ\C10H8O1\OHZDE\05-Apr-2025\0\\#t hf a
 ug-cc-pvdz iop(5/13=1,5/36=2,99/5=2) pseudo=read geom=check guess=(rea
 d,tcheck) scf=(maxcycle=1)\\title\\0,1\C,0,-2.810255,0.874015,0.\C,0,-
 2.014183,2.040128,0.\C,0,-2.216594,-0.361309,0.\C,0,-0.646606,1.950634
 ,0.\C,0,-0.160779,-1.748178,0.\C,0,1.205234,-1.842363,0.\C,0,1.407649,
 0.566607,0.\C,0,-0.807166,-0.489734,0.\C,0,0.,0.689037,0.\C,0,1.997415
 ,-0.671969,0.\O,0,3.364255,-0.741235,0.\H,0,-3.888286,0.960491,0.\H,0,
 -2.491116,3.011227,0.\H,0,-2.821658,-1.259354,0.\H,0,-0.040456,2.84756

 Normal termination of Gaussian 16 at Sat Apr  5 23:12:33 2025.
