 Gaussian 16, Revision C.01,

 ----------------------------------------------------------------------
 #t hf aug-cc-pvdz symm=none int=(grid=ultrafine) guess=(read,tcheck) s
 table=(opt,rrhf)
 ----------------------------------------------------------------------
 -----
 title
 -----
 Symbolic Z-matrix:
 Charge =  0 Multiplicity = 1

 SCF Done:  E(RHF) =  -438.434376605     A.U. after   17 cycles

 1\1\GINC-SE151\Stability\RHF\Aug-CC-pVDZ\C10H9N1\OHZDE\05-Apr-2025\0\\
 #t hf aug-cc-pvdz symm=none int=(grid=ultrafine) guess=(read,tcheck) s
 table=(opt,rrhf)\\title\\0,1\C,0,-2.745482,-0.250488,0.015139\C,0,-2.3
 50376,1.101274,-0.020876\C,0,1.89462,-1.629753,-0.016536\C,0,-1.798435
 ,-1.240778,0.025645\C,0,-1.018277,1.430836,-0.033362\C,0,0.565283,-1.9
 5962,0.002317\C,0,2.304363,-0.285408,-0.011578\C,0,-0.414684,-0.938347
 ,0.010052\C,0,-0.013885,0.433355,-0.006243\C,0,1.383991,0.743412,-0.00
 0677\N,0,1.805666,2.071855,-0.042792\H,0,-3.797274,-0.503107,0.026539\

 Normal termination of Gaussian 16 at Sat Apr  5 23:12:41 2025.
 Gaussian 16:  ES64L-G16RevC.01  3-Jul-2019

 ----------------------------------------------------------------------
 #t hf aug-cc-pvdz iop(5/13=1,5/36=2,99/5=2) pseudo=read geom=check gue
 ss=(read,tcheck) scf=(maxcycle=1)
 ----------------------------------------------------------------------
 -----
 title
 -----
 Structure from the checkpoint file:  "naphthalen-1-amine.chk"
 Charge =  0 Multiplicity = 1

                         Standard orientation:
 ---------------------------------------------------------------------
 Center     Atomic      Atomic             Coordinates (Angstroms)
 Number     Number       Type             X           Y           Z
 ---------------------------------------------------------------------
      1          6           0       -2.745482   -0.250488    0.015139
      2          6           0       -2.350376    1.101274   -0.020876
      3          6           0        1.894620   -1.629753   -0.016536
      4          6           0       -1.798435   -1.240778    0.025645
      5          6           0       -1.018277    1.430836   -0.033362
      6          6           0        0.565283   -1.959620    0.002317
      7          6           0        2.304363   -0.285408   -0.011578
      8          6           0       -0.414684   -0.938347    0.010052
      9          6           0       -0.013885    0.433355   -0.006243
     10          6           0        1.383991    0.743412   -0.000677
     11          7           0        1.805666    2.071855   -0.042792
     12          1           0       -3.797274   -0.503107    0.026539
     13          1           0       -3.099801    1.880731   -0.046991
     14          1           0        2.647310   -2.406938   -0.024601
     15          1           0       -2.097908   -2.281072    0.043095
     16          1           0       -0.742879    2.474995   -0.088131
     17          1           0        0.249676   -2.994190    0.010295
     18          1           0        3.361776   -0.050767   -0.011365
     19          1           0        2.778199    2.210429    0.179331
     20          1           0        1.218530    2.740032    0.428091
 ---------------------------------------------------------------------

 SCF Done:  E(RHF) =  -438.886337526     A.U. after    2 cycles

 The electronic state is 1-A.
 Alpha  occ. eigenvalues --  -15.51090 -11.28695 -11.24822 -11.24534 -11.24448
 Alpha  occ. eigenvalues --  -11.24252 -11.24135 -11.24069 -11.24017 -11.22766
 Alpha  occ. eigenvalues --  -11.22683  -1.23164  -1.16275  -1.10531  -1.03656
 Alpha  occ. eigenvalues --   -1.01025  -0.97421  -0.86201  -0.85404  -0.81864
 Alpha  occ. eigenvalues --   -0.74364  -0.73319  -0.70167  -0.67865  -0.65795
 Alpha  occ. eigenvalues --   -0.61970  -0.60963  -0.59503  -0.57452  -0.56594
 Alpha  occ. eigenvalues --   -0.54274  -0.50918  -0.49915  -0.49362  -0.44697
 Alpha  occ. eigenvalues --   -0.37377  -0.33024  -0.28165
 Alpha virt. eigenvalues --    0.02979   0.03448   0.03762   0.04367   0.04588
 Alpha virt. eigenvalues --    0.06703   0.07027   0.07351   0.08396   0.09052
 Alpha virt. eigenvalues --    0.09511   0.10594   0.10862   0.11884   0.12391

 Mulliken charges:
               1
     1  C   -0.016261
     2  C   -0.414387
     3  C   -0.180071
     4  C    0.166912
     5  C   -0.081847
     6  C    0.034749
     7  C    0.910579
     8  C    0.993481
     9  C    1.860586
    10  C   -2.122756
    11  N    0.858822
    12  H   -0.244370
    13  H   -0.261766
    14  H   -0.254823
    15  H   -0.314782
    16  H   -0.416174
    17  H   -0.321815
    18  H   -0.324686
    19  H    0.043726
    20  H    0.084884
 Sum of Mulliken charges =  -0.00000

 Dipole moment (field-independent basis, Debye):
    X=              0.3661    Y=              0.7702    Z=              0.9501  Tot=              1.2767

 Test job not archived.
 1\1\GINC-SE151\SP\RHF\Aug-CC-pVDZ\C10H9N1\OHZDE\05-Apr-2025\0\\#t hf a
 ug-cc-pvdz iop(5/13=1,5/36=2,99/5=2) pseudo=read geom=check guess=(rea
 d,tcheck) scf=(maxcycle=1)\\title\\0,1\C,0,-2.745482,-0.250488,0.01513
 9\C,0,-2.350376,1.101274,-0.020876\C,0,1.89462,-1.629753,-0.016536\C,0
 ,-1.798435,-1.240778,0.025645\C,0,-1.018277,1.430836,-0.033362\C,0,0.5
 65283,-1.95962,0.002317\C,0,2.304363,-0.285408,-0.011578\C,0,-0.414684
 ,-0.938347,0.010052\C,0,-0.013885,0.433355,-0.006243\C,0,1.383991,0.74
 3412,-0.000677\N,0,1.805666,2.071855,-0.042792\H,0,-3.797274,-0.503107

 Normal termination of Gaussian 16 at Sat Apr  5 23:13:49 2025.
