 Gaussian 16, Revision C.01,

 ----------------------------------------------------------------------
 #t hf aug-cc-pvdz symm=none int=(grid=ultrafine) guess=(read,tcheck) s
 table=(opt,rrhf)
 ----------------------------------------------------------------------
 -----
 title
 -----
 Symbolic Z-matrix:
 Charge =  0 Multiplicity = 1

 SCF Done:  E(RHF) =  -438.436975970     A.U. after   16 cycles

 1\1\GINC-SE153\Stability\RHF\Aug-CC-pVDZ\C10H9N1\OHZDE\05-Apr-2025\0\\
 #t hf aug-cc-pvdz symm=none int=(grid=ultrafine) guess=(read,tcheck) s
 table=(opt,rrhf)\\title\\0,1\C,0,2.93475,0.367685,0.004894\C,0,2.68748
 1,-1.021705,0.002229\C,0,1.883651,1.248979,0.00421\C,0,1.403115,-1.502
 176,-0.001292\C,0,-0.563413,1.664514,-0.000104\C,0,-1.844909,1.18994,-
 0.005795\C,0,-1.040095,-1.082969,-0.003076\C,0,0.547644,0.786363,0.000
 56\C,0,0.294326,-0.618925,-0.002537\C,0,-2.104204,-0.206518,-0.005473\
 N,0,-3.423722,-0.650874,-0.06787\H,0,3.95287,0.732442,0.0072\H,0,3.520

 Normal termination of Gaussian 16 at Sat Apr  5 23:12:35 2025.
 Gaussian 16:  ES64L-G16RevC.01  3-Jul-2019

 ----------------------------------------------------------------------
 #t hf aug-cc-pvdz iop(5/13=1,5/36=2,99/5=2) pseudo=read geom=check gue
 ss=(read,tcheck) scf=(maxcycle=1)
 ----------------------------------------------------------------------
 -----
 title
 -----
 Structure from the checkpoint file:  "naphthalen-2-amine.chk"
 Charge =  0 Multiplicity = 1

                         Standard orientation:
 ---------------------------------------------------------------------
 Center     Atomic      Atomic             Coordinates (Angstroms)
 Number     Number       Type             X           Y           Z
 ---------------------------------------------------------------------
      1          6           0        2.934750    0.367685    0.004894
      2          6           0        2.687481   -1.021705    0.002229
      3          6           0        1.883651    1.248979    0.004210
      4          6           0        1.403115   -1.502176   -0.001292
      5          6           0       -0.563413    1.664514   -0.000104
      6          6           0       -1.844909    1.189940   -0.005795
      7          6           0       -1.040095   -1.082969   -0.003076
      8          6           0        0.547644    0.786363    0.000560
      9          6           0        0.294326   -0.618925   -0.002537
     10          6           0       -2.104204   -0.206518   -0.005473
     11          7           0       -3.423722   -0.650874   -0.067870
     12          1           0        3.952870    0.732442    0.007200
     13          1           0        3.520954   -1.711733    0.002509
     14          1           0        2.064878    2.316734    0.006029
     15          1           0        1.220915   -2.569562   -0.003920
     16          1           0       -0.385911    2.732646    0.001922
     17          1           0       -2.680007    1.879584   -0.016198
     18          1           0       -1.221281   -2.151525   -0.006138
     19          1           0       -4.116285   -0.020662    0.301917
     20          1           0       -3.580151   -1.602931    0.220075
 ---------------------------------------------------------------------

 SCF Done:  E(RHF) =  -438.888499467     A.U. after    2 cycles

 The electronic state is 1-A.
 Alpha  occ. eigenvalues --  -15.51097 -11.28562 -11.24749 -11.24690 -11.24022
 Alpha  occ. eigenvalues --  -11.23923 -11.23854 -11.23678 -11.23417 -11.23254
 Alpha  occ. eigenvalues --  -11.22545  -1.22842  -1.16632  -1.09631  -1.04636
 Alpha  occ. eigenvalues --   -0.99972  -0.97554  -0.86516  -0.84411  -0.82205
 Alpha  occ. eigenvalues --   -0.74021  -0.73188  -0.70922  -0.67690  -0.63929
 Alpha  occ. eigenvalues --   -0.62559  -0.60283  -0.59099  -0.58746  -0.56309
 Alpha  occ. eigenvalues --   -0.53826  -0.51653  -0.50632  -0.48436  -0.43228
 Alpha  occ. eigenvalues --   -0.38831  -0.31592  -0.28522
 Alpha virt. eigenvalues --    0.02809   0.03469   0.03754   0.04567   0.04719
 Alpha virt. eigenvalues --    0.06583   0.06917   0.07579   0.09022   0.09583
 Alpha virt. eigenvalues --    0.09943   0.10197   0.10793   0.11563   0.11782

 Mulliken charges:
               1
     1  C   -0.116932
     2  C   -0.236637
     3  C    0.132142
     4  C    0.009491
     5  C    0.176482
     6  C    0.351923
     7  C    0.336746
     8  C    0.953898
     9  C    1.374274
    10  C   -1.747702
    11  N    0.834369
    12  H   -0.246644
    13  H   -0.244970
    14  H   -0.308116
    15  H   -0.318431
    16  H   -0.350510
    17  H   -0.312413
    18  H   -0.319394
    19  H    0.012228
    20  H    0.020198
 Sum of Mulliken charges =  -0.00000

 Dipole moment (field-independent basis, Debye):
    X=             -1.1622    Y=             -0.0191    Z=              0.9686  Tot=              1.5130

 Test job not archived.
 1\1\GINC-SE153\SP\RHF\Aug-CC-pVDZ\C10H9N1\OHZDE\05-Apr-2025\0\\#t hf a
 ug-cc-pvdz iop(5/13=1,5/36=2,99/5=2) pseudo=read geom=check guess=(rea
 d,tcheck) scf=(maxcycle=1)\\title\\0,1\C,0,2.93475,0.367685,0.004894\C
 ,0,2.687481,-1.021705,0.002229\C,0,1.883651,1.248979,0.00421\C,0,1.403
 115,-1.502176,-0.001292\C,0,-0.563413,1.664514,-0.000104\C,0,-1.844909
 ,1.18994,-0.005795\C,0,-1.040095,-1.082969,-0.003076\C,0,0.547644,0.78
 6363,0.00056\C,0,0.294326,-0.618925,-0.002537\C,0,-2.104204,-0.206518,
 -0.005473\N,0,-3.423722,-0.650874,-0.06787\H,0,3.95287,0.732442,0.0072

 Normal termination of Gaussian 16 at Sat Apr  5 23:12:48 2025.
