 Gaussian 16, Revision C.01,

 ----------------------------------------------------------------------
 #t hf aug-cc-pvdz symm=none int=(grid=ultrafine) guess=(read,tcheck) s
 table=(opt,rrhf)
 ----------------------------------------------------------------------
 -----
 title
 -----
 Symbolic Z-matrix:
 Charge =  0 Multiplicity = 1

 SCF Done:  E(RHF) =  -383.394278297     A.U. after   13 cycles
 Normal termination of Gaussian 16 at Sat Apr  5 23:12:45 2025.
 Gaussian 16:  ES64L-G16RevC.01  3-Jul-2019

 ----------------------------------------------------------------------
 #t hf aug-cc-pvdz iop(5/13=1,5/36=2,99/5=2) pseudo=read geom=check gue
 ss=(read,tcheck) scf=(maxcycle=1)
 ----------------------------------------------------------------------
 -----
 title
 -----
 Structure from the checkpoint file:  "naphthalene.chk"
 Charge =  0 Multiplicity = 1

                         Standard orientation:
 ---------------------------------------------------------------------
 Center     Atomic      Atomic             Coordinates (Angstroms)
 Number     Number       Type             X           Y           Z
 ---------------------------------------------------------------------
      1          6           0        0.000000    0.000000    0.713923
      2          6           0        0.000000    1.240542    1.396864
      3          6           0       -0.000000   -1.240542    1.396864
      4          6           0        0.000000    2.423616    0.705779
      5          6           0        0.000000    2.423616   -0.705779
      6          6           0        0.000000    1.240542   -1.396864
      7          6           0       -0.000000   -2.423616    0.705779
      8          6           0       -0.000000   -2.423616   -0.705779
      9          6           0       -0.000000   -1.240542   -1.396864
     10          6           0        0.000000    0.000000   -0.713923
     11          1           0        0.000000   -3.364265    1.240162
     12          1           0        0.000000   -3.364265   -1.240162
     13          1           0        0.000000    3.364265   -1.240162
     14          1           0        0.000000    3.364265    1.240162
     15          1           0        0.000000    1.239118   -2.479712
     16          1           0       -0.000000   -1.239118    2.479712
     17          1           0       -0.000000   -1.239118   -2.479712
     18          1           0       -0.000000    1.239118    2.479712
 ---------------------------------------------------------------------

 SCF Done:  E(RHF) =  -383.788924484     A.U. after    2 cycles

 The electronic state is 1-AG.
 Alpha  occ. eigenvalues --  -11.24883 -11.24827 -11.24413 -11.24396 -11.24395
 Alpha  occ. eigenvalues --  -11.24386 -11.24299 -11.24289 -11.24281 -11.24280
 Alpha  occ. eigenvalues --   -1.18084  -1.11399  -1.05356  -1.01162  -0.98535
 Alpha  occ. eigenvalues --   -0.86373  -0.84784  -0.82324  -0.71714  -0.71530
 Alpha  occ. eigenvalues --   -0.69578  -0.63407  -0.62873  -0.60250  -0.59663
 Alpha  occ. eigenvalues --   -0.57750  -0.54374  -0.53730  -0.50291  -0.48858
 Alpha  occ. eigenvalues --   -0.45874  -0.39615  -0.32987  -0.29917
 Alpha virt. eigenvalues --    0.03309   0.03366   0.03626   0.04489   0.04700
 Alpha virt. eigenvalues --    0.06811   0.07027   0.07413   0.09370   0.09525
 Alpha virt. eigenvalues --    0.09713   0.10646   0.11444   0.12267   0.13061

 Mulliken charges:
               1
     1  C    1.045862
     2  C    0.122980
     3  C    0.122980
     4  C   -0.095703
     5  C   -0.095703
     6  C    0.122980
     7  C   -0.095703
     8  C   -0.095703
     9  C    0.122980
    10  C    1.045862
    11  H   -0.241958
    12  H   -0.241958
    13  H   -0.241958
    14  H   -0.241958
    15  H   -0.308250
    16  H   -0.308250
    17  H   -0.308250
    18  H   -0.308250
 Sum of Mulliken charges =  -0.00000

 Dipole moment (field-independent basis, Debye):
    X=              0.0000    Y=             -0.0000    Z=              0.0000  Tot=              0.0000

 Test job not archived.
 1\1\GINC-SE168\SP\RHF\Aug-CC-pVDZ\C10H8\OHZDE\05-Apr-2025\0\\#t hf aug
 -cc-pvdz iop(5/13=1,5/36=2,99/5=2) pseudo=read geom=check guess=(read,
 tcheck) scf=(maxcycle=1)\\title\\0,1\C,0,0.,0.,0.713923\C,0,0.,1.24054
 2,1.396864\C,0,0.,-1.240542,1.396864\C,0,0.,2.423616,0.705779\C,0,0.,2
 .423616,-0.705779\C,0,0.,1.240542,-1.396864\C,0,0.,-2.423616,0.705779\
 C,0,0.,-2.423616,-0.705779\C,0,0.,-1.240542,-1.396864\C,0,0.,0.,-0.713
 923\H,0,0.,-3.364265,1.240162\H,0,0.,-3.364265,-1.240162\H,0,0.,3.3642
 65,-1.240162\H,0,0.,3.364265,1.240162\H,0,0.,1.239118,-2.479712\H,0,0.

 Normal termination of Gaussian 16 at Sat Apr  5 23:13:43 2025.
