 Gaussian 16, Revision C.01,

 ----------------------------------------------------------------------
 #t hf aug-cc-pvdz symm=none int=(grid=ultrafine) guess=(read,tcheck) s
 table=(opt,rrhf)
 ----------------------------------------------------------------------
 -----
 title
 -----
 Symbolic Z-matrix:
 Charge =  0 Multiplicity = 1

 SCF Done:  E(RHF) =  -458.264109761     A.U. after   17 cycles

 1\1\GINC-SE153\Stability\RHF\Aug-CC-pVDZ\C10H8O1\OHZDE\05-Apr-2025\0\\
 #t hf aug-cc-pvdz symm=none int=(grid=ultrafine) guess=(read,tcheck) s
 table=(opt,rrhf)\\title\\0,1\C,0,-2.727109,-0.326483,0.\C,0,-2.37526,1
 .03839,0.\C,0,1.957686,-1.557474,0.\C,0,-1.750278,-1.28697,0.\C,0,-1.0
 55155,1.409855,0.\C,0,0.63811,-1.927342,0.\C,0,2.326734,-0.200714,0.\C
 ,0,-0.376443,-0.941789,0.\C,0,-0.019952,0.443553,0.\C,0,1.365002,0.779
 883,0.\O,0,1.794772,2.076411,0.\H,0,-3.770509,-0.611247,0.\H,0,-3.1488
 62,1.793966,0.\H,0,2.733146,-2.31155,0.\H,0,-2.017573,-2.335991,0.\H,0

 Normal termination of Gaussian 16 at Sat Apr  5 23:12:28 2025.
 Gaussian 16:  ES64L-G16RevC.01  3-Jul-2019

 ----------------------------------------------------------------------
 #t hf aug-cc-pvdz iop(5/13=1,5/36=2,99/5=2) pseudo=read geom=check gue
 ss=(read,tcheck) scf=(maxcycle=1)
 ----------------------------------------------------------------------
 -----
 title
 -----
 Structure from the checkpoint file:  "naphthalen-1-ol.chk"
 Charge =  0 Multiplicity = 1

                         Standard orientation:
 ---------------------------------------------------------------------
 Center     Atomic      Atomic             Coordinates (Angstroms)
 Number     Number       Type             X           Y           Z
 ---------------------------------------------------------------------
      1          6           0       -2.727109   -0.326483   -0.000000
      2          6           0       -2.375260    1.038390   -0.000000
      3          6           0        1.957686   -1.557474   -0.000000
      4          6           0       -1.750278   -1.286970   -0.000000
      5          6           0       -1.055155    1.409855   -0.000000
      6          6           0        0.638110   -1.927342   -0.000000
      7          6           0        2.326734   -0.200714   -0.000000
      8          6           0       -0.376443   -0.941789   -0.000000
      9          6           0       -0.019952    0.443553   -0.000000
     10          6           0        1.365002    0.779883   -0.000000
     11          8           0        1.794772    2.076411   -0.000000
     12          1           0       -3.770509   -0.611247   -0.000000
     13          1           0       -3.148862    1.793966   -0.000000
     14          1           0        2.733146   -2.311550   -0.000000
     15          1           0       -2.017573   -2.335991   -0.000000
     16          1           0       -0.825143    2.468776   -0.000000
     17          1           0        0.356325   -2.971639   -0.000000
     18          1           0        3.367436    0.091086   -0.000000
     19          1           0        1.046996    2.679866    0.000001
 ---------------------------------------------------------------------

 SCF Done:  E(RHF) =  -458.730299149     A.U. after    2 cycles

 The electronic state is 1-A.
 Alpha  occ. eigenvalues --  -20.58206 -11.31248 -11.25745 -11.25671 -11.25558
 Alpha  occ. eigenvalues --  -11.25099 -11.24983 -11.24880 -11.24757 -11.23567
 Alpha  occ. eigenvalues --  -11.23354  -1.49658  -1.18300  -1.11798  -1.05232
 Alpha  occ. eigenvalues --   -1.01943  -0.98907  -0.87039  -0.86446  -0.82385
 Alpha  occ. eigenvalues --   -0.75874  -0.72768  -0.70150  -0.67585  -0.64385
 Alpha  occ. eigenvalues --   -0.62407  -0.61414  -0.59593  -0.58386  -0.56516
 Alpha  occ. eigenvalues --   -0.54992  -0.52760  -0.50503  -0.50321  -0.45617
 Alpha  occ. eigenvalues --   -0.38665  -0.33715  -0.29067
 Alpha virt. eigenvalues --    0.03001   0.03374   0.03711   0.04544   0.04756
 Alpha virt. eigenvalues --    0.06708   0.06811   0.07653   0.08898   0.09131
 Alpha virt. eigenvalues --    0.09836   0.10800   0.10919   0.12109   0.12745

 Mulliken charges:
               1
     1  C   -0.032544
     2  C   -0.041116
     3  C    0.162486
     4  C    0.002504
     5  C    0.293383
     6  C   -0.136568
     7  C   -0.163623
     8  C    1.102607
     9  C    0.992397
    10  C    1.191360
    11  O   -1.813583
    12  H   -0.242579
    13  H   -0.246192
    14  H   -0.234882
    15  H   -0.311053
    16  H   -0.311473
    17  H   -0.323343
    18  H   -0.285109
    19  H    0.397327
 Sum of Mulliken charges =  -0.00000

 Dipole moment (field-independent basis, Debye):
    X=             -1.5333    Y=              0.1155    Z=              0.0000  Tot=              1.5376

 Test job not archived.
 1\1\GINC-SE153\SP\RHF\Aug-CC-pVDZ\C10H8O1\OHZDE\05-Apr-2025\0\\#t hf a
 ug-cc-pvdz iop(5/13=1,5/36=2,99/5=2) pseudo=read geom=check guess=(rea
 d,tcheck) scf=(maxcycle=1)\\title\\0,1\C,0,-2.727109,-0.326483,0.\C,0,
 -2.37526,1.03839,0.\C,0,1.957686,-1.557474,0.\C,0,-1.750278,-1.28697,0
 .\C,0,-1.055155,1.409855,0.\C,0,0.63811,-1.927342,0.\C,0,2.326734,-0.2
 00714,0.\C,0,-0.376443,-0.941789,0.\C,0,-0.019952,0.443553,0.\C,0,1.36
 5002,0.779883,0.\O,0,1.794772,2.076411,0.\H,0,-3.770509,-0.611247,0.\H
 ,0,-3.148862,1.793966,0.\H,0,2.733146,-2.31155,0.\H,0,-2.017573,-2.335

 Normal termination of Gaussian 16 at Sat Apr  5 23:12:40 2025.
