 Gaussian 16, Revision C.01,

 ----------------------------------------------------------------------
 #t hf aug-cc-pvdz symm=none int=(grid=ultrafine) guess=(read,tcheck) s
 table=(opt,rrhf)
 ----------------------------------------------------------------------
 -----
 title
 -----
 Symbolic Z-matrix:
 Charge =  0 Multiplicity = 1

 SCF Done:  E(RHF) =  -243.704488945     A.U. after   13 cycles
 Normal termination of Gaussian 16 at Sat Apr  5 23:10:22 2025.
 Gaussian 16:  ES64L-G16RevC.01  3-Jul-2019

 ----------------------------------------------------------------------
 #t hf aug-cc-pvdz iop(5/13=1,5/36=2,99/5=2) pseudo=read geom=check gue
 ss=(read,tcheck) scf=(maxcycle=1)
 ----------------------------------------------------------------------
 -----
 title
 -----
 Structure from the checkpoint file:  "nitromethane.chk"
 Charge =  0 Multiplicity = 1

                         Standard orientation:
 ---------------------------------------------------------------------
 Center     Atomic      Atomic             Coordinates (Angstroms)
 Number     Number       Type             X           Y           Z
 ---------------------------------------------------------------------
      1          6           0        0.000229   -1.324841   -0.000000
      2          7           0       -0.009436    0.173920    0.000000
      3          8           0        0.000229    0.730465    1.084390
      4          8           0        0.000229    0.730465   -1.084390
      5          1           0       -0.491970   -1.664331   -0.903741
      6          1           0       -0.491970   -1.664331    0.903741
      7          1           0        1.044943   -1.627166   -0.000000
 ---------------------------------------------------------------------

 SCF Done:  E(RHF) =  -243.942988227     A.U. after    2 cycles

 The electronic state is 1-A'.
 Alpha  occ. eigenvalues --  -20.59560 -20.59552 -15.79193 -11.32277  -1.67667
 Alpha  occ. eigenvalues --   -1.51443  -1.12780  -0.89660  -0.78086  -0.76318
 Alpha  occ. eigenvalues --   -0.75920  -0.63704  -0.61366  -0.49815  -0.49033
 Alpha  occ. eigenvalues --   -0.45487
 Alpha virt. eigenvalues --    0.02884   0.04351   0.05216   0.07035   0.08143
 Alpha virt. eigenvalues --    0.13248   0.13333   0.13583   0.15368   0.16292
 Alpha virt. eigenvalues --    0.19340   0.22750   0.22913   0.23984   0.25475

 Mulliken charges:
               1
     1  C   -0.221861
     2  N    2.184550
     3  O   -1.250394
     4  O   -1.250394
     5  H    0.153257
     6  H    0.153257
     7  H    0.231585
 Sum of Mulliken charges =  -0.00000

 Dipole moment (field-independent basis, Debye):
    X=              0.0167    Y=             -3.8503    Z=             -0.0000  Tot=              3.8503

 Test job not archived.
 1\1\GINC-SE202\SP\RHF\Aug-CC-pVDZ\C1H3N1O2\OHZDE\05-Apr-2025\0\\#t hf
 aug-cc-pvdz iop(5/13=1,5/36=2,99/5=2) pseudo=read geom=check guess=(re
 ad,tcheck) scf=(maxcycle=1)\\title\\0,1\C,0,0.000229,-1.324841,0.\N,0,
 -0.009436,0.17392,0.\O,0,0.000229,0.730465,1.08439\O,0,0.000229,0.7304
 65,-1.08439\H,0,-0.49197,-1.664331,-0.903741\H,0,-0.49197,-1.664331,0.
 903741\H,0,1.044943,-1.627166,0.\\Version=ES64L-G16RevC.01\State=1-A'\
 HF=-243.9429882\RMSD=1.750e-02\Dipole=0.0065546,-1.5148076,0.\Quadrupo
 le=0.9035736,1.2625704,-2.166144,-0.0471109,0.,0.\PG=CS [SG(C1H1N1),X(

 Normal termination of Gaussian 16 at Sat Apr  5 23:10:24 2025.
