 Gaussian 16, Revision C.01,

 ----------------------------------------------------------------------
 #t hf aug-cc-pvdz symm=none int=(grid=ultrafine) guess=(read,tcheck) s
 table=(opt,rrhf)
 ----------------------------------------------------------------------
 -----
 title
 -----
 Symbolic Z-matrix:
 Charge =  0 Multiplicity = 1

 SCF Done:  E(RHF) =  -282.746878838     A.U. after   13 cycles
 Normal termination of Gaussian 16 at Sat Apr  5 23:10:27 2025.
 Gaussian 16:  ES64L-G16RevC.01  3-Jul-2019

 ----------------------------------------------------------------------
 #t hf aug-cc-pvdz iop(5/13=1,5/36=2,99/5=2) pseudo=read geom=check gue
 ss=(read,tcheck) scf=(maxcycle=1)
 ----------------------------------------------------------------------
 -----
 title
 -----
 Structure from the checkpoint file:  "nitroethane.chk"
 Charge =  0 Multiplicity = 1

                         Standard orientation:
 ---------------------------------------------------------------------
 Center     Atomic      Atomic             Coordinates (Angstroms)
 Number     Number       Type             X           Y           Z
 ---------------------------------------------------------------------
      1          6           0       -0.252099   -1.864578    0.000000
      2          6           0        0.698505   -0.690619    0.000000
      3          7           0        0.000000    0.657769    0.000000
      4          8           0        0.728213    1.635752    0.000000
      5          8           0       -1.217324    0.683616    0.000000
      6          1           0       -0.889475   -1.861633    0.881474
      7          1           0       -0.889475   -1.861633   -0.881474
      8          1           0        0.333045   -2.784908    0.000000
      9          1           0        1.340180   -0.659983   -0.878434
     10          1           0        1.340180   -0.659983    0.878434
 ---------------------------------------------------------------------

 SCF Done:  E(RHF) =  -283.029647953     A.U. after    2 cycles

 The electronic state is 1-A'.
 Alpha  occ. eigenvalues --  -20.59322 -20.58729 -15.78420 -11.32089 -11.25930
 Alpha  occ. eigenvalues --   -1.67141  -1.50924  -1.13848  -0.98584  -0.85901
 Alpha  occ. eigenvalues --   -0.77449  -0.76085  -0.74607  -0.64533  -0.60457
 Alpha  occ. eigenvalues --   -0.57338  -0.54504  -0.49055  -0.48352  -0.44978
 Alpha virt. eigenvalues --    0.02964   0.04119   0.04365   0.05088   0.06702
 Alpha virt. eigenvalues --    0.07390   0.10033   0.11831   0.13020   0.14101
 Alpha virt. eigenvalues --    0.14662   0.15949   0.16727   0.16892   0.18050

 Mulliken charges:
               1
     1  C   -0.269058
     2  C   -0.325482
     3  N    2.386957
     4  O   -1.372020
     5  O   -1.248114
     6  H    0.201304
     7  H    0.201304
     8  H    0.176662
     9  H    0.124224
    10  H    0.124224
 Sum of Mulliken charges =  -0.00000

 Dipole moment (field-independent basis, Debye):
    X=              1.4439    Y=             -3.8204    Z=             -0.0000  Tot=              4.0841

 Test job not archived.
 1\1\GINC-SE173\SP\RHF\Aug-CC-pVDZ\C2H5N1O2\OHZDE\05-Apr-2025\0\\#t hf
 aug-cc-pvdz iop(5/13=1,5/36=2,99/5=2) pseudo=read geom=check guess=(re
 ad,tcheck) scf=(maxcycle=1)\\title\\0,1\C,0,-0.252099,-1.864578,0.\C,0
 ,0.698505,-0.690619,0.\N,0,0.,0.657769,0.\O,0,0.728213,1.635752,0.\O,0
 ,-1.217324,0.683616,0.\H,0,-0.889475,-1.861633,0.881474\H,0,-0.889475,
 -1.861633,-0.881474\H,0,0.333046,-2.784908,0.\H,0,1.34018,-0.659983,-0
 .878434\H,0,1.34018,-0.659983,0.878434\\Version=ES64L-G16RevC.01\State
 =1-A'\HF=-283.029648\RMSD=1.630e-02\Dipole=0.5680567,-1.503049,0.\Quad

 Normal termination of Gaussian 16 at Sat Apr  5 23:10:30 2025.
