 Gaussian 16, Revision C.01,

 ----------------------------------------------------------------------
 #t hf aug-cc-pvdz symm=none int=(grid=ultrafine) guess=(read,tcheck) s
 table=(opt,rrhf)
 ----------------------------------------------------------------------
 -----
 title
 -----
 Symbolic Z-matrix:
 Charge =  0 Multiplicity = 1

 SCF Done:  E(RHF) =  -434.233337450     A.U. after   15 cycles
 Normal termination of Gaussian 16 at Sat Apr  5 23:11:07 2025.
 Gaussian 16:  ES64L-G16RevC.01  3-Jul-2019

 ----------------------------------------------------------------------
 #t hf aug-cc-pvdz iop(5/13=1,5/36=2,99/5=2) pseudo=read geom=check gue
 ss=(read,tcheck) scf=(maxcycle=1)
 ----------------------------------------------------------------------
 -----
 title
 -----
 Structure from the checkpoint file:  "nitrobenzene.chk"
 Charge =  0 Multiplicity = 1

                         Standard orientation:
 ---------------------------------------------------------------------
 Center     Atomic      Atomic             Coordinates (Angstroms)
 Number     Number       Type             X           Y           Z
 ---------------------------------------------------------------------
      1          6           0        0.000000    0.000000   -2.509568
      2          6           0        0.000000    1.206952   -1.817042
      3          6           0       -0.000000   -1.206952   -1.817042
      4          6           0        0.000000    1.215022   -0.429244
      5          6           0       -0.000000   -1.215022   -0.429244
      6          6           0        0.000000   -0.000000    0.241376
      7          7           0        0.000000   -0.000000    1.718131
      8          8           0        0.000000    1.082390    2.285939
      9          8           0       -0.000000   -1.082390    2.285939
     10          1           0        0.000000    0.000000   -3.590995
     11          1           0        0.000000    2.143267   -2.357131
     12          1           0       -0.000000   -2.143267   -2.357131
     13          1           0        0.000000    2.134833    0.133951
     14          1           0       -0.000000   -2.134833    0.133951
 ---------------------------------------------------------------------

 SCF Done:  E(RHF) =  -434.663133554     A.U. after    2 cycles

 The electronic state is 1-A1.
 Alpha  occ. eigenvalues --  -20.59005 -20.59001 -15.79307 -11.31622 -11.28242
 Alpha  occ. eigenvalues --  -11.28239 -11.28014 -11.27274 -11.27261  -1.67180
 Alpha  occ. eigenvalues --   -1.50775  -1.20787  -1.11144  -1.05715  -0.98450
 Alpha  occ. eigenvalues --   -0.87723  -0.84995  -0.80384  -0.74994  -0.74698
 Alpha  occ. eigenvalues --   -0.72366  -0.67637  -0.66199  -0.63854  -0.56819
 Alpha  occ. eigenvalues --   -0.54850  -0.54349  -0.49931  -0.48761  -0.45174
 Alpha  occ. eigenvalues --   -0.38851  -0.37936
 Alpha virt. eigenvalues --    0.02262   0.02650   0.03195   0.03956   0.06051
 Alpha virt. eigenvalues --    0.06115   0.08092   0.09768   0.10448   0.11605
 Alpha virt. eigenvalues --    0.12662   0.12669   0.13174   0.13304   0.13467

 Mulliken charges:
               1
     1  C   -0.087407
     2  C    0.531195
     3  C    0.531195
     4  C   -0.003322
     5  C   -0.003322
     6  C    0.056199
     7  N    2.948789
     8  O   -1.472649
     9  O   -1.472649
    10  H   -0.216561
    11  H   -0.215204
    12  H   -0.215204
    13  H   -0.190530
    14  H   -0.190530
 Sum of Mulliken charges =  -0.00000

 Dipole moment (field-independent basis, Debye):
    X=              0.0000    Y=              0.0000    Z=             -4.9272  Tot=              4.9272

 Test job not archived.
 1\1\GINC-SE172\SP\RHF\Aug-CC-pVDZ\C6H5N1O2\OHZDE\05-Apr-2025\0\\#t hf
 aug-cc-pvdz iop(5/13=1,5/36=2,99/5=2) pseudo=read geom=check guess=(re
 ad,tcheck) scf=(maxcycle=1)\\title\\0,1\C,0,0.,0.,-2.509568\C,0,0.,1.2
 06952,-1.817042\C,0,0.,-1.206952,-1.817042\C,0,0.,1.215022,-0.429244\C
 ,0,0.,-1.215022,-0.429244\C,0,0.,0.,0.241376\N,0,0.,0.,1.718131\O,0,0.
 ,1.08239,2.285939\O,0,0.,-1.08239,2.285939\H,0,0.,0.,-3.590995\H,0,0.,
 2.143267,-2.357131\H,0,0.,-2.143267,-2.357131\H,0,0.,2.134833,0.133951
 \H,0,0.,-2.134833,0.133951\\Version=ES64L-G16RevC.01\State=1-A1\HF=-43

 Normal termination of Gaussian 16 at Sat Apr  5 23:11:22 2025.
