 Gaussian 16, Revision C.01,

 ----------------------------------------------------------------------
 #t hf aug-cc-pvdz symm=none int=(grid=ultrafine) guess=(read,tcheck) s
 table=(opt,rrhf)
 ----------------------------------------------------------------------
 -----
 title
 -----
 Symbolic Z-matrix:
 Charge =  0 Multiplicity = 1

 SCF Done:  E(RHF) =  -351.319576444     A.U. after   13 cycles
 Normal termination of Gaussian 16 at Sat Apr  5 23:13:13 2025.
 Gaussian 16:  ES64L-G16RevC.01  3-Jul-2019

 ----------------------------------------------------------------------
 #t hf aug-cc-pvdz iop(5/13=1,5/36=2,99/5=2) pseudo=read geom=check gue
 ss=(read,tcheck) scf=(maxcycle=1)
 ----------------------------------------------------------------------
 -----
 title
 -----
 Structure from the checkpoint file:  "non-1-ene.chk"
 Charge =  0 Multiplicity = 1

                         Standard orientation:
 ---------------------------------------------------------------------
 Center     Atomic      Atomic             Coordinates (Angstroms)
 Number     Number       Type             X           Y           Z
 ---------------------------------------------------------------------
      1          6           0        4.970457   -0.129620    0.573340
      2          6           0        3.980470   -0.194879   -0.308575
      3          6           0       -3.651956   -0.553136    0.088042
      4          6           0        2.695911    0.573157   -0.232484
      5          6           0       -2.411683    0.337221    0.003428
      6          6           0        1.456682   -0.330273   -0.147562
      7          6           0       -1.096612   -0.441957   -0.031602
      8          6           0        0.142340    0.449970   -0.118069
      9          6           0       -4.960299    0.234816    0.126740
     10          1           0        5.870978   -0.718575    0.461701
     11          1           0        4.915733    0.519817    1.439288
     12          1           0        4.082499   -0.862497   -1.160575
     13          1           0       -3.662992   -1.236357   -0.766511
     14          1           0       -3.581017   -1.184624    0.978831
     15          1           0        2.603275    1.205727   -1.122753
     16          1           0        2.721293    1.246627    0.628130
     17          1           0       -2.482102    0.968002   -0.889247
     18          1           0       -2.402836    1.023095    0.857279
     19          1           0        1.452629   -1.017103   -0.999926
     20          1           0        1.532776   -0.955399    0.746703
     21          1           0       -1.106759   -1.128904   -0.884359
     22          1           0       -1.026517   -1.070974    0.862031
     23          1           0        0.074720    1.076852   -1.013503
     24          1           0        0.150888    1.138809    0.733091
     25          1           0       -5.824377   -0.428184    0.188857
     26          1           0       -5.077618    0.848983   -0.768541
     27          1           0       -4.992428    0.902909    0.989943
 ---------------------------------------------------------------------

 SCF Done:  E(RHF) =  -351.712422212     A.U. after    2 cycles

 The electronic state is 1-A.
 Alpha  occ. eigenvalues --  -11.23754 -11.23028 -11.22581 -11.22571 -11.22334
 Alpha  occ. eigenvalues --  -11.22323 -11.22196 -11.22124 -11.21955  -1.10232
 Alpha  occ. eigenvalues --   -1.07623  -1.03469  -0.98139  -0.91788  -0.84837
 Alpha  occ. eigenvalues --   -0.79693  -0.79123  -0.75900  -0.66707  -0.64848
 Alpha  occ. eigenvalues --   -0.62281  -0.60777  -0.59677  -0.57617  -0.57262
 Alpha  occ. eigenvalues --   -0.54387  -0.52775  -0.52384  -0.49700  -0.49085
 Alpha  occ. eigenvalues --   -0.48289  -0.47047  -0.46698  -0.46428  -0.45003
 Alpha  occ. eigenvalues --   -0.36523
 Alpha virt. eigenvalues --    0.03235   0.03388   0.03456   0.04169   0.04502
 Alpha virt. eigenvalues --    0.04874   0.05276   0.06168   0.06563   0.06969
 Alpha virt. eigenvalues --    0.07858   0.08175   0.08761   0.09645   0.10249

 Mulliken charges:
               1
     1  C   -0.112701
     2  C    1.003577
     3  C   -0.184473
     4  C   -0.428841
     5  C   -0.259502
     6  C   -0.494786
     7  C   -0.186428
     8  C   -0.266511
     9  C   -0.386993
    10  H   -0.114263
    11  H   -0.103278
    12  H   -0.217440
    13  H    0.112301
    14  H    0.113026
    15  H    0.186427
    16  H    0.054231
    17  H    0.101822
    18  H    0.103461
    19  H    0.114681
    20  H    0.125450
    21  H    0.102428
    22  H    0.108589
    23  H    0.107996
    24  H    0.096766
    25  H    0.109398
    26  H    0.157852
    27  H    0.157209
 Sum of Mulliken charges =  -0.00000

 Dipole moment (field-independent basis, Debye):
    X=             -0.4499    Y=              0.0079    Z=             -0.1308  Tot=              0.4686

 Test job not archived.
 1\1\GINC-SE202\SP\RHF\Aug-CC-pVDZ\C9H18\OHZDE\05-Apr-2025\0\\#t hf aug
 -cc-pvdz iop(5/13=1,5/36=2,99/5=2) pseudo=read geom=check guess=(read,
 tcheck) scf=(maxcycle=1)\\title\\0,1\C,0,4.970457,-0.12962,0.57334\C,0
 ,3.98047,-0.194879,-0.308575\C,0,-3.651956,-0.553136,0.088042\C,0,2.69
 5911,0.573157,-0.232484\C,0,-2.411683,0.337221,0.003428\C,0,1.456682,-
 0.330273,-0.147562\C,0,-1.096612,-0.441957,-0.031602\C,0,0.14234,0.449
 97,-0.118069\C,0,-4.960299,0.234816,0.12674\H,0,5.870978,-0.718575,0.4
 61701\H,0,4.915733,0.519817,1.439288\H,0,4.082499,-0.862497,-1.160575\

 Normal termination of Gaussian 16 at Sat Apr  5 23:13:43 2025.
