 Gaussian 16, Revision C.01,

 ----------------------------------------------------------------------
 #t hf aug-cc-pvdz symm=none int=(grid=ultrafine) guess=(read,tcheck) s
 table=(opt,rrhf)
 ----------------------------------------------------------------------
 -----
 title
 -----
 Symbolic Z-matrix:
 Charge =  0 Multiplicity = 1

 SCF Done:  E(RHF) =  -427.377137982     A.U. after   12 cycles

 1\1\GINC-SE203\Stability\RHF\Aug-CC-pVDZ\C9H20O1\OHZDE\05-Apr-2025\0\\
 #t hf aug-cc-pvdz symm=none int=(grid=ultrafine) guess=(read,tcheck) s
 table=(opt,rrhf)\\title\\0,1\C,0,5.737654,0.300711,0.011156\C,0,4.4481
 92,-0.518362,-0.011562\C,0,3.184431,0.342309,0.009963\C,0,1.888085,-0.
 468013,-0.011393\C,0,0.625303,0.394075,0.008474\C,0,-0.671025,-0.41650
 6,-0.012685\C,0,-1.93292,0.447391,0.006322\C,0,-3.22854,-0.365266,-0.0
 19608\C,0,-4.476648,0.508022,0.005687\O,0,-5.690067,-0.238804,-0.07533
 2\H,0,6.619389,-0.341382,-0.00638\H,0,5.796144,0.967682,-0.851502\H,0,

 Normal termination of Gaussian 16 at Sat Apr  5 23:14:32 2025.
 Gaussian 16:  ES64L-G16RevC.01  3-Jul-2019

 ----------------------------------------------------------------------
 #t hf aug-cc-pvdz iop(5/13=1,5/36=2,99/5=2) pseudo=read geom=check gue
 ss=(read,tcheck) scf=(maxcycle=1)
 ----------------------------------------------------------------------
 -----
 title
 -----
 Structure from the checkpoint file:  "nonan-1-ol.chk"
 Charge =  0 Multiplicity = 1

                         Standard orientation:
 ---------------------------------------------------------------------
 Center     Atomic      Atomic             Coordinates (Angstroms)
 Number     Number       Type             X           Y           Z
 ---------------------------------------------------------------------
      1          6           0        5.737654    0.300711    0.011156
      2          6           0        4.448192   -0.518362   -0.011562
      3          6           0        3.184431    0.342309    0.009963
      4          6           0        1.888085   -0.468013   -0.011393
      5          6           0        0.625303    0.394075    0.008474
      6          6           0       -0.671025   -0.416506   -0.012685
      7          6           0       -1.932920    0.447391    0.006322
      8          6           0       -3.228540   -0.365266   -0.019608
      9          6           0       -4.476648    0.508022    0.005687
     10          8           0       -5.690067   -0.238804   -0.075332
     11          1           0        6.619389   -0.341382   -0.006380
     12          1           0        5.796144    0.967682   -0.851502
     13          1           0        5.795907    0.919276    0.909188
     14          1           0        4.433983   -1.199317    0.844790
     15          1           0        4.435354   -1.153265   -0.902627
     16          1           0        3.198187    0.979052    0.901047
     17          1           0        3.198984    1.023585   -0.847491
     18          1           0        1.874006   -1.148349    0.846661
     19          1           0        1.875740   -1.105201   -0.901950
     20          1           0        0.637718    1.031678    0.898752
     21          1           0        0.639314    1.073915   -0.849865
     22          1           0       -0.686189   -1.095875    0.845940
     23          1           0       -0.684331   -1.053895   -0.902720
     24          1           0       -1.919452    1.084161    0.897002
     25          1           0       -1.916317    1.126849   -0.852022
     26          1           0       -3.259860   -0.993407   -0.913658
     27          1           0       -3.249682   -1.044442    0.840338
     28          1           0       -4.476569    1.142168    0.900551
     29          1           0       -4.490512    1.170814   -0.860513
     30          1           0       -5.748466   -0.819778    0.688990
 ---------------------------------------------------------------------

 SCF Done:  E(RHF) =  -427.849301596     A.U. after    2 cycles

 The electronic state is 1-A.
 Alpha  occ. eigenvalues --  -20.54296 -11.27942 -11.22906 -11.22774 -11.22581
 Alpha  occ. eigenvalues --  -11.22409 -11.22386 -11.22279 -11.22201 -11.22020
 Alpha  occ. eigenvalues --   -1.43974  -1.10186  -1.07397  -1.03014  -0.97503
 Alpha  occ. eigenvalues --   -0.91323  -0.85395  -0.81226  -0.79491  -0.79026
 Alpha  occ. eigenvalues --   -0.69192  -0.66561  -0.64374  -0.61904  -0.61140
 Alpha  occ. eigenvalues --   -0.59811  -0.58744  -0.57676  -0.55377  -0.54230
 Alpha  occ. eigenvalues --   -0.53140  -0.51331  -0.50154  -0.48952  -0.48056
 Alpha  occ. eigenvalues --   -0.47615  -0.46936  -0.46724  -0.46503  -0.45383
 Alpha  occ. eigenvalues --   -0.42639
 Alpha virt. eigenvalues --    0.02987   0.03108   0.03393   0.04115   0.04299
 Alpha virt. eigenvalues --    0.04617   0.05013   0.06057   0.06243   0.06692
 Alpha virt. eigenvalues --    0.07256   0.07809   0.08917   0.09229   0.09984

 Mulliken charges:
               1
     1  C   -0.382907
     2  C   -0.168715
     3  C   -0.298023
     4  C   -0.192537
     5  C   -0.207616
     6  C   -0.225308
     7  C   -0.329909
     8  C   -0.139415
     9  C    0.781840
    10  O   -1.234441
    11  H    0.109339
    12  H    0.158291
    13  H    0.158265
    14  H    0.110882
    15  H    0.110471
    16  H    0.100727
    17  H    0.100675
    18  H    0.102417
    19  H    0.105620
    20  H    0.113096
    21  H    0.114974
    22  H    0.106210
    23  H    0.098841
    24  H    0.113236
    25  H    0.109853
    26  H    0.132494
    27  H    0.084820
    28  H    0.108946
    29  H    0.049951
    30  H    0.307922
 Sum of Mulliken charges =  -0.00000

 Dipole moment (field-independent basis, Debye):
    X=              1.4794    Y=             -0.1819    Z=              1.1572  Tot=              1.8870

 Test job not archived.
 1\1\GINC-SE203\SP\RHF\Aug-CC-pVDZ\C9H20O1\OHZDE\05-Apr-2025\0\\#t hf a
 ug-cc-pvdz iop(5/13=1,5/36=2,99/5=2) pseudo=read geom=check guess=(rea
 d,tcheck) scf=(maxcycle=1)\\title\\0,1\C,0,5.737654,0.300711,0.011156\
 C,0,4.448192,-0.518362,-0.011562\C,0,3.184431,0.342309,0.009963\C,0,1.
 888085,-0.468013,-0.011393\C,0,0.625303,0.394075,0.008474\C,0,-0.67102
 5,-0.416506,-0.012685\C,0,-1.93292,0.447391,0.006322\C,0,-3.22854,-0.3
 65266,-0.019608\C,0,-4.476648,0.508022,0.005687\O,0,-5.690067,-0.23880
 4,-0.075332\H,0,6.619389,-0.341382,-0.00638\H,0,5.796144,0.967682,-0.8

 Normal termination of Gaussian 16 at Sat Apr  5 23:16:13 2025.
