 Gaussian 16, Revision C.01,

 ----------------------------------------------------------------------
 #t hf aug-cc-pvdz symm=none int=(grid=ultrafine) guess=(read,tcheck) s
 table=(opt,rrhf)
 ----------------------------------------------------------------------
 -----
 title
 -----
 Symbolic Z-matrix:
 Charge =  0 Multiplicity = 1

 SCF Done:  E(RHF) =  -352.509218687     A.U. after   11 cycles
 Normal termination of Gaussian 16 at Sat Apr  5 23:13:39 2025.
 Gaussian 16:  ES64L-G16RevC.01  3-Jul-2019

 ----------------------------------------------------------------------
 #t hf aug-cc-pvdz iop(5/13=1,5/36=2,99/5=2) pseudo=read geom=check gue
 ss=(read,tcheck) scf=(maxcycle=1)
 ----------------------------------------------------------------------
 -----
 title
 -----
 Structure from the checkpoint file:  "nonane.chk"
 Charge =  0 Multiplicity = 1

                         Standard orientation:
 ---------------------------------------------------------------------
 Center     Atomic      Atomic             Coordinates (Angstroms)
 Number     Number       Type             X           Y           Z
 ---------------------------------------------------------------------
      1          6           0        0.000000    5.113451    0.369764
      2          6           0       -0.000000   -5.113451    0.369764
      3          6           0        0.000000    3.841175   -0.476207
      4          6           0       -0.000000   -3.841175   -0.476207
      5          6           0        0.000000    2.559853    0.358568
      6          6           0       -0.000000   -2.559853    0.358568
      7          6           0        0.000000    1.280240   -0.478345
      8          6           0       -0.000000   -1.280240   -0.478345
      9          6           0        0.000000   -0.000000    0.358018
     10          1           0        0.880614    5.158370    1.014023
     11          1           0        0.000000    6.008632   -0.253795
     12          1           0       -0.880614    5.158370    1.014023
     13          1           0       -0.000000   -6.008632   -0.253795
     14          1           0       -0.880614   -5.158370    1.014023
     15          1           0        0.880614   -5.158370    1.014023
     16          1           0       -0.873886    3.841226   -1.134700
     17          1           0        0.873886    3.841226   -1.134700
     18          1           0       -0.873886   -3.841226   -1.134700
     19          1           0        0.873886   -3.841226   -1.134700
     20          1           0        0.874404    2.560551    1.018190
     21          1           0       -0.874404    2.560551    1.018190
     22          1           0       -0.874404   -2.560551    1.018190
     23          1           0        0.874404   -2.560551    1.018190
     24          1           0        0.874440    1.280475   -1.137677
     25          1           0       -0.874440    1.280475   -1.137677
     26          1           0       -0.874440   -1.280475   -1.137677
     27          1           0        0.874440   -1.280475   -1.137677
     28          1           0        0.874372   -0.000000    1.017387
     29          1           0       -0.874372    0.000000    1.017387
 ---------------------------------------------------------------------

 SCF Done:  E(RHF) =  -352.909547817     A.U. after    2 cycles

 The electronic state is 1-A1.
 Alpha  occ. eigenvalues --  -11.22202 -11.22199 -11.21961 -11.21958 -11.21950
 Alpha  occ. eigenvalues --  -11.21938 -11.21914 -11.21851 -11.21848  -1.09717
 Alpha  occ. eigenvalues --   -1.07049  -1.02876  -0.97566  -0.91461  -0.85133
 Alpha  occ. eigenvalues --   -0.80142  -0.78936  -0.78480  -0.66390  -0.64214
 Alpha  occ. eigenvalues --   -0.60872  -0.60226  -0.59511  -0.56912  -0.56273
 Alpha  occ. eigenvalues --   -0.56247  -0.52909  -0.52347  -0.49817  -0.49505
 Alpha  occ. eigenvalues --   -0.48757  -0.47251  -0.47095  -0.46267  -0.46251
 Alpha  occ. eigenvalues --   -0.46146  -0.43704
 Alpha virt. eigenvalues --    0.03243   0.03336   0.03402   0.04138   0.04462
 Alpha virt. eigenvalues --    0.04764   0.04970   0.06270   0.06311   0.06838
 Alpha virt. eigenvalues --    0.07208   0.07972   0.08885   0.09419   0.10132

 Mulliken charges:
               1
     1  C   -0.384581
     2  C   -0.384581
     3  C   -0.171832
     4  C   -0.171832
     5  C   -0.297339
     6  C   -0.297339
     7  C   -0.205244
     8  C   -0.205244
     9  C   -0.222671
    10  H    0.158149
    11  H    0.108851
    12  H    0.158149
    13  H    0.108851
    14  H    0.158149
    15  H    0.158149
    16  H    0.110791
    17  H    0.110791
    18  H    0.110791
    19  H    0.110791
    20  H    0.100391
    21  H    0.100391
    22  H    0.100391
    23  H    0.100391
    24  H    0.103341
    25  H    0.103341
    26  H    0.103341
    27  H    0.103341
    28  H    0.116138
    29  H    0.116138
 Sum of Mulliken charges =  -0.00000

 Dipole moment (field-independent basis, Debye):
    X=              0.0000    Y=             -0.0000    Z=             -0.0870  Tot=              0.0870

 Test job not archived.
 1\1\GINC-SE204\SP\RHF\Aug-CC-pVDZ\C9H20\OHZDE\05-Apr-2025\0\\#t hf aug
 -cc-pvdz iop(5/13=1,5/36=2,99/5=2) pseudo=read geom=check guess=(read,
 tcheck) scf=(maxcycle=1)\\title\\0,1\C,0,0.,5.113451,0.369764\C,0,0.,-
 5.113451,0.369764\C,0,0.,3.841175,-0.476207\C,0,0.,-3.841175,-0.476207
 \C,0,0.,2.559853,0.358568\C,0,0.,-2.559853,0.358568\C,0,0.,1.28024,-0.
 478345\C,0,0.,-1.28024,-0.478345\C,0,0.,0.,0.358018\H,0,0.880614,5.158
 37,1.014023\H,0,0.,6.008632,-0.253795\H,0,-0.880614,5.15837,1.014023\H
 ,0,0.,-6.008632,-0.253795\H,0,-0.880614,-5.15837,1.014023\H,0,0.880614

 Normal termination of Gaussian 16 at Sat Apr  5 23:13:55 2025.
