 Gaussian 16, Revision C.01,

 ----------------------------------------------------------------------
 #t hf aug-cc-pvdz symm=none int=(grid=ultrafine) guess=(read,tcheck) s
 table=(opt,rrhf)
 ----------------------------------------------------------------------
 -----
 title
 -----
 Symbolic Z-matrix:
 Charge =  0 Multiplicity = 1

 SCF Done:  E(RHF) =  -272.088437544     A.U. after   11 cycles
 Normal termination of Gaussian 16 at Sat Apr  5 23:11:10 2025.
 Gaussian 16:  ES64L-G16RevC.01  3-Jul-2019

 ----------------------------------------------------------------------
 #t hf aug-cc-pvdz iop(5/13=1,5/36=2,99/5=2) pseudo=read geom=check gue
 ss=(read,tcheck) scf=(maxcycle=1)
 ----------------------------------------------------------------------
 -----
 title
 -----
 Structure from the checkpoint file:  "norborane.chk"
 Charge =  0 Multiplicity = 1

                         Standard orientation:
 ---------------------------------------------------------------------
 Center     Atomic      Atomic             Coordinates (Angstroms)
 Number     Number       Type             X           Y           Z
 ---------------------------------------------------------------------
      1          6           0        0.000000    0.000000    1.385266
      2          6           0        0.000000    1.130265    0.339297
      3          6           0       -0.000000   -1.130265    0.339297
      4          6           0        1.252143    0.780951   -0.492266
      5          6           0       -1.252143    0.780951   -0.492266
      6          6           0       -1.252143   -0.780951   -0.492266
      7          6           0        1.252143   -0.780951   -0.492266
      8          1           0       -0.887352    0.000000    2.020515
      9          1           0        0.887352   -0.000000    2.020515
     10          1           0        0.000000    2.146851    0.729171
     11          1           0       -0.000000   -2.146851    0.729171
     12          1           0        2.153759    1.172887   -0.019845
     13          1           0       -2.153759   -1.172887   -0.019845
     14          1           0        2.153759   -1.172887   -0.019845
     15          1           0       -2.153759    1.172887   -0.019845
     16          1           0        1.204295   -1.201509   -1.497189
     17          1           0       -1.204295    1.201509   -1.497189
     18          1           0        1.204295    1.201509   -1.497189
     19          1           0       -1.204295   -1.201509   -1.497189
 ---------------------------------------------------------------------

 SCF Done:  E(RHF) =  -272.389032692     A.U. after    2 cycles

 The electronic state is 1-A1.
 Alpha  occ. eigenvalues --  -11.22307 -11.22258 -11.21886 -11.21862 -11.21851
 Alpha  occ. eigenvalues --  -11.21847 -11.21658  -1.16281  -0.99623  -0.97640
 Alpha  occ. eigenvalues --   -0.94003  -0.82394  -0.75901  -0.73168  -0.68786
 Alpha  occ. eigenvalues --   -0.64379  -0.63332  -0.55376  -0.55028  -0.51101
 Alpha  occ. eigenvalues --   -0.50017  -0.49075  -0.47404  -0.47162  -0.45146
 Alpha  occ. eigenvalues --   -0.43764  -0.42478
 Alpha virt. eigenvalues --    0.03458   0.03633   0.03912   0.04026   0.05679
 Alpha virt. eigenvalues --    0.05964   0.06249   0.06256   0.06384   0.09219
 Alpha virt. eigenvalues --    0.09381   0.09742   0.12440   0.13262   0.14224

 Mulliken charges:
               1
     1  C    0.315699
     2  C   -0.369463
     3  C   -0.369463
     4  C   -0.055019
     5  C   -0.055019
     6  C   -0.055019
     7  C   -0.055019
     8  H    0.029287
     9  H    0.029287
    10  H    0.025877
    11  H    0.025877
    12  H    0.058564
    13  H    0.058564
    14  H    0.058564
    15  H    0.058564
    16  H    0.074680
    17  H    0.074680
    18  H    0.074680
    19  H    0.074680
 Sum of Mulliken charges =  -0.00000

 Dipole moment (field-independent basis, Debye):
    X=              0.0000    Y=             -0.0000    Z=              0.0838  Tot=              0.0838

 Test job not archived.
 1\1\GINC-SE205\SP\RHF\Aug-CC-pVDZ\C7H12\OHZDE\05-Apr-2025\0\\#t hf aug
 -cc-pvdz iop(5/13=1,5/36=2,99/5=2) pseudo=read geom=check guess=(read,
 tcheck) scf=(maxcycle=1)\\title\\0,1\C,0,0.,0.,1.385266\C,0,0.,1.13026
 5,0.339297\C,0,0.,-1.130265,0.339297\C,0,1.252143,0.780951,-0.492266\C
 ,0,-1.252143,0.780951,-0.492266\C,0,-1.252143,-0.780951,-0.492266\C,0,
 1.252143,-0.780951,-0.492266\H,0,-0.887352,0.,2.020515\H,0,0.887352,0.
 ,2.020515\H,0,0.,2.146851,0.729171\H,0,0.,-2.146851,0.729171\H,0,2.153
 759,1.172887,-0.019845\H,0,-2.153759,-1.172887,-0.019845\H,0,2.153759,

 Normal termination of Gaussian 16 at Sat Apr  5 23:11:23 2025.
