 Gaussian 16, Revision C.01,

 ----------------------------------------------------------------------
 #t hf aug-cc-pvdz symm=none int=(grid=ultrafine) guess=(read,tcheck) s
 table=(opt,rrhf)
 ----------------------------------------------------------------------
 -----
 title
 -----
 Symbolic Z-matrix:
 Charge =  0 Multiplicity = 1

 SCF Done:  E(RHF) =  -269.682847108     A.U. after   12 cycles
 Normal termination of Gaussian 16 at Sat Apr  5 23:10:52 2025.
 Gaussian 16:  ES64L-G16RevC.01  3-Jul-2019

 ----------------------------------------------------------------------
 #t hf aug-cc-pvdz iop(5/13=1,5/36=2,99/5=2) pseudo=read geom=check gue
 ss=(read,tcheck) scf=(maxcycle=1)
 ----------------------------------------------------------------------
 -----
 title
 -----
 Structure from the checkpoint file:  "norbornadiene.chk"
 Charge =  0 Multiplicity = 1

                         Standard orientation:
 ---------------------------------------------------------------------
 Center     Atomic      Atomic             Coordinates (Angstroms)
 Number     Number       Type             X           Y           Z
 ---------------------------------------------------------------------
      1          6           0        0.000000    0.000000    1.353978
      2          6           0        0.000000    1.120429    0.272438
      3          6           0       -0.000000   -1.120429    0.272438
      4          6           0        1.240122    0.664758   -0.520057
      5          6           0        1.240122   -0.664758   -0.520057
      6          6           0       -1.240122    0.664758   -0.520057
      7          6           0       -1.240122   -0.664758   -0.520057
      8          1           0       -0.896605    0.000000    1.972745
      9          1           0        0.896605   -0.000000    1.972745
     10          1           0        0.000000    2.152954    0.608976
     11          1           0       -0.000000   -2.152954    0.608976
     12          1           0        1.927551    1.330663   -1.018798
     13          1           0        1.927551   -1.330663   -1.018798
     14          1           0       -1.927551    1.330663   -1.018798
     15          1           0       -1.927551   -1.330663   -1.018798
 ---------------------------------------------------------------------

 SCF Done:  E(RHF) =  -269.969360230     A.U. after    2 cycles

 The electronic state is 1-A1.
 Alpha  occ. eigenvalues --  -11.24247 -11.24199 -11.23171 -11.22825 -11.22802
 Alpha  occ. eigenvalues --  -11.22715 -11.22680  -1.18887  -1.01850  -0.95859
 Alpha  occ. eigenvalues --   -0.94588  -0.78076  -0.76552  -0.71568  -0.69396
 Alpha  occ. eigenvalues --   -0.66169  -0.59212  -0.54030  -0.53285  -0.52385
 Alpha  occ. eigenvalues --   -0.50038  -0.47117  -0.47063  -0.36980  -0.32807
 Alpha virt. eigenvalues --    0.03428   0.03705   0.03896   0.04129   0.05627
 Alpha virt. eigenvalues --    0.05914   0.06142   0.06401   0.10360   0.11797
 Alpha virt. eigenvalues --    0.12040   0.13583   0.13920   0.14508   0.14513

 Mulliken charges:
               1
     1  C    0.064249
     2  C   -0.289267
     3  C   -0.289267
     4  C    0.380000
     5  C    0.380000
     6  C    0.380000
     7  C    0.380000
     8  H   -0.009058
     9  H   -0.009058
    10  H   -0.148043
    11  H   -0.148043
    12  H   -0.172877
    13  H   -0.172877
    14  H   -0.172877
    15  H   -0.172877
 Sum of Mulliken charges =  -0.00000

 Dipole moment (field-independent basis, Debye):
    X=              0.0000    Y=              0.0000    Z=              0.0335  Tot=              0.0335

 Test job not archived.
 1\1\GINC-SE206\SP\RHF\Aug-CC-pVDZ\C7H8\OHZDE\05-Apr-2025\0\\#t hf aug-
 cc-pvdz iop(5/13=1,5/36=2,99/5=2) pseudo=read geom=check guess=(read,t
 check) scf=(maxcycle=1)\\title\\0,1\C,0,0.,0.,1.353978\C,0,0.,1.120429
 ,0.272438\C,0,0.,-1.120429,0.272438\C,0,1.240122,0.664758,-0.520057\C,
 0,1.240122,-0.664758,-0.520057\C,0,-1.240122,0.664758,-0.520057\C,0,-1
 .240122,-0.664758,-0.520057\H,0,-0.896605,0.,1.972745\H,0,0.896605,0.,
 1.972745\H,0,0.,2.152954,0.608976\H,0,0.,-2.152954,0.608976\H,0,1.9275
 51,1.330663,-1.018798\H,0,1.927551,-1.330663,-1.018798\H,0,-1.927551,1

 Normal termination of Gaussian 16 at Sat Apr  5 23:10:56 2025.
