 Gaussian 16, Revision C.01,

 ----------------------------------------------------------------------
 #t hf aug-cc-pvdz symm=none int=(grid=ultrafine) guess=(read,tcheck) s
 table=(opt,rrhf)
 ----------------------------------------------------------------------
 -----
 title
 -----
 Symbolic Z-matrix:
 Charge =  0 Multiplicity = 1

 SCF Done:  E(RHF) =  -272.063922666     A.U. after   12 cycles
 Normal termination of Gaussian 16 at Sat Apr  5 23:11:08 2025.
 Gaussian 16:  ES64L-G16RevC.01  3-Jul-2019

 ----------------------------------------------------------------------
 #t hf aug-cc-pvdz iop(5/13=1,5/36=2,99/5=2) pseudo=read geom=check gue
 ss=(read,tcheck) scf=(maxcycle=1)
 ----------------------------------------------------------------------
 -----
 title
 -----
 Structure from the checkpoint file:  "norcarane.chk"
 Charge =  0 Multiplicity = 1

                         Standard orientation:
 ---------------------------------------------------------------------
 Center     Atomic      Atomic             Coordinates (Angstroms)
 Number     Number       Type             X           Y           Z
 ---------------------------------------------------------------------
      1          6           0        0.975299    0.827111   -0.352809
      2          6           0        1.037330   -0.681581   -0.465009
      3          6           0        1.707835    0.013482    0.686561
      4          6           0       -0.339639    1.518890    0.000186
      5          6           0       -0.218086   -1.511099   -0.270848
      6          6           0       -1.568408    0.613209   -0.153427
      7          6           0       -1.336768   -0.765176    0.466692
      8          1           0        1.606840    1.375880   -1.039268
      9          1           0        1.707047   -1.069245   -1.223026
     10          1           0        2.788502    0.048694    0.705499
     11          1           0        1.251515   -0.062096    1.665475
     12          1           0       -0.295481    1.889223    1.028594
     13          1           0       -0.460026    2.400340   -0.631932
     14          1           0       -0.593963   -1.797410   -1.258217
     15          1           0        0.025275   -2.442322    0.248361
     16          1           0       -2.438162    1.095924    0.297128
     17          1           0       -1.797265    0.485618   -1.216378
     18          1           0       -2.251524   -1.359759    0.428994
     19          1           0       -1.088138   -0.653867    1.526702
 ---------------------------------------------------------------------

 SCF Done:  E(RHF) =  -272.364285674     A.U. after    2 cycles

 The electronic state is 1-A.
 Alpha  occ. eigenvalues --  -11.22733 -11.22645 -11.22320 -11.22255 -11.22136
 Alpha  occ. eigenvalues --  -11.22049 -11.22016  -1.15748  -1.05469  -1.00043
 Alpha  occ. eigenvalues --   -0.88465  -0.82622  -0.79221  -0.72014  -0.68623
 Alpha  occ. eigenvalues --   -0.62387  -0.60771  -0.59669  -0.58247  -0.53505
 Alpha  occ. eigenvalues --   -0.52015  -0.49908  -0.47627  -0.47406  -0.44672
 Alpha  occ. eigenvalues --   -0.40055  -0.39147
 Alpha virt. eigenvalues --    0.03418   0.03639   0.03769   0.04083   0.05783
 Alpha virt. eigenvalues --    0.05830   0.06137   0.06304   0.06626   0.09196
 Alpha virt. eigenvalues --    0.09487   0.09712   0.12767   0.13547   0.14135

 Mulliken charges:
               1
     1  C    0.493467
     2  C    0.465447
     3  C    0.085215
     4  C   -0.516633
     5  C   -0.460102
     6  C   -0.151100
     7  C   -0.273874
     8  H   -0.196144
     9  H   -0.206004
    10  H   -0.172592
    11  H   -0.122850
    12  H    0.145899
    13  H    0.110140
    14  H    0.175630
    15  H    0.126966
    16  H    0.107894
    17  H    0.136805
    18  H    0.095093
    19  H    0.156744
 Sum of Mulliken charges =   0.00000

 Dipole moment (field-independent basis, Debye):
    X=             -0.1293    Y=              0.0055    Z=             -0.1312  Tot=              0.1843

 Test job not archived.
 1\1\GINC-SE249\SP\RHF\Aug-CC-pVDZ\C7H12\OHZDE\05-Apr-2025\0\\#t hf aug
 -cc-pvdz iop(5/13=1,5/36=2,99/5=2) pseudo=read geom=check guess=(read,
 tcheck) scf=(maxcycle=1)\\title\\0,1\C,0,0.975299,0.827111,-0.352809\C
 ,0,1.03733,-0.681581,-0.465009\C,0,1.707835,0.013482,0.686561\C,0,-0.3
 39639,1.51889,0.000186\C,0,-0.218086,-1.511099,-0.270848\C,0,-1.568408
 ,0.613209,-0.153427\C,0,-1.336768,-0.765176,0.466692\H,0,1.60684,1.375
 88,-1.039268\H,0,1.707047,-1.069245,-1.223026\H,0,2.788502,0.048694,0.
 705499\H,0,1.251515,-0.062096,1.665475\H,0,-0.295481,1.889223,1.028594

 Normal termination of Gaussian 16 at Sat Apr  5 23:11:25 2025.
