 Gaussian 16, Revision C.01,

 ----------------------------------------------------------------------
 #t hf aug-cc-pvdz symm=none int=(grid=ultrafine) guess=(read,tcheck) s
 table=(opt,rrhf)
 ----------------------------------------------------------------------
 -----
 title
 -----
 Symbolic Z-matrix:
 Charge =  0 Multiplicity = 1

 SCF Done:  E(RHF) =  -344.642693108     A.U. after   15 cycles
 Normal termination of Gaussian 16 at Sat Apr  5 23:11:03 2025.
 Gaussian 16:  ES64L-G16RevC.01  3-Jul-2019

 ----------------------------------------------------------------------
 #t hf aug-cc-pvdz iop(5/13=1,5/36=2,99/5=2) pseudo=read geom=check gue
 ss=(read,tcheck) scf=(maxcycle=1)
 ----------------------------------------------------------------------
 -----
 title
 -----
 Structure from the checkpoint file:  "o-cresol.chk"
 Charge =  0 Multiplicity = 1

                         Standard orientation:
 ---------------------------------------------------------------------
 Center     Atomic      Atomic             Coordinates (Angstroms)
 Number     Number       Type             X           Y           Z
 ---------------------------------------------------------------------
      1          6           0        1.183630   -1.657236    0.000000
      2          6           0        1.978197   -0.519415    0.000000
      3          6           0       -0.201692   -1.524488    0.000000
      4          6           0        1.385481    0.737927    0.000000
      5          6           0       -0.822901   -0.278622    0.000000
      6          6           0        0.000000    0.854617    0.000000
      7          6           0       -2.318300   -0.130060    0.000000
      8          8           0       -0.625320    2.075643    0.000000
      9          1           0        1.634666   -2.639701    0.000000
     10          1           0        3.056498   -0.602769    0.000000
     11          1           0       -0.822640   -2.411682    0.000000
     12          1           0        1.999453    1.631427    0.000000
     13          1           0       -2.661652    0.425255    0.874779
     14          1           0       -2.661652    0.425255   -0.874779
     15          1           0       -2.803146   -1.104999    0.000000
     16          1           0        0.034538    2.775735    0.000000
 ---------------------------------------------------------------------

 SCF Done:  E(RHF) =  -344.999511460     A.U. after    2 cycles

 The electronic state is 1-A'.
 Alpha  occ. eigenvalues --  -20.57884 -11.30324 -11.24332 -11.24068 -11.23975
 Alpha  occ. eigenvalues --  -11.23895 -11.23182 -11.22762  -1.49114  -1.15388
 Alpha  occ. eigenvalues --   -1.04943  -1.00826  -0.93565  -0.85245  -0.81070
 Alpha  occ. eigenvalues --   -0.73633  -0.68683  -0.66148  -0.61428  -0.60165
 Alpha  occ. eigenvalues --   -0.59163  -0.57002  -0.55289  -0.55091  -0.51173
 Alpha  occ. eigenvalues --   -0.49731  -0.48287  -0.34345  -0.31708
 Alpha virt. eigenvalues --    0.03103   0.03636   0.03993   0.04986   0.05354
 Alpha virt. eigenvalues --    0.05967   0.07950   0.08151   0.10630   0.10921
 Alpha virt. eigenvalues --    0.11950   0.12853   0.13272   0.13678   0.13779

 Mulliken charges:
               1
     1  C   -0.095067
     2  C    0.057149
     3  C    0.763852
     4  C   -0.093386
     5  C    0.146628
     6  C    1.995111
     7  C   -0.731131
     8  O   -1.872582
     9  H   -0.246346
    10  H   -0.213303
    11  H   -0.276999
    12  H   -0.356679
    13  H    0.232866
    14  H    0.232866
    15  H    0.025423
    16  H    0.431600
 Sum of Mulliken charges =  -0.00000

 Dipole moment (field-independent basis, Debye):
    X=              0.8604    Y=              0.5355    Z=              0.0000  Tot=              1.0135

 Test job not archived.
 1\1\GINC-SE249\SP\RHF\Aug-CC-pVDZ\C7H8O1\OHZDE\05-Apr-2025\0\\#t hf au
 g-cc-pvdz iop(5/13=1,5/36=2,99/5=2) pseudo=read geom=check guess=(read
 ,tcheck) scf=(maxcycle=1)\\title\\0,1\C,0,1.18363,-1.657236,0.\C,0,1.9
 78197,-0.519415,0.\C,0,-0.201692,-1.524488,0.\C,0,1.385481,0.737927,0.
 \C,0,-0.822901,-0.278622,0.\C,0,0.,0.854617,0.\C,0,-2.3183,-0.13006,0.
 \O,0,-0.62532,2.075643,0.\H,0,1.634666,-2.639701,0.\H,0,3.056498,-0.60
 2769,0.\H,0,-0.82264,-2.411682,0.\H,0,1.999453,1.631427,0.\H,0,-2.6616
 52,0.425255,0.874779\H,0,-2.661652,0.425255,-0.874779\H,0,-2.803146,-1

 Normal termination of Gaussian 16 at Sat Apr  5 23:11:24 2025.
