 Gaussian 16, Revision C.01,

 ----------------------------------------------------------------------
 #t hf aug-cc-pvdz symm=none int=(grid=ultrafine) guess=(read,tcheck) s
 table=(opt,rrhf)
 ----------------------------------------------------------------------
 -----
 title
 -----
 Symbolic Z-matrix:
 Charge =  0 Multiplicity = 1

 SCF Done:  E(RHF) =  -1148.56655675     A.U. after   15 cycles

 1\1\GINC-SE252\Stability\RHF\Aug-CC-pVDZ\C6H4Cl2\OHZDE\05-Apr-2025\0\\
 #t hf aug-cc-pvdz symm=none int=(grid=ultrafine) guess=(read,tcheck) s
 table=(opt,rrhf)\\title\\0,1\C,0,0.,0.694844,2.382562\C,0,0.,-0.694844
 ,2.382562\C,0,0.,1.388047,1.181404\C,0,0.,-1.388047,1.181404\C,0,0.,0.
 697332,-0.025757\C,0,0.,-0.697332,-0.025757\Cl,0,0.,1.60509,-1.512263\
 Cl,0,0.,-1.60509,-1.512263\H,0,0.,1.242555,3.314599\H,0,0.,-1.242555,3
 .314599\H,0,0.,2.468014,1.164618\H,0,0.,-2.468014,1.164618\\Version=ES
 64L-G16RevC.01\HF=-1148.5665568\RMSD=5.281e-09\Dipole=0.,0.,1.166877\Q

 Normal termination of Gaussian 16 at Sat Apr  5 23:10:41 2025.
 Gaussian 16:  ES64L-G16RevC.01  3-Jul-2019

 ----------------------------------------------------------------------
 #t hf aug-cc-pvdz iop(5/13=1,5/36=2,99/5=2) pseudo=read geom=check gue
 ss=(read,tcheck) scf=(maxcycle=1)
 ----------------------------------------------------------------------
 -----
 title
 -----
 Structure from the checkpoint file:  "o-dichlorobenzene.chk"
 Charge =  0 Multiplicity = 1

                         Standard orientation:
 ---------------------------------------------------------------------
 Center     Atomic      Atomic             Coordinates (Angstroms)
 Number     Number       Type             X           Y           Z
 ---------------------------------------------------------------------
      1          6           0        0.000000    0.694844    2.382562
      2          6           0       -0.000000   -0.694844    2.382562
      3          6           0        0.000000    1.388047    1.181404
      4          6           0       -0.000000   -1.388047    1.181404
      5          6           0        0.000000    0.697332   -0.025757
      6          6           0       -0.000000   -0.697332   -0.025757
      7         17           0        0.000000    1.605090   -1.512263
      8         17           0       -0.000000   -1.605090   -1.512263
      9          1           0        0.000000    1.242555    3.314599
     10          1           0       -0.000000   -1.242555    3.314599
     11          1           0        0.000000    2.468014    1.164618
     12          1           0       -0.000000   -2.468014    1.164618
 ---------------------------------------------------------------------

 SCF Done:  E(RHF) =  -1148.95199838     A.U. after    2 cycles

 The electronic state is 1-A1.
 Alpha  occ. eigenvalues -- -105.58089-105.58088 -11.32703 -11.32621 -11.27065
 Alpha  occ. eigenvalues --  -11.27031 -11.26679 -11.26609 -10.62907 -10.62906
 Alpha  occ. eigenvalues --   -7.79884  -7.79870  -7.79464  -7.79457  -7.79449
 Alpha  occ. eigenvalues --   -7.79447  -1.21402  -1.11452  -1.11108  -1.01983
 Alpha  occ. eigenvalues --   -0.98955  -0.86627  -0.83609  -0.72496  -0.69333
 Alpha  occ. eigenvalues --   -0.66083  -0.62187  -0.61227  -0.58619  -0.54587
 Alpha  occ. eigenvalues --   -0.54357  -0.50254  -0.48568  -0.48452  -0.46103
 Alpha  occ. eigenvalues --   -0.36631  -0.35453
 Alpha virt. eigenvalues --    0.03027   0.03561   0.04554   0.06004   0.07823
 Alpha virt. eigenvalues --    0.07980   0.08485   0.10361   0.11143   0.11247
 Alpha virt. eigenvalues --    0.13087   0.13156   0.13516   0.13832   0.14572

 Mulliken charges:
               1
     1  C    0.191332
     2  C    0.191332
     3  C    0.292728
     4  C    0.292728
     5  C    0.138501
     6  C    0.138501
     7  Cl  -0.259440
     8  Cl  -0.259440
     9  H   -0.200040
    10  H   -0.200040
    11  H   -0.163081
    12  H   -0.163081
 Sum of Mulliken charges =  -0.00000

 Dipole moment (field-independent basis, Debye):
    X=              0.0000    Y=             -0.0000    Z=              2.9610  Tot=              2.9610

 Test job not archived.
 1\1\GINC-SE252\SP\RHF\Aug-CC-pVDZ\C6H4Cl2\OHZDE\05-Apr-2025\0\\#t hf a
 ug-cc-pvdz iop(5/13=1,5/36=2,99/5=2) pseudo=read geom=check guess=(rea
 d,tcheck) scf=(maxcycle=1)\\title\\0,1\C,0,0.,0.694844,2.382562\C,0,0.
 ,-0.694844,2.382562\C,0,0.,1.388047,1.181404\C,0,0.,-1.388047,1.181404
 \C,0,0.,0.697332,-0.025757\C,0,0.,-0.697332,-0.025757\Cl,0,0.,1.60509,
 -1.512263\Cl,0,0.,-1.60509,-1.512263\H,0,0.,1.242555,3.314599\H,0,0.,-
 1.242555,3.314599\H,0,0.,2.468014,1.164618\H,0,0.,-2.468014,1.164618\\
 Version=ES64L-G16RevC.01\State=1-A1\HF=-1148.9519984\RMSD=4.810e-02\Di

 Normal termination of Gaussian 16 at Sat Apr  5 23:10:46 2025.
