 Gaussian 16, Revision C.01,

 ----------------------------------------------------------------------
 #t hf aug-cc-pvdz symm=none int=(grid=ultrafine) guess=(read,tcheck) s
 table=(opt,rrhf)
 ----------------------------------------------------------------------
 -----
 title
 -----
 Symbolic Z-matrix:
 Charge =  0 Multiplicity = 1

 SCF Done:  E(RHF) =  -428.449720642     A.U. after   14 cycles
 Normal termination of Gaussian 16 at Sat Apr  5 23:10:39 2025.
 Gaussian 16:  ES64L-G16RevC.01  3-Jul-2019

 ----------------------------------------------------------------------
 #t hf aug-cc-pvdz iop(5/13=1,5/36=2,99/5=2) pseudo=read geom=check gue
 ss=(read,tcheck) scf=(maxcycle=1)
 ----------------------------------------------------------------------
 -----
 title
 -----
 Structure from the checkpoint file:  "o-difluorobenzene.chk"
 Charge =  0 Multiplicity = 1

                         Standard orientation:
 ---------------------------------------------------------------------
 Center     Atomic      Atomic             Coordinates (Angstroms)
 Number     Number       Type             X           Y           Z
 ---------------------------------------------------------------------
      1          6           0        0.000000    0.694295   -0.532279
      2          6           0        0.000000    1.395728    0.658951
      3          6           0        0.000000    0.694955    1.860549
      4          6           0       -0.000000   -0.694955    1.860549
      5          6           0       -0.000000   -1.395728    0.658951
      6          6           0       -0.000000   -0.694295   -0.532279
      7          9           0        0.000000   -1.349838   -1.705237
      8          9           0        0.000000    1.349838   -1.705237
      9          1           0        0.000000    2.476041    0.629411
     10          1           0        0.000000    1.238774    2.794390
     11          1           0       -0.000000   -1.238774    2.794390
     12          1           0       -0.000000   -2.476041    0.629411
 ---------------------------------------------------------------------

 SCF Done:  E(RHF) =  -428.865107590     A.U. after    2 cycles

 The electronic state is 1-A1.
 Alpha  occ. eigenvalues --  -26.48793 -26.48792 -11.34939 -11.34864 -11.26755
 Alpha  occ. eigenvalues --  -11.26727 -11.26456 -11.26384  -1.62636  -1.61003
 Alpha  occ. eigenvalues --   -1.18200  -1.04850  -1.03673  -0.88833  -0.86442
 Alpha  occ. eigenvalues --   -0.77208  -0.73635  -0.73553  -0.70065  -0.66973
 Alpha  occ. eigenvalues --   -0.66702  -0.64464  -0.64158  -0.60107  -0.55758
 Alpha  occ. eigenvalues --   -0.53776  -0.52429  -0.37114  -0.35743
 Alpha virt. eigenvalues --    0.03098   0.03557   0.04424   0.05648   0.08475
 Alpha virt. eigenvalues --    0.08738   0.10347   0.11156   0.11292   0.13570
 Alpha virt. eigenvalues --    0.13593   0.13632   0.13781   0.14199   0.15046

 Mulliken charges:
               1
     1  C    0.934109
     2  C    0.029594
     3  C    0.393420
     4  C    0.393420
     5  C    0.029594
     6  C    0.934109
     7  F   -0.975595
     8  F   -0.975595
     9  H   -0.184525
    10  H   -0.197004
    11  H   -0.197004
    12  H   -0.184525
 Sum of Mulliken charges =   0.00000

 Dipole moment (field-independent basis, Debye):
    X=             -0.0000    Y=              0.0000    Z=              2.7829  Tot=              2.7829

 Test job not archived.
 1\1\GINC-SE252\SP\RHF\Aug-CC-pVDZ\C6H4F2\OHZDE\05-Apr-2025\0\\#t hf au
 g-cc-pvdz iop(5/13=1,5/36=2,99/5=2) pseudo=read geom=check guess=(read
 ,tcheck) scf=(maxcycle=1)\\title\\0,1\C,0,0.,0.694295,-0.532279\C,0,0.
 ,1.395728,0.658951\C,0,0.,0.694955,1.860549\C,0,0.,-0.694955,1.860549\
 C,0,0.,-1.395728,0.658951\C,0,0.,-0.694295,-0.532279\F,0,0.,-1.349838,
 -1.705237\F,0,0.,1.349838,-1.705237\H,0,0.,2.476041,0.629411\H,0,0.,1.
 238774,2.79439\H,0,0.,-1.238774,2.79439\H,0,0.,-2.476041,0.629411\\Ver
 sion=ES64L-G16RevC.01\State=1-A1\HF=-428.8651076\RMSD=3.015e-02\Dipole

 Normal termination of Gaussian 16 at Sat Apr  5 23:10:44 2025.
