 Gaussian 16, Revision C.01,

 ----------------------------------------------------------------------
 #t hf aug-cc-pvdz symm=none int=(grid=ultrafine) guess=(read,tcheck) s
 table=(opt,rrhf)
 ----------------------------------------------------------------------
 -----
 title
 -----
 Symbolic Z-matrix:
 Charge =  0 Multiplicity = 1

 SCF Done:  E(RHF) =  -206.660609626     A.U. after   14 cycles
 Normal termination of Gaussian 16 at Sat Apr  5 22:53:37 2025.
 Gaussian 16:  ES64L-G16RevC.01  3-Jul-2019

 ----------------------------------------------------------------------
 #t hf aug-cc-pvdz iop(5/13=1,5/36=2,99/5=2) pseudo=read geom=check gue
 ss=(read,tcheck) scf=(maxcycle=1)
 ----------------------------------------------------------------------
 -----
 title
 -----
 Structure from the checkpoint file:  "O-ethynylhydroxylamine.chk"
 Charge =  0 Multiplicity = 1

                         Standard orientation:
 ---------------------------------------------------------------------
 Center     Atomic      Atomic             Coordinates (Angstroms)
 Number     Number       Type             X           Y           Z
 ---------------------------------------------------------------------
      1          8           0       -0.485466    0.609325    0.000033
      2          7           0       -1.490658   -0.472251   -0.000012
      3          6           0        0.723672    0.132472    0.000000
      4          6           0        1.867234   -0.225589   -0.000026
      5          1           0       -2.052385   -0.232984   -0.814329
      6          1           0       -2.052359   -0.233078    0.814350
      7          1           0        2.877638   -0.544080   -0.000049
 ---------------------------------------------------------------------

 SCF Done:  E(RHF) =  -206.869229716     A.U. after    2 cycles

 The electronic state is 1-A.
 Alpha  occ. eigenvalues --  -20.63580 -15.59222 -11.29765 -11.22793  -1.54859
 Alpha  occ. eigenvalues --   -1.16484  -1.01419  -0.77129  -0.76124  -0.70412
 Alpha  occ. eigenvalues --   -0.69594  -0.58830  -0.51518  -0.39988  -0.37525
 Alpha virt. eigenvalues --    0.02782   0.04565   0.05794   0.08918   0.11239
 Alpha virt. eigenvalues --    0.12473   0.13021   0.14299   0.14897   0.15483
 Alpha virt. eigenvalues --    0.16366   0.17053   0.19733   0.20434   0.22918

 Mulliken charges:
               1
     1  O   -1.101515
     2  N    0.321471
     3  C    0.185192
     4  C    0.632983
     5  H    0.135595
     6  H    0.135596
     7  H   -0.309321
 Sum of Mulliken charges =   0.00000

 Dipole moment (field-independent basis, Debye):
    X=             -2.0150    Y=              0.0697    Z=              0.0000  Tot=              2.0162

 Test job not archived.
 1\1\GINC-SE146\SP\RHF\Aug-CC-pVDZ\C2H3N1O1\OHZDE\05-Apr-2025\0\\#t hf
 aug-cc-pvdz iop(5/13=1,5/36=2,99/5=2) pseudo=read geom=check guess=(re
 ad,tcheck) scf=(maxcycle=1)\\title\\0,1\O,0,-0.485466,0.609325,0.00003
 3\N,0,-1.490658,-0.472251,-0.000012\C,0,0.723672,0.132472,0.\C,0,1.867
 234,-0.225589,-0.000026\H,0,-2.052385,-0.232984,-0.814329\H,0,-2.05235
 9,-0.233078,0.81435\H,0,2.877638,-0.54408,-0.000049\\Version=ES64L-G16
 RevC.01\State=1-A\HF=-206.8692297\RMSD=2.310e-02\Dipole=-0.7927709,0.0
 274041,0.0000154\Quadrupole=5.6114448,-4.1413703,-1.4700744,-1.0566362

 Normal termination of Gaussian 16 at Sat Apr  5 22:53:39 2025.
