 Gaussian 16, Revision C.01,

 ----------------------------------------------------------------------
 #t hf aug-cc-pvdz symm=none int=(grid=ultrafine) guess=(read,tcheck) s
 table=(opt,rrhf)
 ----------------------------------------------------------------------
 -----
 title
 -----
 Symbolic Z-matrix:
 Charge =  0 Multiplicity = 1

 SCF Done:  E(RHF) =  -324.810578270     A.U. after   15 cycles
 Normal termination of Gaussian 16 at Sat Apr  5 23:11:11 2025.
 Gaussian 16:  ES64L-G16RevC.01  3-Jul-2019

 ----------------------------------------------------------------------
 #t hf aug-cc-pvdz iop(5/13=1,5/36=2,99/5=2) pseudo=read geom=check gue
 ss=(read,tcheck) scf=(maxcycle=1)
 ----------------------------------------------------------------------
 -----
 title
 -----
 Structure from the checkpoint file:  "o-toluidine.chk"
 Charge =  0 Multiplicity = 1

                         Standard orientation:
 ---------------------------------------------------------------------
 Center     Atomic      Atomic             Coordinates (Angstroms)
 Number     Number       Type             X           Y           Z
 ---------------------------------------------------------------------
      1          6           0       -1.885447   -0.818105    0.007501
      2          6           0       -1.975051    0.568351   -0.000697
      3          6           0       -0.628774   -1.412605    0.008802
      4          6           0       -0.822932    1.340246   -0.004708
      5          6           0        0.543272   -0.661462    0.000704
      6          6           0        0.440882    0.742403   -0.003804
      7          6           0        1.892339   -1.326343   -0.010307
      8          7           0        1.590034    1.533681   -0.069114
      9          1           0       -2.777857   -1.428092    0.012258
     10          1           0       -2.942118    1.053385   -0.001815
     11          1           0       -0.550202   -2.492945    0.013468
     12          1           0       -0.896227    2.421222   -0.012731
     13          1           0        2.483420   -1.022759   -0.878512
     14          1           0        2.479480   -1.078546    0.880504
     15          1           0        1.791170   -2.409860   -0.037583
     16          1           0        2.429428    1.133050    0.315391
     17          1           0        1.466927    2.493869    0.207873
 ---------------------------------------------------------------------

 SCF Done:  E(RHF) =  -325.153056873     A.U. after    2 cycles

 The electronic state is 1-A.
 Alpha  occ. eigenvalues --  -15.50659 -11.27660 -11.23528 -11.23455 -11.23425
 Alpha  occ. eigenvalues --  -11.23356 -11.22691 -11.22247  -1.22445  -1.12985
 Alpha  occ. eigenvalues --   -1.04397  -0.99186  -0.93439  -0.83616  -0.81145
 Alpha  occ. eigenvalues --   -0.72126  -0.71924  -0.65919  -0.62489  -0.60548
 Alpha  occ. eigenvalues --   -0.59081  -0.57936  -0.55289  -0.53607  -0.50749
 Alpha  occ. eigenvalues --   -0.49397  -0.46752  -0.33632  -0.30489
 Alpha virt. eigenvalues --    0.03105   0.03738   0.03973   0.04919   0.05081
 Alpha virt. eigenvalues --    0.05666   0.07631   0.07974   0.09194   0.10954
 Alpha virt. eigenvalues --    0.11534   0.12176   0.13030   0.13086   0.13810

 Mulliken charges:
               1
     1  C   -0.034752
     2  C   -0.115728
     3  C    0.661127
     4  C    0.729215
     5  C    1.169121
     6  C   -1.870715
     7  C   -0.794471
     8  N    0.832742
     9  H   -0.254526
    10  H   -0.231685
    11  H   -0.286321
    12  H   -0.324970
    13  H    0.288323
    14  H    0.268418
    15  H   -0.069036
    16  H    0.042472
    17  H   -0.009215
 Sum of Mulliken charges =   0.00000

 Dipole moment (field-independent basis, Debye):
    X=              0.9929    Y=              0.3758    Z=              0.9358  Tot=              1.4152

 Test job not archived.
 1\1\GINC-SE255\SP\RHF\Aug-CC-pVDZ\C7H9N1\OHZDE\05-Apr-2025\0\\#t hf au
 g-cc-pvdz iop(5/13=1,5/36=2,99/5=2) pseudo=read geom=check guess=(read
 ,tcheck) scf=(maxcycle=1)\\title\\0,1\C,0,-1.885447,-0.818106,0.007501
 \C,0,-1.975051,0.56835,-0.000697\C,0,-0.628773,-1.412605,0.008802\C,0,
 -0.822932,1.340246,-0.004708\C,0,0.543272,-0.661462,0.000704\C,0,0.440
 882,0.742403,-0.003804\C,0,1.89234,-1.326342,-0.010307\N,0,1.590034,1.
 533681,-0.069114\H,0,-2.777856,-1.428093,0.012258\H,0,-2.942118,1.0533
 84,-0.001815\H,0,-0.550201,-2.492945,0.013468\H,0,-0.896228,2.421222,-

 Normal termination of Gaussian 16 at Sat Apr  5 23:11:24 2025.
