 Gaussian 16, Revision C.01,

 ----------------------------------------------------------------------
 #t hf aug-cc-pvdz symm=none int=(grid=ultrafine) guess=(read,tcheck) s
 table=(opt,rrhf)
 ----------------------------------------------------------------------
 -----
 title
 -----
 Symbolic Z-matrix:
 Charge =  0 Multiplicity = 1

 SCF Done:  E(RHF) =  -308.808365752     A.U. after   14 cycles
 Normal termination of Gaussian 16 at Sat Apr  5 23:11:14 2025.
 Gaussian 16:  ES64L-G16RevC.01  3-Jul-2019

 ----------------------------------------------------------------------
 #t hf aug-cc-pvdz iop(5/13=1,5/36=2,99/5=2) pseudo=read geom=check gue
 ss=(read,tcheck) scf=(maxcycle=1)
 ----------------------------------------------------------------------
 -----
 title
 -----
 Structure from the checkpoint file:  "o-xylene.chk"
 Charge =  0 Multiplicity = 1

                         Standard orientation:
 ---------------------------------------------------------------------
 Center     Atomic      Atomic             Coordinates (Angstroms)
 Number     Number       Type             X           Y           Z
 ---------------------------------------------------------------------
      1          6           0        0.000000    0.693498    1.952555
      2          6           0       -0.000000   -0.693498    1.952555
      3          6           0        0.000000    1.377876    0.743109
      4          6           0       -0.000000   -1.377876    0.743109
      5          6           0        0.000000    0.703110   -0.476273
      6          6           0       -0.000000   -0.703110   -0.476273
      7          6           0        0.000000    1.477433   -1.768050
      8          6           0       -0.000000   -1.477433   -1.768050
      9          1           0        0.000000    1.241957    2.885153
     10          1           0       -0.000000   -1.241957    2.885153
     11          1           0        0.000000    2.461031    0.743277
     12          1           0       -0.000000   -2.461031    0.743277
     13          1           0        0.876446    1.245249   -2.378000
     14          1           0       -0.876446    1.245249   -2.378000
     15          1           0        0.000000    2.550074   -1.580471
     16          1           0        0.876446   -1.245249   -2.378000
     17          1           0       -0.000000   -2.550074   -1.580471
     18          1           0       -0.876446   -1.245249   -2.378000
 ---------------------------------------------------------------------

 SCF Done:  E(RHF) =  -309.136661407     A.U. after    2 cycles

 The electronic state is 1-A1.
 Alpha  occ. eigenvalues --  -11.24043 -11.23984 -11.23340 -11.23271 -11.23217
 Alpha  occ. eigenvalues --  -11.23184 -11.23177 -11.23159  -1.15730  -1.05144
 Alpha  occ. eigenvalues --   -1.03364  -0.94977  -0.92071  -0.82098  -0.79330
 Alpha  occ. eigenvalues --   -0.69117  -0.66037  -0.62803  -0.59828  -0.58471
 Alpha  occ. eigenvalues --   -0.57229  -0.55755  -0.54776  -0.54735  -0.48990
 Alpha  occ. eigenvalues --   -0.48898  -0.48859  -0.33655  -0.32594
 Alpha virt. eigenvalues --    0.03493   0.03493   0.03792   0.04803   0.05165
 Alpha virt. eigenvalues --    0.05174   0.07599   0.07645   0.07891   0.10096
 Alpha virt. eigenvalues --    0.10287   0.11046   0.11575   0.12873   0.13569

 Mulliken charges:
               1
     1  C   -0.134003
     2  C   -0.134003
     3  C    0.322505
     4  C    0.322505
     5  C    0.446672
     6  C    0.446672
     7  C   -0.677424
     8  C   -0.677424
     9  H   -0.239498
    10  H   -0.239498
    11  H   -0.299786
    12  H   -0.299786
    13  H    0.310414
    14  H    0.310414
    15  H   -0.039295
    16  H    0.310414
    17  H   -0.039295
    18  H    0.310414
 Sum of Mulliken charges =  -0.00000

 Dipole moment (field-independent basis, Debye):
    X=              0.0000    Y=              0.0000    Z=             -0.6502  Tot=              0.6502

 Test job not archived.
 1\1\GINC-SE255\SP\RHF\Aug-CC-pVDZ\C8H10\OHZDE\05-Apr-2025\0\\#t hf aug
 -cc-pvdz iop(5/13=1,5/36=2,99/5=2) pseudo=read geom=check guess=(read,
 tcheck) scf=(maxcycle=1)\\title\\0,1\C,0,0.,0.693498,1.952555\C,0,0.,-
 0.693498,1.952555\C,0,0.,1.377876,0.743109\C,0,0.,-1.377876,0.743109\C
 ,0,0.,0.70311,-0.476273\C,0,0.,-0.70311,-0.476273\C,0,0.,1.477433,-1.7
 6805\C,0,0.,-1.477433,-1.76805\H,0,0.,1.241957,2.885153\H,0,0.,-1.2419
 57,2.885153\H,0,0.,2.461031,0.743277\H,0,0.,-2.461031,0.743277\H,0,0.8
 76446,1.245249,-2.378\H,0,-0.876446,1.245249,-2.378\H,0,0.,2.550074,-1

 Normal termination of Gaussian 16 at Sat Apr  5 23:11:24 2025.
