 Gaussian 16, Revision C.01,

 ----------------------------------------------------------------------
 #t hf aug-cc-pvdz symm=none int=(grid=ultrafine) guess=(read,tcheck) s
 table=(opt,rrhf)
 ----------------------------------------------------------------------
 -----
 title
 -----
 Symbolic Z-matrix:
 Charge =  0 Multiplicity = 1

 SCF Done:  E(RHF) =  -387.172529376     A.U. after   13 cycles

 1\1\GINC-SE314\Stability\RHF\Aug-CC-pVDZ\C8H16O1\OHZDE\05-Apr-2025\0\\
 #t hf aug-cc-pvdz symm=none int=(grid=ultrafine) guess=(read,tcheck) s
 table=(opt,rrhf)\\title\\0,1\C,0,3.802531,1.530625,0.\C,0,-4.637584,-1
 .541445,0.\C,0,2.306092,1.687856,0.\C,0,-3.126767,-1.767415,0.\C,0,1.5
 12129,0.387412,0.\C,0,-2.319569,-0.468725,0.\C,0,0.,0.612534,0.\C,0,-0
 .806536,-0.686509,0.\O,0,4.392118,0.479692,0.\H,0,4.367576,2.486731,0.
 \H,0,-4.952565,-0.978042,0.880795\H,0,-5.181814,-2.486837,0.\H,0,-4.95
 2565,-0.978042,-0.880795\H,0,2.054742,2.311831,-0.867367\H,0,2.054742,

 Normal termination of Gaussian 16 at Sat Apr  5 23:12:44 2025.
 Gaussian 16:  ES64L-G16RevC.01  3-Jul-2019

 ----------------------------------------------------------------------
 #t hf aug-cc-pvdz iop(5/13=1,5/36=2,99/5=2) pseudo=read geom=check gue
 ss=(read,tcheck) scf=(maxcycle=1)
 ----------------------------------------------------------------------
 -----
 title
 -----
 Structure from the checkpoint file:  "octanal.chk"
 Charge =  0 Multiplicity = 1

                         Standard orientation:
 ---------------------------------------------------------------------
 Center     Atomic      Atomic             Coordinates (Angstroms)
 Number     Number       Type             X           Y           Z
 ---------------------------------------------------------------------
      1          6           0        3.802531    1.530625    0.000000
      2          6           0       -4.637584   -1.541445    0.000000
      3          6           0        2.306092    1.687856    0.000000
      4          6           0       -3.126767   -1.767415    0.000000
      5          6           0        1.512129    0.387412    0.000000
      6          6           0       -2.319569   -0.468725    0.000000
      7          6           0        0.000000    0.612534    0.000000
      8          6           0       -0.806536   -0.686509    0.000000
      9          8           0        4.392118    0.479693    0.000000
     10          1           0        4.367576    2.486732    0.000000
     11          1           0       -4.952565   -0.978042    0.880795
     12          1           0       -5.181814   -2.486837    0.000000
     13          1           0       -4.952565   -0.978042   -0.880795
     14          1           0        2.054742    2.311831   -0.867367
     15          1           0        2.054742    2.311831    0.867367
     16          1           0       -2.848014   -2.363887   -0.873950
     17          1           0       -2.848014   -2.363887    0.873950
     18          1           0        1.799348   -0.206318    0.870716
     19          1           0        1.799348   -0.206318   -0.870716
     20          1           0       -2.599270    0.128270   -0.874711
     21          1           0       -2.599270    0.128270    0.874711
     22          1           0       -0.279114    1.209821    0.874730
     23          1           0       -0.279114    1.209821   -0.874730
     24          1           0       -0.527370   -1.283394   -0.874398
     25          1           0       -0.527370   -1.283394    0.874398
 ---------------------------------------------------------------------

 SCF Done:  E(RHF) =  -387.591862113     A.U. after    2 cycles

 The electronic state is 1-A'.
 Alpha  occ. eigenvalues --  -20.54490 -11.34052 -11.24985 -11.23192 -11.22997
 Alpha  occ. eigenvalues --  -11.22537 -11.22524 -11.22412 -11.22118  -1.47605
 Alpha  occ. eigenvalues --   -1.10425  -1.07015  -1.01655  -0.94885  -0.87488
 Alpha  occ. eigenvalues --   -0.81245  -0.79441  -0.77468  -0.68023  -0.67090
 Alpha  occ. eigenvalues --   -0.64282  -0.63474  -0.60044  -0.60017  -0.57480
 Alpha  occ. eigenvalues --   -0.55227  -0.54133  -0.52761  -0.51213  -0.49179
 Alpha  occ. eigenvalues --   -0.49053  -0.47561  -0.47117  -0.46737  -0.46127
 Alpha  occ. eigenvalues --   -0.41281
 Alpha virt. eigenvalues --    0.02840   0.03323   0.03448   0.03988   0.04472
 Alpha virt. eigenvalues --    0.05201   0.05664   0.06404   0.06754   0.07763
 Alpha virt. eigenvalues --    0.08065   0.08851   0.09695   0.10291   0.10899

 Mulliken charges:
               1
     1  C    1.104973
     2  C   -0.391436
     3  C   -0.468465
     4  C   -0.186493
     5  C   -0.173516
     6  C   -0.250503
     7  C   -0.202519
     8  C   -0.245120
     9  O   -1.166620
    10  H    0.100625
    11  H    0.158232
    12  H    0.110998
    13  H    0.158232
    14  H    0.192451
    15  H    0.192451
    16  H    0.112867
    17  H    0.112867
    18  H    0.106119
    19  H    0.106119
    20  H    0.102999
    21  H    0.102999
    22  H    0.105412
    23  H    0.105412
    24  H    0.105957
    25  H    0.105957
 Sum of Mulliken charges =  -0.00000

 Dipole moment (field-independent basis, Debye):
    X=             -2.0137    Y=              2.0488    Z=             -0.0000  Tot=              2.8727

 Test job not archived.
 1\1\GINC-SE314\SP\RHF\Aug-CC-pVDZ\C8H16O1\OHZDE\05-Apr-2025\0\\#t hf a
 ug-cc-pvdz iop(5/13=1,5/36=2,99/5=2) pseudo=read geom=check guess=(rea
 d,tcheck) scf=(maxcycle=1)\\title\\0,1\C,0,3.802531,1.530625,0.\C,0,-4
 .637584,-1.541445,0.\C,0,2.306092,1.687856,0.\C,0,-3.126767,-1.767415,
 0.\C,0,1.512129,0.387412,0.\C,0,-2.319569,-0.468725,0.\C,0,0.,0.612534
 ,0.\C,0,-0.806536,-0.686509,0.\O,0,4.392118,0.479692,0.\H,0,4.367576,2
 .486731,0.\H,0,-4.952565,-0.978042,0.880795\H,0,-5.181814,-2.486837,0.
 \H,0,-4.952565,-0.978042,-0.880795\H,0,2.054742,2.311831,-0.867367\H,0

 Normal termination of Gaussian 16 at Sat Apr  5 23:13:38 2025.
