 Gaussian 16, Revision C.01,

 ----------------------------------------------------------------------
 #t hf aug-cc-pvdz symm=none int=(grid=ultrafine) guess=(read,tcheck) s
 table=(opt,rrhf)
 ----------------------------------------------------------------------
 -----
 title
 -----
 Symbolic Z-matrix:
 Charge =  0 Multiplicity = 1

 SCF Done:  E(RHF) =  -387.183186490     A.U. after   13 cycles

 1\1\GINC-SE273\Stability\RHF\Aug-CC-pVDZ\C8H16O1\OHZDE\05-Apr-2025\0\\
 #t hf aug-cc-pvdz symm=none int=(grid=ultrafine) guess=(read,tcheck) s
 table=(opt,rrhf)\\title\\0,1\C,0,2.934682,0.194779,-0.004319\C,0,4.206
 745,-0.627668,0.015541\C,0,-4.735634,0.345804,0.007764\C,0,1.629987,-0
 .583788,-0.011871\C,0,-3.474297,-0.516071,-0.008273\C,0,0.371967,0.276
 168,0.007321\C,0,-2.183074,0.302813,0.008272\C,0,-0.914399,-0.550257,-
 0.008442\O,0,2.963972,1.405012,-0.011805\H,0,5.073473,0.025936,-0.0348
 23\H,0,4.252724,-1.223691,0.92974\H,0,4.223317,-1.329172,-0.820869\H,0

 Normal termination of Gaussian 16 at Sat Apr  5 23:12:47 2025.
 Gaussian 16:  ES64L-G16RevC.01  3-Jul-2019

 ----------------------------------------------------------------------
 #t hf aug-cc-pvdz iop(5/13=1,5/36=2,99/5=2) pseudo=read geom=check gue
 ss=(read,tcheck) scf=(maxcycle=1)
 ----------------------------------------------------------------------
 -----
 title
 -----
 Structure from the checkpoint file:  "octan-2-one.chk"
 Charge =  0 Multiplicity = 1

                         Standard orientation:
 ---------------------------------------------------------------------
 Center     Atomic      Atomic             Coordinates (Angstroms)
 Number     Number       Type             X           Y           Z
 ---------------------------------------------------------------------
      1          6           0        2.934682    0.194779   -0.004319
      2          6           0        4.206745   -0.627668    0.015541
      3          6           0       -4.735634    0.345804    0.007764
      4          6           0        1.629987   -0.583788   -0.011871
      5          6           0       -3.474297   -0.516071   -0.008273
      6          6           0        0.371967    0.276168    0.007321
      7          6           0       -2.183074    0.302813    0.008272
      8          6           0       -0.914399   -0.550257   -0.008442
      9          8           0        2.963972    1.405012   -0.011805
     10          1           0        5.073473    0.025936   -0.034823
     11          1           0        4.252724   -1.223691    0.929740
     12          1           0        4.223317   -1.329172   -0.820869
     13          1           0       -4.771299    1.007919   -0.859773
     14          1           0       -4.773151    0.972598    0.901088
     15          1           0       -5.638271   -0.266633   -0.005463
     16          1           0        1.647676   -1.270090    0.842461
     17          1           0        1.642249   -1.235279   -0.893437
     18          1           0       -3.483287   -1.191182    0.852863
     19          1           0       -3.482233   -1.157183   -0.895044
     20          1           0        0.388911    0.953592   -0.849010
     21          1           0        0.390148    0.917782    0.891046
     22          1           0       -2.174223    0.979058   -0.852885
     23          1           0       -2.174641    0.944692    0.895375
     24          1           0       -0.924559   -1.192399   -0.895918
     25          1           0       -0.924462   -1.226723    0.853135
 ---------------------------------------------------------------------

 SCF Done:  E(RHF) =  -387.602881503     A.U. after    2 cycles

 The electronic state is 1-A.
 Alpha  occ. eigenvalues --  -20.53114 -11.33576 -11.24364 -11.24285 -11.22668
 Alpha  occ. eigenvalues --  -11.22643 -11.22490 -11.22284 -11.22030  -1.46598
 Alpha  occ. eigenvalues --   -1.09924  -1.06087  -1.01864  -0.97061  -0.89357
 Alpha  occ. eigenvalues --   -0.81748  -0.79344  -0.74000  -0.66750  -0.65821
 Alpha  occ. eigenvalues --   -0.63698  -0.63163  -0.60056  -0.59285  -0.57481
 Alpha  occ. eigenvalues --   -0.56554  -0.54852  -0.53690  -0.51786  -0.49798
 Alpha  occ. eigenvalues --   -0.48676  -0.47757  -0.47210  -0.46672  -0.46331
 Alpha  occ. eigenvalues --   -0.40421
 Alpha virt. eigenvalues --    0.02880   0.03415   0.03486   0.04096   0.04642
 Alpha virt. eigenvalues --    0.05026   0.05717   0.06711   0.06924   0.07463
 Alpha virt. eigenvalues --    0.07507   0.09536   0.09843   0.10293   0.10532

 Mulliken charges:
               1
     1  C    1.376874
     2  C   -0.601780
     3  C   -0.390499
     4  C   -0.672760
     5  C   -0.163386
     6  C   -0.045085
     7  C   -0.311716
     8  C   -0.181996
     9  O   -1.404909
    10  H    0.136479
    11  H    0.254238
    12  H    0.246859
    13  H    0.160109
    14  H    0.159598
    15  H    0.109560
    16  H    0.227720
    17  H    0.231035
    18  H    0.109329
    19  H    0.109033
    20  H    0.125178
    21  H    0.119850
    22  H    0.101304
    23  H    0.101376
    24  H    0.102576
    25  H    0.101014
 Sum of Mulliken charges =  -0.00000

 Dipole moment (field-independent basis, Debye):
    X=             -0.2601    Y=             -3.0054    Z=              0.0227  Tot=              3.0167

 Test job not archived.
 1\1\GINC-SE273\SP\RHF\Aug-CC-pVDZ\C8H16O1\OHZDE\05-Apr-2025\0\\#t hf a
 ug-cc-pvdz iop(5/13=1,5/36=2,99/5=2) pseudo=read geom=check guess=(rea
 d,tcheck) scf=(maxcycle=1)\\title\\0,1\C,0,2.934682,0.194779,-0.004319
 \C,0,4.206745,-0.627668,0.015541\C,0,-4.735634,0.345804,0.007764\C,0,1
 .629987,-0.583788,-0.011871\C,0,-3.474297,-0.516071,-0.008273\C,0,0.37
 1967,0.276168,0.007321\C,0,-2.183074,0.302813,0.008272\C,0,-0.914399,-
 0.550257,-0.008442\O,0,2.963972,1.405012,-0.011805\H,0,5.073473,0.0259
 36,-0.034823\H,0,4.252724,-1.223691,0.92974\H,0,4.223317,-1.329172,-0.

 Normal termination of Gaussian 16 at Sat Apr  5 23:13:42 2025.
