 Gaussian 16, Revision C.01,

 ----------------------------------------------------------------------
 #t hf aug-cc-pvdz symm=none int=(grid=ultrafine) guess=(read,tcheck) s
 table=(opt,rrhf)
 ----------------------------------------------------------------------
 -----
 title
 -----
 Symbolic Z-matrix:
 Charge =  0 Multiplicity = 1

 SCF Done:  E(RHF) =  -313.463855133     A.U. after   11 cycles
 Normal termination of Gaussian 16 at Sat Apr  5 23:12:32 2025.
 Gaussian 16:  ES64L-G16RevC.01  3-Jul-2019

 ----------------------------------------------------------------------
 #t hf aug-cc-pvdz iop(5/13=1,5/36=2,99/5=2) pseudo=read geom=check gue
 ss=(read,tcheck) scf=(maxcycle=1)
 ----------------------------------------------------------------------
 -----
 title
 -----
 Structure from the checkpoint file:  "octane.chk"
 Charge =  0 Multiplicity = 1

                         Standard orientation:
 ---------------------------------------------------------------------
 Center     Atomic      Atomic             Coordinates (Angstroms)
 Number     Number       Type             X           Y           Z
 ---------------------------------------------------------------------
      1          6           0       -2.743376   -0.386487    0.533004
      2          6           0       -3.403443    0.769047   -0.220309
      3          6           0       -1.628643   -1.096455   -0.247194
      4          6           0       -0.402478   -0.244625   -0.603456
      5          6           0        0.402478    0.244624    0.603457
      6          6           0        1.628643    1.096455    0.247194
      7          6           0        2.743376    0.386487   -0.533004
      8          6           0        3.403443   -0.769047    0.220308
      9          1           0       -3.803237    0.434641   -1.180362
     10          1           0       -4.230374    1.189255    0.353881
     11          1           0        3.507182    1.127157   -0.783972
     12          1           0        4.230374   -1.189255   -0.353882
     13          1           0        2.701500   -1.579527    0.420693
     14          1           0        3.803238   -0.434642    1.180362
     15          1           0       -2.701500    1.579527   -0.420694
     16          1           0        0.242366   -0.842416   -1.252097
     17          1           0       -2.055029   -1.496389   -1.172579
     18          1           0       -3.507182   -1.127157    0.783972
     19          1           0       -2.356936   -0.024239    1.488923
     20          1           0        1.295689    1.964325   -0.330509
     21          1           0        2.356936    0.024240   -1.488923
     22          1           0       -0.709119    0.617126   -1.204218
     23          1           0       -1.295689   -1.964325    0.330509
     24          1           0       -0.242366    0.842416    1.252098
     25          1           0        0.709119   -0.617127    1.204218
     26          1           0        2.055029    1.496389    1.172580
 ---------------------------------------------------------------------

 SCF Done:  E(RHF) =  -313.820325894     A.U. after    2 cycles

 The electronic state is 1-A.
 Alpha  occ. eigenvalues --  -11.22158 -11.22158 -11.22049 -11.22044 -11.21862
 Alpha  occ. eigenvalues --  -11.21842 -11.21794 -11.21794  -1.09520  -1.05951
 Alpha  occ. eigenvalues --   -1.00512  -0.94928  -0.88864  -0.84503  -0.78461
 Alpha  occ. eigenvalues --   -0.75227  -0.65166  -0.63447  -0.61781  -0.61165
 Alpha  occ. eigenvalues --   -0.57843  -0.56257  -0.55391  -0.54640  -0.52367
 Alpha  occ. eigenvalues --   -0.51087  -0.49848  -0.47776  -0.47252  -0.46763
 Alpha  occ. eigenvalues --   -0.45652  -0.44662  -0.44085
 Alpha virt. eigenvalues --    0.03070   0.03169   0.03641   0.04128   0.05079
 Alpha virt. eigenvalues --    0.05200   0.05480   0.06244   0.06651   0.07548
 Alpha virt. eigenvalues --    0.07843   0.08408   0.08851   0.09503   0.10584

 Mulliken charges:
               1
     1  C   -0.293229
     2  C   -0.296406
     3  C   -0.293352
     4  C   -0.260004
     5  C   -0.260004
     6  C   -0.293354
     7  C   -0.293227
     8  C   -0.296408
     9  H    0.152262
    10  H    0.090726
    11  H    0.113063
    12  H    0.090725
    13  H    0.138944
    14  H    0.152264
    15  H    0.138944
    16  H    0.097734
    17  H    0.116587
    18  H    0.113063
    19  H    0.176909
    20  H    0.130053
    21  H    0.176909
    22  H    0.126713
    23  H    0.130054
    24  H    0.097736
    25  H    0.126711
    26  H    0.116589
 Sum of Mulliken charges =  -0.00000

 Dipole moment (field-independent basis, Debye):
    X=              0.0000    Y=             -0.0000    Z=             -0.0000  Tot=              0.0000

 Test job not archived.
 1\1\GINC-SE040\SP\RHF\Aug-CC-pVDZ\C8H18\OHZDE\05-Apr-2025\0\\#t hf aug
 -cc-pvdz iop(5/13=1,5/36=2,99/5=2) pseudo=read geom=check guess=(read,
 tcheck) scf=(maxcycle=1)\\title\\0,1\C,0,2.743376,0.386487,0.533004\C,
 0,3.403443,-0.769047,-0.220309\C,0,1.628643,1.096455,-0.247194\C,0,0.4
 02478,0.244625,-0.603456\C,0,-0.402478,-0.244624,0.603457\C,0,-1.62864
 3,-1.096455,0.247194\C,0,-2.743376,-0.386487,-0.533004\C,0,-3.403443,0
 .769047,0.220308\H,0,3.803237,-0.434641,-1.180362\H,0,4.230374,-1.1892
 55,0.353881\H,0,-3.507182,-1.127157,-0.783972\H,0,-4.230374,1.189255,-

 Normal termination of Gaussian 16 at Sat Apr  5 23:12:48 2025.
