 Gaussian 16, Revision C.01,

 ----------------------------------------------------------------------
 #t hf aug-cc-pvdz symm=none int=(grid=ultrafine) guess=(read,tcheck) s
 table=(opt,rrhf)
 ----------------------------------------------------------------------
 -----
 title
 -----
 Symbolic Z-matrix:
 Charge =  0 Multiplicity = 1

 SCF Done:  E(RHF) =  -311.135771626     A.U. after   12 cycles
 Normal termination of Gaussian 16 at Sat Apr  5 23:11:50 2025.
 Gaussian 16:  ES64L-G16RevC.01  3-Jul-2019

 ----------------------------------------------------------------------
 #t hf aug-cc-pvdz iop(5/13=1,5/36=2,99/5=2) pseudo=read geom=check gue
 ss=(read,tcheck) scf=(maxcycle=1)
 ----------------------------------------------------------------------
 -----
 title
 -----
 Structure from the checkpoint file:  "octahydropentalene.chk"
 Charge =  0 Multiplicity = 1

                         Standard orientation:
 ---------------------------------------------------------------------
 Center     Atomic      Atomic             Coordinates (Angstroms)
 Number     Number       Type             X           Y           Z
 ---------------------------------------------------------------------
      1          6           0        0.107535   -2.168802    0.000000
      2          6           0       -0.072713   -1.229601    1.197282
      3          6           0       -0.072713   -1.229601   -1.197282
      4          6           0        0.643552    0.075590    0.785834
      5          6           0       -0.072713    1.375568    1.203592
      6          6           0       -0.955423    1.735879   -0.000000
      7          6           0       -0.072713    1.375568   -1.203592
      8          6           0        0.643552    0.075590   -0.785834
      9          1           0       -0.591384   -3.006411    0.000000
     10          1           0       -0.635977    1.262705   -2.131346
     11          1           0       -0.635977    1.262705    2.131346
     12          1           0        0.312527   -1.639812   -2.131505
     13          1           0       -1.275571    2.778231   -0.000000
     14          1           0        0.312527   -1.639812    2.131505
     15          1           0        1.117840   -2.587719    0.000000
     16          1           0       -1.860267    1.122424    0.000000
     17          1           0        1.664077    0.059193   -1.169844
     18          1           0        0.658197    2.171586   -1.366919
     19          1           0        1.664077    0.059193    1.169844
     20          1           0       -1.139228   -1.037507    1.348434
     21          1           0        0.658197    2.171586    1.366919
     22          1           0       -1.139228   -1.037507   -1.348434
 ---------------------------------------------------------------------

 SCF Done:  E(RHF) =  -311.479220770     A.U. after    2 cycles

 The electronic state is 1-A'.
 Alpha  occ. eigenvalues --  -11.21927 -11.21906 -11.21841 -11.21810 -11.21713
 Alpha  occ. eigenvalues --  -11.21697 -11.21683 -11.21667  -1.14453  -1.05542
 Alpha  occ. eigenvalues --   -0.98859  -0.93059  -0.89668  -0.79537  -0.77010
 Alpha  occ. eigenvalues --   -0.72930  -0.67856  -0.63216  -0.62932  -0.60073
 Alpha  occ. eigenvalues --   -0.58802  -0.53949  -0.51540  -0.48644  -0.48313
 Alpha  occ. eigenvalues --   -0.47068  -0.45737  -0.45330  -0.44542  -0.44486
 Alpha  occ. eigenvalues --   -0.44463
 Alpha virt. eigenvalues --    0.03238   0.03522   0.03597   0.04146   0.05543
 Alpha virt. eigenvalues --    0.05636   0.05791   0.05992   0.06065   0.08951
 Alpha virt. eigenvalues --    0.09044   0.09203   0.09596   0.10038   0.13194

 Mulliken charges:
               1
     1  C   -0.035801
     2  C   -0.173640
     3  C   -0.173640
     4  C   -0.346292
     5  C    0.039680
     6  C   -0.243668
     7  C    0.039680
     8  C   -0.346292
     9  H    0.107795
    10  H    0.073537
    11  H    0.073537
    12  H    0.109926
    13  H    0.091294
    14  H    0.109926
    15  H    0.095869
    16  H    0.085578
    17  H    0.056421
    18  H    0.102595
    19  H    0.056421
    20  H    0.087239
    21  H    0.102595
    22  H    0.087239
 Sum of Mulliken charges =  -0.00000

 Dipole moment (field-independent basis, Debye):
    X=              0.1161    Y=              0.0104    Z=             -0.0000  Tot=              0.1166

 Test job not archived.
 1\1\GINC-SE273\SP\RHF\Aug-CC-pVDZ\C8H14\OHZDE\05-Apr-2025\0\\#t hf aug
 -cc-pvdz iop(5/13=1,5/36=2,99/5=2) pseudo=read geom=check guess=(read,
 tcheck) scf=(maxcycle=1)\\title\\0,1\C,0,0.107535,-2.168802,0.\C,0,-0.
 072713,-1.229601,1.197282\C,0,-0.072713,-1.229601,-1.197282\C,0,0.6435
 52,0.07559,0.785834\C,0,-0.072713,1.375568,1.203592\C,0,-0.955423,1.73
 5879,0.\C,0,-0.072713,1.375568,-1.203592\C,0,0.643552,0.07559,-0.78583
 4\H,0,-0.591384,-3.006411,0.\H,0,-0.635977,1.262705,-2.131346\H,0,-0.6
 35977,1.262705,2.131346\H,0,0.312527,-1.639812,-2.131505\H,0,-1.275571

 Normal termination of Gaussian 16 at Sat Apr  5 23:12:27 2025.
