 Gaussian 16, Revision C.01,

 ----------------------------------------------------------------------
 #t hf aug-cc-pvdz symm=none int=(grid=ultrafine) guess=(read,tcheck) s
 table=(opt,rrhf)
 ----------------------------------------------------------------------
 -----
 title
 -----
 Symbolic Z-matrix:
 Charge =  0 Multiplicity = 1

 SCF Done:  E(RHF) =  -368.505435032     A.U. after   12 cycles

 1\1\GINC-SE314\Stability\RHF\Aug-CC-pVDZ\C8H19N1\OHZDE\05-Apr-2025\0\\
 #t hf aug-cc-pvdz symm=none int=(grid=ultrafine) guess=(read,tcheck) s
 table=(opt,rrhf)\\title\\0,1\C,0,5.101251,-0.357927,-0.007494\C,0,3.82
 5718,0.482347,0.025964\C,0,2.547647,-0.356251,-0.014566\C,0,1.264914,0
 .475125,0.016833\C,0,-0.011971,-0.365198,-0.021296\C,0,-1.294964,0.466
 445,0.009286\C,0,-2.568842,-0.377394,-0.031588\C,0,-3.845971,0.454973,
 0.002143\N,0,-5.033409,-0.402959,-0.068536\H,0,5.152333,-0.96061,-0.91
 6686\H,0,5.145033,-1.041786,0.842745\H,0,5.99378,0.268535,0.02509\H,0,

 Normal termination of Gaussian 16 at Sat Apr  5 23:13:02 2025.
 Gaussian 16:  ES64L-G16RevC.01  3-Jul-2019

 ----------------------------------------------------------------------
 #t hf aug-cc-pvdz iop(5/13=1,5/36=2,99/5=2) pseudo=read geom=check gue
 ss=(read,tcheck) scf=(maxcycle=1)
 ----------------------------------------------------------------------
 -----
 title
 -----
 Structure from the checkpoint file:  "octanamine.chk"
 Charge =  0 Multiplicity = 1

                         Standard orientation:
 ---------------------------------------------------------------------
 Center     Atomic      Atomic             Coordinates (Angstroms)
 Number     Number       Type             X           Y           Z
 ---------------------------------------------------------------------
      1          6           0        5.101251   -0.357927   -0.007494
      2          6           0        3.825718    0.482347    0.025964
      3          6           0        2.547647   -0.356251   -0.014566
      4          6           0        1.264914    0.475125    0.016833
      5          6           0       -0.011971   -0.365198   -0.021296
      6          6           0       -1.294964    0.466445    0.009286
      7          6           0       -2.568842   -0.377394   -0.031588
      8          6           0       -3.845971    0.454973    0.002143
      9          7           0       -5.033409   -0.402959   -0.068536
     10          1           0        5.152333   -0.960610   -0.916686
     11          1           0        5.145033   -1.041786    0.842745
     12          1           0        5.993780    0.268535    0.025090
     13          1           0        3.820683    1.101568    0.928131
     14          1           0        3.825838    1.178470   -0.818216
     15          1           0        2.553701   -0.977563   -0.916520
     16          1           0        2.547940   -1.052494    0.830938
     17          1           0        1.260595    1.097575    0.917951
     18          1           0        1.264843    1.169787   -0.829777
     19          1           0       -0.007756   -0.987992   -0.921778
     20          1           0       -0.012300   -1.059295    0.825700
     21          1           0       -1.298111    1.089499    0.909813
     22          1           0       -1.294044    1.159823   -0.838338
     23          1           0       -2.580405   -0.997246   -0.931668
     24          1           0       -2.571992   -1.069529    0.818063
     25          1           0       -3.867157    1.118505   -0.865912
     26          1           0       -3.829717    1.101269    0.891642
     27          1           0       -5.881430    0.149049   -0.095245
     28          1           0       -5.094663   -0.999577    0.748129
 ---------------------------------------------------------------------

 SCF Done:  E(RHF) =  -368.919066427     A.U. after    2 cycles

 The electronic state is 1-A.
 Alpha  occ. eigenvalues --  -15.47914 -11.25040 -11.22236 -11.22176 -11.22061
 Alpha  occ. eigenvalues --  -11.22019 -11.21982 -11.21945 -11.21871  -1.17437
 Alpha  occ. eigenvalues --   -1.09355  -1.05648  -1.00295  -0.93906  -0.87109
 Alpha  occ. eigenvalues --   -0.81436  -0.79168  -0.78817  -0.68658  -0.66347
 Alpha  occ. eigenvalues --   -0.64696  -0.62714  -0.60080  -0.59160  -0.57942
 Alpha  occ. eigenvalues --   -0.56104  -0.54333  -0.51888  -0.51782  -0.50106
 Alpha  occ. eigenvalues --   -0.48391  -0.47777  -0.46654  -0.46451  -0.46249
 Alpha  occ. eigenvalues --   -0.44613  -0.41953
 Alpha virt. eigenvalues --    0.03186   0.03346   0.03532   0.04008   0.04658
 Alpha virt. eigenvalues --    0.05153   0.05378   0.06223   0.06559   0.07013
 Alpha virt. eigenvalues --    0.07490   0.08384   0.08894   0.09497   0.10125

 Mulliken charges:
               1
     1  C   -0.389963
     2  C   -0.186582
     3  C   -0.309553
     4  C   -0.117950
     5  C   -0.241385
     6  C   -0.186728
     7  C   -0.588387
     8  C   -0.388691
     9  N    0.348916
    10  H    0.158004
    11  H    0.158461
    12  H    0.109271
    13  H    0.110058
    14  H    0.110809
    15  H    0.106226
    16  H    0.101511
    17  H    0.113528
    18  H    0.116290
    19  H    0.091130
    20  H    0.104700
    21  H    0.090138
    22  H    0.092132
    23  H    0.161680
    24  H    0.129881
    25  H    0.044746
    26  H    0.063792
    27  H    0.106063
    28  H    0.091901
 Sum of Mulliken charges =   0.00000

 Dipole moment (field-independent basis, Debye):
    X=              0.0041    Y=              0.8115    Z=              1.0830  Tot=              1.3533

 Test job not archived.
 1\1\GINC-SE314\SP\RHF\Aug-CC-pVDZ\C8H19N1\OHZDE\05-Apr-2025\0\\#t hf a
 ug-cc-pvdz iop(5/13=1,5/36=2,99/5=2) pseudo=read geom=check guess=(rea
 d,tcheck) scf=(maxcycle=1)\\title\\0,1\C,0,5.101251,-0.357927,-0.00749
 4\C,0,3.825718,0.482347,0.025964\C,0,2.547647,-0.356251,-0.014566\C,0,
 1.264914,0.475125,0.016833\C,0,-0.011971,-0.365198,-0.021296\C,0,-1.29
 4964,0.466445,0.009286\C,0,-2.568842,-0.377394,-0.031588\C,0,-3.845971
 ,0.454973,0.002143\N,0,-5.033409,-0.402959,-0.068536\H,0,5.152333,-0.9
 6061,-0.916686\H,0,5.145033,-1.041786,0.842745\H,0,5.99378,0.268535,0.

 Normal termination of Gaussian 16 at Sat Apr  5 23:13:43 2025.
