 Gaussian 16, Revision C.01,

 ----------------------------------------------------------------------
 #t hf aug-cc-pvdz symm=none int=(grid=ultrafine) guess=(read,tcheck) s
 table=(opt,rrhf)
 ----------------------------------------------------------------------
 -----
 title
 -----
 Symbolic Z-matrix:
 Charge =  0 Multiplicity = 1

 SCF Done:  E(RHF) =  -312.280769704     A.U. after   13 cycles
 Normal termination of Gaussian 16 at Sat Apr  5 23:11:48 2025.
 Gaussian 16:  ES64L-G16RevC.01  3-Jul-2019

 ----------------------------------------------------------------------
 #t hf aug-cc-pvdz iop(5/13=1,5/36=2,99/5=2) pseudo=read geom=check gue
 ss=(read,tcheck) scf=(maxcycle=1)
 ----------------------------------------------------------------------
 -----
 title
 -----
 Structure from the checkpoint file:  "octene.chk"
 Charge =  0 Multiplicity = 1

                         Standard orientation:
 ---------------------------------------------------------------------
 Center     Atomic      Atomic             Coordinates (Angstroms)
 Number     Number       Type             X           Y           Z
 ---------------------------------------------------------------------
      1          6           0        4.339193   -0.239943    0.516430
      2          6           0        3.327634   -0.231568   -0.343062
      3          6           0       -4.298854   -0.403949    0.124866
      4          6           0        2.068612    0.568357   -0.199112
      5          6           0       -3.042666    0.464354    0.079878
      6          6           0        0.803711   -0.301438   -0.153528
      7          6           0       -1.749886   -0.346967   -0.014527
      8          6           0       -0.486737    0.513029   -0.061371
      9          1           0        5.218634   -0.848262    0.352660
     10          1           0        4.324601    0.365016    1.415596
     11          1           0        3.390219   -0.857805   -1.229651
     12          1           0       -4.383423   -1.021698   -0.771594
     13          1           0       -4.283461   -1.075093    0.986132
     14          1           0       -5.202181    0.203631    0.194727
     15          1           0        1.984175    1.258703   -1.046285
     16          1           0        2.125947    1.184941    0.701645
     17          1           0       -3.101914    1.147047   -0.773197
     18          1           0       -3.005278    1.097541    0.971468
     19          1           0        0.770340   -0.934721   -1.045813
     20          1           0        0.870178   -0.981984    0.700136
     21          1           0       -1.788071   -0.982079   -0.905996
     22          1           0       -1.691063   -1.029675    0.839789
     23          1           0       -0.544961    1.194564   -0.916651
     24          1           0       -0.449783    1.148628    0.829586
 ---------------------------------------------------------------------

 SCF Done:  E(RHF) =  -312.630030476     A.U. after    2 cycles

 The electronic state is 1-A.
 Alpha  occ. eigenvalues --  -11.23760 -11.23039 -11.22591 -11.22580 -11.22394
 Alpha  occ. eigenvalues --  -11.22336 -11.22204 -11.21992  -1.10103  -1.06903
 Alpha  occ. eigenvalues --   -1.01919  -0.95572  -0.88050  -0.81008  -0.79182
 Alpha  occ. eigenvalues --   -0.75906  -0.66573  -0.64427  -0.61652  -0.60231
 Alpha  occ. eigenvalues --   -0.59407  -0.56721  -0.55199  -0.53939  -0.51210
 Alpha  occ. eigenvalues --   -0.50413  -0.48747  -0.47579  -0.46987  -0.46548
 Alpha  occ. eigenvalues --   -0.45586  -0.36531
 Alpha virt. eigenvalues --    0.03321   0.03494   0.03559   0.04170   0.04708
 Alpha virt. eigenvalues --    0.05114   0.05845   0.06300   0.06846   0.07619
 Alpha virt. eigenvalues --    0.08496   0.08815   0.09045   0.10289   0.11012

 Mulliken charges:
               1
     1  C   -0.125906
     2  C    1.008165
     3  C   -0.393797
     4  C   -0.431502
     5  C   -0.183683
     6  C   -0.492891
     7  C   -0.268264
     8  C   -0.225320
     9  H   -0.113158
    10  H   -0.101122
    11  H   -0.217608
    12  H    0.158899
    13  H    0.158920
    14  H    0.110676
    15  H    0.189222
    16  H    0.059016
    17  H    0.110016
    18  H    0.112118
    19  H    0.119345
    20  H    0.128952
    21  H    0.100444
    22  H    0.106847
    23  H    0.101334
    24  H    0.089297
 Sum of Mulliken charges =  -0.00000

 Dipole moment (field-independent basis, Debye):
    X=             -0.4496    Y=              0.1152    Z=             -0.1197  Tot=              0.4793

 Test job not archived.
 1\1\GINC-SE106\SP\RHF\Aug-CC-pVDZ\C8H16\OHZDE\05-Apr-2025\0\\#t hf aug
 -cc-pvdz iop(5/13=1,5/36=2,99/5=2) pseudo=read geom=check guess=(read,
 tcheck) scf=(maxcycle=1)\\title\\0,1\C,0,4.339193,-0.239943,0.51643\C,
 0,3.327634,-0.231568,-0.343062\C,0,-4.298854,-0.403949,0.124866\C,0,2.
 068612,0.568357,-0.199112\C,0,-3.042666,0.464354,0.079878\C,0,0.803711
 ,-0.301438,-0.153528\C,0,-1.749886,-0.346967,-0.014527\C,0,-0.486737,0
 .513029,-0.061371\H,0,5.218634,-0.848262,0.35266\H,0,4.324601,0.365016
 ,1.415596\H,0,3.390219,-0.857805,-1.229651\H,0,-4.383423,-1.021698,-0.

 Normal termination of Gaussian 16 at Sat Apr  5 23:12:32 2025.
