 Gaussian 16, Revision C.01,

 ----------------------------------------------------------------------
 #t hf aug-cc-pvdz symm=none int=(grid=ultrafine) guess=(read,tcheck) s
 table=(opt,rrhf)
 ----------------------------------------------------------------------
 -----
 title
 -----
 Symbolic Z-matrix:
 Charge =  0 Multiplicity = 1

 SCF Done:  E(RHF) =  -311.072797207     A.U. after   13 cycles
 Normal termination of Gaussian 16 at Sat Apr  5 23:12:09 2025.
 Gaussian 16:  ES64L-G16RevC.01  3-Jul-2019

 ----------------------------------------------------------------------
 #t hf aug-cc-pvdz iop(5/13=1,5/36=2,99/5=2) pseudo=read geom=check gue
 ss=(read,tcheck) scf=(maxcycle=1)
 ----------------------------------------------------------------------
 -----
 title
 -----
 Structure from the checkpoint file:  "octyne.chk"
 Charge =  0 Multiplicity = 1

                         Standard orientation:
 ---------------------------------------------------------------------
 Center     Atomic      Atomic             Coordinates (Angstroms)
 Number     Number       Type             X           Y           Z
 ---------------------------------------------------------------------
      1          6           0       -3.346877   -3.031775    0.000000
      2          6           0       -2.834619   -1.946702    0.000000
      3          6           0        3.714400    1.932692    0.000000
      4          6           0       -2.190041   -0.639220    0.000000
      5          6           0        2.187929    1.995002    0.000000
      6          6           0       -0.653223   -0.713523    0.000000
      7          6           0        1.528109    0.615773    0.000000
      8          6           0       -0.000000    0.667374    0.000000
      9          1           0       -3.805160   -3.988782    0.000000
     10          1           0        4.087265    1.405598    0.880672
     11          1           0        4.155073    2.930520    0.000000
     12          1           0        4.087265    1.405598   -0.880672
     13          1           0       -2.527896   -0.075379   -0.874546
     14          1           0       -2.527896   -0.075379    0.874546
     15          1           0        1.845994    2.557334    0.874089
     16          1           0        1.845994    2.557334   -0.874089
     17          1           0       -0.326053   -1.280282   -0.874781
     18          1           0       -0.326053   -1.280282    0.874781
     19          1           0        1.870789    0.052846    0.874570
     20          1           0        1.870789    0.052846   -0.874570
     21          1           0       -0.342088    1.230153   -0.875038
     22          1           0       -0.342088    1.230153    0.875038
 ---------------------------------------------------------------------

 SCF Done:  E(RHF) =  -311.416061093     A.U. after    2 cycles

 The electronic state is 1-A'.
 Alpha  occ. eigenvalues --  -11.25701 -11.23901 -11.23500 -11.22923 -11.22686
 Alpha  occ. eigenvalues --  -11.22677 -11.22591 -11.22198  -1.10621  -1.06802
 Alpha  occ. eigenvalues --   -1.01843  -0.96769  -0.89320  -0.81792  -0.79623
 Alpha  occ. eigenvalues --   -0.72247  -0.66866  -0.64760  -0.63141  -0.60136
 Alpha  occ. eigenvalues --   -0.57813  -0.56632  -0.55300  -0.52338  -0.50299
 Alpha  occ. eigenvalues --   -0.48456  -0.47607  -0.46973  -0.46952  -0.39112
 Alpha  occ. eigenvalues --   -0.39010
 Alpha virt. eigenvalues --    0.03325   0.03458   0.03589   0.04035   0.04481
 Alpha virt. eigenvalues --    0.05784   0.05947   0.06586   0.06705   0.08531
 Alpha virt. eigenvalues --    0.08819   0.09544   0.09753   0.10293   0.11811

 Mulliken charges:
               1
     1  C    0.199527
     2  C    0.528167
     3  C   -0.402028
     4  C   -0.685117
     5  C   -0.195168
     6  C   -0.198706
     7  C   -0.278419
     8  C   -0.171623
     9  H   -0.465018
    10  H    0.161017
    11  H    0.109698
    12  H    0.161017
    13  H    0.205351
    14  H    0.205351
    15  H    0.109655
    16  H    0.109655
    17  H    0.098758
    18  H    0.098758
    19  H    0.105257
    20  H    0.105257
    21  H    0.099305
    22  H    0.099305
 Sum of Mulliken charges =   0.00000

 Dipole moment (field-independent basis, Debye):
    X=              0.6029    Y=              0.7698    Z=             -0.0000  Tot=              0.9778

 Test job not archived.
 1\1\GINC-SE104\SP\RHF\Aug-CC-pVDZ\C8H14\OHZDE\05-Apr-2025\0\\#t hf aug
 -cc-pvdz iop(5/13=1,5/36=2,99/5=2) pseudo=read geom=check guess=(read,
 tcheck) scf=(maxcycle=1)\\title\\0,1\C,0,-3.346877,-3.031775,0.\C,0,-2
 .834619,-1.946702,0.\C,0,3.7144,1.932692,0.\C,0,-2.190041,-0.63922,0.\
 C,0,2.187929,1.995002,0.\C,0,-0.653223,-0.713523,0.\C,0,1.528109,0.615
 773,0.\C,0,0.,0.667374,0.\H,0,-3.80516,-3.988782,0.\H,0,4.087265,1.405
 598,0.880672\H,0,4.155073,2.93052,0.\H,0,4.087265,1.405598,-0.880672\H
 ,0,-2.527896,-0.075379,-0.874546\H,0,-2.527896,-0.075379,0.874546\H,0,

 Normal termination of Gaussian 16 at Sat Apr  5 23:12:29 2025.
