 Gaussian 16, Revision C.01,

 ----------------------------------------------------------------------
 #t hf aug-cc-pvdz symm=none int=(grid=ultrafine) guess=(read,tcheck) s
 table=(opt,rrhf)
 ----------------------------------------------------------------------
 -----
 title
 -----
 Symbolic Z-matrix:
 Charge =  0 Multiplicity = 1

 SCF Done:  E(RHF) =  -336.645040888     A.U. after   15 cycles
 Normal termination of Gaussian 16 at Sat Apr  5 23:10:50 2025.
 Gaussian 16:  ES64L-G16RevC.01  3-Jul-2019

 ----------------------------------------------------------------------
 #t hf aug-cc-pvdz iop(5/13=1,5/36=2,99/5=2) pseudo=read geom=check gue
 ss=(read,tcheck) scf=(maxcycle=1)
 ----------------------------------------------------------------------
 -----
 title
 -----
 Structure from the checkpoint file:  "oxadiazolidin-5-one.chk"
 Charge =  0 Multiplicity = 1

                         Standard orientation:
 ---------------------------------------------------------------------
 Center     Atomic      Atomic             Coordinates (Angstroms)
 Number     Number       Type             X           Y           Z
 ---------------------------------------------------------------------
      1          8           0       -0.105885   -1.140297   -0.063377
      2          8           0       -2.056550   -0.017889   -0.074554
      3          7           0        1.295288   -0.679344    0.308891
      4          7           0        1.383531    0.622036   -0.219008
      5          6           0       -0.862295   -0.019042    0.010796
      6          6           0        0.089800    1.168812    0.183518
      7          1           0        1.867042   -1.302225   -0.257604
      8          1           0        1.412350    0.590975   -1.239324
      9          1           0       -0.209208    2.014166   -0.427950
     10          1           0        0.112541    1.465110    1.233260
 ---------------------------------------------------------------------

 SCF Done:  E(RHF) =  -336.980620243     A.U. after    2 cycles

 The electronic state is 1-A.
 Alpha  occ. eigenvalues --  -20.62254 -20.54463 -15.62919 -15.57148 -11.39938
 Alpha  occ. eigenvalues --  -11.30677  -1.56026  -1.47355  -1.31177  -1.11781
 Alpha  occ. eigenvalues --   -0.96364  -0.83998  -0.80235  -0.74523  -0.67543
 Alpha  occ. eigenvalues --   -0.66502  -0.65476  -0.61697  -0.58604  -0.55543
 Alpha  occ. eigenvalues --   -0.49994  -0.45570  -0.43393
 Alpha virt. eigenvalues --    0.02509   0.04530   0.04954   0.05814   0.08541
 Alpha virt. eigenvalues --    0.10123   0.10555   0.10947   0.12460   0.14201
 Alpha virt. eigenvalues --    0.15189   0.15638   0.16397   0.17040   0.17928

 Mulliken charges:
               1
     1  O   -1.128191
     2  O   -1.190727
     3  N    0.389482
     4  N   -0.126183
     5  C    1.840249
     6  C   -0.610735
     7  H    0.195851
     8  H    0.311870
     9  H    0.145516
    10  H    0.172869
 Sum of Mulliken charges =  -0.00000

 Dipole moment (field-independent basis, Debye):
    X=              3.0245    Y=              1.2729    Z=             -1.6534  Tot=              3.6744

 Test job not archived.
 1\1\GINC-SE106\SP\RHF\Aug-CC-pVDZ\C2H4N2O2\OHZDE\05-Apr-2025\0\\#t hf
 aug-cc-pvdz iop(5/13=1,5/36=2,99/5=2) pseudo=read geom=check guess=(re
 ad,tcheck) scf=(maxcycle=1)\\title\\0,1\O,0,-0.105885,-1.140297,-0.063
 377\O,0,-2.05655,-0.017889,-0.074554\N,0,1.295288,-0.679344,0.308891\N
 ,0,1.383531,0.622036,-0.219008\C,0,-0.862295,-0.019042,0.010796\C,0,0.
 0898,1.168812,0.183518\H,0,1.867042,-1.302225,-0.257604\H,0,1.41235,0.
 590975,-1.239324\H,0,-0.209208,2.014166,-0.42795\H,0,0.112541,1.46511,
 1.23326\\Version=ES64L-G16RevC.01\State=1-A\HF=-336.9806202\RMSD=1.720

 Normal termination of Gaussian 16 at Sat Apr  5 23:10:54 2025.
