 Gaussian 16, Revision C.01,

 ----------------------------------------------------------------------
 #t hf aug-cc-pvdz symm=none int=(grid=ultrafine) guess=(read,tcheck) s
 table=(opt,rrhf)
 ----------------------------------------------------------------------
 -----
 title
 -----
 Symbolic Z-matrix:
 Charge =  0 Multiplicity = 1

 SCF Done:  E(RHF) =  -947.966703080     A.U. after   15 cycles
 Normal termination of Gaussian 16 at Sat Apr  5 23:10:51 2025.
 Gaussian 16:  ES64L-G16RevC.01  3-Jul-2019

 ----------------------------------------------------------------------
 #t hf aug-cc-pvdz iop(5/13=1,5/36=2,99/5=2) pseudo=read geom=check gue
 ss=(read,tcheck) scf=(maxcycle=1)
 ----------------------------------------------------------------------
 -----
 title
 -----
 Structure from the checkpoint file:  "oxadithiolane.chk"
 Charge =  0 Multiplicity = 1

                         Standard orientation:
 ---------------------------------------------------------------------
 Center     Atomic      Atomic             Coordinates (Angstroms)
 Number     Number       Type             X           Y           Z
 ---------------------------------------------------------------------
      1         16           0        0.050453   -1.283028    0.254896
      2         16           0        1.318485    0.295905   -0.230152
      3          8           0       -1.268669   -0.524942   -0.458383
      4          6           0        0.011028    1.451390    0.341037
      5          6           0       -1.372946    0.839492   -0.008592
      6          1           0        0.172362    2.395956   -0.175996
      7          1           0        0.109782    1.603307    1.412522
      8          1           0       -1.847818    1.369371   -0.831999
      9          1           0       -2.016476    0.879578    0.871964
 ---------------------------------------------------------------------

 SCF Done:  E(RHF) =  -948.241864209     A.U. after    2 cycles

 The electronic state is 1-A.
 Alpha  occ. eigenvalues --  -94.02253 -93.97964 -20.58944 -11.31554 -11.29218
 Alpha  occ. eigenvalues --   -8.29657  -8.25990  -6.27416  -6.27266  -6.26904
 Alpha  occ. eigenvalues --   -6.23756  -6.23615  -6.23326  -1.48618  -1.10873
 Alpha  occ. eigenvalues --   -1.04237  -0.86389  -0.84599  -0.69090  -0.67070
 Alpha  occ. eigenvalues --   -0.61759  -0.60017  -0.53644  -0.51068  -0.48398
 Alpha  occ. eigenvalues --   -0.46044  -0.40856  -0.34236
 Alpha virt. eigenvalues --    0.03412   0.04262   0.04529   0.06596   0.07171
 Alpha virt. eigenvalues --    0.07416   0.08681   0.11213   0.12230   0.12518
 Alpha virt. eigenvalues --    0.13797   0.15113   0.15687   0.16019   0.16527

 Mulliken charges:
               1
     1  S    0.528320
     2  S    0.183712
     3  O   -1.193046
     4  C   -0.723825
     5  C    0.565679
     6  H    0.256732
     7  H    0.207690
     8  H    0.042484
     9  H    0.132254
 Sum of Mulliken charges =  -0.00000

 Dipole moment (field-independent basis, Debye):
    X=             -0.8018    Y=              2.5334    Z=              0.9577  Tot=              2.8246

 Test job not archived.
 1\1\GINC-SE108\SP\RHF\Aug-CC-pVDZ\C2H4O1S2\OHZDE\05-Apr-2025\0\\#t hf
 aug-cc-pvdz iop(5/13=1,5/36=2,99/5=2) pseudo=read geom=check guess=(re
 ad,tcheck) scf=(maxcycle=1)\\title\\0,1\S,0,0.050457,-1.283028,0.25489
 6\S,0,1.318484,0.295909,-0.230152\O,0,-1.268667,-0.524946,-0.458383\C,
 0,0.011024,1.45139,0.341037\C,0,-1.372949,0.839488,-0.008592\H,0,0.172
 355,2.395956,-0.175996\H,0,0.109777,1.603307,1.412522\H,0,-1.847822,1.
 369365,-0.831999\H,0,-2.016479,0.879572,0.871964\\Version=ES64L-G16Rev
 C.01\State=1-A\HF=-948.2418642\RMSD=6.852e-03\Dipole=-0.3154518,0.9967

 Normal termination of Gaussian 16 at Sat Apr  5 23:10:55 2025.
