 Gaussian 16, Revision C.01,

 ----------------------------------------------------------------------
 #t hf aug-cc-pvdz symm=none int=(grid=ultrafine) guess=(read,tcheck) s
 table=(opt,rrhf)
 ----------------------------------------------------------------------
 -----
 title
 -----
 Symbolic Z-matrix:
 Charge =  0 Multiplicity = 1

 SCF Done:  E(RHF) =  -376.438551576     A.U. after   12 cycles
 Normal termination of Gaussian 16 at Sat Apr  5 23:10:47 2025.
 Gaussian 16:  ES64L-G16RevC.01  3-Jul-2019

 ----------------------------------------------------------------------
 #t hf aug-cc-pvdz iop(5/13=1,5/36=2,99/5=2) pseudo=read geom=check gue
 ss=(read,tcheck) scf=(maxcycle=1)
 ----------------------------------------------------------------------
 -----
 title
 -----
 Structure from the checkpoint file:  "oxalic_acid.chk"
 Charge =  0 Multiplicity = 1

                         Standard orientation:
 ---------------------------------------------------------------------
 Center     Atomic      Atomic             Coordinates (Angstroms)
 Number     Number       Type             X           Y           Z
 ---------------------------------------------------------------------
      1          6           0       -0.054169    0.770269    0.000000
      2          6           0        0.054169   -0.770269    0.000000
      3          8           0       -1.121261    1.323096    0.000000
      4          8           0        1.121261   -1.323096    0.000000
      5          8           0        1.121261    1.380321    0.000000
      6          8           0       -1.121261   -1.380321    0.000000
      7          1           0        1.811137    0.691631    0.000000
      8          1           0       -1.811137   -0.691631    0.000000
 ---------------------------------------------------------------------

 SCF Done:  E(RHF) =  -376.801613879     A.U. after    2 cycles

 The electronic state is 1-AG.
 Alpha  occ. eigenvalues --  -20.64144 -20.64139 -20.59236 -20.59230 -11.44590
 Alpha  occ. eigenvalues --  -11.44567  -1.60777  -1.57840  -1.52174  -1.49739
 Alpha  occ. eigenvalues --   -0.97856  -0.86474  -0.85790  -0.73345  -0.70124
 Alpha  occ. eigenvalues --   -0.69644  -0.68298  -0.64120  -0.59551  -0.56173
 Alpha  occ. eigenvalues --   -0.52073  -0.51291  -0.47007
 Alpha virt. eigenvalues --    0.03885   0.04613   0.05654   0.07647   0.08852
 Alpha virt. eigenvalues --    0.10645   0.11471   0.11761   0.12258   0.14933
 Alpha virt. eigenvalues --    0.18558   0.19279   0.19482   0.21538   0.23369

 Mulliken charges:
               1
     1  C    1.861288
     2  C    1.861288
     3  O   -1.087979
     4  O   -1.087979
     5  O   -1.212089
     6  O   -1.212089
     7  H    0.438781
     8  H    0.438781
 Sum of Mulliken charges =  -0.00000

 Dipole moment (field-independent basis, Debye):
    X=              0.0000    Y=              0.0000    Z=              0.0000  Tot=              0.0000

 Test job not archived.
 1\1\GINC-SE158\SP\RHF\Aug-CC-pVDZ\C2H2O4\OHZDE\05-Apr-2025\0\\#t hf au
 g-cc-pvdz iop(5/13=1,5/36=2,99/5=2) pseudo=read geom=check guess=(read
 ,tcheck) scf=(maxcycle=1)\\title\\0,1\C,0,-0.054169,0.770269,0.\C,0,0.
 054169,-0.770269,0.\O,0,-1.121261,1.323096,0.\O,0,1.121261,-1.323096,0
 .\O,0,1.121261,1.380321,0.\O,0,-1.121261,-1.380321,0.\H,0,1.811137,0.6
 91631,0.\H,0,-1.811137,-0.691631,0.\\Version=ES64L-G16RevC.01\State=1-
 AG\HF=-376.8016139\RMSD=1.457e-02\Dipole=0.,0.,0.\Quadrupole=3.294495,
 -5.6943122,2.3998172,2.8579253,0.,0.\PG=C02H [SGH(C2H2O4)]\\@

 Normal termination of Gaussian 16 at Sat Apr  5 23:10:49 2025.
