 Gaussian 16, Revision C.01,

 ----------------------------------------------------------------------
 #t hf aug-cc-pvdz symm=none int=(grid=ultrafine) guess=(read,tcheck) s
 table=(opt,rrhf)
 ----------------------------------------------------------------------
 -----
 title
 -----
 Symbolic Z-matrix:
 Charge =  0 Multiplicity = 1

 SCF Done:  E(RHF) =  -336.786106719     A.U. after   12 cycles
 Normal termination of Gaussian 16 at Sat Apr  5 23:10:49 2025.
 Gaussian 16:  ES64L-G16RevC.01  3-Jul-2019

 ----------------------------------------------------------------------
 #t hf aug-cc-pvdz iop(5/13=1,5/36=2,99/5=2) pseudo=read geom=check gue
 ss=(read,tcheck) scf=(maxcycle=1)
 ----------------------------------------------------------------------
 -----
 title
 -----
 Structure from the checkpoint file:  "oxalamide.chk"
 Charge =  0 Multiplicity = 1

                         Standard orientation:
 ---------------------------------------------------------------------
 Center     Atomic      Atomic             Coordinates (Angstroms)
 Number     Number       Type             X           Y           Z
 ---------------------------------------------------------------------
      1          6           0        0.331694    0.699305   -0.000060
      2          6           0       -0.331694   -0.699305   -0.000060
      3          8           0       -0.331694    1.722137   -0.000002
      4          8           0        0.331694   -1.722137   -0.000002
      5          7           0        1.672475    0.623238   -0.000051
      6          7           0       -1.672475   -0.623238   -0.000051
      7          1           0        2.224941    1.462119    0.000258
      8          1           0        2.104637   -0.286302    0.000475
      9          1           0       -2.224941   -1.462119    0.000258
     10          1           0       -2.104637    0.286302    0.000475
 ---------------------------------------------------------------------

 SCF Done:  E(RHF) =  -337.119891062     A.U. after    2 cycles

 The electronic state is 1-A.
 Alpha  occ. eigenvalues --  -20.53707 -20.53702 -15.54458 -15.54409 -11.38382
 Alpha  occ. eigenvalues --  -11.38361  -1.49136  -1.47549  -1.24803  -1.24364
 Alpha  occ. eigenvalues --   -0.94744  -0.84604  -0.81159  -0.76898  -0.70186
 Alpha  occ. eigenvalues --   -0.67440  -0.64258  -0.61917  -0.57746  -0.51055
 Alpha  occ. eigenvalues --   -0.46279  -0.44680  -0.42291
 Alpha virt. eigenvalues --    0.03115   0.03817   0.06430   0.06474   0.08715
 Alpha virt. eigenvalues --    0.11018   0.11042   0.11376   0.11640   0.11926
 Alpha virt. eigenvalues --    0.13499   0.15919   0.16517   0.16961   0.19400

 Mulliken charges:
               1
     1  C    0.405176
     2  C    0.405176
     3  O   -1.312964
     4  O   -1.312964
     5  N    0.733371
     6  N    0.733371
     7  H    0.092380
     8  H    0.082036
     9  H    0.092380
    10  H    0.082036
 Sum of Mulliken charges =  -0.00000

 Dipole moment (field-independent basis, Debye):
    X=              0.0000    Y=              0.0000    Z=              0.0025  Tot=              0.0025

 Test job not archived.
 1\1\GINC-SE154\SP\RHF\Aug-CC-pVDZ\C2H4N2O2\OHZDE\05-Apr-2025\0\\#t hf
 aug-cc-pvdz iop(5/13=1,5/36=2,99/5=2) pseudo=read geom=check guess=(re
 ad,tcheck) scf=(maxcycle=1)\\title\\0,1\C,0,0.331694,0.699305,-0.00006
 \C,0,-0.331694,-0.699305,-0.00006\O,0,-0.331694,1.722137,-0.000002\O,0
 ,0.331694,-1.722137,-0.000002\N,0,1.672475,0.623238,-0.000051\N,0,-1.6
 72475,-0.623238,-0.000051\H,0,2.224941,1.462119,0.000258\H,0,2.104637,
 -0.286302,0.000475\H,0,-2.224941,-1.462119,0.000258\H,0,-2.104637,0.28
 6302,0.000475\\Version=ES64L-G16RevC.01\State=1-A\HF=-337.1198911\RMSD

 Normal termination of Gaussian 16 at Sat Apr  5 23:10:52 2025.
