 Gaussian 16, Revision C.01,

 ----------------------------------------------------------------------
 #t hf aug-cc-pvdz symm=none int=(grid=ultrafine) guess=(read,tcheck) s
 table=(opt,rrhf)
 ----------------------------------------------------------------------
 -----
 title
 -----
 Symbolic Z-matrix:
 Charge =  0 Multiplicity = 1

 SCF Done:  E(RHF) =  -356.608498753     A.U. after   14 cycles
 Normal termination of Gaussian 16 at Sat Apr  5 23:10:50 2025.
 Gaussian 16:  ES64L-G16RevC.01  3-Jul-2019

 ----------------------------------------------------------------------
 #t hf aug-cc-pvdz iop(5/13=1,5/36=2,99/5=2) pseudo=read geom=check gue
 ss=(read,tcheck) scf=(maxcycle=1)
 ----------------------------------------------------------------------
 -----
 title
 -----
 Structure from the checkpoint file:  "oxamic_acid.chk"
 Charge =  0 Multiplicity = 1

                         Standard orientation:
 ---------------------------------------------------------------------
 Center     Atomic      Atomic             Coordinates (Angstroms)
 Number     Number       Type             X           Y           Z
 ---------------------------------------------------------------------
      1          7           0       -1.545213    0.875723    0.000075
      2          1           0       -2.543731    0.764447    0.000029
      3          1           0       -1.130575    1.791761    0.000310
      4          8           0        1.533181   -0.905281    0.000099
      5          1           0        2.449443   -0.589401    0.000108
      6          8           0       -1.138032   -1.371045   -0.000085
      7          8           0        1.125098    1.307222   -0.000114
      8          6           0        0.739014    0.164691   -0.000013
      9          6           0       -0.759117   -0.222031   -0.000015
 ---------------------------------------------------------------------

 SCF Done:  E(RHF) =  -356.956477190     A.U. after    2 cycles

 The electronic state is 1-A.
 Alpha  occ. eigenvalues --  -20.62612 -20.57424 -20.54096 -15.54846 -11.42707
 Alpha  occ. eigenvalues --  -11.39275  -1.58006  -1.48907  -1.48518  -1.24924
 Alpha  occ. eigenvalues --   -0.97059  -0.85127  -0.79998  -0.73871  -0.71573
 Alpha  occ. eigenvalues --   -0.66979  -0.66725  -0.60987  -0.59940  -0.52281
 Alpha  occ. eigenvalues --   -0.50247  -0.45645  -0.43795
 Alpha virt. eigenvalues --    0.03066   0.03842   0.06144   0.07723   0.09486
 Alpha virt. eigenvalues --    0.09900   0.10907   0.11887   0.12160   0.13226
 Alpha virt. eigenvalues --    0.15588   0.16540   0.17820   0.18322   0.20299

 Mulliken charges:
               1
     1  N    0.555706
     2  H    0.115736
     3  H    0.071002
     4  O   -1.203243
     5  H    0.393030
     6  O   -1.200256
     7  O   -1.206990
     8  C    2.123981
     9  C    0.351035
 Sum of Mulliken charges =   0.00000

 Dipole moment (field-independent basis, Debye):
    X=              0.3097    Y=              2.1151    Z=              0.0006  Tot=              2.1376

 Test job not archived.
 1\1\GINC-SE041\SP\RHF\Aug-CC-pVDZ\C2H3N1O3\OHZDE\05-Apr-2025\0\\#t hf
 aug-cc-pvdz iop(5/13=1,5/36=2,99/5=2) pseudo=read geom=check guess=(re
 ad,tcheck) scf=(maxcycle=1)\\title\\0,1\N,0,-1.545214,0.875722,0.00007
 5\H,0,-2.543731,0.764446,0.000029\H,0,-1.130576,1.791761,0.00031\O,0,1
 .533181,-0.90528,0.000099\H,0,2.449443,-0.5894,0.000108\O,0,-1.138031,
 -1.371045,-0.000085\O,0,1.125097,1.307223,-0.000114\C,0,0.739014,0.164
 691,-0.000013\C,0,-0.759117,-0.222031,-0.000015\\Version=ES64L-G16RevC
 .01\State=1-A\HF=-356.9564772\RMSD=1.902e-02\Dipole=0.1218264,0.832145

 Normal termination of Gaussian 16 at Sat Apr  5 23:10:55 2025.
