 Gaussian 16, Revision C.01,

 ----------------------------------------------------------------------
 #t hf aug-cc-pvdz symm=none int=(grid=ultrafine) guess=(read,tcheck) s
 table=(opt,rrhf)
 ----------------------------------------------------------------------
 -----
 title
 -----
 Symbolic Z-matrix:
 Charge =  0 Multiplicity = 1

 SCF Done:  E(RHF) =  -717.041996904     A.U. after   16 cycles
 Normal termination of Gaussian 16 at Sat Apr  5 23:10:56 2025.
 Gaussian 16:  ES64L-G16RevC.01  3-Jul-2019

 ----------------------------------------------------------------------
 #t hf aug-cc-pvdz iop(5/13=1,5/36=2,99/5=2) pseudo=read geom=check gue
 ss=(read,tcheck) scf=(maxcycle=1)
 ----------------------------------------------------------------------
 -----
 title
 -----
 Structure from the checkpoint file:  "oxathiazin-4-one.chk"
 Charge =  0 Multiplicity = 1

                         Standard orientation:
 ---------------------------------------------------------------------
 Center     Atomic      Atomic             Coordinates (Angstroms)
 Number     Number       Type             X           Y           Z
 ---------------------------------------------------------------------
      1         16           0        1.225174   -0.898935   -0.254228
      2          8           0        1.535098    0.658588    0.407850
      3          8           0       -2.480973   -0.262291    0.091047
      4          7           0       -0.366881   -1.120825    0.191149
      5          6           0       -1.293951   -0.078457   -0.057482
      6          6           0       -0.684163    1.233340   -0.309598
      7          6           0        0.572566    1.541966    0.062753
      8          1           0       -1.361545    2.031989   -0.568230
      9          1           0       -0.591464   -1.718951    0.976121
     10          1           0        0.918677    2.564229    0.156502
 ---------------------------------------------------------------------

 SCF Done:  E(RHF) =  -717.414625200     A.U. after    2 cycles

 The electronic state is 1-A.
 Alpha  occ. eigenvalues --  -94.06290 -20.62821 -20.53865 -15.56552 -11.38768
 Alpha  occ. eigenvalues --  -11.35697 -11.26014  -8.33399  -6.31193  -6.30979
 Alpha  occ. eigenvalues --   -6.30642  -1.53910  -1.48503  -1.27313  -1.09751
 Alpha  occ. eigenvalues --   -0.99650  -0.91030  -0.80475  -0.75686  -0.73072
 Alpha  occ. eigenvalues --   -0.68016  -0.65630  -0.63296  -0.59038  -0.57591
 Alpha  occ. eigenvalues --   -0.55349  -0.49037  -0.44819  -0.39685  -0.38572
 Alpha virt. eigenvalues --    0.03220   0.04127   0.05092   0.05714   0.06882
 Alpha virt. eigenvalues --    0.08576   0.09708   0.10305   0.11286   0.11919
 Alpha virt. eigenvalues --    0.13280   0.13766   0.14179   0.14646   0.15594

 Mulliken charges:
               1
     1  S    0.762706
     2  O   -1.415160
     3  O   -1.215475
     4  N    0.281829
     5  C    0.290515
     6  C    0.345627
     7  C    1.020735
     8  H   -0.160074
     9  H    0.107194
    10  H   -0.017898
 Sum of Mulliken charges =  -0.00000

 Dipole moment (field-independent basis, Debye):
    X=              2.5313    Y=              1.0745    Z=              0.4298  Tot=              2.7833

 Test job not archived.
 1\1\GINC-SE084\SP\RHF\Aug-CC-pVDZ\C3H3N1O2S1\OHZDE\05-Apr-2025\0\\#t h
 f aug-cc-pvdz iop(5/13=1,5/36=2,99/5=2) pseudo=read geom=check guess=(
 read,tcheck) scf=(maxcycle=1)\\title\\0,1\S,0,1.225174,-0.898935,-0.25
 4228\O,0,1.535098,0.658588,0.40785\O,0,-2.480973,-0.262291,0.091047\N,
 0,-0.366881,-1.120825,0.191149\C,0,-1.293951,-0.078457,-0.057482\C,0,-
 0.684163,1.23334,-0.309598\C,0,0.572566,1.541966,0.062753\H,0,-1.36154
 5,2.031989,-0.56823\H,0,-0.591464,-1.718951,0.976121\H,0,0.918677,2.56
 4229,0.156502\\Version=ES64L-G16RevC.01\State=1-A\HF=-717.4146252\RMSD

 Normal termination of Gaussian 16 at Sat Apr  5 23:11:02 2025.
