 Gaussian 16, Revision C.01,

 ----------------------------------------------------------------------
 #t hf aug-cc-pvdz symm=none int=(grid=ultrafine) guess=(read,tcheck) s
 table=(opt,rrhf)
 ----------------------------------------------------------------------
 -----
 title
 -----
 Symbolic Z-matrix:
 Charge =  0 Multiplicity = 1

 SCF Done:  E(RHF) =  -244.665712262     A.U. after   14 cycles
 Normal termination of Gaussian 16 at Sat Apr  5 23:10:47 2025.
 Gaussian 16:  ES64L-G16RevC.01  3-Jul-2019

 ----------------------------------------------------------------------
 #t hf aug-cc-pvdz iop(5/13=1,5/36=2,99/5=2) pseudo=read geom=check gue
 ss=(read,tcheck) scf=(maxcycle=1)
 ----------------------------------------------------------------------
 -----
 title
 -----
 Structure from the checkpoint file:  "oxazole.chk"
 Charge =  0 Multiplicity = 1

                         Standard orientation:
 ---------------------------------------------------------------------
 Center     Atomic      Atomic             Coordinates (Angstroms)
 Number     Number       Type             X           Y           Z
 ---------------------------------------------------------------------
      1          6           0        0.752140   -0.876732    0.000000
      2          6           0       -0.594330   -0.964738    0.000000
      3          6           0        0.000000    1.101527    0.000000
      4          7           0        1.118628    0.463667    0.000000
      5          8           0       -1.098400    0.308078    0.000000
      6          1           0        1.482368   -1.666223    0.000000
      7          1           0       -1.305329   -1.768953    0.000000
      8          1           0       -0.167090    2.164537    0.000000
 ---------------------------------------------------------------------

 SCF Done:  E(RHF) =  -244.910655725     A.U. after    2 cycles

 The electronic state is 1-A'.
 Alpha  occ. eigenvalues --  -20.62984 -15.51078 -11.34490 -11.30641 -11.27273
 Alpha  occ. eigenvalues --   -1.57255  -1.25161  -1.04575  -0.85774  -0.84344
 Alpha  occ. eigenvalues --   -0.76962  -0.66691  -0.64092  -0.62616  -0.58681
 Alpha  occ. eigenvalues --   -0.50638  -0.47920  -0.36355
 Alpha virt. eigenvalues --    0.03481   0.04289   0.04837   0.08261   0.09041
 Alpha virt. eigenvalues --    0.09701   0.11531   0.12335   0.12574   0.13486
 Alpha virt. eigenvalues --    0.15374   0.15724   0.15979   0.16422   0.19983

 Mulliken charges:
               1
     1  C   -0.748947
     2  C    1.347200
     3  C    0.150491
     4  N    0.688415
     5  O   -1.303412
     6  H   -0.096360
     7  H   -0.069543
     8  H    0.032156
 Sum of Mulliken charges =   0.00000

 Dipole moment (field-independent basis, Debye):
    X=             -1.6967    Y=             -0.6982    Z=              0.0000  Tot=              1.8348

 Test job not archived.
 1\1\GINC-SE145\SP\RHF\Aug-CC-pVDZ\C3H3N1O1\OHZDE\05-Apr-2025\0\\#t hf
 aug-cc-pvdz iop(5/13=1,5/36=2,99/5=2) pseudo=read geom=check guess=(re
 ad,tcheck) scf=(maxcycle=1)\\title\\0,1\C,0,0.75214,-0.876732,0.\C,0,-
 0.59433,-0.964738,0.\C,0,0.,1.101527,0.\N,0,1.118628,0.463667,0.\O,0,-
 1.0984,0.308078,0.\H,0,1.482368,-1.666223,0.\H,0,-1.305329,-1.768953,0
 .\H,0,-0.16709,2.164537,0.\\Version=ES64L-G16RevC.01\State=1-A'\HF=-24
 4.9106557\RMSD=2.571e-02\Dipole=-0.6675457,-0.2746839,0.\Quadrupole=-2
 .6456644,4.5404235,-1.8947591,-1.1451884,0.,0.\PG=CS [SG(C3H3N1O1)]\\@

 Normal termination of Gaussian 16 at Sat Apr  5 23:10:49 2025.
