 Gaussian 16, Revision C.01,

 ----------------------------------------------------------------------
 #t hf aug-cc-pvdz symm=none int=(grid=ultrafine) guess=(read,tcheck) s
 table=(opt,rrhf)
 ----------------------------------------------------------------------
 -----
 title
 -----
 Symbolic Z-matrix:
 Charge =  0 Multiplicity = 1

 SCF Done:  E(RHF) =  -320.756070421     A.U. after   13 cycles
 Normal termination of Gaussian 16 at Sat Apr  5 23:10:56 2025.
 Gaussian 16:  ES64L-G16RevC.01  3-Jul-2019

 ----------------------------------------------------------------------
 #t hf aug-cc-pvdz iop(5/13=1,5/36=2,99/5=2) pseudo=read geom=check gue
 ss=(read,tcheck) scf=(maxcycle=1)
 ----------------------------------------------------------------------
 -----
 title
 -----
 Structure from the checkpoint file:  "oxazolidin-2-one.chk"
 Charge =  0 Multiplicity = 1

                         Standard orientation:
 ---------------------------------------------------------------------
 Center     Atomic      Atomic             Coordinates (Angstroms)
 Number     Number       Type             X           Y           Z
 ---------------------------------------------------------------------
      1          6           0        0.863078   -0.004934   -0.012038
      2          6           0       -1.345484    0.742595    0.139382
      3          6           0       -1.296433   -0.772693   -0.105039
      4          7           0        0.032123    1.081398   -0.166734
      5          8           0        2.061521   -0.022202    0.030559
      6          8           0        0.084494   -1.127510    0.081246
      7          1           0       -2.049443    1.241627   -0.524845
      8          1           0       -1.609416    0.978619    1.174750
      9          1           0       -1.897195   -1.346525    0.595247
     10          1           0       -1.584158   -1.025162   -1.126673
     11          1           0        0.420261    1.989541    0.020394
 ---------------------------------------------------------------------

 SCF Done:  E(RHF) =  -321.078888888     A.U. after    2 cycles

 The electronic state is 1-A.
 Alpha  occ. eigenvalues --  -20.59173 -20.51734 -15.53906 -11.41023 -11.31952
 Alpha  occ. eigenvalues --  -11.30202  -1.54531  -1.45354  -1.25618  -1.04446
 Alpha  occ. eigenvalues --   -0.90220  -0.86170  -0.74177  -0.73173  -0.68198
 Alpha  occ. eigenvalues --   -0.63418  -0.61284  -0.60489  -0.59740  -0.53744
 Alpha  occ. eigenvalues --   -0.45789  -0.45222  -0.43789
 Alpha virt. eigenvalues --    0.02675   0.03873   0.03976   0.04864   0.06145
 Alpha virt. eigenvalues --    0.08896   0.10060   0.10935   0.11498   0.13289
 Alpha virt. eigenvalues --    0.14318   0.14573   0.14646   0.15747   0.16951

 Mulliken charges:
               1
     1  C    1.351006
     2  C   -0.432266
     3  C    0.585368
     4  N    0.466862
     5  O   -1.148459
     6  O   -1.233185
     7  H    0.098057
     8  H    0.022593
     9  H    0.084286
    10  H    0.099888
    11  H    0.105850
 Sum of Mulliken charges =  -0.00000

 Dipole moment (field-independent basis, Debye):
    X=             -5.1972    Y=              1.9043    Z=              0.3123  Tot=              5.5439

 Test job not archived.
 1\1\GINC-SE164\SP\RHF\Aug-CC-pVDZ\C3H5N1O2\OHZDE\05-Apr-2025\0\\#t hf
 aug-cc-pvdz iop(5/13=1,5/36=2,99/5=2) pseudo=read geom=check guess=(re
 ad,tcheck) scf=(maxcycle=1)\\title\\0,1\C,0,0.863078,-0.004934,-0.0120
 38\C,0,-1.345484,0.742595,0.139382\C,0,-1.296433,-0.772693,-0.105039\N
 ,0,0.032123,1.081398,-0.166734\O,0,2.061521,-0.022202,0.030559\O,0,0.0
 84494,-1.12751,0.081246\H,0,-2.049443,1.241627,-0.524845\H,0,-1.609416
 ,0.978619,1.17475\H,0,-1.897195,-1.346525,0.595247\H,0,-1.584158,-1.02
 5162,-1.126673\H,0,0.420261,1.989541,0.020394\\Version=ES64L-G16RevC.0

 Normal termination of Gaussian 16 at Sat Apr  5 23:11:01 2025.
