 Gaussian 16, Revision C.01,

 ----------------------------------------------------------------------
 #t hf aug-cc-pvdz symm=none int=(grid=ultrafine) guess=(read,tcheck) s
 table=(opt,rrhf)
 ----------------------------------------------------------------------
 -----
 title
 -----
 Symbolic Z-matrix:
 Charge =  0 Multiplicity = 1

 SCF Done:  E(RHF) =  -191.934934231     A.U. after   11 cycles
 Normal termination of Gaussian 16 at Sat Apr  5 23:10:47 2025.
 Gaussian 16:  ES64L-G16RevC.01  3-Jul-2019

 ----------------------------------------------------------------------
 #t hf aug-cc-pvdz iop(5/13=1,5/36=2,99/5=2) pseudo=read geom=check gue
 ss=(read,tcheck) scf=(maxcycle=1)
 ----------------------------------------------------------------------
 -----
 title
 -----
 Structure from the checkpoint file:  "oxetane.chk"
 Charge =  0 Multiplicity = 1

                         Standard orientation:
 ---------------------------------------------------------------------
 Center     Atomic      Atomic             Coordinates (Angstroms)
 Number     Number       Type             X           Y           Z
 ---------------------------------------------------------------------
      1          6           0       -0.000362   -0.062016    1.039066
      2          6           0       -0.000362   -0.062016   -1.039066
      3          1           0       -0.886662    1.703368    0.000000
      4          1           0        0.886384    1.702690    0.000000
      5          6           0       -0.000362    1.073690    0.000000
      6          1           0       -0.890999   -0.134448    1.666799
      7          1           0        0.889472   -0.133116    1.668112
      8          1           0       -0.890999   -0.134448   -1.666799
      9          1           0        0.889472   -0.133116   -1.668112
     10          8           0        0.001231   -1.071110   -0.000000
 ---------------------------------------------------------------------

 SCF Done:  E(RHF) =  -192.138614241     A.U. after    2 cycles

 The electronic state is 1-A'.
 Alpha  occ. eigenvalues --  -20.53263 -11.28587 -11.28526 -11.23863  -1.45228
 Alpha  occ. eigenvalues --   -1.02254  -0.93542  -0.77807  -0.69112  -0.67578
 Alpha  occ. eigenvalues --   -0.59205  -0.57104  -0.54129  -0.47909  -0.46014
 Alpha  occ. eigenvalues --   -0.40604
 Alpha virt. eigenvalues --    0.03742   0.04364   0.04370   0.04958   0.06720
 Alpha virt. eigenvalues --    0.07430   0.10370   0.11068   0.12302   0.14399
 Alpha virt. eigenvalues --    0.14812   0.15815   0.16718   0.17156   0.19190

 Mulliken charges:
               1
     1  C    0.731356
     2  C    0.731356
     3  H    0.042737
     4  H    0.042673
     5  C   -0.410611
     6  H    0.030596
     7  H    0.030878
     8  H    0.030596
     9  H    0.030878
    10  O   -1.260460
 Sum of Mulliken charges =  -0.00000

 Dipole moment (field-independent basis, Debye):
    X=             -0.0028    Y=              2.0917    Z=              0.0000  Tot=              2.0917

 Test job not archived.
 1\1\GINC-SE173\SP\RHF\Aug-CC-pVDZ\C3H6O1\OHZDE\05-Apr-2025\0\\#t hf au
 g-cc-pvdz iop(5/13=1,5/36=2,99/5=2) pseudo=read geom=check guess=(read
 ,tcheck) scf=(maxcycle=1)\\title\\0,1\C,0,-0.000362,-0.062016,1.039066
 \C,0,-0.000362,-0.062016,-1.039066\H,0,-0.886662,1.703368,0.\H,0,0.886
 384,1.70269,0.\C,0,-0.000362,1.07369,0.\H,0,-0.890999,-0.134448,1.6667
 99\H,0,0.889472,-0.133116,1.668112\H,0,-0.890999,-0.134448,-1.666799\H
 ,0,0.889472,-0.133116,-1.668112\O,0,0.001231,-1.07111,0.\\Version=ES64
 L-G16RevC.01\State=1-A'\HF=-192.1386142\RMSD=1.140e-02\Dipole=-0.00111

 Normal termination of Gaussian 16 at Sat Apr  5 23:10:49 2025.
