 Gaussian 16, Revision C.01,

 ----------------------------------------------------------------------
 #t hf aug-cc-pvdz symm=none int=(grid=ultrafine) guess=(read,tcheck) s
 table=(opt,rrhf)
 ----------------------------------------------------------------------
 -----
 title
 -----
 Symbolic Z-matrix:
 Charge =  0 Multiplicity = 1

 SCF Done:  E(RHF) =  -152.889036098     A.U. after   11 cycles
 Normal termination of Gaussian 16 at Sat Apr  5 23:10:43 2025.
 Gaussian 16:  ES64L-G16RevC.01  3-Jul-2019

 ----------------------------------------------------------------------
 #t hf aug-cc-pvdz iop(5/13=1,5/36=2,99/5=2) pseudo=read geom=check gue
 ss=(read,tcheck) scf=(maxcycle=1)
 ----------------------------------------------------------------------
 -----
 title
 -----
 Structure from the checkpoint file:  "oxirane.chk"
 Charge =  0 Multiplicity = 1

                         Standard orientation:
 ---------------------------------------------------------------------
 Center     Atomic      Atomic             Coordinates (Angstroms)
 Number     Number       Type             X           Y           Z
 ---------------------------------------------------------------------
      1          8           0        0.000000   -0.000000    0.854896
      2          6           0        0.000000    0.731605   -0.373327
      3          6           0       -0.000000   -0.731605   -0.373327
      4          1           0        0.917863    1.266951   -0.589809
      5          1           0       -0.917863    1.266951   -0.589809
      6          1           0       -0.917863   -1.266951   -0.589809
      7          1           0        0.917863   -1.266951   -0.589809
 ---------------------------------------------------------------------

 SCF Done:  E(RHF) =  -153.047625767     A.U. after    2 cycles

 The electronic state is 1-A1.
 Alpha  occ. eigenvalues --  -20.56006 -11.29512 -11.29430  -1.49131  -0.94723
 Alpha  occ. eigenvalues --   -0.86669  -0.71213  -0.66947  -0.55098  -0.54753
 Alpha  occ. eigenvalues --   -0.45730  -0.44358
 Alpha virt. eigenvalues --    0.03785   0.04469   0.04513   0.06905   0.08758
 Alpha virt. eigenvalues --    0.11400   0.12389   0.14269   0.16626   0.17260
 Alpha virt. eigenvalues --    0.19957   0.20127   0.20730   0.24468   0.27227

 Mulliken charges:
               1
     1  O   -1.085377
     2  C    0.527038
     3  C    0.527038
     4  H    0.007825
     5  H    0.007825
     6  H    0.007825
     7  H    0.007825
 Sum of Mulliken charges =  -0.00000

 Dipole moment (field-independent basis, Debye):
    X=              0.0000    Y=             -0.0000    Z=             -2.0534  Tot=              2.0534

 Test job not archived.
 1\1\GINC-SE173\SP\RHF\Aug-CC-pVDZ\C2H4O1\OHZDE\05-Apr-2025\0\\#t hf au
 g-cc-pvdz iop(5/13=1,5/36=2,99/5=2) pseudo=read geom=check guess=(read
 ,tcheck) scf=(maxcycle=1)\\title\\0,1\O,0,0.,0.,0.854896\C,0,0.,0.7316
 05,-0.373327\C,0,0.,-0.731605,-0.373327\H,0,0.917863,1.266951,-0.58980
 9\H,0,-0.917863,1.266951,-0.589809\H,0,-0.917863,-1.266951,-0.589809\H
 ,0,0.917863,-1.266951,-0.589809\\Version=ES64L-G16RevC.01\State=1-A1\H
 F=-153.0476258\RMSD=1.136e-02\Dipole=0.,0.,-0.8078531\Quadrupole=0.680
 1165,1.4741073,-2.1542239,0.,0.,0.\PG=C02V [C2(O1),SGV(C2),X(H4)]\\@

 Normal termination of Gaussian 16 at Sat Apr  5 23:10:46 2025.
