 Gaussian 16, Revision C.01,

 ----------------------------------------------------------------------
 #t hf aug-cc-pvdz symm=none int=(grid=ultrafine) guess=(read,tcheck) s
 table=(opt,rrhf)
 ----------------------------------------------------------------------
 -----
 title
 -----
 Symbolic Z-matrix:
 Charge =  0 Multiplicity = 1

 SCF Done:  E(RHF) =  -301.530989226     A.U. after   14 cycles
 Normal termination of Gaussian 16 at Sat Apr  5 23:10:45 2025.
 Gaussian 16:  ES64L-G16RevC.01  3-Jul-2019

 ----------------------------------------------------------------------
 #t hf aug-cc-pvdz iop(5/13=1,5/36=2,99/5=2) pseudo=read geom=check gue
 ss=(read,tcheck) scf=(maxcycle=1)
 ----------------------------------------------------------------------
 -----
 title
 -----
 Structure from the checkpoint file:  "oxoacetic_acid.chk"
 Charge =  0 Multiplicity = 1

                         Standard orientation:
 ---------------------------------------------------------------------
 Center     Atomic      Atomic             Coordinates (Angstroms)
 Number     Number       Type             X           Y           Z
 ---------------------------------------------------------------------
      1          6           0       -0.718651   -0.816155    0.000000
      2          6           0        0.000000    0.539124    0.000000
      3          8           0        1.331696    0.432025    0.000000
      4          8           0       -0.618671    1.571383    0.000000
      5          8           0       -0.159963   -1.873970    0.000000
      6          1           0       -1.815745   -0.700767    0.000000
      7          1           0        1.703152    1.327452    0.000000
 ---------------------------------------------------------------------

 SCF Done:  E(RHF) =  -301.821554377     A.U. after    2 cycles

 The electronic state is 1-A'.
 Alpha  occ. eigenvalues --  -20.63025 -20.59671 -20.57915 -11.42743 -11.38116
 Alpha  occ. eigenvalues --   -1.58223  -1.52262  -1.49023  -0.98748  -0.84686
 Alpha  occ. eigenvalues --   -0.74503  -0.73097  -0.69142  -0.66598  -0.62580
 Alpha  occ. eigenvalues --   -0.56070  -0.52109  -0.50463  -0.44774
 Alpha virt. eigenvalues --    0.03320   0.04443   0.04739   0.08628   0.09617
 Alpha virt. eigenvalues --    0.10761   0.11765   0.11934   0.13418   0.15436
 Alpha virt. eigenvalues --    0.19093   0.19555   0.20101   0.21831   0.23541

 Mulliken charges:
               1
     1  C    0.810596
     2  C    1.872375
     3  O   -1.126793
     4  O   -1.121136
     5  O   -1.013584
     6  H    0.193282
     7  H    0.385260
 Sum of Mulliken charges =  -0.00000

 Dipole moment (field-independent basis, Debye):
    X=              0.2655    Y=              1.1341    Z=              0.0000  Tot=              1.1647

 Test job not archived.
 1\1\GINC-SE190\SP\RHF\Aug-CC-pVDZ\C2H2O3\OHZDE\05-Apr-2025\0\\#t hf au
 g-cc-pvdz iop(5/13=1,5/36=2,99/5=2) pseudo=read geom=check guess=(read
 ,tcheck) scf=(maxcycle=1)\\title\\0,1\C,0,-0.718651,-0.816155,0.\C,0,0
 .,0.539124,0.\O,0,1.331696,0.432025,0.\O,0,-0.618671,1.571383,0.\O,0,-
 0.159963,-1.87397,0.\H,0,-1.815745,-0.700767,0.\H,0,1.703152,1.327452,
 0.\\Version=ES64L-G16RevC.01\State=1-A'\HF=-301.8215544\RMSD=1.251e-02
 \Dipole=0.1044402,0.4461859,0.\Quadrupole=2.7883336,-4.1555934,1.36725
 99,4.8363735,0.,0.\PG=CS [SG(C2H2O3)]\\@

 Normal termination of Gaussian 16 at Sat Apr  5 23:10:48 2025.
