 Gaussian 16, Revision C.01,

 ----------------------------------------------------------------------
 #t hf aug-cc-pvdz symm=none int=(grid=ultrafine) guess=(read,tcheck) s
 table=(opt,rrhf)
 ----------------------------------------------------------------------
 -----
 title
 -----
 Symbolic Z-matrix:
 Charge =  0 Multiplicity = 1

 SCF Done:  E(RHF) =  -473.427731009     A.U. after   16 cycles
 Normal termination of Gaussian 16 at Sat Apr  5 23:12:20 2025.
 Gaussian 16:  ES64L-G16RevC.01  3-Jul-2019

 ----------------------------------------------------------------------
 #t hf aug-cc-pvdz iop(5/13=1,5/36=2,99/5=2) pseudo=read geom=check gue
 ss=(read,tcheck) scf=(maxcycle=1)
 ----------------------------------------------------------------------
 -----
 title
 -----
 Structure from the checkpoint file:  "p-aminobenzoic_acid.chk"
 Charge =  0 Multiplicity = 1

                         Standard orientation:
 ---------------------------------------------------------------------
 Center     Atomic      Atomic             Coordinates (Angstroms)
 Number     Number       Type             X           Y           Z
 ---------------------------------------------------------------------
      1          8           0        2.762394   -1.105018    0.003022
      2          6           0        2.156561    0.114744    0.002536
      3          8           0        2.803915    1.137760    0.005269
      4          6           0        0.686414    0.034495   -0.001330
      5          6           0       -0.049953    1.223608   -0.002784
      6          6           0       -1.429416    1.203832   -0.004972
      7          6           0       -2.123979   -0.016126   -0.004799
      8          7           0       -3.503279   -0.040515   -0.054095
      9          6           0       -1.386039   -1.209122   -0.004321
     10          6           0       -0.004739   -1.181360   -0.002372
     11          1           0        3.714017   -0.931351    0.005078
     12          1           0        0.483823    2.163304   -0.001130
     13          1           0       -1.984440    2.133422   -0.009930
     14          1           0       -3.992208    0.795011    0.217353
     15          1           0       -3.962914   -0.892079    0.218605
     16          1           0       -1.907089   -2.158183   -0.008827
     17          1           0        0.548189   -2.108876   -0.000570
 ---------------------------------------------------------------------

 SCF Done:  E(RHF) =  -473.904098371     A.U. after    2 cycles

 The electronic state is 1-A.
 Alpha  occ. eigenvalues --  -20.59140 -20.52446 -15.52724 -11.38793 -11.30786
 Alpha  occ. eigenvalues --  -11.26226 -11.25936 -11.24196 -11.24174 -11.24134
 Alpha  occ. eigenvalues --   -1.53693  -1.43869  -1.24673  -1.15308  -1.03323
 Alpha  occ. eigenvalues --   -1.02980  -0.89858  -0.86350  -0.81093  -0.75075
 Alpha  occ. eigenvalues --   -0.74505  -0.71124  -0.69493  -0.64214  -0.62669
 Alpha  occ. eigenvalues --   -0.62358  -0.61150  -0.59866  -0.57324  -0.55867
 Alpha  occ. eigenvalues --   -0.51228  -0.49099  -0.46434  -0.43952  -0.36234
 Alpha  occ. eigenvalues --   -0.32625
 Alpha virt. eigenvalues --    0.02319   0.03741   0.04159   0.04879   0.05600
 Alpha virt. eigenvalues --    0.07314   0.07729   0.08787   0.09782   0.09980
 Alpha virt. eigenvalues --    0.10083   0.11573   0.12465   0.12914   0.13516

 Mulliken charges:
               1
     1  O   -1.649584
     2  C    1.832917
     3  O   -1.407309
     4  C    1.638584
     5  C   -0.033269
     6  C    0.758563
     7  C   -1.969433
     8  N    0.916838
     9  C    0.581760
    10  C    0.054484
    11  H    0.568796
    12  H   -0.361352
    13  H   -0.310048
    14  H   -0.001167
    15  H   -0.001469
    16  H   -0.320649
    17  H   -0.297663
 Sum of Mulliken charges =  -0.00000

 Dipole moment (field-independent basis, Debye):
    X=             -3.4211    Y=             -1.4997    Z=              0.8135  Tot=              3.8230

 Test job not archived.
 1\1\GINC-SE194\SP\RHF\Aug-CC-pVDZ\C7H7N1O2\OHZDE\05-Apr-2025\0\\#t hf
 aug-cc-pvdz iop(5/13=1,5/36=2,99/5=2) pseudo=read geom=check guess=(re
 ad,tcheck) scf=(maxcycle=1)\\title\\0,1\O,0,2.762394,-1.105018,0.00302
 2\C,0,2.156561,0.114744,0.002536\O,0,2.803915,1.13776,0.005269\C,0,0.6
 86414,0.034495,-0.00133\C,0,-0.049953,1.223608,-0.002784\C,0,-1.429416
 ,1.203832,-0.004972\C,0,-2.123979,-0.016126,-0.004799\N,0,-3.503279,-0
 .040515,-0.054095\C,0,-1.386039,-1.209122,-0.004321\C,0,-0.004739,-1.1
 8136,-0.002372\H,0,3.714017,-0.931351,0.005078\H,0,0.483823,2.163304,-

 Normal termination of Gaussian 16 at Sat Apr  5 23:12:29 2025.
