 Gaussian 16, Revision C.01,

 ----------------------------------------------------------------------
 #t hf aug-cc-pvdz symm=none int=(grid=ultrafine) guess=(read,tcheck) s
 table=(opt,rrhf)
 ----------------------------------------------------------------------
 -----
 title
 -----
 Symbolic Z-matrix:
 Charge =  0 Multiplicity = 1

 SCF Done:  E(RHF) =  -744.692908897     A.U. after   14 cycles
 Normal termination of Gaussian 16 at Sat Apr  5 23:11:22 2025.
 Gaussian 16:  ES64L-G16RevC.01  3-Jul-2019

 ----------------------------------------------------------------------
 #t hf aug-cc-pvdz iop(5/13=1,5/36=2,99/5=2) pseudo=read geom=check gue
 ss=(read,tcheck) scf=(maxcycle=1)
 ----------------------------------------------------------------------
 -----
 title
 -----
 Structure from the checkpoint file:  "p-chloroaniline.chk"
 Charge =  0 Multiplicity = 1

                         Standard orientation:
 ---------------------------------------------------------------------
 Center     Atomic      Atomic             Coordinates (Angstroms)
 Number     Number       Type             X           Y           Z
 ---------------------------------------------------------------------
      1          6           0        0.002824    1.104180    1.201145
      2          6           0        0.002824    1.104180   -1.201145
      3          6           0        0.002824   -0.282935    1.203368
      4          6           0        0.002824   -0.282935   -1.203368
      5          6           0        0.001749    1.821531   -0.000000
      6          6           0        0.002775   -0.973267    0.000000
      7          7           0        0.059244    3.213615   -0.000000
      8         17           0        0.000656   -2.729245    0.000000
      9          1           0        0.008179    1.636737    2.143798
     10          1           0        0.008179    1.636737   -2.143798
     11          1           0        0.002153   -0.824965    2.137851
     12          1           0        0.002153   -0.824965   -2.137851
     13          1           0       -0.270719    3.666897    0.836100
     14          1           0       -0.270719    3.666897   -0.836100
 ---------------------------------------------------------------------

 SCF Done:  E(RHF) =  -745.063836640     A.U. after    2 cycles

 The electronic state is 1-A'.
 Alpha  occ. eigenvalues -- -105.56353 -15.51805 -11.29526 -11.29399 -11.25805
 Alpha  occ. eigenvalues --  -11.25801 -11.24541 -11.24540 -10.61145  -7.78112
 Alpha  occ. eigenvalues --   -7.77722  -7.77698  -1.23704  -1.16653  -1.07690
 Alpha  occ. eigenvalues --   -1.03394  -0.97084  -0.86544  -0.82885  -0.74200
 Alpha  occ. eigenvalues --   -0.73547  -0.66324  -0.64204  -0.62714  -0.61193
 Alpha  occ. eigenvalues --   -0.57322  -0.53866  -0.52395  -0.52345  -0.45781
 Alpha  occ. eigenvalues --   -0.45181  -0.36225  -0.31570
 Alpha virt. eigenvalues --    0.02576   0.03793   0.04494   0.05240   0.05951
 Alpha virt. eigenvalues --    0.08537   0.09275   0.09587   0.10005   0.10694
 Alpha virt. eigenvalues --    0.12413   0.13120   0.13529   0.13907   0.14009

 Mulliken charges:
               1
     1  C    0.969997
     2  C    0.969997
     3  C    0.196795
     4  C    0.196795
     5  C   -1.674835
     6  C   -0.167953
     7  N    0.823366
     8  Cl  -0.355953
     9  H   -0.300140
    10  H   -0.300140
    11  H   -0.179299
    12  H   -0.179299
    13  H    0.000334
    14  H    0.000334
 Sum of Mulliken charges =   0.00000

 Dipole moment (field-independent basis, Debye):
    X=             -0.9799    Y=              3.1230    Z=              0.0000  Tot=              3.2731

 Test job not archived.
 1\1\GINC-SE196\SP\RHF\Aug-CC-pVDZ\C6H6Cl1N1\OHZDE\05-Apr-2025\0\\#t hf
  aug-cc-pvdz iop(5/13=1,5/36=2,99/5=2) pseudo=read geom=check guess=(r
 ead,tcheck) scf=(maxcycle=1)\\title\\0,1\C,0,0.002824,1.10418,1.201145
 \C,0,0.002824,1.10418,-1.201145\C,0,0.002824,-0.282935,1.203368\C,0,0.
 002824,-0.282935,-1.203368\C,0,0.001749,1.821531,0.\C,0,0.002775,-0.97
 3267,0.\N,0,0.059244,3.213615,0.\Cl,0,0.000656,-2.729245,0.\H,0,0.0081
 79,1.636737,2.143798\H,0,0.008179,1.636737,-2.143798\H,0,0.002153,-0.8
 24965,2.137851\H,0,0.002153,-0.824965,-2.137851\H,0,-0.270719,3.666897

 Normal termination of Gaussian 16 at Sat Apr  5 23:12:25 2025.
