 Gaussian 16, Revision C.01,

 ----------------------------------------------------------------------
 #t hf aug-cc-pvdz symm=none int=(grid=ultrafine) guess=(read,tcheck) s
 table=(opt,rrhf)
 ----------------------------------------------------------------------
 -----
 title
 -----
 Symbolic Z-matrix:
 Charge =  0 Multiplicity = 1

 SCF Done:  E(RHF) =  -344.641440604     A.U. after   15 cycles
 Normal termination of Gaussian 16 at Sat Apr  5 23:11:28 2025.
 Gaussian 16:  ES64L-G16RevC.01  3-Jul-2019

 ----------------------------------------------------------------------
 #t hf aug-cc-pvdz iop(5/13=1,5/36=2,99/5=2) pseudo=read geom=check gue
 ss=(read,tcheck) scf=(maxcycle=1)
 ----------------------------------------------------------------------
 -----
 title
 -----
 Structure from the checkpoint file:  "p-cresol.chk"
 Charge =  0 Multiplicity = 1

                         Standard orientation:
 ---------------------------------------------------------------------
 Center     Atomic      Atomic             Coordinates (Angstroms)
 Number     Number       Type             X           Y           Z
 ---------------------------------------------------------------------
      1          6           0        0.644121    1.194052   -0.006494
      2          6           0        0.662041   -1.191017   -0.006314
      3          6           0       -0.747351    1.189109   -0.001233
      4          6           0       -0.724096   -1.215100   -0.001196
      5          6           0        1.376677    0.009928   -0.007134
      6          6           0       -1.435402   -0.018408    0.002343
      7          6           0        2.883482    0.016860    0.008658
      8          8           0       -2.803606   -0.093184    0.005561
      9          1           0        1.164240    2.143785   -0.011774
     10          1           0        1.201078   -2.130513   -0.011627
     11          1           0       -1.293225    2.125496   -0.002769
     12          1           0       -1.266997   -2.150003   -0.002681
     13          1           0        3.293415   -0.687622   -0.716746
     14          1           0        3.277225    1.005159   -0.226732
     15          1           0        3.273067   -0.266943    0.989489
     16          1           0       -3.176785    0.793560    0.006570
 ---------------------------------------------------------------------

 SCF Done:  E(RHF) =  -344.998653745     A.U. after    2 cycles

 The electronic state is 1-A.
 Alpha  occ. eigenvalues --  -20.57691 -11.30353 -11.24270 -11.24126 -11.23890
 Alpha  occ. eigenvalues --  -11.23844 -11.23416 -11.23207  -1.48883  -1.15537
 Alpha  occ. eigenvalues --   -1.04128  -1.02055  -0.93283  -0.85422  -0.81218
 Alpha  occ. eigenvalues --   -0.73903  -0.68411  -0.65268  -0.61674  -0.60010
 Alpha  occ. eigenvalues --   -0.59019  -0.57860  -0.57433  -0.53968  -0.51629
 Alpha  occ. eigenvalues --   -0.49674  -0.47556  -0.35012  -0.31314
 Alpha virt. eigenvalues --    0.03123   0.03711   0.03951   0.04903   0.05390
 Alpha virt. eigenvalues --    0.05570   0.07825   0.08744   0.09989   0.10398
 Alpha virt. eigenvalues --    0.11705   0.13076   0.13357   0.13693   0.13991

 Mulliken charges:
               1
     1  C    0.509905
     2  C    0.787302
     3  C   -0.319807
     4  C   -0.009252
     5  C    0.393053
     6  C    1.410356
     7  C   -0.719690
     8  O   -1.748604
     9  H   -0.276514
    10  H   -0.300883
    11  H   -0.334086
    12  H   -0.256487
    13  H    0.163790
    14  H    0.057285
    15  H    0.246824
    16  H    0.396808
 Sum of Mulliken charges =  -0.00000

 Dipole moment (field-independent basis, Debye):
    X=              0.5337    Y=              1.2878    Z=              0.0152  Tot=              1.3941

 Test job not archived.
 1\1\GINC-SE210\SP\RHF\Aug-CC-pVDZ\C7H8O1\OHZDE\05-Apr-2025\0\\#t hf au
 g-cc-pvdz iop(5/13=1,5/36=2,99/5=2) pseudo=read geom=check guess=(read
 ,tcheck) scf=(maxcycle=1)\\title\\0,1\C,0,0.644121,1.194052,-0.006494\
 C,0,0.662041,-1.191017,-0.006314\C,0,-0.747351,1.189109,-0.001233\C,0,
 -0.724096,-1.2151,-0.001196\C,0,1.376677,0.009928,-0.007134\C,0,-1.435
 402,-0.018408,0.002343\C,0,2.883482,0.01686,0.008658\O,0,-2.803606,-0.
 093184,0.005561\H,0,1.16424,2.143785,-0.011774\H,0,1.201078,-2.130513,
 -0.011627\H,0,-1.293225,2.125496,-0.002769\H,0,-1.266997,-2.150003,-0.

 Normal termination of Gaussian 16 at Sat Apr  5 23:12:27 2025.
