 Gaussian 16, Revision C.01,

 ----------------------------------------------------------------------
 #t hf aug-cc-pvdz symm=none int=(grid=ultrafine) guess=(read,tcheck) s
 table=(opt,rrhf)
 ----------------------------------------------------------------------
 -----
 title
 -----
 Symbolic Z-matrix:
 Charge =  0 Multiplicity = 1

 SCF Done:  E(RHF) =  -525.971535006     A.U. after   17 cycles
 Normal termination of Gaussian 16 at Sat Apr  5 23:12:01 2025.
 Gaussian 16:  ES64L-G16RevC.01  3-Jul-2019

 ----------------------------------------------------------------------
 #t hf aug-cc-pvdz iop(5/13=1,5/36=2,99/5=2) pseudo=read geom=check gue
 ss=(read,tcheck) scf=(maxcycle=1)
 ----------------------------------------------------------------------
 -----
 title
 -----
 Structure from the checkpoint file:  "p-cyanonitrobenzene.chk"
 Charge =  0 Multiplicity = 1

                         Standard orientation:
 ---------------------------------------------------------------------
 Center     Atomic      Atomic             Coordinates (Angstroms)
 Number     Number       Type             X           Y           Z
 ---------------------------------------------------------------------
      1          8           0        0.000000    1.083262   -3.015657
      2          7           0        0.000000   -0.000000   -2.452829
      3          8           0       -0.000000   -1.083262   -3.015657
      4          6           0        0.000000   -0.000000   -0.973083
      5          6           0        0.000000   -1.215143   -0.304010
      6          6           0        0.000000   -1.213700    1.080544
      7          6           0        0.000000    0.000000    1.777046
      8          6           0        0.000000    0.000000    3.207339
      9          7           0        0.000000    0.000000    4.359138
     10          6           0        0.000000    1.213700    1.080544
     11          6           0        0.000000    1.215143   -0.304010
     12          1           0        0.000000   -2.135421   -0.866311
     13          1           0        0.000000   -2.145531    1.626371
     14          1           0        0.000000    2.145531    1.626371
     15          1           0        0.000000    2.135421   -0.866311
 ---------------------------------------------------------------------

 SCF Done:  E(RHF) =  -526.483249589     A.U. after    2 cycles

 The electronic state is 1-A1.
 Alpha  occ. eigenvalues --  -20.60982 -20.60977 -15.81295 -15.54146 -11.34526
 Alpha  occ. eigenvalues --  -11.33216 -11.30715 -11.30689 -11.30648 -11.30634
 Alpha  occ. eigenvalues --  -11.30609  -1.69209  -1.52867  -1.26397  -1.23469
 Alpha  occ. eigenvalues --   -1.14604  -1.08728  -1.03033  -0.91008  -0.89582
 Alpha  occ. eigenvalues --   -0.82784  -0.80718  -0.77180  -0.76711  -0.71391
 Alpha  occ. eigenvalues --   -0.68922  -0.66645  -0.65018  -0.61541  -0.59851
 Alpha  occ. eigenvalues --   -0.57802  -0.53736  -0.52774  -0.51861  -0.50685
 Alpha  occ. eigenvalues --   -0.46954  -0.41149  -0.40616
 Alpha virt. eigenvalues --   -0.01032   0.02639   0.03215   0.04212   0.05829
 Alpha virt. eigenvalues --    0.05931   0.07343   0.07599   0.08362   0.08827
 Alpha virt. eigenvalues --    0.11082   0.11102   0.11491   0.12734   0.12789

 Mulliken charges:
               1
     1  O   -1.478718
     2  N    3.000212
     3  O   -1.478718
     4  C   -0.420615
     5  C    0.117082
     6  C    0.427697
     7  C    2.190948
     8  C   -2.993492
     9  N    1.083073
    10  C    0.427697
    11  C    0.117082
    12  H   -0.203534
    13  H   -0.292591
    14  H   -0.292591
    15  H   -0.203534
 Sum of Mulliken charges =  -0.00000

 Dipole moment (field-independent basis, Debye):
    X=              0.0000    Y=             -0.0000    Z=             -0.6131  Tot=              0.6131

 Test job not archived.
 1\1\GINC-SE222\SP\RHF\Aug-CC-pVDZ\C7H4N2O2\OHZDE\05-Apr-2025\0\\#t hf
 aug-cc-pvdz iop(5/13=1,5/36=2,99/5=2) pseudo=read geom=check guess=(re
 ad,tcheck) scf=(maxcycle=1)\\title\\0,1\O,0,0.,1.083262,-3.015657\N,0,
 0.,0.,-2.452829\O,0,0.,-1.083262,-3.015657\C,0,0.,0.,-0.973083\C,0,0.,
 -1.215143,-0.30401\C,0,0.,-1.2137,1.080544\C,0,0.,0.,1.777046\C,0,0.,0
 .,3.207339\N,0,0.,0.,4.359138\C,0,0.,1.2137,1.080544\C,0,0.,1.215143,-
 0.30401\H,0,0.,-2.135421,-0.866311\H,0,0.,-2.145531,1.626371\H,0,0.,2.
 145531,1.626371\H,0,0.,2.135421,-0.866311\\Version=ES64L-G16RevC.01\St

 Normal termination of Gaussian 16 at Sat Apr  5 23:12:27 2025.
