 Gaussian 16, Revision C.01,

 ----------------------------------------------------------------------
 #t hf aug-cc-pvdz symm=none int=(grid=ultrafine) guess=(read,tcheck) s
 table=(opt,rrhf)
 ----------------------------------------------------------------------
 -----
 title
 -----
 Symbolic Z-matrix:
 Charge =  0 Multiplicity = 1

 SCF Done:  E(RHF) =  -1148.57154517     A.U. after   12 cycles

 1\1\GINC-SE012\Stability\RHF\Aug-CC-pVDZ\C6H4Cl2\OHZDE\05-Apr-2025\0\\
 #t hf aug-cc-pvdz symm=none int=(grid=ultrafine) guess=(read,tcheck) s
 table=(opt,rrhf)\\title\\0,1\C,0,0.,1.207774,0.694419\C,0,0.,1.207774,
 -0.694419\C,0,0.,-1.207774,0.694419\C,0,0.,-1.207774,-0.694419\C,0,0.,
 0.,1.378331\C,0,0.,0.,-1.378331\Cl,0,0.,0.,3.12867\Cl,0,0.,0.,-3.12867
 \H,0,0.,2.139873,1.239951\H,0,0.,2.139873,-1.239951\H,0,0.,-2.139873,1
 .239951\H,0,0.,-2.139873,-1.239951\\Version=ES64L-G16RevC.01\HF=-1148.
 5715452\RMSD=5.136e-09\Dipole=0.,0.,0.\Quadrupole=-1.9314447,6.4662557

 Normal termination of Gaussian 16 at Sat Apr  5 23:11:05 2025.
 Gaussian 16:  ES64L-G16RevC.01  3-Jul-2019

 ----------------------------------------------------------------------
 #t hf aug-cc-pvdz iop(5/13=1,5/36=2,99/5=2) pseudo=read geom=check gue
 ss=(read,tcheck) scf=(maxcycle=1)
 ----------------------------------------------------------------------
 -----
 title
 -----
 Structure from the checkpoint file:  "p-dichlorobenzene.chk"
 Charge =  0 Multiplicity = 1

                         Standard orientation:
 ---------------------------------------------------------------------
 Center     Atomic      Atomic             Coordinates (Angstroms)
 Number     Number       Type             X           Y           Z
 ---------------------------------------------------------------------
      1          6           0        0.000000    1.207774    0.694419
      2          6           0        0.000000    1.207774   -0.694419
      3          6           0       -0.000000   -1.207774    0.694419
      4          6           0       -0.000000   -1.207774   -0.694419
      5          6           0        0.000000    0.000000    1.378331
      6          6           0        0.000000    0.000000   -1.378331
      7         17           0        0.000000    0.000000    3.128670
      8         17           0        0.000000    0.000000   -3.128670
      9          1           0        0.000000    2.139873    1.239951
     10          1           0        0.000000    2.139873   -1.239951
     11          1           0       -0.000000   -2.139873    1.239951
     12          1           0       -0.000000   -2.139873   -1.239951
 ---------------------------------------------------------------------

 SCF Done:  E(RHF) =  -1148.95696758     A.U. after    2 cycles

 The electronic state is 1-AG.
 Alpha  occ. eigenvalues -- -105.58165-105.58165 -11.32295 -11.32273 -11.27416
 Alpha  occ. eigenvalues --  -11.27388 -11.27349 -11.27312 -10.62970 -10.62970
 Alpha  occ. eigenvalues --   -7.79940  -7.79935  -7.79536  -7.79535  -7.79518
 Alpha  occ. eigenvalues --   -7.79517  -1.21143  -1.14034  -1.07096  -1.05516
 Alpha  occ. eigenvalues --   -0.97334  -0.88096  -0.83286  -0.71871  -0.69669
 Alpha  occ. eigenvalues --   -0.66903  -0.63513  -0.60538  -0.57995  -0.55345
 Alpha  occ. eigenvalues --   -0.54131  -0.52705  -0.47797  -0.47252  -0.46761
 Alpha  occ. eigenvalues --   -0.37871  -0.35084
 Alpha virt. eigenvalues --    0.03574   0.03657   0.04620   0.05595   0.07626
 Alpha virt. eigenvalues --    0.07904   0.08017   0.10047   0.10564   0.12374
 Alpha virt. eigenvalues --    0.12658   0.12754   0.12975   0.13602   0.13931

 Mulliken charges:
               1
     1  C    0.460762
     2  C    0.460762
     3  C    0.460762
     4  C    0.460762
     5  C   -0.272529
     6  C   -0.272529
     7  Cl  -0.312646
     8  Cl  -0.312646
     9  H   -0.168175
    10  H   -0.168175
    11  H   -0.168175
    12  H   -0.168175
 Sum of Mulliken charges =   0.00000

 Dipole moment (field-independent basis, Debye):
    X=             -0.0000    Y=              0.0000    Z=              0.0000  Tot=              0.0000

 Test job not archived.
 1\1\GINC-SE012\SP\RHF\Aug-CC-pVDZ\C6H4Cl2\OHZDE\05-Apr-2025\0\\#t hf a
 ug-cc-pvdz iop(5/13=1,5/36=2,99/5=2) pseudo=read geom=check guess=(rea
 d,tcheck) scf=(maxcycle=1)\\title\\0,1\C,0,0.,1.207774,0.694419\C,0,0.
 ,1.207774,-0.694419\C,0,0.,-1.207774,0.694419\C,0,0.,-1.207774,-0.6944
 19\C,0,0.,0.,1.378331\C,0,0.,0.,-1.378331\Cl,0,0.,0.,3.12867\Cl,0,0.,0
 .,-3.12867\H,0,0.,2.139873,1.239951\H,0,0.,2.139873,-1.239951\H,0,0.,-
 2.139873,1.239951\H,0,0.,-2.139873,-1.239951\\Version=ES64L-G16RevC.01
 \State=1-AG\HF=-1148.9569676\RMSD=4.784e-02\Dipole=0.,0.,0.\Quadrupole

 Normal termination of Gaussian 16 at Sat Apr  5 23:11:21 2025.
