 Gaussian 16, Revision C.01,

 ----------------------------------------------------------------------
 #t hf aug-cc-pvdz symm=none int=(grid=ultrafine) guess=(read,tcheck) s
 table=(opt,rrhf)
 ----------------------------------------------------------------------
 -----
 title
 -----
 Symbolic Z-matrix:
 Charge =  0 Multiplicity = 1

 SCF Done:  E(RHF) =  -428.454656907     A.U. after   12 cycles
 Normal termination of Gaussian 16 at Sat Apr  5 23:11:01 2025.
 Gaussian 16:  ES64L-G16RevC.01  3-Jul-2019

 ----------------------------------------------------------------------
 #t hf aug-cc-pvdz iop(5/13=1,5/36=2,99/5=2) pseudo=read geom=check gue
 ss=(read,tcheck) scf=(maxcycle=1)
 ----------------------------------------------------------------------
 -----
 title
 -----
 Structure from the checkpoint file:  "p-difluorobenzene.chk"
 Charge =  0 Multiplicity = 1

                         Standard orientation:
 ---------------------------------------------------------------------
 Center     Atomic      Atomic             Coordinates (Angstroms)
 Number     Number       Type             X           Y           Z
 ---------------------------------------------------------------------
      1          6           0        0.000000    0.000000    1.363040
      2          6           0        0.000000    0.000000   -1.363040
      3          6           0        0.000000    1.211776    0.695210
      4          6           0       -0.000000   -1.211776    0.695210
      5          6           0       -0.000000   -1.211776   -0.695210
      6          6           0        0.000000    1.211776   -0.695210
      7          9           0        0.000000    0.000000    2.715276
      8          9           0        0.000000    0.000000   -2.715276
      9          1           0        0.000000    2.134857    1.256229
     10          1           0       -0.000000   -2.134857    1.256229
     11          1           0       -0.000000   -2.134857   -1.256229
     12          1           0        0.000000    2.134857   -1.256229
 ---------------------------------------------------------------------

 SCF Done:  E(RHF) =  -428.870290604     A.U. after    2 cycles

 The electronic state is 1-AG.
 Alpha  occ. eigenvalues --  -26.48147 -26.48147 -11.34342 -11.34310 -11.26933
 Alpha  occ. eigenvalues --  -11.26913 -11.26867 -11.26828  -1.61056  -1.61003
 Alpha  occ. eigenvalues --   -1.18306  -1.05584  -1.03088  -0.89369  -0.85700
 Alpha  occ. eigenvalues --   -0.76413  -0.74022  -0.73819  -0.68259  -0.67507
 Alpha  occ. eigenvalues --   -0.65336  -0.64693  -0.63571  -0.60282  -0.58231
 Alpha  occ. eigenvalues --   -0.53155  -0.52335  -0.37833  -0.35289
 Alpha virt. eigenvalues --    0.03502   0.03569   0.04404   0.05314   0.08154
 Alpha virt. eigenvalues --    0.08324   0.09969   0.11430   0.12597   0.13252
 Alpha virt. eigenvalues --    0.13284   0.13554   0.14097   0.14515   0.14720

 Mulliken charges:
               1
     1  C    1.170076
     2  C    1.170076
     3  C    0.069108
     4  C    0.069108
     5  C    0.069108
     6  C    0.069108
     7  F   -0.984682
     8  F   -0.984682
     9  H   -0.161805
    10  H   -0.161805
    11  H   -0.161805
    12  H   -0.161805
 Sum of Mulliken charges =   0.00000

 Dipole moment (field-independent basis, Debye):
    X=             -0.0000    Y=              0.0000    Z=              0.0000  Tot=              0.0000

 Test job not archived.
 1\1\GINC-SE052\SP\RHF\Aug-CC-pVDZ\C6H4F2\OHZDE\05-Apr-2025\0\\#t hf au
 g-cc-pvdz iop(5/13=1,5/36=2,99/5=2) pseudo=read geom=check guess=(read
 ,tcheck) scf=(maxcycle=1)\\title\\0,1\C,0,0.,0.,1.36304\C,0,0.,0.,-1.3
 6304\C,0,0.,1.211776,0.69521\C,0,0.,-1.211776,0.69521\C,0,0.,-1.211776
 ,-0.69521\C,0,0.,1.211776,-0.69521\F,0,0.,0.,2.715276\F,0,0.,0.,-2.715
 276\H,0,0.,2.134857,1.256229\H,0,0.,-2.134857,1.256229\H,0,0.,-2.13485
 7,-1.256229\H,0,0.,2.134857,-1.256229\\Version=ES64L-G16RevC.01\State=
 1-AG\HF=-428.8702906\RMSD=2.850e-02\Dipole=0.,0.,0.\Quadrupole=-1.6492

 Normal termination of Gaussian 16 at Sat Apr  5 23:12:31 2025.
