 Gaussian 16, Revision C.01,

 ----------------------------------------------------------------------
 #t hf aug-cc-pvdz symm=none int=(grid=ultrafine) guess=(read,tcheck) s
 table=(opt,rrhf)
 ----------------------------------------------------------------------
 -----
 title
 -----
 Symbolic Z-matrix:
 Charge =  0 Multiplicity = 1

 SCF Done:  E(RHF) =  -418.349327511     A.U. after   16 cycles
 Normal termination of Gaussian 16 at Sat Apr  5 23:11:35 2025.
 Gaussian 16:  ES64L-G16RevC.01  3-Jul-2019

 ----------------------------------------------------------------------
 #t hf aug-cc-pvdz iop(5/13=1,5/36=2,99/5=2) pseudo=read geom=check gue
 ss=(read,tcheck) scf=(maxcycle=1)
 ----------------------------------------------------------------------
 -----
 title
 -----
 Structure from the checkpoint file:  "p-formylphenol.chk"
 Charge =  0 Multiplicity = 1

                         Standard orientation:
 ---------------------------------------------------------------------
 Center     Atomic      Atomic             Coordinates (Angstroms)
 Number     Number       Type             X           Y           Z
 ---------------------------------------------------------------------
      1          6           0        1.264505    0.437243    0.000000
      2          6           0       -1.134314    0.204052    0.000000
      3          6           0        1.405404   -0.941236    0.000000
      4          6           0       -1.007552   -1.169144    0.000000
      5          6           0       -0.000000    1.026568    0.000000
      6          6           0        0.266706   -1.745847    0.000000
      7          6           0       -0.123034    2.491555    0.000000
      8          8           0       -1.167015    3.105905    0.000000
      9          8           0        0.332247   -3.103791    0.000000
     10          1           0        2.146215    1.066352    0.000000
     11          1           0       -2.110754    0.668386    0.000000
     12          1           0        2.389487   -1.394063    0.000000
     13          1           0       -1.872992   -1.816544    0.000000
     14          1           0        0.845206    3.032775    0.000000
     15          1           0        1.250697   -3.392963    0.000000
 ---------------------------------------------------------------------

 SCF Done:  E(RHF) =  -418.768836599     A.U. after    2 cycles

 The electronic state is 1-A'.
 Alpha  occ. eigenvalues --  -20.60191 -20.53808 -11.34089 -11.33694 -11.27657
 Alpha  occ. eigenvalues --  -11.26746 -11.25876 -11.25227 -11.25032  -1.51732
 Alpha  occ. eigenvalues --   -1.46809  -1.17797  -1.05131  -1.04492  -0.90642
 Alpha  occ. eigenvalues --   -0.87263  -0.81308  -0.76545  -0.70515  -0.70107
 Alpha  occ. eigenvalues --   -0.64915  -0.63082  -0.62607  -0.61060  -0.59627
 Alpha  occ. eigenvalues --   -0.56874  -0.55182  -0.52177  -0.49017  -0.42062
 Alpha  occ. eigenvalues --   -0.37325  -0.34105
 Alpha virt. eigenvalues --    0.02301   0.03393   0.04140   0.05180   0.06057
 Alpha virt. eigenvalues --    0.06619   0.08002   0.08347   0.09236   0.09950
 Alpha virt. eigenvalues --    0.11464   0.12454   0.12523   0.13251   0.13276

 Mulliken charges:
               1
     1  C    0.274051
     2  C    0.230662
     3  C   -0.297040
     4  C    0.235268
     5  C    1.526197
     6  C    1.263888
     7  C    0.573832
     8  O   -1.296073
     9  O   -1.731030
    10  H   -0.273143
    11  H   -0.312883
    12  H   -0.331058
    13  H   -0.241849
    14  H   -0.030099
    15  H    0.409275
 Sum of Mulliken charges =  -0.00000

 Dipole moment (field-independent basis, Debye):
    X=              3.5907    Y=             -2.8917    Z=              0.0000  Tot=              4.6103

 Test job not archived.
 1\1\GINC-SE151\SP\RHF\Aug-CC-pVDZ\C7H6O2\OHZDE\05-Apr-2025\0\\#t hf au
 g-cc-pvdz iop(5/13=1,5/36=2,99/5=2) pseudo=read geom=check guess=(read
 ,tcheck) scf=(maxcycle=1)\\title\\0,1\C,0,1.264505,0.437243,0.\C,0,-1.
 134314,0.204052,0.\C,0,1.405404,-0.941236,0.\C,0,-1.007552,-1.169144,0
 .\C,0,0.,1.026568,0.\C,0,0.266706,-1.745847,0.\C,0,-0.123034,2.491555,
 0.\O,0,-1.167015,3.105905,0.\O,0,0.332247,-3.103791,0.\H,0,2.146215,1.
 066352,0.\H,0,-2.110754,0.668386,0.\H,0,2.389487,-1.394063,0.\H,0,-1.8
 72992,-1.816544,0.\H,0,0.845206,3.032775,0.\H,0,1.250697,-3.392963,0.\

 Normal termination of Gaussian 16 at Sat Apr  5 23:12:27 2025.
