 Gaussian 16, Revision C.01,

 ----------------------------------------------------------------------
 #t hf aug-cc-pvdz symm=none int=(grid=ultrafine) guess=(read,tcheck) s
 table=(opt,rrhf)
 ----------------------------------------------------------------------
 -----
 title
 -----
 Symbolic Z-matrix:
 Charge =  0 Multiplicity = 1

 SCF Done:  E(RHF) =  -457.371437396     A.U. after   16 cycles
 Normal termination of Gaussian 16 at Sat Apr  5 23:12:09 2025.
 Gaussian 16:  ES64L-G16RevC.01  3-Jul-2019

 ----------------------------------------------------------------------
 #t hf aug-cc-pvdz iop(5/13=1,5/36=2,99/5=2) pseudo=read geom=check gue
 ss=(read,tcheck) scf=(maxcycle=1)
 ----------------------------------------------------------------------
 -----
 title
 -----
 Structure from the checkpoint file:  "p-methoxybenzaldehyde.chk"
 Charge =  0 Multiplicity = 1

                         Standard orientation:
 ---------------------------------------------------------------------
 Center     Atomic      Atomic             Coordinates (Angstroms)
 Number     Number       Type             X           Y           Z
 ---------------------------------------------------------------------
      1          6           0        2.356270   -1.777173    0.000000
      2          8           0        3.482232   -1.329055    0.000000
      3          6           0        1.122819   -0.978189    0.000000
      4          6           0       -0.122816   -1.616318    0.000000
      5          6           0       -1.293641   -0.885835    0.000000
      6          6           0       -1.239473    0.512535    0.000000
      7          6           0        0.000000    1.164562    0.000000
      8          6           0        1.165300    0.417042    0.000000
      9          8           0       -2.435229    1.147852    0.000000
     10          6           0       -2.463378    2.570550    0.000000
     11          1           0        2.191197   -2.874062    0.000000
     12          1           0       -0.165916   -2.698728    0.000000
     13          1           0       -2.261088   -1.367425    0.000000
     14          1           0        0.057823    2.241984    0.000000
     15          1           0        2.129488    0.906789    0.000000
     16          1           0       -1.981978    2.976345    0.892234
     17          1           0       -1.981978    2.976345   -0.892234
     18          1           0       -3.514049    2.845335    0.000000
 ---------------------------------------------------------------------

 SCF Done:  E(RHF) =  -457.833731443     A.U. after    2 cycles

 The electronic state is 1-A'.
 Alpha  occ. eigenvalues --  -20.59010 -20.53524 -11.33810 -11.33117 -11.30844
 Alpha  occ. eigenvalues --  -11.26919 -11.26581 -11.25264 -11.24839 -11.24605
 Alpha  occ. eigenvalues --   -1.51661  -1.46507  -1.17425  -1.05438  -1.04326
 Alpha  occ. eigenvalues --   -0.97228  -0.89036  -0.85621  -0.80211  -0.74564
 Alpha  occ. eigenvalues --   -0.71116  -0.68431  -0.67262  -0.64825  -0.63690
 Alpha  occ. eigenvalues --   -0.62092  -0.59892  -0.57579  -0.56216  -0.54222
 Alpha  occ. eigenvalues --   -0.53163  -0.50254  -0.47550  -0.41782  -0.36932
 Alpha  occ. eigenvalues --   -0.33379
 Alpha virt. eigenvalues --    0.02896   0.03346   0.03861   0.04763   0.04847
 Alpha virt. eigenvalues --    0.05878   0.06736   0.07401   0.08763   0.08910
 Alpha virt. eigenvalues --    0.09131   0.09939   0.11552   0.12498   0.12883

 Mulliken charges:
               1
     1  C    0.601032
     2  O   -1.315262
     3  C    1.515967
     4  C    0.552309
     5  C   -0.062281
     6  C    1.405291
     7  C    0.189102
     8  C   -0.077993
     9  O   -1.853757
    10  C    0.110617
    11  H   -0.035524
    12  H   -0.306546
    13  H   -0.306858
    14  H   -0.427302
    15  H   -0.311763
    16  H    0.180461
    17  H    0.180461
    18  H   -0.037954
 Sum of Mulliken charges =  -0.00000

 Dipole moment (field-independent basis, Debye):
    X=             -3.6950    Y=              1.6020    Z=             -0.0000  Tot=              4.0274

 Test job not archived.
 1\1\GINC-SE179\SP\RHF\Aug-CC-pVDZ\C8H8O2\OHZDE\05-Apr-2025\0\\#t hf au
 g-cc-pvdz iop(5/13=1,5/36=2,99/5=2) pseudo=read geom=check guess=(read
 ,tcheck) scf=(maxcycle=1)\\title\\0,1\C,0,2.35627,-1.777173,0.\O,0,3.4
 82232,-1.329055,0.\C,0,1.122819,-0.978189,0.\C,0,-0.122816,-1.616318,0
 .\C,0,-1.293641,-0.885835,0.\C,0,-1.239473,0.512535,0.\C,0,0.,1.164562
 ,0.\C,0,1.1653,0.417042,0.\O,0,-2.435229,1.147852,0.\C,0,-2.463378,2.5
 7055,0.\H,0,2.191197,-2.874062,0.\H,0,-0.165916,-2.698728,0.\H,0,-2.26
 1088,-1.367425,0.\H,0,0.057823,2.241984,0.\H,0,2.129488,0.906789,0.\H,

 Normal termination of Gaussian 16 at Sat Apr  5 23:12:29 2025.
