 Gaussian 16, Revision C.01,

 ----------------------------------------------------------------------
 #t hf aug-cc-pvdz symm=none int=(grid=ultrafine) guess=(read,tcheck) s
 table=(opt,rrhf)
 ----------------------------------------------------------------------
 -----
 title
 -----
 Symbolic Z-matrix:
 Charge =  0 Multiplicity = 1

 SCF Done:  E(RHF) =  -399.662524824     A.U. after   15 cycles
 Normal termination of Gaussian 16 at Sat Apr  5 23:11:56 2025.
 Gaussian 16:  ES64L-G16RevC.01  3-Jul-2019

 ----------------------------------------------------------------------
 #t hf aug-cc-pvdz iop(5/13=1,5/36=2,99/5=2) pseudo=read geom=check gue
 ss=(read,tcheck) scf=(maxcycle=1)
 ----------------------------------------------------------------------
 -----
 title
 -----
 Structure from the checkpoint file:  "p-methoxyaniline.chk"
 Charge =  0 Multiplicity = 1

                         Standard orientation:
 ---------------------------------------------------------------------
 Center     Atomic      Atomic             Coordinates (Angstroms)
 Number     Number       Type             X           Y           Z
 ---------------------------------------------------------------------
      1          6           0        0.968305   -1.191866   -0.005659
      2          6           0        1.297498    1.177941   -0.005925
      3          6           0       -0.412677   -1.004932   -0.001215
      4          6           0       -0.072135    1.370804   -0.000176
      5          6           0        1.845461   -0.110566   -0.007083
      6          6           0       -0.943492    0.281050    0.001739
      7          6           0       -3.203619   -0.496341    0.002648
      8          7           0        3.234655   -0.299516   -0.075261
      9          8           0       -2.281512    0.577362    0.007741
     10          1           0        1.361714   -2.200914   -0.013324
     11          1           0        1.955088    2.038508   -0.014741
     12          1           0       -1.054456   -1.872710    0.000780
     13          1           0       -0.487426    2.369078    0.002544
     14          1           0       -3.093299   -1.125308    0.890843
     15          1           0       -3.093184   -1.116539   -0.891616
     16          1           0       -4.192458   -0.045145    0.004971
     17          1           0        3.556642   -1.185853    0.280103
     18          1           0        3.780840    0.460055    0.299362
 ---------------------------------------------------------------------

 SCF Done:  E(RHF) =  -400.076187407     A.U. after    2 cycles

 The electronic state is 1-A.
 Alpha  occ. eigenvalues --  -20.56157 -15.50283 -11.28971 -11.28874 -11.27254
 Alpha  occ. eigenvalues --  -11.23723 -11.23478 -11.23398 -11.23344  -1.48512
 Alpha  occ. eigenvalues --   -1.21810  -1.12867  -1.02032  -0.99952  -0.93588
 Alpha  occ. eigenvalues --   -0.84928  -0.81500  -0.73138  -0.72192  -0.69748
 Alpha  occ. eigenvalues --   -0.64988  -0.64794  -0.62738  -0.59836  -0.57997
 Alpha  occ. eigenvalues --   -0.56959  -0.54953  -0.51907  -0.50840  -0.48242
 Alpha  occ. eigenvalues --   -0.43972  -0.34849  -0.29081
 Alpha virt. eigenvalues --    0.03104   0.03653   0.04008   0.05113   0.05264
 Alpha virt. eigenvalues --    0.05542   0.07217   0.08183   0.09703   0.10139
 Alpha virt. eigenvalues --    0.10766   0.11796   0.12128   0.13331   0.13425

 Mulliken charges:
               1
     1  C    0.801634
     2  C    0.943033
     3  C   -0.048396
     4  C    0.106820
     5  C   -1.531571
     6  C    1.777969
     7  C    0.116251
     8  N    0.757947
     9  O   -1.884877
    10  H   -0.289041
    11  H   -0.304720
    12  H   -0.457606
    13  H   -0.294982
    14  H    0.170534
    15  H    0.170927
    16  H   -0.045511
    17  H    0.004966
    18  H    0.006624
 Sum of Mulliken charges =  -0.00000

 Dipole moment (field-independent basis, Debye):
    X=              0.2583    Y=             -1.2028    Z=              1.0639  Tot=              1.6265

 Test job not archived.
 1\1\GINC-SE152\SP\RHF\Aug-CC-pVDZ\C7H9N1O1\OHZDE\05-Apr-2025\0\\#t hf
 aug-cc-pvdz iop(5/13=1,5/36=2,99/5=2) pseudo=read geom=check guess=(re
 ad,tcheck) scf=(maxcycle=1)\\title\\0,1\C,0,0.968305,-1.191866,-0.0056
 59\C,0,1.297498,1.177941,-0.005925\C,0,-0.412677,-1.004932,-0.001215\C
 ,0,-0.072135,1.370804,-0.000176\C,0,1.845461,-0.110566,-0.007083\C,0,-
 0.943492,0.28105,0.001739\C,0,-3.203619,-0.496341,0.002648\N,0,3.23465
 5,-0.299516,-0.075261\O,0,-2.281512,0.577362,0.007741\H,0,1.361714,-2.
 200914,-0.013324\H,0,1.955088,2.038508,-0.014741\H,0,-1.054456,-1.8727

 Normal termination of Gaussian 16 at Sat Apr  5 23:12:29 2025.
