 Gaussian 16, Revision C.01,

 ----------------------------------------------------------------------
 #t hf aug-cc-pvdz symm=none int=(grid=ultrafine) guess=(read,tcheck) s
 table=(opt,rrhf)
 ----------------------------------------------------------------------
 -----
 title
 -----
 Symbolic Z-matrix:
 Charge =  0 Multiplicity = 1

 SCF Done:  E(RHF) =  -489.280346284     A.U. after   15 cycles
 Normal termination of Gaussian 16 at Sat Apr  5 23:12:32 2025.
 Gaussian 16:  ES64L-G16RevC.01  3-Jul-2019

 ----------------------------------------------------------------------
 #t hf aug-cc-pvdz iop(5/13=1,5/36=2,99/5=2) pseudo=read geom=check gue
 ss=(read,tcheck) scf=(maxcycle=1)
 ----------------------------------------------------------------------
 -----
 title
 -----
 Structure from the checkpoint file:  "p-nitroaniline.chk"
 Charge =  0 Multiplicity = 1

                         Standard orientation:
 ---------------------------------------------------------------------
 Center     Atomic      Atomic             Coordinates (Angstroms)
 Number     Number       Type             X           Y           Z
 ---------------------------------------------------------------------
      1          6           0       -0.002527   -1.360148    1.209015
      2          6           0       -0.002527   -1.360148   -1.209015
      3          6           0       -0.002527    0.019496    1.209747
      4          6           0       -0.002527    0.019496   -1.209747
      5          6           0       -0.001512   -2.076412    0.000000
      6          6           0       -0.002390    0.706727   -0.000000
      7          7           0       -0.043718   -3.450313    0.000000
      8          7           0       -0.000096    2.164119   -0.000000
      9          8           0        0.000905    2.738949    1.083563
     10          8           0        0.000905    2.738949   -1.083563
     11          1           0       -0.005983   -1.897716    2.148203
     12          1           0       -0.005983   -1.897716   -2.148203
     13          1           0       -0.001593    0.575824    2.134036
     14          1           0       -0.001593    0.575824   -2.134036
     15          1           0        0.195712   -3.935056    0.846913
     16          1           0        0.195712   -3.935056   -0.846913
 ---------------------------------------------------------------------

 SCF Done:  E(RHF) =  -489.766692335     A.U. after    2 cycles

 The electronic state is 1-A'.
 Alpha  occ. eigenvalues --  -20.57533 -20.57529 -15.78080 -15.54100 -11.32559
 Alpha  occ. eigenvalues --  -11.29336 -11.28069 -11.28066 -11.25882 -11.25882
 Alpha  occ. eigenvalues --   -1.65533  -1.49066  -1.26300  -1.18718  -1.08945
 Alpha  occ. eigenvalues --   -1.05395  -0.96592  -0.88409  -0.84654  -0.79463
 Alpha  occ. eigenvalues --   -0.76574  -0.76079  -0.73354  -0.72907  -0.65577
 Alpha  occ. eigenvalues --   -0.65254  -0.63124  -0.61241  -0.58772  -0.53482
 Alpha  occ. eigenvalues --   -0.50502  -0.48890  -0.47336  -0.44013  -0.38044
 Alpha  occ. eigenvalues --   -0.34479
 Alpha virt. eigenvalues --    0.01766   0.03311   0.03566   0.04221   0.05420
 Alpha virt. eigenvalues --    0.05983   0.08206   0.08714   0.09060   0.10537
 Alpha virt. eigenvalues --    0.11182   0.12256   0.12414   0.12979   0.13438

 Mulliken charges:
               1
     1  C    0.976950
     2  C    0.976950
     3  C    0.140068
     4  C    0.140068
     5  C   -1.879255
     6  C   -0.230054
     7  N    0.945064
     8  N    2.981486
     9  O   -1.489169
    10  O   -1.489169
    11  H   -0.306597
    12  H   -0.306597
    13  H   -0.220879
    14  H   -0.220879
    15  H   -0.008993
    16  H   -0.008993
 Sum of Mulliken charges =  -0.00000

 Dipole moment (field-independent basis, Debye):
    X=              0.7232    Y=             -6.8149    Z=             -0.0000  Tot=              6.8531

 Test job not archived.
 1\1\GINC-SE036\SP\RHF\Aug-CC-pVDZ\C6H6N2O2\OHZDE\05-Apr-2025\0\\#t hf
 aug-cc-pvdz iop(5/13=1,5/36=2,99/5=2) pseudo=read geom=check guess=(re
 ad,tcheck) scf=(maxcycle=1)\\title\\0,1\C,0,-0.002527,-1.360148,1.2090
 15\C,0,-0.002527,-1.360148,-1.209015\C,0,-0.002527,0.019496,1.209747\C
 ,0,-0.002527,0.019496,-1.209747\C,0,-0.001512,-2.076412,0.\C,0,-0.0023
 9,0.706727,0.\N,0,-0.043718,-3.450313,0.\N,0,-0.000096,2.164119,0.\O,0
 ,0.000905,2.738949,1.083563\O,0,0.000905,2.738949,-1.083563\H,0,-0.005
 983,-1.897716,2.148203\H,0,-0.005983,-1.897716,-2.148203\H,0,-0.001593

 Normal termination of Gaussian 16 at Sat Apr  5 23:12:37 2025.
