 Gaussian 16, Revision C.01,

 ----------------------------------------------------------------------
 #t hf aug-cc-pvdz symm=none int=(grid=ultrafine) guess=(read,tcheck) s
 table=(opt,rrhf)
 ----------------------------------------------------------------------
 -----
 title
 -----
 Symbolic Z-matrix:
 Charge =  0 Multiplicity = 1

 SCF Done:  E(RHF) =  -324.810139067     A.U. after   15 cycles
 Normal termination of Gaussian 16 at Sat Apr  5 23:12:11 2025.
 Gaussian 16:  ES64L-G16RevC.01  3-Jul-2019

 ----------------------------------------------------------------------
 #t hf aug-cc-pvdz iop(5/13=1,5/36=2,99/5=2) pseudo=read geom=check gue
 ss=(read,tcheck) scf=(maxcycle=1)
 ----------------------------------------------------------------------
 -----
 title
 -----
 Structure from the checkpoint file:  "p-toluidine.chk"
 Charge =  0 Multiplicity = 1

                         Standard orientation:
 ---------------------------------------------------------------------
 Center     Atomic      Atomic             Coordinates (Angstroms)
 Number     Number       Type             X           Y           Z
 ---------------------------------------------------------------------
      1          6           0        0.669588    1.190338   -0.009937
      2          6           0        0.669666   -1.190178   -0.009924
      3          6           0       -0.718186    1.198300    0.003054
      4          6           0       -0.717909   -1.198256    0.003081
      5          6           0        1.396835    0.000223   -0.013482
      6          6           0       -1.437175    0.000049    0.010600
      7          6           0        2.903547   -0.000073    0.006732
      8          7           0       -2.833422   -0.000219    0.080437
      9          1           0        1.197270    2.136416   -0.020466
     10          1           0        1.197417   -2.136238   -0.020449
     11          1           0       -1.250749    2.141644    0.007895
     12          1           0       -1.250429   -2.141628    0.007947
     13          1           0        3.308495   -0.870548   -0.510365
     14          1           0        3.307829    0.891793   -0.472804
     15          1           0        3.289746   -0.021962    1.029503
     16          1           0       -3.281770   -0.834223   -0.262806
     17          1           0       -3.282044    0.833864   -0.262259
 ---------------------------------------------------------------------

 SCF Done:  E(RHF) =  -325.152639922     A.U. after    2 cycles

 The electronic state is 1-A.
 Alpha  occ. eigenvalues --  -15.50452 -11.27621 -11.23465 -11.23463 -11.22914
 Alpha  occ. eigenvalues --  -11.22762 -11.22748 -11.22661  -1.22042  -1.13385
 Alpha  occ. eigenvalues --   -1.02412  -1.01130  -0.92281  -0.84249  -0.80661
 Alpha  occ. eigenvalues --   -0.72279  -0.71766  -0.64700  -0.62607  -0.60534
 Alpha  occ. eigenvalues --   -0.59000  -0.57639  -0.54757  -0.54040  -0.51040
 Alpha  occ. eigenvalues --   -0.49030  -0.45911  -0.34297  -0.30085
 Alpha virt. eigenvalues --    0.03015   0.03861   0.04000   0.04978   0.05180
 Alpha virt. eigenvalues --    0.05514   0.07508   0.08143   0.09829   0.09984
 Alpha virt. eigenvalues --    0.11160   0.11764   0.12820   0.13316   0.13563

 Mulliken charges:
               1
     1  C    0.498398
     2  C    0.503441
     3  C    0.496966
     4  C    0.498872
     5  C    0.439039
     6  C   -1.743839
     7  C   -0.719134
     8  N    0.809688
     9  H   -0.317128
    10  H   -0.316941
    11  H   -0.316626
    12  H   -0.316939
    13  H    0.114966
    14  H    0.106778
    15  H    0.257484
    16  H    0.002572
    17  H    0.002403
 Sum of Mulliken charges =  -0.00000

 Dipole moment (field-independent basis, Debye):
    X=             -0.5221    Y=             -0.0025    Z=             -0.9919  Tot=              1.1209

 Test job not archived.
 1\1\GINC-SE106\SP\RHF\Aug-CC-pVDZ\C7H9N1\OHZDE\05-Apr-2025\0\\#t hf au
 g-cc-pvdz iop(5/13=1,5/36=2,99/5=2) pseudo=read geom=check guess=(read
 ,tcheck) scf=(maxcycle=1)\\title\\0,1\C,0,0.669588,1.190338,-0.009937\
 C,0,0.669666,-1.190178,-0.009924\C,0,-0.718186,1.1983,0.003054\C,0,-0.
 717909,-1.198256,0.003081\C,0,1.396835,0.000223,-0.013482\C,0,-1.43717
 5,0.000049,0.0106\C,0,2.903547,-0.000073,0.006732\N,0,-2.833422,-0.000
 219,0.080437\H,0,1.19727,2.136416,-0.020466\H,0,1.197417,-2.136238,-0.
 020449\H,0,-1.250749,2.141644,0.007895\H,0,-1.250429,-2.141628,0.00794

 Normal termination of Gaussian 16 at Sat Apr  5 23:12:28 2025.
