 Gaussian 16, Revision C.01,

 ----------------------------------------------------------------------
 #t hf aug-cc-pvdz symm=none int=(grid=ultrafine) guess=(read,tcheck) s
 table=(opt,rrhf)
 ----------------------------------------------------------------------
 -----
 title
 -----
 Symbolic Z-matrix:
 Charge =  0 Multiplicity = 1

 SCF Done:  E(RHF) =  -308.809040618     A.U. after   14 cycles
 Normal termination of Gaussian 16 at Sat Apr  5 23:12:16 2025.
 Gaussian 16:  ES64L-G16RevC.01  3-Jul-2019

 ----------------------------------------------------------------------
 #t hf aug-cc-pvdz iop(5/13=1,5/36=2,99/5=2) pseudo=read geom=check gue
 ss=(read,tcheck) scf=(maxcycle=1)
 ----------------------------------------------------------------------
 -----
 title
 -----
 Structure from the checkpoint file:  "p-xylene.chk"
 Charge =  0 Multiplicity = 1

                         Standard orientation:
 ---------------------------------------------------------------------
 Center     Atomic      Atomic             Coordinates (Angstroms)
 Number     Number       Type             X           Y           Z
 ---------------------------------------------------------------------
      1          6           0       -0.006126    0.695514    1.193928
      2          6           0        0.006126   -0.695514    1.193928
      3          6           0       -0.005956    0.693932   -1.191741
      4          6           0        0.005956   -0.693932   -1.191741
      5          6           0       -0.010665    1.417282    0.002438
      6          6           0        0.010665   -1.417282    0.002438
      7          6           0        0.005956    2.923660   -0.002240
      8          6           0       -0.005956   -2.923660   -0.002240
      9          1           0       -0.011287    1.226083    2.138293
     10          1           0        0.011287   -1.226083    2.138293
     11          1           0       -0.010880    1.224834   -2.136140
     12          1           0        0.010880   -1.224834   -2.136140
     13          1           0       -0.642816    3.326662   -0.780885
     14          1           0       -0.324391    3.327444    0.954402
     15          1           0        1.012311    3.306699   -0.189982
     16          1           0        0.642816   -3.326662   -0.780885
     17          1           0        0.324391   -3.327444    0.954402
     18          1           0       -1.012311   -3.306699   -0.189982
 ---------------------------------------------------------------------

 SCF Done:  E(RHF) =  -309.137762929     A.U. after    2 cycles

 The electronic state is 1-A.
 Alpha  occ. eigenvalues --  -11.23963 -11.23929 -11.23294 -11.23243 -11.23221
 Alpha  occ. eigenvalues --  -11.23175 -11.23055 -11.23050  -1.15593  -1.06161
 Alpha  occ. eigenvalues --   -1.00970  -0.97553  -0.89836  -0.83364  -0.79167
 Alpha  occ. eigenvalues --   -0.68024  -0.65920  -0.63250  -0.58963  -0.58380
 Alpha  occ. eigenvalues --   -0.57432  -0.56242  -0.56119  -0.53120  -0.49414
 Alpha  occ. eigenvalues --   -0.48774  -0.48318  -0.34073  -0.32161
 Alpha virt. eigenvalues --    0.03412   0.03661   0.03835   0.04794   0.05087
 Alpha virt. eigenvalues --    0.05210   0.05810   0.07567   0.08154   0.09833
 Alpha virt. eigenvalues --    0.09863   0.10515   0.11939   0.12406   0.13491

 Mulliken charges:
               1
     1  C    0.142554
     2  C    0.142554
     3  C    0.171422
     4  C    0.171422
     5  C    0.492845
     6  C    0.492845
     7  C   -0.708954
     8  C   -0.708954
     9  H   -0.306481
    10  H   -0.306481
    11  H   -0.309345
    12  H   -0.309345
    13  H    0.160457
    14  H    0.082441
    15  H    0.275062
    16  H    0.160457
    17  H    0.082441
    18  H    0.275062
 Sum of Mulliken charges =   0.00000

 Dipole moment (field-independent basis, Debye):
    X=             -0.0000    Y=             -0.0000    Z=             -0.0371  Tot=              0.0371

 Test job not archived.
 1\1\GINC-SE152\SP\RHF\Aug-CC-pVDZ\C8H10\OHZDE\05-Apr-2025\0\\#t hf aug
 -cc-pvdz iop(5/13=1,5/36=2,99/5=2) pseudo=read geom=check guess=(read,
 tcheck) scf=(maxcycle=1)\\title\\0,1\C,0,-0.006126,0.695514,1.193928\C
 ,0,0.006126,-0.695514,1.193928\C,0,-0.005956,0.693932,-1.191741\C,0,0.
 005956,-0.693932,-1.191741\C,0,-0.010665,1.417282,0.002438\C,0,0.01066
 5,-1.417282,0.002438\C,0,0.005956,2.92366,-0.00224\C,0,-0.005956,-2.92
 366,-0.00224\H,0,-0.011287,1.226083,2.138293\H,0,0.011287,-1.226083,2.
 138293\H,0,-0.01088,1.224834,-2.13614\H,0,0.01088,-1.224834,-2.13614\H

 Normal termination of Gaussian 16 at Sat Apr  5 23:12:29 2025.
