 Gaussian 16, Revision C.01,

 ----------------------------------------------------------------------
 #t hf aug-cc-pvdz symm=none int=(grid=ultrafine) guess=(read,tcheck) s
 table=(opt,rrhf)
 ----------------------------------------------------------------------
 -----
 title
 -----
 Symbolic Z-matrix:
 Charge =  0 Multiplicity = 1

 SCF Done:  E(RHF) =  -301.762836723     A.U. after   13 cycles
 Normal termination of Gaussian 16 at Sat Apr  5 23:12:49 2025.
 Gaussian 16:  ES64L-G16RevC.01  3-Jul-2019

 ----------------------------------------------------------------------
 #t hf aug-cc-pvdz iop(5/13=1,5/36=2,99/5=2) pseudo=read geom=check gue
 ss=(read,tcheck) scf=(maxcycle=1)
 ----------------------------------------------------------------------
 -----
 title
 -----
 Structure from the checkpoint file:  "pentanedinitrile.chk"
 Charge =  0 Multiplicity = 1

                         Standard orientation:
 ---------------------------------------------------------------------
 Center     Atomic      Atomic             Coordinates (Angstroms)
 Number     Number       Type             X           Y           Z
 ---------------------------------------------------------------------
      1          6           0        0.000000    2.488837    0.088743
      2          6           0       -0.000000   -2.488837    0.088743
      3          6           0        0.000000    1.264960   -0.705030
      4          6           0       -0.000000   -1.264960   -0.705030
      5          6           0       -0.000000   -0.000000    0.168023
      6          7           0        0.000000    3.444883    0.727024
      7          7           0       -0.000000   -3.444883    0.727024
      8          1           0       -0.877475    1.279493   -1.355740
      9          1           0        0.877475    1.279493   -1.355740
     10          1           0        0.877475   -1.279493   -1.355740
     11          1           0       -0.877475   -1.279493   -1.355740
     12          1           0       -0.875721    0.000000    0.815966
     13          1           0        0.875721   -0.000000    0.815966
 ---------------------------------------------------------------------

 SCF Done:  E(RHF) =  -302.067637507     A.U. after    2 cycles

 The electronic state is 1-A1.
 Alpha  occ. eigenvalues --  -15.52549 -15.52548 -11.31491 -11.31481 -11.29435
 Alpha  occ. eigenvalues --  -11.29413 -11.29405  -1.25039  -1.24817  -1.14529
 Alpha  occ. eigenvalues --   -1.05092  -0.90765  -0.76185  -0.71787  -0.70030
 Alpha  occ. eigenvalues --   -0.64679  -0.63924  -0.61862  -0.60078  -0.58089
 Alpha  occ. eigenvalues --   -0.56263  -0.51465  -0.50605  -0.50585  -0.49912
 Alpha virt. eigenvalues --    0.02023   0.02929   0.03855   0.04031   0.05893
 Alpha virt. eigenvalues --    0.06842   0.08443   0.08702   0.09094   0.11569
 Alpha virt. eigenvalues --    0.12498   0.12597   0.13132   0.13451   0.14375

 Mulliken charges:
               1
     1  C   -1.820346
     2  C   -1.820346
     3  C    0.369934
     4  C    0.369934
     5  C   -0.208354
     6  N    1.008421
     7  N    1.008421
     8  H    0.198701
     9  H    0.198701
    10  H    0.198701
    11  H    0.198701
    12  H    0.148766
    13  H    0.148766
 Sum of Mulliken charges =  -0.00000

 Dipole moment (field-independent basis, Debye):
    X=              0.0000    Y=             -0.0000    Z=             -4.8131  Tot=              4.8131

 Test job not archived.
 1\1\GINC-SE180\SP\RHF\Aug-CC-pVDZ\C5H6N2\OHZDE\05-Apr-2025\0\\#t hf au
 g-cc-pvdz iop(5/13=1,5/36=2,99/5=2) pseudo=read geom=check guess=(read
 ,tcheck) scf=(maxcycle=1)\\title\\0,1\C,0,0.,2.488837,0.088743\C,0,0.,
 -2.488837,0.088743\C,0,0.,1.26496,-0.70503\C,0,0.,-1.26496,-0.70503\C,
 0,0.,0.,0.168023\N,0,0.,3.444883,0.727024\N,0,0.,-3.444883,0.727024\H,
 0,-0.877475,1.279493,-1.35574\H,0,0.877475,1.279493,-1.35574\H,0,0.877
 475,-1.279493,-1.35574\H,0,-0.877475,-1.279493,-1.35574\H,0,-0.875721,
 0.,0.815966\H,0,0.875721,0.,0.815966\\Version=ES64L-G16RevC.01\State=1

 Normal termination of Gaussian 16 at Sat Apr  5 23:13:31 2025.
