 Gaussian 16, Revision C.01,

 ----------------------------------------------------------------------
 #t hf aug-cc-pvdz symm=none int=(grid=ultrafine) guess=(read,tcheck) s
 table=(opt,rrhf)
 ----------------------------------------------------------------------
 -----
 title
 -----
 Symbolic Z-matrix:
 Charge =  0 Multiplicity = 1

 SCF Done:  E(RHF) =  -423.033234318     A.U. after   13 cycles

 1\1\GINC-SE220\Stability\RHF\Aug-CC-pVDZ\C7H14O2\OHZDE\05-Apr-2025\0\\
 #t hf aug-cc-pvdz symm=none int=(grid=ultrafine) guess=(read,tcheck) s
 table=(opt,rrhf)\\title\\0,1\C,0,-1.760775,2.179912,0.\C,0,-3.257433,2
 .344694,0.\C,0,3.30906,-3.268875,0.\C,0,1.838693,-2.855555,0.\C,0,1.63
 9526,-1.339018,0.\C,0,0.167821,-0.92339,0.\C,0,0.,0.582801,0.\O,0,-0.9
 59601,3.081295,0.\O,0,-1.416146,0.876019,0.\H,0,-3.685781,1.861519,0.8
 7805\H,0,-3.685781,1.861519,-0.87805\H,0,-3.506083,3.401176,0.\H,0,3.8
 27078,-2.884132,-0.88081\H,0,3.827078,-2.884132,0.88081\H,0,3.417166,-

 Normal termination of Gaussian 16 at Sat Apr  5 23:12:58 2025.
 Gaussian 16:  ES64L-G16RevC.01  3-Jul-2019

 ----------------------------------------------------------------------
 #t hf aug-cc-pvdz iop(5/13=1,5/36=2,99/5=2) pseudo=read geom=check gue
 ss=(read,tcheck) scf=(maxcycle=1)
 ----------------------------------------------------------------------
 -----
 title
 -----
 Structure from the checkpoint file:  "pentyl_acetate.chk"
 Charge =  0 Multiplicity = 1

                         Standard orientation:
 ---------------------------------------------------------------------
 Center     Atomic      Atomic             Coordinates (Angstroms)
 Number     Number       Type             X           Y           Z
 ---------------------------------------------------------------------
      1          6           0       -1.760775    2.179913    0.000000
      2          6           0       -3.257433    2.344695    0.000000
      3          6           0        3.309059   -3.268876    0.000000
      4          6           0        1.838692   -2.855555    0.000000
      5          6           0        1.639525   -1.339018    0.000000
      6          6           0        0.167821   -0.923390    0.000000
      7          6           0        0.000000    0.582801    0.000000
      8          8           0       -0.959600    3.081295    0.000000
      9          8           0       -1.416146    0.876019    0.000000
     10          1           0       -3.685781    1.861520    0.878050
     11          1           0       -3.685781    1.861520   -0.878050
     12          1           0       -3.506082    3.401177    0.000000
     13          1           0        3.827077   -2.884133   -0.880810
     14          1           0        3.827077   -2.884133    0.880810
     15          1           0        3.417165   -4.354195    0.000000
     16          1           0        1.339036   -3.283396    0.874078
     17          1           0        1.339036   -3.283396   -0.874078
     18          1           0        2.140097   -0.911420    0.874802
     19          1           0        2.140097   -0.911420   -0.874802
     20          1           0       -0.335677   -1.338585    0.876781
     21          1           0       -0.335677   -1.338585   -0.876781
     22          1           0        0.452021    1.041556   -0.880361
     23          1           0        0.452021    1.041556    0.880361
 ---------------------------------------------------------------------

 SCF Done:  E(RHF) =  -423.480306220     A.U. after    2 cycles

 The electronic state is 1-A'.
 Alpha  occ. eigenvalues --  -20.58318 -20.52895 -11.38520 -11.29217 -11.24843
 Alpha  occ. eigenvalues --  -11.23383 -11.23249 -11.23074 -11.22461  -1.53655
 Alpha  occ. eigenvalues --   -1.44453  -1.09750  -1.04511  -1.00656  -0.92872
 Alpha  occ. eigenvalues --   -0.84133  -0.80497  -0.77991  -0.69306  -0.69211
 Alpha  occ. eigenvalues --   -0.67041  -0.64977  -0.61030  -0.59697  -0.58925
 Alpha  occ. eigenvalues --   -0.56927  -0.56765  -0.54374  -0.52656  -0.50976
 Alpha  occ. eigenvalues --   -0.49568  -0.48710  -0.47644  -0.47519  -0.44913
 Alpha  occ. eigenvalues --   -0.43605
 Alpha virt. eigenvalues --    0.03313   0.03566   0.03649   0.04016   0.04918
 Alpha virt. eigenvalues --    0.05512   0.05903   0.06618   0.06979   0.07726
 Alpha virt. eigenvalues --    0.08001   0.09927   0.09986   0.10554   0.11217

 Mulliken charges:
               1
     1  C    1.725187
     2  C   -0.719754
     3  C   -0.383364
     4  C   -0.216009
     5  C   -0.237702
     6  C   -0.197595
     7  C    0.541932
     8  O   -1.190194
     9  O   -1.271397
    10  H    0.234677
    11  H    0.234677
    12  H    0.179994
    13  H    0.155627
    14  H    0.155627
    15  H    0.113325
    16  H    0.108343
    17  H    0.108343
    18  H    0.108153
    19  H    0.108153
    20  H    0.105349
    21  H    0.105349
    22  H    0.115638
    23  H    0.115638
 Sum of Mulliken charges =  -0.00000

 Dipole moment (field-independent basis, Debye):
    X=             -0.7300    Y=             -2.1909    Z=             -0.0000  Tot=              2.3094

 Test job not archived.
 1\1\GINC-SE220\SP\RHF\Aug-CC-pVDZ\C7H14O2\OHZDE\05-Apr-2025\0\\#t hf a
 ug-cc-pvdz iop(5/13=1,5/36=2,99/5=2) pseudo=read geom=check guess=(rea
 d,tcheck) scf=(maxcycle=1)\\title\\0,1\C,0,-1.760775,2.179912,0.\C,0,-
 3.257433,2.344694,0.\C,0,3.30906,-3.268875,0.\C,0,1.838693,-2.855555,0
 .\C,0,1.639526,-1.339018,0.\C,0,0.167821,-0.92339,0.\C,0,0.,0.582801,0
 .\O,0,-0.959601,3.081295,0.\O,0,-1.416146,0.876019,0.\H,0,-3.685781,1.
 861519,0.87805\H,0,-3.685781,1.861519,-0.87805\H,0,-3.506083,3.401176,
 0.\H,0,3.827078,-2.884132,-0.88081\H,0,3.827078,-2.884132,0.88081\H,0,

 Normal termination of Gaussian 16 at Sat Apr  5 23:13:38 2025.
