 Gaussian 16, Revision C.01,

 ----------------------------------------------------------------------
 #t hf aug-cc-pvdz symm=none int=(grid=ultrafine) guess=(read,tcheck) s
 table=(opt,rrhf)
 ----------------------------------------------------------------------
 -----
 title
 -----
 Symbolic Z-matrix:
 Charge =  0 Multiplicity = 1

 SCF Done:  E(RHF) =  -270.056066716     A.U. after   13 cycles

 1\1\GINC-SE146\Stability\RHF\Aug-CC-pVDZ\C5H10O1\OHZDE\05-Apr-2025\0\\
 #t hf aug-cc-pvdz symm=none int=(grid=ultrafine) guess=(read,tcheck) s
 table=(opt,rrhf)\\title\\0,1\C,0,-0.854017,-2.053209,0.\C,0,0.913211,2
 .739799,0.\C,0,0.331799,-1.126885,0.\C,0,1.24447,1.248574,0.\C,0,0.,0.
 360098,0.\O,0,-2.008076,-1.706587,0.\H,0,-0.596414,-3.133487,0.\H,0,1.
 8182,3.348531,0.\H,0,0.328751,3.013404,0.880532\H,0,0.328751,3.013404,
 -0.880532\H,0,0.945985,-1.401209,0.867354\H,0,0.945985,-1.401209,-0.86
 7354\H,0,1.858867,1.01225,0.874251\H,0,1.858867,1.01225,-0.874251\H,0,

 Normal termination of Gaussian 16 at Sat Apr  5 23:11:45 2025.
 Gaussian 16:  ES64L-G16RevC.01  3-Jul-2019

 ----------------------------------------------------------------------
 #t hf aug-cc-pvdz iop(5/13=1,5/36=2,99/5=2) pseudo=read geom=check gue
 ss=(read,tcheck) scf=(maxcycle=1)
 ----------------------------------------------------------------------
 -----
 title
 -----
 Structure from the checkpoint file:  "pentanal.chk"
 Charge =  0 Multiplicity = 1

                         Standard orientation:
 ---------------------------------------------------------------------
 Center     Atomic      Atomic             Coordinates (Angstroms)
 Number     Number       Type             X           Y           Z
 ---------------------------------------------------------------------
      1          6           0       -0.854017   -2.053209    0.000000
      2          6           0        0.913211    2.739799    0.000000
      3          6           0        0.331799   -1.126885    0.000000
      4          6           0        1.244470    1.248574    0.000000
      5          6           0        0.000000    0.360098    0.000000
      6          8           0       -2.008076   -1.706587    0.000000
      7          1           0       -0.596414   -3.133487    0.000000
      8          1           0        1.818200    3.348531    0.000000
      9          1           0        0.328751    3.013404    0.880532
     10          1           0        0.328751    3.013404   -0.880532
     11          1           0        0.945985   -1.401209    0.867354
     12          1           0        0.945985   -1.401209   -0.867354
     13          1           0        1.858867    1.012250    0.874251
     14          1           0        1.858867    1.012250   -0.874251
     15          1           0       -0.618581    0.589247   -0.870767
     16          1           0       -0.618581    0.589247    0.870767
 ---------------------------------------------------------------------

 SCF Done:  E(RHF) =  -270.344664590     A.U. after    2 cycles

 The electronic state is 1-A'.
 Alpha  occ. eigenvalues --  -20.54525 -11.34092 -11.25031 -11.23312 -11.23243
 Alpha  occ. eigenvalues --  -11.22503  -1.47645  -1.09460  -1.01987  -0.91387
 Alpha  occ. eigenvalues --   -0.81831  -0.77700  -0.68034  -0.66320  -0.63480
 Alpha  occ. eigenvalues --   -0.60335  -0.59435  -0.54365  -0.53184  -0.49785
 Alpha  occ. eigenvalues --   -0.49636  -0.48615  -0.47730  -0.41422
 Alpha virt. eigenvalues --    0.03167   0.03585   0.03850   0.04488   0.05568
 Alpha virt. eigenvalues --    0.06207   0.07137   0.07374   0.08760   0.10033
 Alpha virt. eigenvalues --    0.10917   0.11676   0.12040   0.13798   0.15376

 Mulliken charges:
               1
     1  C    1.068266
     2  C   -0.383392
     3  C   -0.482732
     4  C   -0.211991
     5  C   -0.207607
     6  O   -1.156432
     7  H    0.103468
     8  H    0.118608
     9  H    0.159004
    10  H    0.159004
    11  H    0.198882
    12  H    0.198882
    13  H    0.105530
    14  H    0.105530
    15  H    0.112489
    16  H    0.112489
 Sum of Mulliken charges =   0.00000

 Dipole moment (field-independent basis, Debye):
    X=              2.9464    Y=             -0.1639    Z=             -0.0000  Tot=              2.9509

 Test job not archived.
 1\1\GINC-SE146\SP\RHF\Aug-CC-pVDZ\C5H10O1\OHZDE\05-Apr-2025\0\\#t hf a
 ug-cc-pvdz iop(5/13=1,5/36=2,99/5=2) pseudo=read geom=check guess=(rea
 d,tcheck) scf=(maxcycle=1)\\title\\0,1\C,0,-0.854017,-2.053209,0.\C,0,
 0.913211,2.739799,0.\C,0,0.331799,-1.126885,0.\C,0,1.24447,1.248574,0.
 \C,0,0.,0.360098,0.\O,0,-2.008076,-1.706587,0.\H,0,-0.596414,-3.133487
 ,0.\H,0,1.8182,3.348531,0.\H,0,0.328751,3.013404,0.880532\H,0,0.328751
 ,3.013404,-0.880532\H,0,0.945985,-1.401209,0.867354\H,0,0.945985,-1.40
 1209,-0.867354\H,0,1.858867,1.01225,0.874251\H,0,1.858867,1.01225,-0.8

 Normal termination of Gaussian 16 at Sat Apr  5 23:12:24 2025.
