 Gaussian 16, Revision C.01,

 ----------------------------------------------------------------------
 #t hf aug-cc-pvdz symm=none int=(grid=ultrafine) guess=(read,tcheck) s
 table=(opt,rrhf)
 ----------------------------------------------------------------------
 -----
 title
 -----
 Symbolic Z-matrix:
 Charge =  0 Multiplicity = 1

 SCF Done:  E(RHF) =  -249.061077228     A.U. after   14 cycles
 Normal termination of Gaussian 16 at Sat Apr  5 23:11:44 2025.
 Gaussian 16:  ES64L-G16RevC.01  3-Jul-2019

 ----------------------------------------------------------------------
 #t hf aug-cc-pvdz iop(5/13=1,5/36=2,99/5=2) pseudo=read geom=check gue
 ss=(read,tcheck) scf=(maxcycle=1)
 ----------------------------------------------------------------------
 -----
 title
 -----
 Structure from the checkpoint file:  "pentanenitrile.chk"
 Charge =  0 Multiplicity = 1

                         Standard orientation:
 ---------------------------------------------------------------------
 Center     Atomic      Atomic             Coordinates (Angstroms)
 Number     Number       Type             X           Y           Z
 ---------------------------------------------------------------------
      1          6           0       -1.381391   -1.674027    0.000000
      2          6           0        1.469740    2.485294    0.000000
      3          6           0       -0.027455   -1.130038    0.000000
      4          6           0        1.425482    0.958648    0.000000
      5          6           0        0.000000    0.407830    0.000000
      6          7           0       -2.455764   -2.084510    0.000000
      7          1           0        0.971625    2.894129    0.880933
      8          1           0        2.497069    2.850311    0.000000
      9          1           0        0.971625    2.894129   -0.880933
     10          1           0        0.496473   -1.517892   -0.876678
     11          1           0        0.496473   -1.517892    0.876678
     12          1           0        1.960400    0.577288   -0.874787
     13          1           0        1.960400    0.577288    0.874787
     14          1           0       -0.540986    0.773987   -0.875086
     15          1           0       -0.540986    0.773987    0.875086
 ---------------------------------------------------------------------

 SCF Done:  E(RHF) =  -249.326406537     A.U. after    2 cycles

 The electronic state is 1-A'.
 Alpha  occ. eigenvalues --  -15.50727 -11.28898 -11.27705 -11.25715 -11.24777
 Alpha  occ. eigenvalues --  -11.23678  -1.23158  -1.11371  -1.03303  -0.91674
 Alpha  occ. eigenvalues --   -0.82490  -0.70785  -0.68498  -0.62597  -0.62111
 Alpha  occ. eigenvalues --   -0.60054  -0.56909  -0.54638  -0.52932  -0.50329
 Alpha  occ. eigenvalues --   -0.49688  -0.48638  -0.48001
 Alpha virt. eigenvalues --    0.03030   0.03343   0.03444   0.04070   0.05943
 Alpha virt. eigenvalues --    0.06469   0.07099   0.07219   0.09431   0.10077
 Alpha virt. eigenvalues --    0.10812   0.12898   0.13261   0.14363   0.14589

 Mulliken charges:
               1
     1  C   -1.945069
     2  C   -0.316361
     3  C    0.406139
     4  C   -0.198680
     5  C   -0.263897
     6  N    1.020467
     7  H    0.161324
     8  H    0.122873
     9  H    0.161324
    10  H    0.211180
    11  H    0.211180
    12  H    0.095231
    13  H    0.095231
    14  H    0.119529
    15  H    0.119529
 Sum of Mulliken charges =  -0.00000

 Dipole moment (field-independent basis, Debye):
    X=              4.6123    Y=              2.2371    Z=              0.0000  Tot=              5.1262

 Test job not archived.
 1\1\GINC-SE190\SP\RHF\Aug-CC-pVDZ\C5H9N1\OHZDE\05-Apr-2025\0\\#t hf au
 g-cc-pvdz iop(5/13=1,5/36=2,99/5=2) pseudo=read geom=check guess=(read
 ,tcheck) scf=(maxcycle=1)\\title\\0,1\C,0,-1.381391,-1.674027,0.\C,0,1
 .46974,2.485294,0.\C,0,-0.027455,-1.130038,0.\C,0,1.425482,0.958648,0.
 \C,0,0.,0.40783,0.\N,0,-2.455764,-2.08451,0.\H,0,0.971625,2.894129,0.8
 80933\H,0,2.497069,2.850311,0.\H,0,0.971625,2.894129,-0.880933\H,0,0.4
 96473,-1.517892,-0.876678\H,0,0.496473,-1.517892,0.876678\H,0,1.9604,0
 .577288,-0.874787\H,0,1.9604,0.577288,0.874787\H,0,-0.540986,0.773987,

 Normal termination of Gaussian 16 at Sat Apr  5 23:12:24 2025.
