 Gaussian 16, Revision C.01,

 ----------------------------------------------------------------------
 #t hf aug-cc-pvdz symm=none int=(grid=ultrafine) guess=(read,tcheck) s
 table=(opt,rrhf)
 ----------------------------------------------------------------------
 -----
 title
 -----
 Symbolic Z-matrix:
 Charge =  0 Multiplicity = 1

 SCF Done:  E(RHF) =  -251.389026392     A.U. after   12 cycles

 1\1\GINC-SE173\Stability\RHF\Aug-CC-pVDZ\C5H13N1\OHZDE\05-Apr-2025\0\\
 #t hf aug-cc-pvdz symm=none int=(grid=ultrafine) guess=(read,tcheck) s
 table=(opt,rrhf)\\title\\0,1\C,0,-3.193395,0.219196,0.022962\C,0,-1.87
 0687,-0.543222,-0.031096\C,0,-0.644306,0.369108,0.017163\C,0,0.681934,
 -0.388325,-0.039089\C,0,1.902025,0.52473,0.012238\N,0,3.142821,-0.2522
 96,-0.075802\H,0,-4.046943,-0.459069,-0.014935\H,0,-3.274969,0.803363,
 0.942009\H,0,-3.283672,0.912302,-0.81605\H,0,-1.834066,-1.145994,-0.94
 3292\H,0,-1.824205,-1.251686,0.801403\H,0,-0.682799,0.973279,0.929858\

 Normal termination of Gaussian 16 at Sat Apr  5 23:12:59 2025.
 Gaussian 16:  ES64L-G16RevC.01  3-Jul-2019

 ----------------------------------------------------------------------
 #t hf aug-cc-pvdz iop(5/13=1,5/36=2,99/5=2) pseudo=read geom=check gue
 ss=(read,tcheck) scf=(maxcycle=1)
 ----------------------------------------------------------------------
 -----
 title
 -----
 Structure from the checkpoint file:  "pentanamine.chk"
 Charge =  0 Multiplicity = 1

                         Standard orientation:
 ---------------------------------------------------------------------
 Center     Atomic      Atomic             Coordinates (Angstroms)
 Number     Number       Type             X           Y           Z
 ---------------------------------------------------------------------
      1          6           0       -3.193395    0.219196    0.022962
      2          6           0       -1.870687   -0.543222   -0.031096
      3          6           0       -0.644306    0.369108    0.017163
      4          6           0        0.681934   -0.388325   -0.039089
      5          6           0        1.902025    0.524730    0.012238
      6          7           0        3.142821   -0.252296   -0.075802
      7          1           0       -4.046943   -0.459069   -0.014935
      8          1           0       -3.274969    0.803363    0.942009
      9          1           0       -3.283672    0.912302   -0.816050
     10          1           0       -1.834066   -1.145994   -0.943292
     11          1           0       -1.824205   -1.251686    0.801403
     12          1           0       -0.682799    0.973279    0.929858
     13          1           0       -0.692022    1.077721   -0.816618
     14          1           0        0.733834   -0.987957   -0.951398
     15          1           0        0.730562   -1.095733    0.796545
     16          1           0        1.844936    1.150237    0.914816
     17          1           0        1.879005    1.205826   -0.842025
     18          1           0        3.244316   -0.859616    0.728902
     19          1           0        3.952849    0.354475   -0.091672
 ---------------------------------------------------------------------

 SCF Done:  E(RHF) =  -251.671893176     A.U. after    2 cycles

 The electronic state is 1-A.
 Alpha  occ. eigenvalues --  -15.47928 -11.25067 -11.22342 -11.22207 -11.21976
 Alpha  occ. eigenvalues --  -11.21947  -1.17458  -1.07636  -1.00043  -0.90489
 Alpha  occ. eigenvalues --   -0.81895  -0.79256  -0.68694  -0.65747  -0.63530
 Alpha  occ. eigenvalues --   -0.60142  -0.57869  -0.56377  -0.54150  -0.50857
 Alpha  occ. eigenvalues --   -0.48915  -0.47524  -0.46670  -0.46483  -0.42022
 Alpha virt. eigenvalues --    0.03377   0.03825   0.03955   0.04213   0.05730
 Alpha virt. eigenvalues --    0.06147   0.06364   0.06930   0.08046   0.08678
 Alpha virt. eigenvalues --    0.09449   0.10168   0.10685   0.11615   0.13578

 Mulliken charges:
               1
     1  C   -0.378105
     2  C   -0.174772
     3  C   -0.254669
     4  C   -0.424268
     5  C   -0.512275
     6  N    0.310562
     7  H    0.114987
     8  H    0.162106
     9  H    0.161549
    10  H    0.098622
    11  H    0.102404
    12  H    0.082789
    13  H    0.087144
    14  H    0.159212
    15  H    0.129520
    16  H    0.068788
    17  H    0.050670
    18  H    0.104783
    19  H    0.110952
 Sum of Mulliken charges =   0.00000

 Dipole moment (field-independent basis, Debye):
    X=             -0.0434    Y=              0.7061    Z=              1.0983  Tot=              1.3064

 Test job not archived.
 1\1\GINC-SE173\SP\RHF\Aug-CC-pVDZ\C5H13N1\OHZDE\05-Apr-2025\0\\#t hf a
 ug-cc-pvdz iop(5/13=1,5/36=2,99/5=2) pseudo=read geom=check guess=(rea
 d,tcheck) scf=(maxcycle=1)\\title\\0,1\C,0,-3.193395,0.219196,0.022962
 \C,0,-1.870687,-0.543222,-0.031096\C,0,-0.644306,0.369108,0.017163\C,0
 ,0.681934,-0.388325,-0.039089\C,0,1.902025,0.52473,0.012238\N,0,3.1428
 21,-0.252296,-0.075802\H,0,-4.046943,-0.459069,-0.014935\H,0,-3.274969
 ,0.803363,0.942009\H,0,-3.283672,0.912302,-0.81605\H,0,-1.834066,-1.14
 5994,-0.943292\H,0,-1.824205,-1.251686,0.801403\H,0,-0.682799,0.973279

 Normal termination of Gaussian 16 at Sat Apr  5 23:13:34 2025.
