 Gaussian 16, Revision C.01,

 ----------------------------------------------------------------------
 #t hf aug-cc-pvdz symm=none int=(grid=ultrafine) guess=(read,tcheck) s
 table=(opt,rrhf)
 ----------------------------------------------------------------------
 -----
 title
 -----
 Symbolic Z-matrix:
 Charge =  0 Multiplicity = 1

 SCF Done:  E(RHF) =  -246.662552288     A.U. after   13 cycles
 Normal termination of Gaussian 16 at Sat Apr  5 23:11:30 2025.
 Gaussian 16:  ES64L-G16RevC.01  3-Jul-2019

 ----------------------------------------------------------------------
 #t hf aug-cc-pvdz iop(5/13=1,5/36=2,99/5=2) pseudo=read geom=check gue
 ss=(read,tcheck) scf=(maxcycle=1)
 ----------------------------------------------------------------------
 -----
 title
 -----
 Structure from the checkpoint file:  "pent-3-ynenitrile.chk"
 Charge =  0 Multiplicity = 1

                         Standard orientation:
 ---------------------------------------------------------------------
 Center     Atomic      Atomic             Coordinates (Angstroms)
 Number     Number       Type             X           Y           Z
 ---------------------------------------------------------------------
      1          6           0        1.101422    1.086436    0.000000
      2          6           0        0.000000    0.612760    0.000000
      3          6           0       -1.353510   -1.424068    0.000000
      4          6           0        2.441080    1.653556    0.000000
      5          6           0       -1.345349    0.043042    0.000000
      6          7           0       -1.379143   -2.572655    0.000000
      7          1           0        2.603677    2.273574    0.882742
      8          1           0        3.194285    0.864356    0.000000
      9          1           0        2.603677    2.273574   -0.882742
     10          1           0       -1.904748    0.383361   -0.875875
     11          1           0       -1.904748    0.383361    0.875875
 ---------------------------------------------------------------------

 SCF Done:  E(RHF) =  -246.915440159     A.U. after    2 cycles

 The electronic state is 1-A'.
 Alpha  occ. eigenvalues --  -15.51617 -11.32322 -11.28745 -11.27005 -11.25823
 Alpha  occ. eigenvalues --  -11.25153  -1.24012  -1.11051  -1.05286  -0.96439
 Alpha  occ. eigenvalues --   -0.74831  -0.69788  -0.66335  -0.64917  -0.60999
 Alpha  occ. eigenvalues --   -0.60754  -0.60444  -0.50733  -0.50377  -0.40739
 Alpha  occ. eigenvalues --   -0.40230
 Alpha virt. eigenvalues --    0.02903   0.03188   0.04280   0.05212   0.05967
 Alpha virt. eigenvalues --    0.07740   0.08101   0.11380   0.12008   0.12287
 Alpha virt. eigenvalues --    0.12947   0.13569   0.14868   0.15294   0.15468

 Mulliken charges:
               1
     1  C   -0.144680
     2  C    0.288798
     3  C   -1.442410
     4  C   -0.757389
     5  C   -0.402944
     6  N    0.862594
     7  H    0.272361
     8  H    0.281182
     9  H    0.272361
    10  H    0.385063
    11  H    0.385063
 Sum of Mulliken charges =  -0.00000

 Dipole moment (field-independent basis, Debye):
    X=              0.8145    Y=              4.8913    Z=              0.0000  Tot=              4.9586

 Test job not archived.
 1\1\GINC-SE196\SP\RHF\Aug-CC-pVDZ\C5H5N1\OHZDE\05-Apr-2025\0\\#t hf au
 g-cc-pvdz iop(5/13=1,5/36=2,99/5=2) pseudo=read geom=check guess=(read
 ,tcheck) scf=(maxcycle=1)\\title\\0,1\C,0,1.101422,1.086436,0.\C,0,0.,
 0.61276,0.\C,0,-1.35351,-1.424068,0.\C,0,2.44108,1.653556,0.\C,0,-1.34
 5349,0.043042,0.\N,0,-1.379143,-2.572655,0.\H,0,2.603677,2.273574,0.88
 2742\H,0,3.194285,0.864356,0.\H,0,2.603677,2.273574,-0.882742\H,0,-1.9
 04748,0.383361,-0.875875\H,0,-1.904748,0.383361,0.875875\\Version=ES64
 L-G16RevC.01\State=1-A'\HF=-246.9154402\RMSD=2.701e-02\Dipole=0.320465

 Normal termination of Gaussian 16 at Sat Apr  5 23:12:28 2025.
