 Gaussian 16, Revision C.01,

 ----------------------------------------------------------------------
 #t hf aug-cc-pvdz symm=none int=(grid=ultrafine) guess=(read,tcheck) s
 table=(opt,rrhf)
 ----------------------------------------------------------------------
 -----
 title
 -----
 Symbolic Z-matrix:
 Charge =  0 Multiplicity = 1

 SCF Done:  E(RHF) =  -196.354001534     A.U. after   11 cycles
 Normal termination of Gaussian 16 at Sat Apr  5 23:12:47 2025.
 Gaussian 16:  ES64L-G16RevC.01  3-Jul-2019

 ----------------------------------------------------------------------
 #t hf aug-cc-pvdz iop(5/13=1,5/36=2,99/5=2) pseudo=read geom=check gue
 ss=(read,tcheck) scf=(maxcycle=1)
 ----------------------------------------------------------------------
 -----
 title
 -----
 Structure from the checkpoint file:  "pentane.chk"
 Charge =  0 Multiplicity = 1

                         Standard orientation:
 ---------------------------------------------------------------------
 Center     Atomic      Atomic             Coordinates (Angstroms)
 Number     Number       Type             X           Y           Z
 ---------------------------------------------------------------------
      1          6           0        0.000000    2.553552    0.323437
      2          6           0       -0.000000   -2.553552    0.323437
      3          6           0        0.000000    1.280666   -0.521619
      4          6           0       -0.000000   -1.280666   -0.521619
      5          6           0        0.000000   -0.000000    0.313781
      6          1           0        0.880619    2.598968    0.967590
      7          1           0       -0.880619    2.598968    0.967590
      8          1           0        0.000000    3.448219   -0.300839
      9          1           0        0.880619   -2.598968    0.967590
     10          1           0       -0.000000   -3.448219   -0.300839
     11          1           0       -0.880619   -2.598968    0.967590
     12          1           0       -0.873927    1.280219   -1.180074
     13          1           0        0.873927    1.280219   -1.180074
     14          1           0       -0.873927   -1.280219   -1.180074
     15          1           0        0.873927   -1.280219   -1.180074
     16          1           0       -0.874435    0.000000    0.973556
     17          1           0        0.874435   -0.000000    0.973556
 ---------------------------------------------------------------------

 SCF Done:  E(RHF) =  -196.580000312     A.U. after    2 cycles

 The electronic state is 1-A1.
 Alpha  occ. eigenvalues --  -11.22239 -11.22230 -11.21979 -11.21883 -11.21877
 Alpha  occ. eigenvalues --   -1.08237  -1.01495  -0.92032  -0.82342  -0.78848
 Alpha  occ. eigenvalues --   -0.65175  -0.60521  -0.59809  -0.56453  -0.55452
 Alpha  occ. eigenvalues --   -0.53284  -0.50268  -0.48251  -0.46822  -0.46360
 Alpha  occ. eigenvalues --   -0.45877
 Alpha virt. eigenvalues --    0.03708   0.03812   0.03969   0.04201   0.05892
 Alpha virt. eigenvalues --    0.06151   0.06521   0.06790   0.09003   0.09512
 Alpha virt. eigenvalues --    0.10166   0.10231   0.11143   0.14116   0.14305

 Mulliken charges:
               1
     1  C   -0.391439
     2  C   -0.391439
     3  C   -0.224496
     4  C   -0.224496
     5  C   -0.296719
     6  H    0.160017
     7  H    0.160017
     8  H    0.117247
     9  H    0.160017
    10  H    0.117247
    11  H    0.160017
    12  H    0.112975
    13  H    0.112975
    14  H    0.112975
    15  H    0.112975
    16  H    0.101065
    17  H    0.101065
 Sum of Mulliken charges =  -0.00000

 Dipole moment (field-independent basis, Debye):
    X=             -0.0000    Y=              0.0000    Z=             -0.0865  Tot=              0.0865

 Test job not archived.
 1\1\GINC-SE173\SP\RHF\Aug-CC-pVDZ\C5H12\OHZDE\05-Apr-2025\0\\#t hf aug
 -cc-pvdz iop(5/13=1,5/36=2,99/5=2) pseudo=read geom=check guess=(read,
 tcheck) scf=(maxcycle=1)\\title\\0,1\C,0,0.,2.553552,0.323437\C,0,0.,-
 2.553552,0.323437\C,0,0.,1.280666,-0.521619\C,0,0.,-1.280666,-0.521619
 \C,0,0.,0.,0.313781\H,0,0.880619,2.598968,0.96759\H,0,-0.880619,2.5989
 68,0.96759\H,0,0.,3.448219,-0.300839\H,0,0.880619,-2.598968,0.96759\H,
 0,0.,-3.448219,-0.300839\H,0,-0.880619,-2.598968,0.96759\H,0,-0.873927
 ,1.280219,-1.180074\H,0,0.873927,1.280219,-1.180074\H,0,-0.873927,-1.2

 Normal termination of Gaussian 16 at Sat Apr  5 23:13:31 2025.
