 Gaussian 16, Revision C.01,

 ----------------------------------------------------------------------
 #t hf aug-cc-pvdz symm=none int=(grid=ultrafine) guess=(read,tcheck) s
 table=(opt,rrhf)
 ----------------------------------------------------------------------
 -----
 title
 -----
 Symbolic Z-matrix:
 Charge =  0 Multiplicity = 1

 SCF Done:  E(RHF) =  -306.379497318     A.U. after   14 cycles
 Normal termination of Gaussian 16 at Sat Apr  5 23:11:58 2025.
 Gaussian 16:  ES64L-G16RevC.01  3-Jul-2019

 ----------------------------------------------------------------------
 #t hf aug-cc-pvdz iop(5/13=1,5/36=2,99/5=2) pseudo=read geom=check gue
 ss=(read,tcheck) scf=(maxcycle=1)
 ----------------------------------------------------------------------
 -----
 title
 -----
 Structure from the checkpoint file:  "pentalene.chk"
 Charge =  0 Multiplicity = 1

                         Standard orientation:
 ---------------------------------------------------------------------
 Center     Atomic      Atomic             Coordinates (Angstroms)
 Number     Number       Type             X           Y           Z
 ---------------------------------------------------------------------
      1          6           0        1.340358    1.082599    0.000000
      2          6           0        2.159435   -0.166489    0.000000
      3          6           0        1.340358   -1.239684    0.000000
      4          6           0       -1.340358   -1.082599    0.000000
      5          6           0       -2.159435    0.166489    0.000000
      6          6           0       -1.340358    1.239684    0.000000
      7          6           0        0.038329    0.726381    0.000000
      8          6           0       -0.038329   -0.726381    0.000000
      9          1           0        1.756064    2.079976    0.000000
     10          1           0        3.238150   -0.182744    0.000000
     11          1           0        1.637830   -2.276002    0.000000
     12          1           0       -1.756064   -2.079976    0.000000
     13          1           0       -3.238150    0.182744    0.000000
     14          1           0       -1.637830    2.276002    0.000000
 ---------------------------------------------------------------------

 SCF Done:  E(RHF) =  -306.694647609     A.U. after    2 cycles

 The electronic state is 1-AG.
 Alpha  occ. eigenvalues --  -11.26001 -11.25993 -11.24692 -11.24685 -11.24388
 Alpha  occ. eigenvalues --  -11.24384 -11.22983 -11.22920  -1.19445  -1.10289
 Alpha  occ. eigenvalues --   -0.99475  -0.94815  -0.88808  -0.78373  -0.75992
 Alpha  occ. eigenvalues --   -0.71627  -0.69637  -0.62543  -0.58236  -0.57544
 Alpha  occ. eigenvalues --   -0.54971  -0.53977  -0.51807  -0.49418  -0.42176
 Alpha  occ. eigenvalues --   -0.34260  -0.28578
 Alpha virt. eigenvalues --    0.01769   0.03417   0.03676   0.03722   0.04826
 Alpha virt. eigenvalues --    0.05034   0.07544   0.10057   0.10757   0.11551
 Alpha virt. eigenvalues --    0.11856   0.12961   0.12976   0.13860   0.14222

 Mulliken charges:
               1
     1  C    0.073620
     2  C    0.106181
     3  C    0.373316
     4  C    0.073620
     5  C    0.106181
     6  C    0.373316
     7  C    0.004864
     8  C    0.004864
     9  H   -0.185108
    10  H   -0.166420
    11  H   -0.206453
    12  H   -0.185108
    13  H   -0.166420
    14  H   -0.206453
 Sum of Mulliken charges =   0.00000

 Dipole moment (field-independent basis, Debye):
    X=              0.0000    Y=             -0.0000    Z=              0.0000  Tot=              0.0000

 Test job not archived.
 1\1\GINC-SE085\SP\RHF\Aug-CC-pVDZ\C8H6\OHZDE\05-Apr-2025\0\\#t hf aug-
 cc-pvdz iop(5/13=1,5/36=2,99/5=2) pseudo=read geom=check guess=(read,t
 check) scf=(maxcycle=1)\\title\\0,1\C,0,1.340358,1.082599,0.\C,0,2.159
 435,-0.166489,0.\C,0,1.340358,-1.239684,0.\C,0,-1.340358,-1.082599,0.\
 C,0,-2.159435,0.166489,0.\C,0,-1.340358,1.239684,0.\C,0,0.038329,0.726
 381,0.\C,0,-0.038329,-0.726381,0.\H,0,1.756064,2.079976,0.\H,0,3.23815
 ,-0.182744,0.\H,0,1.63783,-2.276002,0.\H,0,-1.756064,-2.079976,0.\H,0,
 -3.23815,0.182744,0.\H,0,-1.63783,2.276002,0.\\Version=ES64L-G16RevC.0

 Normal termination of Gaussian 16 at Sat Apr  5 23:12:30 2025.
