 Gaussian 16, Revision C.01,

 ----------------------------------------------------------------------
 #t hf aug-cc-pvdz symm=none int=(grid=ultrafine) guess=(read,tcheck) s
 table=(opt,rrhf)
 ----------------------------------------------------------------------
 -----
 title
 -----
 Symbolic Z-matrix:
 Charge =  0 Multiplicity = 1

 SCF Done:  E(RHF) =  -325.129306968     A.U. after   13 cycles
 Normal termination of Gaussian 16 at Sat Apr  5 23:12:01 2025.
 Gaussian 16:  ES64L-G16RevC.01  3-Jul-2019

 ----------------------------------------------------------------------
 #t hf aug-cc-pvdz iop(5/13=1,5/36=2,99/5=2) pseudo=read geom=check gue
 ss=(read,tcheck) scf=(maxcycle=1)
 ----------------------------------------------------------------------
 -----
 title
 -----
 Structure from the checkpoint file:  "pentanamide.chk"
 Charge =  0 Multiplicity = 1

                         Standard orientation:
 ---------------------------------------------------------------------
 Center     Atomic      Atomic             Coordinates (Angstroms)
 Number     Number       Type             X           Y           Z
 ---------------------------------------------------------------------
      1          6           0       -0.428305   -0.603318    0.292946
      2          6           0       -1.730980    0.145991    0.048752
      3          6           0        0.804689    0.186857   -0.143412
      4          7           0       -2.798137   -0.632363   -0.294446
      5          8           0       -1.831047    1.353253    0.169304
      6          6           0        2.116704   -0.509009    0.218058
      7          6           0        3.349645    0.278591   -0.221813
      8          1           0       -0.378232   -0.797219    1.369502
      9          1           0       -0.452804   -1.579947   -0.197097
     10          1           0        0.763288    0.351634   -1.223970
     11          1           0        0.764447    1.175441    0.315734
     12          1           0       -3.696408   -0.193737   -0.404160
     13          1           0       -2.730511   -1.629614   -0.375823
     14          1           0        2.153180   -0.667921    1.300253
     15          1           0        2.140943   -1.504976   -0.235220
     16          1           0        4.270724   -0.237101    0.052854
     17          1           0        3.359798    0.422536   -1.304049
     18          1           0        3.370399    1.266751    0.241480
 ---------------------------------------------------------------------

 SCF Done:  E(RHF) =  -325.474224436     A.U. after    2 cycles

 The electronic state is 1-A.
 Alpha  occ. eigenvalues --  -20.50362 -15.52664 -11.35603 -11.24700 -11.22971
 Alpha  occ. eigenvalues --  -11.22848 -11.22235  -1.45319  -1.22073  -1.08780
 Alpha  occ. eigenvalues --   -1.00981  -0.90353  -0.82545  -0.79848  -0.75330
 Alpha  occ. eigenvalues --   -0.68362  -0.65590  -0.61389  -0.60233  -0.59110
 Alpha  occ. eigenvalues --   -0.56377  -0.53866  -0.50890  -0.48894  -0.48258
 Alpha  occ. eigenvalues --   -0.47414  -0.43246  -0.41739
 Alpha virt. eigenvalues --    0.02579   0.03684   0.04073   0.04431   0.05636
 Alpha virt. eigenvalues --    0.06033   0.06811   0.07554   0.08529   0.08586
 Alpha virt. eigenvalues --    0.10385   0.10793   0.13109   0.13136   0.14087

 Mulliken charges:
               1
     1  C   -0.446798
     2  C    0.497073
     3  C   -0.193838
     4  N    0.706300
     5  O   -1.342236
     6  C   -0.214658
     7  C   -0.351337
     8  H    0.245268
     9  H    0.105651
    10  H    0.105301
    11  H    0.128950
    12  H    0.085609
    13  H    0.037178
    14  H    0.103086
    15  H    0.099836
    16  H    0.115939
    17  H    0.158717
    18  H    0.159957
 Sum of Mulliken charges =  -0.00000

 Dipole moment (field-independent basis, Debye):
    X=             -0.0182    Y=             -3.6885    Z=             -0.3420  Tot=              3.7044

 Test job not archived.
 1\1\GINC-SE154\SP\RHF\Aug-CC-pVDZ\C5H11N1O1\OHZDE\05-Apr-2025\0\\#t hf
  aug-cc-pvdz iop(5/13=1,5/36=2,99/5=2) pseudo=read geom=check guess=(r
 ead,tcheck) scf=(maxcycle=1)\\title\\0,1\C,0,-0.428305,-0.603318,0.292
 946\C,0,-1.73098,0.145991,0.048752\C,0,0.804689,0.186857,-0.143412\N,0
 ,-2.798137,-0.632363,-0.294446\O,0,-1.831047,1.353253,0.169304\C,0,2.1
 16704,-0.509009,0.218058\C,0,3.349645,0.278591,-0.221813\H,0,-0.378232
 ,-0.797219,1.369502\H,0,-0.452804,-1.579947,-0.197097\H,0,0.763288,0.3
 51634,-1.22397\H,0,0.764447,1.175441,0.315734\H,0,-3.696408,-0.193737,

 Normal termination of Gaussian 16 at Sat Apr  5 23:12:28 2025.
