 Gaussian 16, Revision C.01,

 ----------------------------------------------------------------------
 #t hf aug-cc-pvdz symm=none int=(grid=ultrafine) guess=(read,tcheck) s
 table=(opt,rrhf)
 ----------------------------------------------------------------------
 -----
 title
 -----
 Symbolic Z-matrix:
 Charge =  0 Multiplicity = 1

 SCF Done:  E(RHF) =  -265.242065469     A.U. after   14 cycles
 Normal termination of Gaussian 16 at Sat Apr  5 23:12:28 2025.
 Gaussian 16:  ES64L-G16RevC.01  3-Jul-2019

 ----------------------------------------------------------------------
 #t hf aug-cc-pvdz iop(5/13=1,5/36=2,99/5=2) pseudo=read geom=check gue
 ss=(read,tcheck) scf=(maxcycle=1)
 ----------------------------------------------------------------------
 -----
 title
 -----
 Structure from the checkpoint file:  "penta-1-4-diyn-3-one.chk"
 Charge =  0 Multiplicity = 1

                         Standard orientation:
 ---------------------------------------------------------------------
 Center     Atomic      Atomic             Coordinates (Angstroms)
 Number     Number       Type             X           Y           Z
 ---------------------------------------------------------------------
      1          8           0       -0.000002    1.727755    0.000063
      2          6           0       -0.000000    0.513409   -0.000056
      3          6           0       -1.221816   -0.263144   -0.000092
      4          6           0        1.221818   -0.263140   -0.000093
      5          6           0       -2.237923   -0.902147    0.000052
      6          6           0        2.237924   -0.902146    0.000041
      7          1           0       -3.142391   -1.459515    0.000203
      8          1           0        3.142392   -1.459515    0.000184
 ---------------------------------------------------------------------

 SCF Done:  E(RHF) =  -265.502400444     A.U. after    2 cycles

 The electronic state is 1-A.
 Alpha  occ. eigenvalues --  -20.57447 -11.40551 -11.28658 -11.28645 -11.27465
 Alpha  occ. eigenvalues --  -11.27464  -1.50342  -1.10104  -1.06404  -0.95775
 Alpha  occ. eigenvalues --   -0.81758  -0.75390  -0.73778  -0.68388  -0.59293
 Alpha  occ. eigenvalues --   -0.48191  -0.46198  -0.44131  -0.43395  -0.42845
 Alpha virt. eigenvalues --    0.03044   0.03052   0.03282   0.08008   0.08482
 Alpha virt. eigenvalues --    0.09107   0.09873   0.10205   0.10836   0.11355
 Alpha virt. eigenvalues --    0.13152   0.13587   0.14530   0.15699   0.16556

 Mulliken charges:
               1
     1  O   -1.280093
     2  C    0.895284
     3  C    0.316092
     4  C    0.316084
     5  C    0.247658
     6  C    0.247658
     7  H   -0.371343
     8  H   -0.371340
 Sum of Mulliken charges =   0.00000

 Dipole moment (field-independent basis, Debye):
    X=              0.0000    Y=             -3.3687    Z=              0.0002  Tot=              3.3687

 Test job not archived.
 1\1\GINC-SE211\SP\RHF\Aug-CC-pVDZ\C5H2O1\OHZDE\05-Apr-2025\0\\#t hf au
 g-cc-pvdz iop(5/13=1,5/36=2,99/5=2) pseudo=read geom=check guess=(read
 ,tcheck) scf=(maxcycle=1)\\title\\0,1\O,0,-0.000002,1.727755,0.000063\
 C,0,0.,0.513409,-0.000056\C,0,-1.221816,-0.263144,-0.000092\C,0,1.2218
 18,-0.26314,-0.000093\C,0,-2.237923,-0.902147,0.000052\C,0,2.237924,-0
 .902146,0.000041\H,0,-3.142391,-1.459515,0.000203\H,0,3.142392,-1.4595
 15,0.000184\\Version=ES64L-G16RevC.01\State=1-A\HF=-265.5024004\RMSD=2
 .732e-02\Dipole=0.0000018,-1.3253337,0.0000938\Quadrupole=7.2811595,-4

 Normal termination of Gaussian 16 at Sat Apr  5 23:12:31 2025.
