 Gaussian 16, Revision C.01,

 ----------------------------------------------------------------------
 #t hf aug-cc-pvdz symm=none int=(grid=ultrafine) guess=(read,tcheck) s
 table=(opt,rrhf)
 ----------------------------------------------------------------------
 -----
 title
 -----
 Symbolic Z-matrix:
 Charge =  0 Multiplicity = 1

 SCF Done:  E(RHF) =  -310.573573887     A.U. after   13 cycles
 Normal termination of Gaussian 16 at Sat Apr  5 23:12:30 2025.
 Gaussian 16:  ES64L-G16RevC.01  3-Jul-2019

 ----------------------------------------------------------------------
 #t hf aug-cc-pvdz iop(5/13=1,5/36=2,99/5=2) pseudo=read geom=check gue
 ss=(read,tcheck) scf=(maxcycle=1)
 ----------------------------------------------------------------------
 -----
 title
 -----
 Structure from the checkpoint file:  "pentazine.chk"
 Charge =  0 Multiplicity = 1

                         Standard orientation:
 ---------------------------------------------------------------------
 Center     Atomic      Atomic             Coordinates (Angstroms)
 Number     Number       Type             X           Y           Z
 ---------------------------------------------------------------------
      1          7           0        0.000000    1.175961   -0.636160
      2          7           0        0.000000    1.151724    0.677844
      3          7           0        0.000000    0.000000    1.324042
      4          7           0       -0.000000   -1.151724    0.677844
      5          7           0       -0.000000   -1.175961   -0.636160
      6          6           0        0.000000   -0.000000   -1.252774
      7          1           0        0.000000   -0.000000   -2.335236
 ---------------------------------------------------------------------

 SCF Done:  E(RHF) =  -310.873869535     A.U. after    2 cycles

 The electronic state is 1-A1.
 Alpha  occ. eigenvalues --  -15.65789 -15.65630 -15.63308 -15.61581 -15.61568
 Alpha  occ. eigenvalues --  -11.38023  -1.50482  -1.37778  -1.30957  -1.11266
 Alpha  occ. eigenvalues --   -1.07381  -0.91198  -0.80925  -0.73239  -0.70417
 Alpha  occ. eigenvalues --   -0.64362  -0.63141  -0.57389  -0.54097  -0.53122
 Alpha  occ. eigenvalues --   -0.50379
 Alpha virt. eigenvalues --   -0.03634  -0.00088   0.03026   0.06798   0.07941
 Alpha virt. eigenvalues --    0.08916   0.12965   0.13111   0.14209   0.14909
 Alpha virt. eigenvalues --    0.16437   0.17382   0.17917   0.19534   0.21977

 Mulliken charges:
               1
     1  N    0.424840
     2  N   -0.301259
     3  N   -0.316280
     4  N   -0.301259
     5  N    0.424840
     6  C    0.028255
     7  H    0.040864
 Sum of Mulliken charges =  -0.00000

 Dipole moment (field-independent basis, Debye):
    X=              0.0000    Y=              0.0000    Z=             -3.2486  Tot=              3.2486

 Test job not archived.
 1\1\GINC-SE220\SP\RHF\Aug-CC-pVDZ\C1H1N5\OHZDE\05-Apr-2025\0\\#t hf au
 g-cc-pvdz iop(5/13=1,5/36=2,99/5=2) pseudo=read geom=check guess=(read
 ,tcheck) scf=(maxcycle=1)\\title\\0,1\N,0,0.,1.175961,-0.63616\N,0,0.,
 1.151724,0.677844\N,0,0.,0.,1.324042\N,0,0.,-1.151724,0.677844\N,0,0.,
 -1.175961,-0.63616\C,0,0.,0.,-1.252774\H,0,0.,0.,-2.335236\\Version=ES
 64L-G16RevC.01\State=1-A1\HF=-310.8738695\RMSD=5.687e-02\Dipole=0.,0.,
 -1.2780892\Quadrupole=1.748484,-4.234007,2.485523,0.,0.,0.\PG=C02V [C2
 (H1C1N1),SGV(N4)]\\@

 Normal termination of Gaussian 16 at Sat Apr  5 23:12:33 2025.
