 Gaussian 16, Revision C.01,

 ----------------------------------------------------------------------
 #t hf aug-cc-pvdz symm=none int=(grid=ultrafine) guess=(read,tcheck) s
 table=(opt,rrhf)
 ----------------------------------------------------------------------
 -----
 title
 -----
 Symbolic Z-matrix:
 Charge =  0 Multiplicity = 1

 SCF Done:  E(RHF) =  -725.013539886     A.U. after   14 cycles
 Normal termination of Gaussian 16 at Sat Apr  5 23:12:57 2025.
 Gaussian 16:  ES64L-G16RevC.01  3-Jul-2019

 ----------------------------------------------------------------------
 #t hf aug-cc-pvdz iop(5/13=1,5/36=2,99/5=2) pseudo=read geom=check gue
 ss=(read,tcheck) scf=(maxcycle=1)
 ----------------------------------------------------------------------
 -----
 title
 -----
 Structure from the checkpoint file:  "pentafluorobenzene.chk"
 Charge =  0 Multiplicity = 1

                         Standard orientation:
 ---------------------------------------------------------------------
 Center     Atomic      Atomic             Coordinates (Angstroms)
 Number     Number       Type             X           Y           Z
 ---------------------------------------------------------------------
      1          6           0        0.000000   -0.000000    1.114207
      2          6           0        0.000000    1.205172    0.423331
      3          6           0        0.000000    1.190132   -0.964430
      4          6           0       -0.000000    0.000000   -1.669598
      5          6           0       -0.000000   -1.190132   -0.964430
      6          6           0       -0.000000   -1.205172    0.423331
      7          9           0        0.000000   -0.000000    2.445370
      8          9           0        0.000000    2.356848    1.095325
      9          9           0        0.000000    2.356407   -1.619428
     10          1           0       -0.000000    0.000000   -2.748927
     11          9           0       -0.000000   -2.356407   -1.619428
     12          9           0       -0.000000   -2.356848    1.095325
 ---------------------------------------------------------------------

 SCF Done:  E(RHF) =  -725.688055784     A.U. after    2 cycles

 The electronic state is 1-A1.
 Alpha  occ. eigenvalues --  -26.52358 -26.51838 -26.51837 -26.51747 -26.51747
 Alpha  occ. eigenvalues --  -11.39252 -11.38698 -11.38697 -11.38219 -11.38214
 Alpha  occ. eigenvalues --  -11.29835  -1.66701  -1.65749  -1.65217  -1.64193
 Alpha  occ. eigenvalues --   -1.63806  -1.22073  -1.08351  -1.07282  -0.93544
 Alpha  occ. eigenvalues --   -0.92002  -0.83753  -0.81794  -0.79789  -0.75596
 Alpha  occ. eigenvalues --   -0.75537  -0.75217  -0.73434  -0.72341  -0.71237
 Alpha  occ. eigenvalues --   -0.69428  -0.69296  -0.69064  -0.67231  -0.66726
 Alpha  occ. eigenvalues --   -0.62729  -0.60163  -0.59289  -0.53962  -0.39516
 Alpha  occ. eigenvalues --   -0.38226
 Alpha virt. eigenvalues --    0.03241   0.06465   0.07202   0.07593   0.08587
 Alpha virt. eigenvalues --    0.08654   0.10044   0.10072   0.11400   0.12424
 Alpha virt. eigenvalues --    0.12534   0.13011   0.14224   0.14796   0.15680

 Mulliken charges:
               1
     1  C    1.287412
     2  C    0.549450
     3  C    1.581097
     4  C   -0.638748
     5  C    1.581097
     6  C    0.549450
     7  F   -0.986342
     8  F   -0.923746
     9  F   -0.988053
    10  H   -0.099816
    11  F   -0.988053
    12  F   -0.923746
 Sum of Mulliken charges =  -0.00000

 Dipole moment (field-independent basis, Debye):
    X=              0.0000    Y=              0.0000    Z=             -1.4967  Tot=              1.4967

 Test job not archived.
 1\1\GINC-SE041\SP\RHF\Aug-CC-pVDZ\C6H1F5\OHZDE\05-Apr-2025\0\\#t hf au
 g-cc-pvdz iop(5/13=1,5/36=2,99/5=2) pseudo=read geom=check guess=(read
 ,tcheck) scf=(maxcycle=1)\\title\\0,1\C,0,0.,0.,1.114207\C,0,0.,1.2051
 72,0.423331\C,0,0.,1.190132,-0.96443\C,0,0.,0.,-1.669598\C,0,0.,-1.190
 132,-0.96443\C,0,0.,-1.205172,0.423331\F,0,0.,0.,2.44537\F,0,0.,2.3568
 48,1.095325\F,0,0.,2.356407,-1.619428\H,0,0.,0.,-2.748927\F,0,0.,-2.35
 6407,-1.619428\F,0,0.,-2.356848,1.095325\\Version=ES64L-G16RevC.01\Sta
 te=1-A1\HF=-725.6880558\RMSD=2.638e-02\Dipole=0.,0.,-0.5888413\Quadrup

 Normal termination of Gaussian 16 at Sat Apr  5 23:13:34 2025.
