 Gaussian 16, Revision C.01,

 ----------------------------------------------------------------------
 #t hf aug-cc-pvdz symm=none int=(grid=ultrafine) guess=(read,tcheck) s
 table=(opt,rrhf)
 ----------------------------------------------------------------------
 -----
 title
 -----
 Symbolic Z-matrix:
 Charge =  0 Multiplicity = 1

 SCF Done:  E(RHF) =  -265.249285574     A.U. after   16 cycles
 Normal termination of Gaussian 16 at Sat Apr  5 23:11:25 2025.
 Gaussian 16:  ES64L-G16RevC.01  3-Jul-2019

 ----------------------------------------------------------------------
 #t hf aug-cc-pvdz iop(5/13=1,5/36=2,99/5=2) pseudo=read geom=check gue
 ss=(read,tcheck) scf=(maxcycle=1)
 ----------------------------------------------------------------------
 -----
 title
 -----
 Structure from the checkpoint file:  "penta-2-4-diynal.chk"
 Charge =  0 Multiplicity = 1

                         Standard orientation:
 ---------------------------------------------------------------------
 Center     Atomic      Atomic             Coordinates (Angstroms)
 Number     Number       Type             X           Y           Z
 ---------------------------------------------------------------------
      1          8           0       -2.769216   -0.536264    0.000215
      2          6           0       -0.546543    0.198083   -0.000698
      3          6           0       -1.974175    0.375575    0.000309
      4          6           0        0.660285    0.101518   -0.000632
      5          6           0        2.012661   -0.024555   -0.000207
      6          6           0        3.212576   -0.134634    0.000498
      7          1           0       -2.304988    1.428398    0.001460
      8          1           0        4.269894   -0.234210    0.001198
 ---------------------------------------------------------------------

 SCF Done:  E(RHF) =  -265.509360282     A.U. after    2 cycles

 The electronic state is 1-A.
 Alpha  occ. eigenvalues --  -20.57427 -11.38287 -11.30580 -11.29282 -11.28915
 Alpha  occ. eigenvalues --  -11.28586  -1.49951  -1.12141  -1.05920  -0.95026
 Alpha  occ. eigenvalues --   -0.86160  -0.75275  -0.74012  -0.67550  -0.57493
 Alpha  occ. eigenvalues --   -0.52342  -0.51067  -0.46221  -0.39682  -0.39550
 Alpha virt. eigenvalues --    0.02802   0.02993   0.03542   0.06877   0.07516
 Alpha virt. eigenvalues --    0.09080   0.09608   0.09852   0.10806   0.11378
 Alpha virt. eigenvalues --    0.13351   0.13876   0.14124   0.14989   0.16464

 Mulliken charges:
               1
     1  O   -1.044638
     2  C   -1.457954
     3  C    0.611237
     4  C    2.099819
     5  C    0.719366
     6  C   -0.427880
     7  H    0.092648
     8  H   -0.592596
 Sum of Mulliken charges =  -0.00000

 Dipole moment (field-independent basis, Debye):
    X=              2.8418    Y=              1.8604    Z=              0.0019  Tot=              3.3966

 Test job not archived.
 1\1\GINC-SE014\SP\RHF\Aug-CC-pVDZ\C5H2O1\OHZDE\05-Apr-2025\0\\#t hf au
 g-cc-pvdz iop(5/13=1,5/36=2,99/5=2) pseudo=read geom=check guess=(read
 ,tcheck) scf=(maxcycle=1)\\title\\0,1\O,0,-2.769216,-0.536264,0.000215
 \C,0,-0.546543,0.198083,-0.000698\C,0,-1.974175,0.375575,0.000309\C,0,
 0.660285,0.101518,-0.000632\C,0,2.012661,-0.024555,-0.000207\C,0,3.212
 576,-0.134634,0.000498\H,0,-2.304988,1.428398,0.00146\H,0,4.269894,-0.
 23421,0.001198\\Version=ES64L-G16RevC.01\State=1-A\HF=-265.5093603\RMS
 D=6.217e-02\Dipole=1.1180438,0.7319423,0.0007473\Quadrupole=3.3711942,

 Normal termination of Gaussian 16 at Sat Apr  5 23:12:23 2025.
