 Gaussian 16, Revision C.01,

 ----------------------------------------------------------------------
 #t hf aug-cc-pvdz symm=none int=(grid=ultrafine) guess=(read,tcheck) s
 table=(opt,rrhf)
 ----------------------------------------------------------------------
 -----
 title
 -----
 Symbolic Z-matrix:
 Charge =  0 Multiplicity = 1

 SCF Done:  E(RHF) =  -193.956294671     A.U. after   13 cycles
 Normal termination of Gaussian 16 at Sat Apr  5 23:12:36 2025.
 Gaussian 16:  ES64L-G16RevC.01  3-Jul-2019

 ----------------------------------------------------------------------
 #t hf aug-cc-pvdz iop(5/13=1,5/36=2,99/5=2) pseudo=read geom=check gue
 ss=(read,tcheck) scf=(maxcycle=1)
 ----------------------------------------------------------------------
 -----
 title
 -----
 Structure from the checkpoint file:  "pentyne.chk"
 Charge =  0 Multiplicity = 1

                         Standard orientation:
 ---------------------------------------------------------------------
 Center     Atomic      Atomic             Coordinates (Angstroms)
 Number     Number       Type             X           Y           Z
 ---------------------------------------------------------------------
      1          6           0       -2.632692    0.270492    0.000000
      2          6           0       -1.445615    0.445322    0.000000
      3          6           0        2.298303   -0.462071    0.000000
      4          6           0        0.000000    0.632435    0.000000
      5          6           0        0.789039   -0.688491    0.000000
      6          1           0       -3.683318    0.121999    0.000000
      7          1           0        2.615695    0.098825    0.881392
      8          1           0        2.836529   -1.410299    0.000000
      9          1           0        2.615695    0.098825   -0.881392
     10          1           0        0.283301    1.225765   -0.874581
     11          1           0        0.283301    1.225765    0.874581
     12          1           0        0.497294   -1.273503   -0.874226
     13          1           0        0.497294   -1.273503    0.874226
 ---------------------------------------------------------------------

 SCF Done:  E(RHF) =  -194.168874266     A.U. after    2 cycles

 The electronic state is 1-A'.
 Alpha  occ. eigenvalues --  -11.25777 -11.23956 -11.23844 -11.22929 -11.22768
 Alpha  occ. eigenvalues --   -1.09455  -1.02151  -0.94621  -0.82780  -0.72432
 Alpha  occ. eigenvalues --   -0.65337  -0.65271  -0.58758  -0.56631  -0.52543
 Alpha  occ. eigenvalues --   -0.50410  -0.49144  -0.39191  -0.39158
 Alpha virt. eigenvalues --    0.03679   0.03878   0.04153   0.04379   0.05545
 Alpha virt. eigenvalues --    0.07039   0.07430   0.08045   0.11056   0.11109
 Alpha virt. eigenvalues --    0.12399   0.12531   0.14356   0.15122   0.15893

 Mulliken charges:
               1
     1  C    0.298901
     2  C    0.404282
     3  C   -0.352190
     4  C   -0.787367
     5  C   -0.187854
     6  H   -0.439919
     7  H    0.157241
     8  H    0.116318
     9  H    0.157241
    10  H    0.205816
    11  H    0.205816
    12  H    0.110857
    13  H    0.110857
 Sum of Mulliken charges =   0.00000

 Dipole moment (field-independent basis, Debye):
    X=              0.8653    Y=             -0.0944    Z=             -0.0000  Tot=              0.8705

 Test job not archived.
 1\1\GINC-SE045\SP\RHF\Aug-CC-pVDZ\C5H8\OHZDE\05-Apr-2025\0\\#t hf aug-
 cc-pvdz iop(5/13=1,5/36=2,99/5=2) pseudo=read geom=check guess=(read,t
 check) scf=(maxcycle=1)\\title\\0,1\C,0,-2.632692,0.270492,0.\C,0,-1.4
 45615,0.445322,0.\C,0,2.298303,-0.462071,0.\C,0,0.,0.632435,0.\C,0,0.7
 89039,-0.688491,0.\H,0,-3.683318,0.121999,0.\H,0,2.615695,0.098825,0.8
 81392\H,0,2.836529,-1.410299,0.\H,0,2.615695,0.098825,-0.881392\H,0,0.
 283301,1.225765,-0.874581\H,0,0.283301,1.225765,0.874581\H,0,0.497294,
 -1.273503,-0.874226\H,0,0.497294,-1.273503,0.874226\\Version=ES64L-G16

 Normal termination of Gaussian 16 at Sat Apr  5 23:12:40 2025.
