 Gaussian 16, Revision C.01,

 ----------------------------------------------------------------------
 #t hf aug-cc-pvdz symm=none int=(grid=ultrafine) guess=(read,tcheck) s
 table=(opt,rrhf)
 ----------------------------------------------------------------------
 -----
 title
 -----
 Symbolic Z-matrix:
 Charge =  0 Multiplicity = 1

 SCF Done:  E(RHF) =  -1032.50153482     A.U. after   12 cycles

 1\1\GINC-SE042\Stability\RHF\Aug-CC-pVDZ\C2Cl1F5\OHZDE\05-Apr-2025\0\\
 #t hf aug-cc-pvdz symm=none int=(grid=ultrafine) guess=(read,tcheck) s
 table=(opt,rrhf)\\title\\0,1\C,0,0.088227,-0.640097,0.\C,0,-0.628654,0
 .743753,0.\Cl,0,1.853861,-0.454917,0.\F,0,-0.297556,-1.321635,1.086547
 \F,0,-0.297556,-1.321635,-1.086547\F,0,-1.951228,0.550467,0.\F,0,-0.29
 7556,1.441493,1.086607\F,0,-0.297556,1.441493,-1.086607\\Version=ES64L
 -G16RevC.01\HF=-1032.5015348\RMSD=6.731e-09\Dipole=0.2445383,0.0022199
 ,0.\Quadrupole=1.1829474,-0.5035742,-0.6793732,-0.2114454,0.,0.\PG=Unk

 Normal termination of Gaussian 16 at Sat Apr  5 23:12:34 2025.
 Gaussian 16:  ES64L-G16RevC.01  3-Jul-2019

 ----------------------------------------------------------------------
 #t hf aug-cc-pvdz iop(5/13=1,5/36=2,99/5=2) pseudo=read geom=check gue
 ss=(read,tcheck) scf=(maxcycle=1)
 ----------------------------------------------------------------------
 -----
 title
 -----
 Structure from the checkpoint file:  "pentafluorochloroethane.chk"
 Charge =  0 Multiplicity = 1

                         Standard orientation:
 ---------------------------------------------------------------------
 Center     Atomic      Atomic             Coordinates (Angstroms)
 Number     Number       Type             X           Y           Z
 ---------------------------------------------------------------------
      1          6           0        0.088227   -0.640097    0.000000
      2          6           0       -0.628654    0.743753    0.000000
      3         17           0        1.853861   -0.454917    0.000000
      4          9           0       -0.297556   -1.321635    1.086547
      5          9           0       -0.297556   -1.321635   -1.086547
      6          9           0       -1.951228    0.550467    0.000000
      7          9           0       -0.297556    1.441493    1.086607
      8          9           0       -0.297556    1.441493   -1.086607
 ---------------------------------------------------------------------

 SCF Done:  E(RHF) =  -1033.09622926     A.U. after    2 cycles

 The electronic state is 1-A'.
 Alpha  occ. eigenvalues -- -105.62034 -26.54207 -26.54204 -26.54179 -26.54176
 Alpha  occ. eigenvalues --  -26.54015 -11.56601 -11.53992 -10.66924  -7.83872
 Alpha  occ. eigenvalues --   -7.83429  -7.83419  -1.75763  -1.71770  -1.65696
 Alpha  occ. eigenvalues --   -1.65115  -1.64469  -1.16332  -1.04987  -0.93706
 Alpha  occ. eigenvalues --   -0.87639  -0.85685  -0.84965  -0.80986  -0.78787
 Alpha  occ. eigenvalues --   -0.73244  -0.71810  -0.71415  -0.70307  -0.67428
 Alpha  occ. eigenvalues --   -0.67096  -0.65880  -0.65238  -0.64027  -0.56719
 Alpha  occ. eigenvalues --   -0.51798  -0.51720
 Alpha virt. eigenvalues --    0.06909   0.07839   0.08574   0.09476   0.10541
 Alpha virt. eigenvalues --    0.12075   0.12393   0.13032   0.14584   0.16575
 Alpha virt. eigenvalues --    0.19076   0.20316   0.22640   0.25740   0.26375

 Mulliken charges:
               1
     1  C    1.163580
     2  C    2.303578
     3  Cl  -0.081184
     4  F   -0.683139
     5  F   -0.683139
     6  F   -0.682313
     7  F   -0.668691
     8  F   -0.668691
 Sum of Mulliken charges =  -0.00000

 Dipole moment (field-independent basis, Debye):
    X=              0.4223    Y=             -0.0221    Z=             -0.0000  Tot=              0.4229

 Test job not archived.
 1\1\GINC-SE042\SP\RHF\Aug-CC-pVDZ\C2Cl1F5\OHZDE\05-Apr-2025\0\\#t hf a
 ug-cc-pvdz iop(5/13=1,5/36=2,99/5=2) pseudo=read geom=check guess=(rea
 d,tcheck) scf=(maxcycle=1)\\title\\0,1\C,0,0.088227,-0.640097,0.\C,0,-
 0.628654,0.743753,0.\Cl,0,1.853861,-0.454917,0.\F,0,-0.297556,-1.32163
 5,1.086547\F,0,-0.297556,-1.321635,-1.086547\F,0,-1.951228,0.550467,0.
 \F,0,-0.297556,1.441493,1.086607\F,0,-0.297556,1.441493,-1.086607\\Ver
 sion=ES64L-G16RevC.01\State=1-A'\HF=-1033.0962293\RMSD=4.525e-03\Dipol
 e=0.1661478,-0.0086916,0.\Quadrupole=1.0272672,-0.4153015,-0.6119657,-

 Normal termination of Gaussian 16 at Sat Apr  5 23:12:38 2025.
