 Gaussian 16, Revision C.01,

 ----------------------------------------------------------------------
 #t hf aug-cc-pvdz symm=none int=(grid=ultrafine) guess=(read,tcheck) s
 table=(opt,rrhf)
 ----------------------------------------------------------------------
 -----
 title
 -----
 Symbolic Z-matrix:
 Charge =  0 Multiplicity = 1

 SCF Done:  E(RHF) =  -748.089064533     A.U. after   13 cycles
 Normal termination of Gaussian 16 at Sat Apr  5 23:11:40 2025.
 Gaussian 16:  ES64L-G16RevC.01  3-Jul-2019

 ----------------------------------------------------------------------
 #t hf aug-cc-pvdz iop(5/13=1,5/36=2,99/5=2) pseudo=read geom=check gue
 ss=(read,tcheck) scf=(maxcycle=1)
 ----------------------------------------------------------------------
 -----
 title
 -----
 Structure from the checkpoint file:  "perfluorobutadiene.chk"
 Charge =  0 Multiplicity = 1

                         Standard orientation:
 ---------------------------------------------------------------------
 Center     Atomic      Atomic             Coordinates (Angstroms)
 Number     Number       Type             X           Y           Z
 ---------------------------------------------------------------------
      1          6           0       -0.188443    1.576098   -0.366092
      2          6           0        0.153555    0.706793    0.580006
      3          6           0       -0.153555   -0.706793    0.580006
      4          6           0        0.188443   -1.576098   -0.366092
      5          9           0        0.153555    2.842567   -0.356772
      6          9           0       -0.892260    1.266786   -1.433390
      7          9           0        0.843111    1.168575    1.647552
      8          9           0       -0.843111   -1.168575    1.647552
      9          9           0        0.892260   -1.266786   -1.433390
     10          9           0       -0.153555   -2.842567   -0.356772
 ---------------------------------------------------------------------

 SCF Done:  E(RHF) =  -748.774278863     A.U. after    2 cycles

 The electronic state is 1-A.
 Alpha  occ. eigenvalues --  -26.54916 -26.54915 -26.54670 -26.54670 -26.51091
 Alpha  occ. eigenvalues --  -26.51090 -11.47740 -11.47732 -11.38367 -11.38308
 Alpha  occ. eigenvalues --   -1.72412  -1.72243  -1.65605  -1.65521  -1.64252
 Alpha  occ. eigenvalues --   -1.63129  -1.15478  -1.07436  -0.94149  -0.89192
 Alpha  occ. eigenvalues --   -0.86284  -0.83228  -0.82361  -0.79005  -0.78385
 Alpha  occ. eigenvalues --   -0.77472  -0.74201  -0.70949  -0.70799  -0.69775
 Alpha  occ. eigenvalues --   -0.69405  -0.69005  -0.68832  -0.67430  -0.67078
 Alpha  occ. eigenvalues --   -0.65540  -0.60857  -0.45100  -0.39551
 Alpha virt. eigenvalues --    0.06280   0.06508   0.07473   0.08143   0.09662
 Alpha virt. eigenvalues --    0.10432   0.10943   0.10987   0.12591   0.12654
 Alpha virt. eigenvalues --    0.15257   0.15389   0.15936   0.16221   0.17342

 Mulliken charges:
               1
     1  C    1.792880
     2  C    0.542461
     3  C    0.542461
     4  C    1.792880
     5  F   -0.702965
     6  F   -0.741197
     7  F   -0.891179
     8  F   -0.891179
     9  F   -0.741197
    10  F   -0.702965
 Sum of Mulliken charges =  -0.00000

 Dipole moment (field-independent basis, Debye):
    X=              0.0000    Y=             -0.0000    Z=             -1.0138  Tot=              1.0138

 Test job not archived.
 1\1\GINC-SE046\SP\RHF\Aug-CC-pVDZ\C4F6\OHZDE\05-Apr-2025\0\\#t hf aug-
 cc-pvdz iop(5/13=1,5/36=2,99/5=2) pseudo=read geom=check guess=(read,t
 check) scf=(maxcycle=1)\\title\\0,1\C,0,-0.188443,1.576098,-0.366092\C
 ,0,0.153555,0.706793,0.580006\C,0,-0.153555,-0.706793,0.580006\C,0,0.1
 88443,-1.576098,-0.366092\F,0,0.153555,2.842567,-0.356772\F,0,-0.89226
 ,1.266786,-1.43339\F,0,0.843111,1.168575,1.647552\F,0,-0.843111,-1.168
 575,1.647552\F,0,0.89226,-1.266786,-1.43339\F,0,-0.153555,-2.842567,-0
 .356772\\Version=ES64L-G16RevC.01\State=1-A\HF=-748.7742789\RMSD=1.115

 Normal termination of Gaussian 16 at Sat Apr  5 23:12:25 2025.
