 Gaussian 16, Revision C.01,

 ----------------------------------------------------------------------
 #t hf aug-cc-pvdz symm=none int=(grid=ultrafine) guess=(read,tcheck) s
 table=(opt,rrhf)
 ----------------------------------------------------------------------
 -----
 title
 -----
 Symbolic Z-matrix:
 Charge =  0 Multiplicity = 1

 SCF Done:  E(RHF) =  -909.232159214     A.U. after   11 cycles
 Normal termination of Gaussian 16 at Sat Apr  5 23:11:49 2025.
 Gaussian 16:  ES64L-G16RevC.01  3-Jul-2019

 ----------------------------------------------------------------------
 #t hf aug-cc-pvdz iop(5/13=1,5/36=2,99/5=2) pseudo=read geom=check gue
 ss=(read,tcheck) scf=(maxcycle=1)
 ----------------------------------------------------------------------
 -----
 title
 -----
 Structure from the checkpoint file:  "perfluoropropane.chk"
 Charge =  0 Multiplicity = 1

                         Standard orientation:
 ---------------------------------------------------------------------
 Center     Atomic      Atomic             Coordinates (Angstroms)
 Number     Number       Type             X           Y           Z
 ---------------------------------------------------------------------
      1          6           0        0.000000   -0.000000    0.590836
      2          6           0        0.000000    1.321706   -0.236848
      3          6           0       -0.000000   -1.321706   -0.236848
      4          9           0        1.097195   -0.000000    1.372804
      5          9           0       -1.097195    0.000000    1.372804
      6          9           0        0.000000    2.356688    0.605533
      7          9           0       -0.000000   -2.356688    0.605533
      8          9           0        1.086235    1.396250   -1.008692
      9          9           0       -1.086235    1.396250   -1.008692
     10          9           0       -1.086235   -1.396250   -1.008692
     11          9           0        1.086235   -1.396250   -1.008692
 ---------------------------------------------------------------------

 SCF Done:  E(RHF) =  -910.056519797     A.U. after    2 cycles

 The electronic state is 1-A1.
 Alpha  occ. eigenvalues --  -26.54697 -26.54696 -26.54694 -26.54693 -26.54485
 Alpha  occ. eigenvalues --  -26.54482 -26.54480 -26.54480 -11.57160 -11.57118
 Alpha  occ. eigenvalues --  -11.50921  -1.76632  -1.75655  -1.71340  -1.66376
 Alpha  occ. eigenvalues --   -1.65659  -1.65635  -1.65618  -1.64575  -1.12039
 Alpha  occ. eigenvalues --   -1.02258  -0.94580  -0.89887  -0.87719  -0.86647
 Alpha  occ. eigenvalues --   -0.85204  -0.84387  -0.84140  -0.80250  -0.74535
 Alpha  occ. eigenvalues --   -0.73584  -0.73025  -0.71819  -0.71604  -0.71241
 Alpha  occ. eigenvalues --   -0.70621  -0.68391  -0.68165  -0.66681  -0.66672
 Alpha  occ. eigenvalues --   -0.66591  -0.65550  -0.65372  -0.62842  -0.56340
 Alpha virt. eigenvalues --    0.07285   0.07649   0.07882   0.08623   0.10834
 Alpha virt. eigenvalues --    0.11223   0.11255   0.12945   0.13448   0.15112
 Alpha virt. eigenvalues --    0.19944   0.20975   0.21143   0.21267   0.24423

 Mulliken charges:
               1
     1  C    1.317342
     2  C    2.294001
     3  C    2.294001
     4  F   -0.810705
     5  F   -0.810705
     6  F   -0.712482
     7  F   -0.712482
     8  F   -0.714742
     9  F   -0.714742
    10  F   -0.714742
    11  F   -0.714742
 Sum of Mulliken charges =  -0.00000

 Dipole moment (field-independent basis, Debye):
    X=              0.0000    Y=              0.0000    Z=             -0.1287  Tot=              0.1287

 Test job not archived.
 1\1\GINC-SE188\SP\RHF\Aug-CC-pVDZ\C3F8\OHZDE\05-Apr-2025\0\\#t hf aug-
 cc-pvdz iop(5/13=1,5/36=2,99/5=2) pseudo=read geom=check guess=(read,t
 check) scf=(maxcycle=1)\\title\\0,1\C,0,0.,0.,0.590836\C,0,0.,1.321706
 ,-0.236848\C,0,0.,-1.321706,-0.236848\F,0,1.097195,0.,1.372804\F,0,-1.
 097195,0.,1.372804\F,0,0.,2.356688,0.605533\F,0,0.,-2.356688,0.605533\
 F,0,1.086235,1.39625,-1.008692\F,0,-1.086235,1.39625,-1.008692\F,0,-1.
 086235,-1.39625,-1.008692\F,0,1.086235,-1.39625,-1.008692\\Version=ES6
 4L-G16RevC.01\State=1-A1\HF=-910.0565198\RMSD=6.200e-03\Dipole=0.,0.,-

 Normal termination of Gaussian 16 at Sat Apr  5 23:12:26 2025.
