 Gaussian 16, Revision C.01,

 ----------------------------------------------------------------------
 #t hf aug-cc-pvdz symm=none int=(grid=ultrafine) guess=(read,tcheck) s
 table=(opt,rrhf)
 ----------------------------------------------------------------------
 -----
 title
 -----
 Symbolic Z-matrix:
 Charge =  0 Multiplicity = 1

 SCF Done:  E(RHF) =  -1146.00062231     A.U. after   11 cycles
 Normal termination of Gaussian 16 at Sat Apr  5 23:13:50 2025.
 Gaussian 16:  ES64L-G16RevC.01  3-Jul-2019

 ----------------------------------------------------------------------
 #t hf aug-cc-pvdz iop(5/13=1,5/36=2,99/5=2) pseudo=read geom=check gue
 ss=(read,tcheck) scf=(maxcycle=1)
 ----------------------------------------------------------------------
 -----
 title
 -----
 Structure from the checkpoint file:  "perfluorobutane.chk"
 Charge =  0 Multiplicity = 1

                         Standard orientation:
 ---------------------------------------------------------------------
 Center     Atomic      Atomic             Coordinates (Angstroms)
 Number     Number       Type             X           Y           Z
 ---------------------------------------------------------------------
      1          6           0       -0.588673    0.514586   -0.092762
      2          6           0        0.588673   -0.514586   -0.092763
      3          6           0       -2.009338   -0.118245    0.074227
      4          6           0        2.009338    0.118245    0.074228
      5          9           0       -0.415550    1.394344    0.915469
      6          9           0       -0.572838    1.184057   -1.260942
      7          9           0        0.415550   -1.394345    0.915467
      8          9           0        0.572838   -1.184055   -1.260944
      9          9           0       -2.925528    0.830845   -0.129852
     10          9           0        2.925528   -0.830845   -0.129853
     11          9           0       -2.197432   -1.096346   -0.814973
     12          9           0       -2.171696   -0.609091    1.302656
     13          9           0        2.197432    1.096347   -0.814971
     14          9           0        2.171696    0.609089    1.302657
 ---------------------------------------------------------------------

 SCF Done:  E(RHF) =  -1147.03847953     A.U. after    2 cycles

 The electronic state is 1-A.
 Alpha  occ. eigenvalues --  -26.54795 -26.54795 -26.54737 -26.54737 -26.54582
 Alpha  occ. eigenvalues --  -26.54581 -26.54579 -26.54579 -26.54441 -26.54441
 Alpha  occ. eigenvalues --  -11.57161 -11.57147 -11.51269 -11.51258  -1.76430
 Alpha  occ. eigenvalues --   -1.76008  -1.72338  -1.71187  -1.66457  -1.65921
 Alpha  occ. eigenvalues --   -1.65738  -1.65465  -1.65022  -1.64552  -1.13367
 Alpha  occ. eigenvalues --   -1.07394  -0.98539  -0.93888  -0.89211  -0.88853
 Alpha  occ. eigenvalues --   -0.86525  -0.85877  -0.85725  -0.84903  -0.83375
 Alpha  occ. eigenvalues --   -0.82374  -0.79179  -0.74408  -0.74007  -0.73022
 Alpha  occ. eigenvalues --   -0.72845  -0.72543  -0.71971  -0.71393  -0.70594
 Alpha  occ. eigenvalues --   -0.70228  -0.68303  -0.67553  -0.67165  -0.66836
 Alpha  occ. eigenvalues --   -0.66591  -0.66087  -0.65676  -0.65358  -0.63709
 Alpha  occ. eigenvalues --   -0.61279  -0.54798
 Alpha virt. eigenvalues --    0.06601   0.07527   0.07564   0.08362   0.09556
 Alpha virt. eigenvalues --    0.10596   0.10687   0.11979   0.12905   0.13838
 Alpha virt. eigenvalues --    0.14260   0.14582   0.18142   0.18356   0.20560

 Mulliken charges:
               1
     1  C    1.310063
     2  C    1.310063
     3  C    2.596572
     4  C    2.596572
     5  F   -0.846543
     6  F   -0.839965
     7  F   -0.846543
     8  F   -0.839965
     9  F   -0.737021
    10  F   -0.737021
    11  F   -0.747708
    12  F   -0.735397
    13  F   -0.747708
    14  F   -0.735397
 Sum of Mulliken charges =  -0.00000

 Dipole moment (field-independent basis, Debye):
    X=              0.0000    Y=              0.0000    Z=              0.0358  Tot=              0.0358

 Test job not archived.
 1\1\GINC-SE175\SP\RHF\Aug-CC-pVDZ\C4F10\OHZDE\05-Apr-2025\0\\#t hf aug
 -cc-pvdz iop(5/13=1,5/36=2,99/5=2) pseudo=read geom=check guess=(read,
 tcheck) scf=(maxcycle=1)\\title\\0,1\C,0,-0.588673,0.514586,-0.092762\
 C,0,0.588673,-0.514586,-0.092763\C,0,-2.009338,-0.118245,0.074227\C,0,
 2.009338,0.118245,0.074228\F,0,-0.41555,1.394344,0.915469\F,0,-0.57283
 8,1.184057,-1.260942\F,0,0.41555,-1.394345,0.915467\F,0,0.572838,-1.18
 4055,-1.260944\F,0,-2.925528,0.830845,-0.129852\F,0,2.925528,-0.830845
 ,-0.129853\F,0,-2.197432,-1.096346,-0.814973\F,0,-2.171696,-0.609091,1

 Normal termination of Gaussian 16 at Sat Apr  5 23:13:59 2025.
