 Gaussian 16, Revision C.01,

 ----------------------------------------------------------------------
 #t hf aug-cc-pvdz symm=none int=(grid=ultrafine) guess=(read,tcheck) s
 table=(opt,rrhf)
 ----------------------------------------------------------------------
 -----
 title
 -----
 Symbolic Z-matrix:
 Charge =  0 Multiplicity = 1

 SCF Done:  E(RHF) =  -1382.76932746     A.U. after   11 cycles
 Normal termination of Gaussian 16 at Sat Apr  5 23:15:05 2025.
 Gaussian 16:  ES64L-G16RevC.01  3-Jul-2019

 ----------------------------------------------------------------------
 #t hf aug-cc-pvdz iop(5/13=1,5/36=2,99/5=2) pseudo=read geom=check gue
 ss=(read,tcheck) scf=(maxcycle=1)
 ----------------------------------------------------------------------
 -----
 title
 -----
 Structure from the checkpoint file:  "perfluoropentane.chk"
 Charge =  0 Multiplicity = 1

                         Standard orientation:
 ---------------------------------------------------------------------
 Center     Atomic      Atomic             Coordinates (Angstroms)
 Number     Number       Type             X           Y           Z
 ---------------------------------------------------------------------
      1          6           0        0.000000   -0.000000    0.338951
      2          6           0       -0.058312    1.310999   -0.518663
      3          6           0        0.058312   -1.310999   -0.518663
      4          6           0        0.291389    2.615577    0.272146
      5          6           0       -0.291389   -2.615577    0.272146
      6          9           0        1.094395    0.038571    1.125903
      7          9           0       -1.094395   -0.038571    1.125903
      8          9           0        0.809009    1.215438   -1.547143
      9          9           0       -1.303708    1.452288   -1.008386
     10          9           0       -0.809009   -1.215438   -1.547143
     11          9           0        1.303708   -1.452288   -1.008386
     12          9           0       -0.000000    3.669670   -0.493082
     13          9           0       -0.000000   -3.669670   -0.493082
     14          9           0       -0.424553    2.689340    1.397413
     15          9           0        1.587918    2.657401    0.576655
     16          9           0        0.424553   -2.689340    1.397413
     17          9           0       -1.587918   -2.657401    0.576655
 ---------------------------------------------------------------------

 SCF Done:  E(RHF) =  -1384.02045242     A.U. after    2 cycles

 The electronic state is 1-A.
 Alpha  occ. eigenvalues --  -26.54917 -26.54914 -26.54774 -26.54773 -26.54747
 Alpha  occ. eigenvalues --  -26.54747 -26.54566 -26.54566 -26.54546 -26.54546
 Alpha  occ. eigenvalues --  -26.54431 -26.54431 -11.57146 -11.57136 -11.51596
 Alpha  occ. eigenvalues --  -11.51309 -11.51276  -1.76296  -1.76182  -1.73114
 Alpha  occ. eigenvalues --   -1.71463  -1.71244  -1.66493  -1.66148  -1.65641
 Alpha  occ. eigenvalues --   -1.65573  -1.65367  -1.64746  -1.64588  -1.14016
 Alpha  occ. eigenvalues --   -1.10095  -1.03548  -0.96470  -0.93345  -0.89364
 Alpha  occ. eigenvalues --   -0.88535  -0.87463  -0.86365  -0.85987  -0.85725
 Alpha  occ. eigenvalues --   -0.83832  -0.83745  -0.83221  -0.80881  -0.78734
 Alpha  occ. eigenvalues --   -0.74784  -0.74341  -0.73743  -0.73020  -0.72532
 Alpha  occ. eigenvalues --   -0.72122  -0.71890  -0.71672  -0.70957  -0.70571
 Alpha  occ. eigenvalues --   -0.69893  -0.68266  -0.67530  -0.67352  -0.66947
 Alpha  occ. eigenvalues --   -0.66683  -0.66426  -0.66062  -0.65520  -0.65447
 Alpha  occ. eigenvalues --   -0.63988  -0.62771  -0.59750  -0.53775
 Alpha virt. eigenvalues --    0.06501   0.06827   0.07456   0.08102   0.09348
 Alpha virt. eigenvalues --    0.09613   0.10169   0.10992   0.12050   0.12637
 Alpha virt. eigenvalues --    0.13240   0.13708   0.15422   0.15562   0.16504

 Mulliken charges:
               1
     1  C    1.358146
     2  C    1.517420
     3  C    1.517420
     4  C    2.686399
     5  C    2.686399
     6  F   -0.869945
     7  F   -0.869945
     8  F   -0.872558
     9  F   -0.868908
    10  F   -0.872558
    11  F   -0.868908
    12  F   -0.752080
    13  F   -0.752080
    14  F   -0.766212
    15  F   -0.753189
    16  F   -0.766212
    17  F   -0.753189
 Sum of Mulliken charges =   0.00000

 Dipole moment (field-independent basis, Debye):
    X=              0.0000    Y=             -0.0000    Z=              0.0951  Tot=              0.0951

 Test job not archived.
 1\1\GINC-SE187\SP\RHF\Aug-CC-pVDZ\C5F12\OHZDE\05-Apr-2025\0\\#t hf aug
 -cc-pvdz iop(5/13=1,5/36=2,99/5=2) pseudo=read geom=check guess=(read,
 tcheck) scf=(maxcycle=1)\\title\\0,1\C,0,0.,0.,0.338951\C,0,-0.058312,
 1.310999,-0.518663\C,0,0.058312,-1.310999,-0.518663\C,0,0.291389,2.615
 577,0.272146\C,0,-0.291389,-2.615577,0.272146\F,0,1.094395,0.038571,1.
 125903\F,0,-1.094395,-0.038571,1.125903\F,0,0.809009,1.215438,-1.54714
 3\F,0,-1.303708,1.452288,-1.008386\F,0,-0.809009,-1.215438,-1.547143\F
 ,0,1.303708,-1.452288,-1.008386\F,0,0.,3.66967,-0.493082\F,0,0.,-3.669

 Normal termination of Gaussian 16 at Sat Apr  5 23:16:02 2025.
