 Gaussian 16, Revision C.01,

 ----------------------------------------------------------------------
 #t hf aug-cc-pvdz symm=none int=(grid=ultrafine) guess=(read,tcheck) s
 table=(opt,rrhf)
 ----------------------------------------------------------------------
 -----
 title
 -----
 Symbolic Z-matrix:
 Charge =  0 Multiplicity = 1

 SCF Done:  E(RHF) =  -2093.07570818     A.U. after   12 cycles
 Normal termination of Gaussian 16 at Sat Apr  5 23:26:53 2025.
 Gaussian 16:  ES64L-G16RevC.01  3-Jul-2019

 ----------------------------------------------------------------------
 #t hf aug-cc-pvdz iop(5/13=1,5/36=2,99/5=2) pseudo=read geom=check gue
 ss=(read,tcheck) scf=(maxcycle=1)
 ----------------------------------------------------------------------
 -----
 title
 -----
 Structure from the checkpoint file:  "perfluorooctane.chk"
 Charge =  0 Multiplicity = 1

                         Standard orientation:
 ---------------------------------------------------------------------
 Center     Atomic      Atomic             Coordinates (Angstroms)
 Number     Number       Type             X           Y           Z
 ---------------------------------------------------------------------
      1          6           0       -0.643755    0.451811   -0.116063
      2          6           0        0.643754   -0.451811   -0.116065
      3          6           0       -1.971641   -0.359225    0.109674
      4          6           0        1.971641    0.359224    0.109675
      5          6           0       -3.260971    0.423128   -0.322117
      6          6           0        3.260972   -0.423127   -0.322118
      7          6           0       -4.593120   -0.161784    0.255224
      8          6           0        4.593120    0.161783    0.255225
      9          9           0       -0.717886    1.087551   -1.301534
     10          9           0       -0.534691    1.367522    0.866508
     11          9           0        0.717886   -1.087547   -1.301538
     12          9           0        0.534691   -1.367525    0.866504
     13          9           0       -2.067751   -0.666456    1.418445
     14          9           0       -1.915832   -1.502658   -0.602171
     15          9           0        2.067750    0.666452    1.418447
     16          9           0        1.915832    1.502659   -0.602167
     17          9           0       -3.354065    0.399093   -1.664116
     18          9           0       -3.170091    1.704673    0.088792
     19          9           0        3.170091   -1.704673    0.088788
     20          9           0        3.354066   -0.399089   -1.664117
     21          9           0       -5.619910    0.441189   -0.347993
     22          9           0       -4.668993   -1.475221    0.024297
     23          9           0       -4.683604    0.056486    1.566635
     24          9           0        4.668993    1.475221    0.024300
     25          9           0        5.619909   -0.441188   -0.347994
     26          9           0        4.683603   -0.056489    1.566635
 ---------------------------------------------------------------------

 SCF Done:  E(RHF) =  -2094.96551167     A.U. after    2 cycles

 The electronic state is 1-A.
 Alpha  occ. eigenvalues --  -26.54885 -26.54885 -26.54880 -26.54880 -26.54878
 Alpha  occ. eigenvalues --  -26.54878 -26.54865 -26.54864 -26.54762 -26.54762
 Alpha  occ. eigenvalues --  -26.54728 -26.54728 -26.54544 -26.54544 -26.54518
 Alpha  occ. eigenvalues --  -26.54518 -26.54407 -26.54407 -11.57120 -11.57117
 Alpha  occ. eigenvalues --  -11.51664 -11.51662 -11.51609 -11.51606 -11.51272
 Alpha  occ. eigenvalues --  -11.51261  -1.76225  -1.76211  -1.74170  -1.72975
 Alpha  occ. eigenvalues --   -1.71711  -1.71388  -1.71356  -1.71156  -1.66555
 Alpha  occ. eigenvalues --   -1.66404  -1.66062  -1.65604  -1.65584  -1.65473
 Alpha  occ. eigenvalues --   -1.65013  -1.64849  -1.64705  -1.64505  -1.14746
 Alpha  occ. eigenvalues --   -1.13086  -1.10471  -1.06761  -1.01870  -0.96885
 Alpha  occ. eigenvalues --   -0.93888  -0.92492  -0.89269  -0.88912  -0.88594
 Alpha  occ. eigenvalues --   -0.87486  -0.86630  -0.86191  -0.85909  -0.85558
 Alpha  occ. eigenvalues --   -0.84839  -0.83833  -0.83811  -0.83560  -0.82867
 Alpha  occ. eigenvalues --   -0.82020  -0.80412  -0.79119  -0.78311  -0.75105
 Alpha  occ. eigenvalues --   -0.75058  -0.74288  -0.74087  -0.73316  -0.73056
 Alpha  occ. eigenvalues --   -0.72552  -0.72416  -0.72254  -0.72002  -0.71604
 Alpha  occ. eigenvalues --   -0.71343  -0.71170  -0.70581  -0.70523  -0.70021
 Alpha  occ. eigenvalues --   -0.69544  -0.68149  -0.67606  -0.67438  -0.67293
 Alpha  occ. eigenvalues --   -0.66990  -0.66819  -0.66637  -0.66418  -0.66126
 Alpha  occ. eigenvalues --   -0.65789  -0.65472  -0.65414  -0.64111  -0.63688
 Alpha  occ. eigenvalues --   -0.63251  -0.62314  -0.60003  -0.56180  -0.52159
 Alpha virt. eigenvalues --    0.05998   0.06479   0.06932   0.07336   0.08117
 Alpha virt. eigenvalues --    0.08754   0.08946   0.09923   0.10257   0.10463
 Alpha virt. eigenvalues --    0.10972   0.11244   0.12451   0.12718   0.13139

 Mulliken charges:
               1
     1  C    1.696553
     2  C    1.696551
     3  C    1.635245
     4  C    1.635242
     5  C    1.659547
     6  C    1.659547
     7  C    2.815019
     8  C    2.815021
     9  F   -0.924453
    10  F   -0.925632
    11  F   -0.924453
    12  F   -0.925632
    13  F   -0.919038
    14  F   -0.910967
    15  F   -0.919038
    16  F   -0.910967
    17  F   -0.904926
    18  F   -0.898597
    19  F   -0.898597
    20  F   -0.904925
    21  F   -0.766074
    22  F   -0.782407
    23  F   -0.774270
    24  F   -0.782407
    25  F   -0.766074
    26  F   -0.774270
 Sum of Mulliken charges =  -0.00000

 Dipole moment (field-independent basis, Debye):
    X=              0.0000    Y=             -0.0000    Z=              0.0834  Tot=              0.0834

 Test job not archived.
 1\1\GINC-SE176\SP\RHF\Aug-CC-pVDZ\C8F18\OHZDE\05-Apr-2025\0\\#t hf aug
 -cc-pvdz iop(5/13=1,5/36=2,99/5=2) pseudo=read geom=check guess=(read,
 tcheck) scf=(maxcycle=1)\\title\\0,1\C,0,-0.643755,0.451811,-0.116063\
 C,0,0.643754,-0.451811,-0.116065\C,0,-1.971641,-0.359225,0.109674\C,0,
 1.971641,0.359224,0.109675\C,0,-3.260971,0.423128,-0.322117\C,0,3.2609
 72,-0.423127,-0.322118\C,0,-4.59312,-0.161784,0.255224\C,0,4.59312,0.1
 61783,0.255225\F,0,-0.717886,1.087551,-1.301534\F,0,-0.534691,1.367522
 ,0.866508\F,0,0.717886,-1.087547,-1.301538\F,0,0.534691,-1.367525,0.86

 Normal termination of Gaussian 16 at Sat Apr  5 23:27:43 2025.
