 Gaussian 16, Revision C.01,

 ----------------------------------------------------------------------
 #t hf aug-cc-pvdz symm=none int=(grid=ultrafine) guess=(read,tcheck) s
 table=(opt,rrhf)
 ----------------------------------------------------------------------
 -----
 title
 -----
 Symbolic Z-matrix:
 Charge =  0 Multiplicity = 1

 SCF Done:  E(RHF) =  -418.349399902     A.U. after   15 cycles
 Normal termination of Gaussian 16 at Sat Apr  5 23:13:12 2025.
 Gaussian 16:  ES64L-G16RevC.01  3-Jul-2019

 ----------------------------------------------------------------------
 #t hf aug-cc-pvdz iop(5/13=1,5/36=2,99/5=2) pseudo=read geom=check gue
 ss=(read,tcheck) scf=(maxcycle=1)
 ----------------------------------------------------------------------
 -----
 title
 -----
 Structure from the checkpoint file:  "phenyl_formate.chk"
 Charge =  0 Multiplicity = 1

                         Standard orientation:
 ---------------------------------------------------------------------
 Center     Atomic      Atomic             Coordinates (Angstroms)
 Number     Number       Type             X           Y           Z
 ---------------------------------------------------------------------
      1          6           0        2.487747    0.326580    0.218061
      2          6           0        2.045807   -0.986436    0.330087
      3          6           0        1.598711    1.325573   -0.163943
      4          6           0        0.718272   -1.302587    0.064989
      5          6           0        0.269988    1.021727   -0.434324
      6          6           0       -0.152532   -0.293089   -0.311684
      7          6           0       -2.512580   -0.121577    0.007190
      8          8           0       -2.466293    0.684083    0.887913
      9          8           0       -1.461326   -0.671192   -0.645444
     10          1           0        3.520254    0.570857    0.425766
     11          1           0        2.732232   -1.768633    0.623796
     12          1           0        1.937995    2.348421   -0.253363
     13          1           0        0.355162   -2.317509    0.142752
     14          1           0       -0.426389    1.792073   -0.729422
     15          1           0       -3.430787   -0.549489   -0.411541
 ---------------------------------------------------------------------

 SCF Done:  E(RHF) =  -418.767639308     A.U. after    2 cycles

 The electronic state is 1-A.
 Alpha  occ. eigenvalues --  -20.61294 -20.55513 -11.40618 -11.31592 -11.25392
 Alpha  occ. eigenvalues --  -11.25356 -11.25188 -11.25156 -11.24822  -1.56310
 Alpha  occ. eigenvalues --   -1.47637  -1.16768  -1.03624  -1.03298  -0.91022
 Alpha  occ. eigenvalues --   -0.85919  -0.81141  -0.74379  -0.72513  -0.69449
 Alpha  occ. eigenvalues --   -0.68218  -0.64202  -0.62036  -0.60969  -0.59028
 Alpha  occ. eigenvalues --   -0.53728  -0.53092  -0.51727  -0.47922  -0.46305
 Alpha  occ. eigenvalues --   -0.35793  -0.34988
 Alpha virt. eigenvalues --    0.03458   0.03532   0.03821   0.04874   0.05353
 Alpha virt. eigenvalues --    0.07016   0.08698   0.09768   0.10543   0.10948
 Alpha virt. eigenvalues --    0.11233   0.11631   0.13418   0.13684   0.14206

 Mulliken charges:
               1
     1  C    0.060148
     2  C    0.618605
     3  C    0.572908
     4  C   -0.189768
     5  C   -0.031905
     6  C    1.585456
     7  C    1.109107
     8  O   -0.935700
     9  O   -1.677486
    10  H   -0.217675
    11  H   -0.214431
    12  H   -0.223576
    13  H   -0.238326
    14  H   -0.303234
    15  H    0.085877
 Sum of Mulliken charges =  -0.00000

 Dipole moment (field-independent basis, Debye):
    X=              0.8594    Y=             -0.9385    Z=             -1.1649  Tot=              1.7252

 Test job not archived.
 1\1\GINC-SE225\SP\RHF\Aug-CC-pVDZ\C7H6O2\OHZDE\05-Apr-2025\0\\#t hf au
 g-cc-pvdz iop(5/13=1,5/36=2,99/5=2) pseudo=read geom=check guess=(read
 ,tcheck) scf=(maxcycle=1)\\title\\0,1\C,0,2.487747,0.32658,0.218061\C,
 0,2.045807,-0.986436,0.330087\C,0,1.598711,1.325573,-0.163943\C,0,0.71
 8272,-1.302587,0.064989\C,0,0.269988,1.021727,-0.434324\C,0,-0.152532,
 -0.293089,-0.311684\C,0,-2.51258,-0.121577,0.00719\O,0,-2.466293,0.684
 083,0.887913\O,0,-1.461326,-0.671192,-0.645444\H,0,3.520254,0.570857,0
 .425766\H,0,2.732232,-1.768633,0.623796\H,0,1.937995,2.348421,-0.25336

 Normal termination of Gaussian 16 at Sat Apr  5 23:13:34 2025.
