 Gaussian 16, Revision C.01,

 ----------------------------------------------------------------------
 #t hf aug-cc-pvdz symm=none int=(grid=ultrafine) guess=(read,tcheck) s
 table=(opt,rrhf)
 ----------------------------------------------------------------------
 -----
 title
 -----
 Symbolic Z-matrix:
 Charge =  0 Multiplicity = 1

 SCF Done:  E(RHF) =  -1007.48738937     A.U. after   15 cycles
 Normal termination of Gaussian 16 at Sat Apr  5 23:18:02 2025.
 Gaussian 16:  ES64L-G16RevC.01  3-Jul-2019

 ----------------------------------------------------------------------
 #t hf aug-cc-pvdz iop(5/13=1,5/36=2,99/5=2) pseudo=read geom=check gue
 ss=(read,tcheck) scf=(maxcycle=1)
 ----------------------------------------------------------------------
 -----
 title
 -----
 Structure from the checkpoint file:  "phenylsulfonylbenzene.chk"
 Charge =  0 Multiplicity = 1

                         Standard orientation:
 ---------------------------------------------------------------------
 Center     Atomic      Atomic             Coordinates (Angstroms)
 Number     Number       Type             X           Y           Z
 ---------------------------------------------------------------------
      1          8           0        1.182952    0.463928    2.029051
      2         16           0        0.000000   -0.000000    1.311979
      3          8           0       -1.182952   -0.463928    2.029051
      4          6           0       -0.520392    1.327106    0.212950
      5          6           0        0.409097    2.277935   -0.192069
      6          6           0        0.000000    3.304743   -1.033775
      7          6           0       -1.322848    3.373603   -1.458638
      8          6           0       -2.245249    2.421077   -1.037808
      9          6           0       -1.847361    1.389895   -0.196106
     10          6           0        0.520392   -1.327106    0.212950
     11          6           0       -0.409097   -2.277935   -0.192069
     12          6           0       -0.000000   -3.304743   -1.033775
     13          6           0        1.322848   -3.373603   -1.458638
     14          6           0        2.245249   -2.421077   -1.037808
     15          6           0        1.847361   -1.389895   -0.196106
     16          1           0        1.426580    2.222201    0.166269
     17          1           0        0.711915    4.054300   -1.350886
     18          1           0       -1.637459    4.175977   -2.112088
     19          1           0       -3.276080    2.484727   -1.358041
     20          1           0       -2.555114    0.655284    0.159175
     21          1           0       -1.426580   -2.222201    0.166269
     22          1           0       -0.711915   -4.054300   -1.350886
     23          1           0        1.637459   -4.175977   -2.112088
     24          1           0        3.276080   -2.484727   -1.358041
     25          1           0        2.555114   -0.655284    0.159175
 ---------------------------------------------------------------------

 SCF Done:  E(RHF) =  -1008.16548319     A.U. after    2 cycles

 The electronic state is 1-A.
 Alpha  occ. eigenvalues --  -94.19192 -20.53155 -20.53147 -11.28382 -11.28364
 Alpha  occ. eigenvalues --  -11.27085 -11.27081 -11.27078 -11.27075 -11.26798
 Alpha  occ. eigenvalues --  -11.26796 -11.26271 -11.26264 -11.26253 -11.26253
 Alpha  occ. eigenvalues --   -8.44392  -6.42518  -6.42309  -6.42221  -1.54405
 Alpha  occ. eigenvalues --   -1.42796  -1.18841  -1.18408  -1.07804  -1.04857
 Alpha  occ. eigenvalues --   -1.04422  -1.04286  -0.94585  -0.86493  -0.86403
 Alpha  occ. eigenvalues --   -0.86075  -0.81476  -0.75995  -0.73650  -0.69058
 Alpha  occ. eigenvalues --   -0.68058  -0.67183  -0.66947  -0.64970  -0.64699
 Alpha  occ. eigenvalues --   -0.62763  -0.62510  -0.62481  -0.55685  -0.55583
 Alpha  occ. eigenvalues --   -0.54596  -0.53167  -0.53118  -0.53083  -0.48885
 Alpha  occ. eigenvalues --   -0.48600  -0.45802  -0.43642  -0.39283  -0.37072
 Alpha  occ. eigenvalues --   -0.36582  -0.36207
 Alpha virt. eigenvalues --    0.02797   0.02831   0.03022   0.04003   0.04087
 Alpha virt. eigenvalues --    0.05443   0.05527   0.06113   0.07170   0.07724
 Alpha virt. eigenvalues --    0.08113   0.08416   0.08839   0.09500   0.09879

 Mulliken charges:
               1
     1  O   -1.801182
     2  S    4.696956
     3  O   -1.801182
     4  C    0.688353
     5  C   -0.380351
     6  C    0.406379
     7  C    0.036916
     8  C    0.407521
     9  C   -0.379704
    10  C    0.688353
    11  C   -0.380351
    12  C    0.406379
    13  C    0.036916
    14  C    0.407521
    15  C   -0.379704
    16  H   -0.322250
    17  H   -0.233618
    18  H   -0.214854
    19  H   -0.233567
    20  H   -0.322120
    21  H   -0.322250
    22  H   -0.233618
    23  H   -0.214854
    24  H   -0.233567
    25  H   -0.322120
 Sum of Mulliken charges =  -0.00000

 Dipole moment (field-independent basis, Debye):
    X=             -0.0000    Y=             -0.0000    Z=             -5.8085  Tot=              5.8085

 Test job not archived.
 1\1\GINC-SE232\SP\RHF\Aug-CC-pVDZ\C12H10O2S1\OHZDE\05-Apr-2025\0\\#t h
 f aug-cc-pvdz iop(5/13=1,5/36=2,99/5=2) pseudo=read geom=check guess=(
 read,tcheck) scf=(maxcycle=1)\\title\\0,1\O,0,1.182952,0.463928,2.0290
 51\S,0,0.,0.,1.311979\O,0,-1.182952,-0.463928,2.029051\C,0,-0.520392,1
 .327106,0.21295\C,0,0.409097,2.277935,-0.192069\C,0,0.,3.304743,-1.033
 775\C,0,-1.322848,3.373603,-1.458638\C,0,-2.245249,2.421077,-1.037808\
 C,0,-1.847361,1.389895,-0.196106\C,0,0.520392,-1.327106,0.21295\C,0,-0
 .409097,-2.277935,-0.192069\C,0,0.,-3.304743,-1.033775\C,0,1.322848,-3

 Normal termination of Gaussian 16 at Sat Apr  5 23:18:19 2025.
