 Gaussian 16, Revision C.01,

 ----------------------------------------------------------------------
 #t hf aug-cc-pvdz symm=none int=(grid=ultrafine) guess=(read,tcheck) s
 table=(opt,rrhf)
 ----------------------------------------------------------------------
 -----
 title
 -----
 Symbolic Z-matrix:
 Charge =  0 Multiplicity = 1

 SCF Done:  E(RHF) =  -340.769210580     A.U. after   15 cycles
 Normal termination of Gaussian 16 at Sat Apr  5 23:12:08 2025.
 Gaussian 16:  ES64L-G16RevC.01  3-Jul-2019

 ----------------------------------------------------------------------
 #t hf aug-cc-pvdz iop(5/13=1,5/36=2,99/5=2) pseudo=read geom=check gue
 ss=(read,tcheck) scf=(maxcycle=1)
 ----------------------------------------------------------------------
 -----
 title
 -----
 Structure from the checkpoint file:  "phenylhydrazine.chk"
 Charge =  0 Multiplicity = 1

                         Standard orientation:
 ---------------------------------------------------------------------
 Center     Atomic      Atomic             Coordinates (Angstroms)
 Number     Number       Type             X           Y           Z
 ---------------------------------------------------------------------
      1          6           0       -2.302046    0.304648    0.048681
      2          6           0       -1.844743   -1.009740    0.055890
      3          6           0       -1.374107    1.337593   -0.016270
      4          6           0       -0.487064   -1.284841   -0.001073
      5          6           0       -0.010704    1.076510   -0.076066
      6          6           0        0.447055   -0.243648   -0.073095
      7          7           0        2.746630    0.431456    0.133713
      8          7           0        1.804819   -0.563693   -0.195804
      9          1           0       -3.360760    0.517610    0.095676
     10          1           0       -2.549315   -1.829261    0.110144
     11          1           0       -1.711935    2.365825   -0.020205
     12          1           0       -0.143401   -2.312664    0.003216
     13          1           0        0.705591    1.881657   -0.126272
     14          1           0        3.542157    0.355481   -0.484296
     15          1           0        3.057771    0.357060    1.097408
     16          1           0        2.029412   -1.493179    0.130559
 ---------------------------------------------------------------------

 SCF Done:  E(RHF) =  -341.126129078     A.U. after    2 cycles

 The electronic state is 1-A.
 Alpha  occ. eigenvalues --  -15.53322 -15.52753 -11.27577 -11.23731 -11.23517
 Alpha  occ. eigenvalues --  -11.22767 -11.22160 -11.22067  -1.29332  -1.15050
 Alpha  occ. eigenvalues --   -1.08291  -1.00978  -0.97398  -0.84061  -0.81986
 Alpha  occ. eigenvalues --   -0.74359  -0.73403  -0.71681  -0.66825  -0.61995
 Alpha  occ. eigenvalues --   -0.61331  -0.58954  -0.54256  -0.51753  -0.49866
 Alpha  occ. eigenvalues --   -0.47474  -0.46270  -0.34044  -0.30705
 Alpha virt. eigenvalues --    0.02811   0.04101   0.04227   0.05019   0.05705
 Alpha virt. eigenvalues --    0.05984   0.07755   0.08019   0.10615   0.10722
 Alpha virt. eigenvalues --    0.11980   0.13178   0.13302   0.13806   0.14506

 Mulliken charges:
               1
     1  C   -0.102593
     2  C    0.391383
     3  C    0.378800
     4  C    0.292902
     5  C    0.431526
     6  C   -0.813485
     7  N   -0.027802
     8  N    0.428316
     9  H   -0.221929
    10  H   -0.230613
    11  H   -0.248375
    12  H   -0.309112
    13  H   -0.308839
    14  H    0.153126
    15  H    0.156427
    16  H    0.030266
 Sum of Mulliken charges =  -0.00000

 Dipole moment (field-independent basis, Debye):
    X=              1.8174    Y=             -1.1290    Z=              1.0466  Tot=              2.3818

 Test job not archived.
 1\1\GINC-SE232\SP\RHF\Aug-CC-pVDZ\C6H8N2\OHZDE\05-Apr-2025\0\\#t hf au
 g-cc-pvdz iop(5/13=1,5/36=2,99/5=2) pseudo=read geom=check guess=(read
 ,tcheck) scf=(maxcycle=1)\\title\\0,1\C,0,-2.302046,0.304648,0.048681\
 C,0,-1.844743,-1.00974,0.05589\C,0,-1.374107,1.337593,-0.01627\C,0,-0.
 487064,-1.284841,-0.001073\C,0,-0.010704,1.07651,-0.076066\C,0,0.44705
 5,-0.243648,-0.073095\N,0,2.74663,0.431456,0.133713\N,0,1.804819,-0.56
 3693,-0.195804\H,0,-3.36076,0.51761,0.095676\H,0,-2.549315,-1.829261,0
 .110144\H,0,-1.711935,2.365825,-0.020205\H,0,-0.143401,-2.312664,0.003

 Normal termination of Gaussian 16 at Sat Apr  5 23:12:29 2025.
