 Gaussian 16, Revision C.01,

 ----------------------------------------------------------------------
 #t hf aug-cc-pvdz symm=none int=(grid=ultrafine) guess=(read,tcheck) s
 table=(opt,rrhf)
 ----------------------------------------------------------------------
 -----
 title
 -----
 Symbolic Z-matrix:
 Charge =  0 Multiplicity = 1

 SCF Done:  E(RHF) =  -306.410158611     A.U. after   15 cycles
 Normal termination of Gaussian 16 at Sat Apr  5 23:11:59 2025.
 Gaussian 16:  ES64L-G16RevC.01  3-Jul-2019

 ----------------------------------------------------------------------
 #t hf aug-cc-pvdz iop(5/13=1,5/36=2,99/5=2) pseudo=read geom=check gue
 ss=(read,tcheck) scf=(maxcycle=1)
 ----------------------------------------------------------------------
 -----
 title
 -----
 Structure from the checkpoint file:  "phenylacetylene.chk"
 Charge =  0 Multiplicity = 1

                         Standard orientation:
 ---------------------------------------------------------------------
 Center     Atomic      Atomic             Coordinates (Angstroms)
 Number     Number       Type             X           Y           Z
 ---------------------------------------------------------------------
      1          6           0        0.000000   -0.000000    0.592096
      2          6           0        0.000000   -0.000000    2.018067
      3          6           0        0.000000    1.207433   -0.119647
      4          6           0       -0.000000   -1.207433   -0.119647
      5          6           0        0.000000    1.203152   -1.506425
      6          6           0       -0.000000   -1.203152   -1.506425
      7          6           0        0.000000    0.000000   -2.204188
      8          6           0        0.000000   -0.000000    3.219986
      9          1           0        0.000000   -0.000000    4.280998
     10          1           0        0.000000    2.140945    0.425266
     11          1           0       -0.000000   -2.140945    0.425266
     12          1           0        0.000000    2.141685   -2.044307
     13          1           0       -0.000000   -2.141685   -2.044307
     14          1           0        0.000000    0.000000   -3.285824
 ---------------------------------------------------------------------

 SCF Done:  E(RHF) =  -306.725371109     A.U. after    2 cycles

 The electronic state is 1-A1.
 Alpha  occ. eigenvalues --  -11.27096 -11.25414 -11.25413 -11.25245 -11.24992
 Alpha  occ. eigenvalues --  -11.24978 -11.24827 -11.24056  -1.17181  -1.06949
 Alpha  occ. eigenvalues --   -1.02871  -1.00314  -0.86545  -0.84634  -0.76038
 Alpha  occ. eigenvalues --   -0.71738  -0.67699  -0.65747  -0.62417  -0.61003
 Alpha  occ. eigenvalues --   -0.53562  -0.53215  -0.51813  -0.44068  -0.40914
 Alpha  occ. eigenvalues --   -0.35635  -0.33110
 Alpha virt. eigenvalues --    0.03336   0.03642   0.03728   0.04609   0.05570
 Alpha virt. eigenvalues --    0.06983   0.07147   0.09914   0.10346   0.10857
 Alpha virt. eigenvalues --    0.10949   0.11931   0.12145   0.13895   0.14319

 Mulliken charges:
               1
     1  C    1.203500
     2  C    0.649763
     3  C   -0.051456
     4  C   -0.051456
     5  C    0.021274
     6  C    0.021274
     7  C   -0.138630
     8  C    0.067364
     9  H   -0.447441
    10  H   -0.303330
    11  H   -0.303330
    12  H   -0.223996
    13  H   -0.223996
    14  H   -0.219541
 Sum of Mulliken charges =  -0.00000

 Dipole moment (field-independent basis, Debye):
    X=              0.0000    Y=              0.0000    Z=             -0.7615  Tot=              0.7615

 Test job not archived.
 1\1\GINC-SE226\SP\RHF\Aug-CC-pVDZ\C8H6\OHZDE\05-Apr-2025\0\\#t hf aug-
 cc-pvdz iop(5/13=1,5/36=2,99/5=2) pseudo=read geom=check guess=(read,t
 check) scf=(maxcycle=1)\\title\\0,1\C,0,0.,0.,0.592096\C,0,0.,0.,2.018
 067\C,0,0.,1.207433,-0.119647\C,0,0.,-1.207433,-0.119647\C,0,0.,1.2031
 52,-1.506425\C,0,0.,-1.203152,-1.506425\C,0,0.,0.,-2.204188\C,0,0.,0.,
 3.219986\H,0,0.,0.,4.280998\H,0,0.,2.140945,0.425266\H,0,0.,-2.140945,
 0.425266\H,0,0.,2.141685,-2.044307\H,0,0.,-2.141685,-2.044307\H,0,0.,0
 .,-3.285824\\Version=ES64L-G16RevC.01\State=1-A1\HF=-306.7253711\RMSD=

 Normal termination of Gaussian 16 at Sat Apr  5 23:12:29 2025.
