 Gaussian 16, Revision C.01,

 ----------------------------------------------------------------------
 #t hf aug-cc-pvdz symm=none int=(grid=ultrafine) guess=(read,tcheck) s
 table=(opt,rrhf)
 ----------------------------------------------------------------------
 -----
 title
 -----
 Symbolic Z-matrix:
 Charge =  0 Multiplicity = 1

 SCF Done:  E(RHF) =  -551.490690691     A.U. after   15 cycles
 Normal termination of Gaussian 16 at Sat Apr  5 23:15:40 2025.
 Gaussian 16:  ES64L-G16RevC.01  3-Jul-2019

 ----------------------------------------------------------------------
 #t hf aug-cc-pvdz iop(5/13=1,5/36=2,99/5=2) pseudo=read geom=check gue
 ss=(read,tcheck) scf=(maxcycle=1)
 ----------------------------------------------------------------------
 -----
 title
 -----
 Structure from the checkpoint file:  "phenylalanine.chk"
 Charge =  0 Multiplicity = 1

                         Standard orientation:
 ---------------------------------------------------------------------
 Center     Atomic      Atomic             Coordinates (Angstroms)
 Number     Number       Type             X           Y           Z
 ---------------------------------------------------------------------
      1          7           0       -1.339042    1.450654   -0.784825
      2          6           0       -1.389756    0.054525   -0.330039
      3          6           0       -2.841838   -0.324033    0.031390
      4          8           0       -3.133850   -1.336349    0.609477
      5          8           0       -3.754709    0.560078   -0.391499
      6          1           0       -3.240979    1.282550   -0.814313
      7          6           0       -0.428785   -0.303489    0.819231
      8          6           0        1.025254   -0.197841    0.432381
      9          6           0        1.621881   -1.185950   -0.355385
     10          6           0        2.953581   -1.088667   -0.737089
     11          6           0        3.718469    0.001996   -0.335343
     12          6           0        3.141002    0.988624    0.453392
     13          6           0        1.805840    0.886727    0.832293
     14          1           0       -1.147606   -0.573924   -1.190629
     15          1           0       -0.639640    0.355030    1.665991
     16          1           0       -0.667999   -1.315484    1.143917
     17          1           0        1.040607   -2.046855   -0.662923
     18          1           0        3.397501   -1.868361   -1.341580
     19          1           0        4.756749    0.076482   -0.628637
     20          1           0        3.729078    1.836137    0.779435
     21          1           0        1.370663    1.654866    1.459995
     22          1           0       -1.109294    2.078090   -0.023130
     23          1           0       -0.641205    1.585711   -1.503173
 ---------------------------------------------------------------------

 SCF Done:  E(RHF) =  -552.053754176     A.U. after    2 cycles

 The electronic state is 1-A.
 Alpha  occ. eigenvalues --  -20.58469 -20.52554 -15.52666 -11.38410 -11.30202
 Alpha  occ. eigenvalues --  -11.26044 -11.25530 -11.25441 -11.25408 -11.25214
 Alpha  occ. eigenvalues --  -11.25090 -11.25077  -1.53435  -1.44656  -1.22703
 Alpha  occ. eigenvalues --   -1.17090  -1.07364  -1.02933  -1.00514  -0.91715
 Alpha  occ. eigenvalues --   -0.84982  -0.82372  -0.80822  -0.76222  -0.72246
 Alpha  occ. eigenvalues --   -0.71723  -0.68475  -0.66541  -0.65367  -0.63810
 Alpha  occ. eigenvalues --   -0.62269  -0.61127  -0.59948  -0.58446  -0.55910
 Alpha  occ. eigenvalues --   -0.53892  -0.51869  -0.51047  -0.50902  -0.48881
 Alpha  occ. eigenvalues --   -0.45949  -0.42734  -0.35901  -0.35058
 Alpha virt. eigenvalues --    0.02409   0.02923   0.03273   0.04049   0.04734
 Alpha virt. eigenvalues --    0.05425   0.06038   0.06133   0.06998   0.08115
 Alpha virt. eigenvalues --    0.09057   0.09234   0.09716   0.10453   0.11208

 Mulliken charges:
               1
     1  N    0.237327
     2  C   -1.708702
     3  C    2.445953
     4  O   -1.340148
     5  O   -1.354287
     6  H    0.489725
     7  C   -0.606236
     8  C    1.635000
     9  C    0.293303
    10  C   -0.070740
    11  C    0.212341
    12  C    0.030220
    13  C    0.151305
    14  H    0.285029
    15  H    0.068612
    16  H    0.054786
    17  H   -0.361909
    18  H   -0.240823
    19  H   -0.224412
    20  H   -0.244553
    21  H   -0.335673
    22  H    0.294634
    23  H    0.289247
 Sum of Mulliken charges =  -0.00000

 Dipole moment (field-independent basis, Debye):
    X=              4.5422    Y=              2.8066    Z=             -1.4332  Tot=              5.5284

 Test job not archived.
 1\1\GINC-SE231\SP\RHF\Aug-CC-pVDZ\C9H11N1O2\OHZDE\05-Apr-2025\0\\#t hf
  aug-cc-pvdz iop(5/13=1,5/36=2,99/5=2) pseudo=read geom=check guess=(r
 ead,tcheck) scf=(maxcycle=1)\\title\\0,1\N,0,-1.339042,1.450654,-0.784
 825\C,0,-1.389756,0.054525,-0.330039\C,0,-2.841838,-0.324033,0.03139\O
 ,0,-3.13385,-1.336349,0.609477\O,0,-3.754709,0.560078,-0.391499\H,0,-3
 .240979,1.28255,-0.814313\C,0,-0.428785,-0.303489,0.819231\C,0,1.02525
 4,-0.197841,0.432381\C,0,1.621881,-1.18595,-0.355385\C,0,2.953581,-1.0
 88667,-0.737089\C,0,3.718469,0.001996,-0.335343\C,0,3.141002,0.988624,

 Normal termination of Gaussian 16 at Sat Apr  5 23:16:10 2025.
