 Gaussian 16, Revision C.01,

 ----------------------------------------------------------------------
 #t hf aug-cc-pvdz symm=none int=(grid=ultrafine) guess=(read,tcheck) s
 table=(opt,rrhf)
 ----------------------------------------------------------------------
 -----
 title
 -----
 Symbolic Z-matrix:
 Charge =  0 Multiplicity = 1

 SCF Done:  E(RHF) =  -568.046716114     A.U. after   14 cycles

 1\1\GINC-SE198\Stability\RHF\Aug-CC-pVDZ\C12H8N2\OHZDE\05-Apr-2025\0\\
 #t hf aug-cc-pvdz symm=none int=(grid=ultrafine) guess=(read,tcheck) s
 table=(opt,rrhf)\\title\\0,1\C,0,0.,1.14135,0.720815\C,0,0.,1.14135,-0
 .720815\N,0,0.,0.,1.415067\C,0,0.,2.387462,1.410508\N,0,0.,0.,-1.41506
 7\C,0,0.,2.387462,-1.410508\C,0,0.,-1.14135,0.720815\C,0,0.,3.557969,0
 .711879\C,0,0.,-1.14135,-0.720815\C,0,0.,3.557969,-0.711879\C,0,0.,-2.
 387462,1.410508\C,0,0.,-2.387462,-1.410508\C,0,0.,-3.557969,0.711879\C
 ,0,0.,-3.557969,-0.711879\H,0,0.,2.364656,2.491337\H,0,0.,2.364656,-2.

 Normal termination of Gaussian 16 at Sat Apr  5 23:16:03 2025.
 Gaussian 16:  ES64L-G16RevC.01  3-Jul-2019

 ----------------------------------------------------------------------
 #t hf aug-cc-pvdz iop(5/13=1,5/36=2,99/5=2) pseudo=read geom=check gue
 ss=(read,tcheck) scf=(maxcycle=1)
 ----------------------------------------------------------------------
 -----
 title
 -----
 Structure from the checkpoint file:  "phenazine.chk"
 Charge =  0 Multiplicity = 1

                         Standard orientation:
 ---------------------------------------------------------------------
 Center     Atomic      Atomic             Coordinates (Angstroms)
 Number     Number       Type             X           Y           Z
 ---------------------------------------------------------------------
      1          6           0        0.000000    1.141350    0.720815
      2          6           0        0.000000    1.141350   -0.720815
      3          7           0        0.000000    0.000000    1.415067
      4          6           0        0.000000    2.387462    1.410508
      5          7           0        0.000000    0.000000   -1.415067
      6          6           0        0.000000    2.387462   -1.410508
      7          6           0       -0.000000   -1.141350    0.720815
      8          6           0        0.000000    3.557969    0.711879
      9          6           0       -0.000000   -1.141350   -0.720815
     10          6           0        0.000000    3.557969   -0.711879
     11          6           0       -0.000000   -2.387462    1.410508
     12          6           0       -0.000000   -2.387462   -1.410508
     13          6           0       -0.000000   -3.557969    0.711879
     14          6           0       -0.000000   -3.557969   -0.711879
     15          1           0        0.000000    2.364656    2.491337
     16          1           0        0.000000    2.364656   -2.491337
     17          1           0        0.000000    4.502732    1.238686
     18          1           0        0.000000    4.502732   -1.238686
     19          1           0       -0.000000   -2.364656    2.491337
     20          1           0       -0.000000   -2.364656   -2.491337
     21          1           0       -0.000000   -4.502732    1.238686
     22          1           0       -0.000000   -4.502732   -1.238686
 ---------------------------------------------------------------------

 SCF Done:  E(RHF) =  -568.617677756     A.U. after    2 cycles

 The electronic state is 1-AG.
 Alpha  occ. eigenvalues --  -15.52707 -15.52593 -11.28983 -11.28983 -11.28950
 Alpha  occ. eigenvalues --  -11.28940 -11.25818 -11.25808 -11.25756 -11.25754
 Alpha  occ. eigenvalues --  -11.25198 -11.25187 -11.25148 -11.25147  -1.30842
 Alpha  occ. eigenvalues --   -1.22933  -1.16590  -1.13794  -1.04930  -1.03415
 Alpha  occ. eigenvalues --   -1.01541  -0.94166  -0.90311  -0.85556  -0.83333
 Alpha  occ. eigenvalues --   -0.78854  -0.78341  -0.71256  -0.70484  -0.67759
 Alpha  occ. eigenvalues --   -0.66466  -0.62893  -0.62646  -0.61969  -0.61713
 Alpha  occ. eigenvalues --   -0.57360  -0.55436  -0.53818  -0.53468  -0.52520
 Alpha  occ. eigenvalues --   -0.51952  -0.50286  -0.45321  -0.43665  -0.36899
 Alpha  occ. eigenvalues --   -0.33244  -0.31588
 Alpha virt. eigenvalues --   -0.00085   0.03161   0.03491   0.03790   0.03901
 Alpha virt. eigenvalues --    0.04084   0.06269   0.06686   0.08182   0.08304
 Alpha virt. eigenvalues --    0.08927   0.10540   0.10675   0.11096   0.11273

 Mulliken charges:
               1
     1  C   -2.593203
     2  C   -2.593203
     3  N    1.863462
     4  C    1.663184
     5  N    1.863462
     6  C    1.663184
     7  C   -2.593203
     8  C    0.519010
     9  C   -2.593203
    10  C    0.519010
    11  C    1.663184
    12  C    1.663184
    13  C    0.519010
    14  C    0.519010
    15  H   -0.277425
    16  H   -0.277425
    17  H   -0.243296
    18  H   -0.243296
    19  H   -0.277425
    20  H   -0.277425
    21  H   -0.243296
    22  H   -0.243296
 Sum of Mulliken charges =   0.00000

 Dipole moment (field-independent basis, Debye):
    X=              0.0000    Y=              0.0000    Z=              0.0000  Tot=              0.0000

 Test job not archived.
 1\1\GINC-SE198\SP\RHF\Aug-CC-pVDZ\C12H8N2\OHZDE\05-Apr-2025\0\\#t hf a
 ug-cc-pvdz iop(5/13=1,5/36=2,99/5=2) pseudo=read geom=check guess=(rea
 d,tcheck) scf=(maxcycle=1)\\title\\0,1\C,0,0.,1.14135,0.720815\C,0,0.,
 1.14135,-0.720815\N,0,0.,0.,1.415067\C,0,0.,2.387462,1.410508\N,0,0.,0
 .,-1.415067\C,0,0.,2.387462,-1.410508\C,0,0.,-1.14135,0.720815\C,0,0.,
 3.557969,0.711879\C,0,0.,-1.14135,-0.720815\C,0,0.,3.557969,-0.711879\
 C,0,0.,-2.387462,1.410508\C,0,0.,-2.387462,-1.410508\C,0,0.,-3.557969,
 0.711879\C,0,0.,-3.557969,-0.711879\H,0,0.,2.364656,2.491337\H,0,0.,2.

 Normal termination of Gaussian 16 at Sat Apr  5 23:16:17 2025.
