 Gaussian 16, Revision C.01,

 ----------------------------------------------------------------------
 #t hf aug-cc-pvdz symm=none int=(grid=ultrafine) guess=(read,tcheck) s
 table=(opt,rrhf)
 ----------------------------------------------------------------------
 -----
 title
 -----
 Symbolic Z-matrix:
 Charge =  0 Multiplicity = 1

 SCF Done:  E(RHF) =  -305.601885024     A.U. after   14 cycles
 Normal termination of Gaussian 16 at Sat Apr  5 23:11:44 2025.
 Gaussian 16:  ES64L-G16RevC.01  3-Jul-2019

 ----------------------------------------------------------------------
 #t hf aug-cc-pvdz iop(5/13=1,5/36=2,99/5=2) pseudo=read geom=check gue
 ss=(read,tcheck) scf=(maxcycle=1)
 ----------------------------------------------------------------------
 -----
 title
 -----
 Structure from the checkpoint file:  "phenol.chk"
 Charge =  0 Multiplicity = 1

                         Standard orientation:
 ---------------------------------------------------------------------
 Center     Atomic      Atomic             Coordinates (Angstroms)
 Number     Number       Type             X           Y           Z
 ---------------------------------------------------------------------
      1          6           0        0.021569   -1.850874    0.000000
      2          6           0       -1.183942   -1.160029    0.000000
      3          6           0        1.216077   -1.136120    0.000000
      4          6           0       -1.200429    0.230252    0.000000
      5          6           0        1.212740    0.251632    0.000000
      6          6           0        0.000000    0.935940    0.000000
      7          8           0        0.048212    2.303596    0.000000
      8          1           0        0.031441   -2.931667    0.000000
      9          1           0       -2.120454   -1.701426    0.000000
     10          1           0        2.160924   -1.662963    0.000000
     11          1           0       -2.142899    0.765406    0.000000
     12          1           0        2.134448    0.816335    0.000000
     13          1           0       -0.845249    2.660743    0.000000
 ---------------------------------------------------------------------

 SCF Done:  E(RHF) =  -305.915776523     A.U. after    2 cycles

 The electronic state is 1-A'.
 Alpha  occ. eigenvalues --  -20.58091 -11.30988 -11.24976 -11.24781 -11.24166
 Alpha  occ. eigenvalues --  -11.23585 -11.23465  -1.49355  -1.15391  -1.02445
 Alpha  occ. eigenvalues --   -1.01068  -0.85661  -0.83326  -0.74358  -0.69673
 Alpha  occ. eigenvalues --   -0.66300  -0.62301  -0.60550  -0.58921  -0.57426
 Alpha  occ. eigenvalues --   -0.52822  -0.50506  -0.48960  -0.35307  -0.32384
 Alpha virt. eigenvalues --    0.03160   0.03738   0.04047   0.05215   0.05629
 Alpha virt. eigenvalues --    0.07989   0.10021   0.11228   0.11866   0.12562
 Alpha virt. eigenvalues --    0.13359   0.13937   0.14295   0.14485   0.14736

 Mulliken charges:
               1
     1  C   -0.068613
     2  C    0.482388
     3  C    0.605145
     4  C   -0.279382
     5  C   -0.091315
     6  C    1.877103
     7  O   -1.735435
     8  H   -0.221570
     9  H   -0.212740
    10  H   -0.217953
    11  H   -0.323788
    12  H   -0.220182
    13  H    0.406342
 Sum of Mulliken charges =  -0.00000

 Dipole moment (field-independent basis, Debye):
    X=             -1.3215    Y=             -0.1770    Z=              0.0000  Tot=              1.3333

 Test job not archived.
 1\1\GINC-SE199\SP\RHF\Aug-CC-pVDZ\C6H6O1\OHZDE\05-Apr-2025\0\\#t hf au
 g-cc-pvdz iop(5/13=1,5/36=2,99/5=2) pseudo=read geom=check guess=(read
 ,tcheck) scf=(maxcycle=1)\\title\\0,1\C,0,0.021569,-1.850874,0.\C,0,-1
 .183942,-1.160029,0.\C,0,1.216077,-1.13612,0.\C,0,-1.200429,0.230252,0
 .\C,0,1.21274,0.251632,0.\C,0,0.,0.93594,0.\O,0,0.048212,2.303596,0.\H
 ,0,0.031441,-2.931667,0.\H,0,-2.120454,-1.701426,0.\H,0,2.160924,-1.66
 2963,0.\H,0,-2.142899,0.765406,0.\H,0,2.134448,0.816335,0.\H,0,-0.8452
 49,2.660743,0.\\Version=ES64L-G16RevC.01\State=1-A'\HF=-305.9157765\RM

 Normal termination of Gaussian 16 at Sat Apr  5 23:12:24 2025.
