 Gaussian 16, Revision C.01,

 ----------------------------------------------------------------------
 #t hf aug-cc-pvdz symm=none int=(grid=ultrafine) guess=(read,tcheck) s
 table=(opt,rrhf)
 ----------------------------------------------------------------------
 -----
 title
 -----
 Symbolic Z-matrix:
 Charge =  0 Multiplicity = 1

 SCF Done:  E(RHF) =  -1031.74610413     A.U. after   12 cycles

 1\1\GINC-SE168\Stability\RHF\Aug-CC-pVDZ\C1Cl2O1\OHZDE\05-Apr-2025\0\\
 #t hf aug-cc-pvdz symm=none int=(grid=ultrafine) guess=(read,tcheck) s
 table=(opt,rrhf)\\title\\0,1\O,0,0.,0.,1.676657\C,0,0.,0.,0.503213\Cl,
 0,0.,1.457697,-0.48331\Cl,0,0.,-1.457697,-0.48331\\Version=ES64L-G16Re
 vC.01\HF=-1031.7461041\RMSD=8.304e-09\Dipole=0.,0.,-0.556802\Quadrupol
 e=0.7624777,1.4599061,-2.2223839,0.,0.,0.\PG=Unknown\\@
 The archive entry for this job was punched.

 Normal termination of Gaussian 16 at Sat Apr  5 23:12:31 2025.
 Gaussian 16:  ES64L-G16RevC.01  3-Jul-2019

 ----------------------------------------------------------------------
 #t hf aug-cc-pvdz iop(5/13=1,5/36=2,99/5=2) pseudo=read geom=check gue
 ss=(read,tcheck) scf=(maxcycle=1)
 ----------------------------------------------------------------------
 -----
 title
 -----
 Structure from the checkpoint file:  "phosgene.chk"
 Charge =  0 Multiplicity = 1

                         Standard orientation:
 ---------------------------------------------------------------------
 Center     Atomic      Atomic             Coordinates (Angstroms)
 Number     Number       Type             X           Y           Z
 ---------------------------------------------------------------------
      1          8           0        0.000000   -0.000000    1.676657
      2          6           0        0.000000   -0.000000    0.503213
      3         17           0        0.000000    1.457697   -0.483310
      4         17           0       -0.000000   -1.457697   -0.483310
 ---------------------------------------------------------------------

 SCF Done:  E(RHF) =  -1032.00199762     A.U. after    2 cycles

 The electronic state is 1-A1.
 Alpha  occ. eigenvalues -- -105.62124-105.62123 -20.61817 -11.48931 -10.66984
 Alpha  occ. eigenvalues --  -10.66982  -7.83932  -7.83920  -7.83494  -7.83492
 Alpha  occ. eigenvalues --   -7.83470  -7.83468  -1.57433  -1.17064  -1.09792
 Alpha  occ. eigenvalues --   -0.81674  -0.71574  -0.71016  -0.65630  -0.54042
 Alpha  occ. eigenvalues --   -0.51189  -0.50584  -0.49923  -0.48296
 Alpha virt. eigenvalues --    0.05689   0.08055   0.08694   0.09125   0.10465
 Alpha virt. eigenvalues --    0.11027   0.12700   0.14426   0.15134   0.15442
 Alpha virt. eigenvalues --    0.17624   0.18030   0.25967   0.26310   0.28232

 Mulliken charges:
               1
     1  O   -0.738696
     2  C    0.479239
     3  Cl   0.129729
     4  Cl   0.129729
 Sum of Mulliken charges =  -0.00000

 Dipole moment (field-independent basis, Debye):
    X=             -0.0000    Y=              0.0000    Z=             -1.2226  Tot=              1.2226

 Test job not archived.
 1\1\GINC-SE168\SP\RHF\Aug-CC-pVDZ\C1Cl2O1\OHZDE\05-Apr-2025\0\\#t hf a
 ug-cc-pvdz iop(5/13=1,5/36=2,99/5=2) pseudo=read geom=check guess=(rea
 d,tcheck) scf=(maxcycle=1)\\title\\0,1\O,0,0.,0.,1.676657\C,0,0.,0.,0.
 503213\Cl,0,0.,1.457697,-0.48331\Cl,0,0.,-1.457697,-0.48331\\Version=E
 S64L-G16RevC.01\State=1-A1\HF=-1032.0019976\RMSD=5.891e-03\Dipole=0.,0
 .,-0.4810179\Quadrupole=0.6369731,1.378114,-2.0150871,0.,0.,0.\PG=C02V
  [C2(C1O1),SGV(Cl2)]\\@

 Normal termination of Gaussian 16 at Sat Apr  5 23:12:34 2025.
