 Gaussian 16, Revision C.01,

 ----------------------------------------------------------------------
 #t hf aug-cc-pvdz symm=none int=(grid=ultrafine) guess=(read,tcheck) s
 table=(opt,rrhf)
 ----------------------------------------------------------------------
 -----
 title
 -----
 Symbolic Z-matrix:
 Charge =  0 Multiplicity = 1

 SCF Done:  E(RHF) =  -415.352407149     A.U. after   16 cycles
 Normal termination of Gaussian 16 at Sat Apr  5 23:12:40 2025.
 Gaussian 16:  ES64L-G16RevC.01  3-Jul-2019

 ----------------------------------------------------------------------
 #t hf aug-cc-pvdz iop(5/13=1,5/36=2,99/5=2) pseudo=read geom=check gue
 ss=(read,tcheck) scf=(maxcycle=1)
 ----------------------------------------------------------------------
 -----
 title
 -----
 Structure from the checkpoint file:  "phthalazine.chk"
 Charge =  0 Multiplicity = 1

                         Standard orientation:
 ---------------------------------------------------------------------
 Center     Atomic      Atomic             Coordinates (Angstroms)
 Number     Number       Type             X           Y           Z
 ---------------------------------------------------------------------
      1          6           0        0.000000    0.705485   -0.012772
      2          6           0        0.000000    1.324526   -1.289733
      3          6           0       -0.000000   -0.705485   -0.012772
      4          7           0        0.000000    0.681794   -2.426927
      5          6           0       -0.000000   -1.324526   -1.289733
      6          7           0       -0.000000   -0.681794   -2.426927
      7          6           0        0.000000    1.404939    1.211306
      8          6           0        0.000000    0.705423    2.392790
      9          6           0       -0.000000   -0.705423    2.392790
     10          6           0       -0.000000   -1.404939    1.211306
     11          1           0        0.000000   -2.407381   -1.364362
     12          1           0        0.000000    2.407381   -1.364362
     13          1           0        0.000000   -1.235415    3.335672
     14          1           0        0.000000    1.235415    3.335672
     15          1           0        0.000000   -2.487234    1.207629
     16          1           0        0.000000    2.487234    1.207629
 ---------------------------------------------------------------------

 SCF Done:  E(RHF) =  -415.769584210     A.U. after    2 cycles

 The electronic state is 1-A1.
 Alpha  occ. eigenvalues --  -15.54270 -15.53717 -11.29040 -11.29013 -11.27521
 Alpha  occ. eigenvalues --  -11.27456 -11.27227 -11.27183 -11.27112 -11.27097
 Alpha  occ. eigenvalues --   -1.33081  -1.18878  -1.14080  -1.07568  -1.05208
 Alpha  occ. eigenvalues --   -0.92940  -0.90801  -0.86529  -0.77064  -0.75057
 Alpha  occ. eigenvalues --   -0.73093  -0.66375  -0.66344  -0.63645  -0.62748
 Alpha  occ. eigenvalues --   -0.60982  -0.56983  -0.54570  -0.52565  -0.49439
 Alpha  occ. eigenvalues --   -0.45341  -0.44058  -0.38163  -0.35069
 Alpha virt. eigenvalues --    0.02561   0.02884   0.03598   0.04621   0.05060
 Alpha virt. eigenvalues --    0.05380   0.06041   0.07510   0.08435   0.08887
 Alpha virt. eigenvalues --    0.09046   0.11451   0.11882   0.12209   0.12879

 Mulliken charges:
               1
     1  C    1.171754
     2  C   -1.211758
     3  C    1.171754
     4  N    0.280690
     5  C   -1.211758
     6  N    0.280690
     7  C    0.622301
     8  C   -0.163090
     9  C   -0.163090
    10  C    0.622301
    11  H   -0.181478
    12  H   -0.181478
    13  H   -0.247119
    14  H   -0.247119
    15  H   -0.271300
    16  H   -0.271300
 Sum of Mulliken charges =   0.00000

 Dipole moment (field-independent basis, Debye):
    X=             -0.0000    Y=              0.0000    Z=              6.4100  Tot=              6.4100

 Test job not archived.
 1\1\GINC-SE169\SP\RHF\Aug-CC-pVDZ\C8H6N2\OHZDE\05-Apr-2025\0\\#t hf au
 g-cc-pvdz iop(5/13=1,5/36=2,99/5=2) pseudo=read geom=check guess=(read
 ,tcheck) scf=(maxcycle=1)\\title\\0,1\C,0,0.,0.705485,-0.012772\C,0,0.
 ,1.324526,-1.289733\C,0,0.,-0.705485,-0.012772\N,0,0.,0.681794,-2.4269
 27\C,0,0.,-1.324526,-1.289733\N,0,0.,-0.681794,-2.426927\C,0,0.,1.4049
 39,1.211306\C,0,0.,0.705423,2.39279\C,0,0.,-0.705423,2.39279\C,0,0.,-1
 .404939,1.211306\H,0,0.,-2.407381,-1.364362\H,0,0.,2.407381,-1.364362\
 H,0,0.,-1.235415,3.335672\H,0,0.,1.235415,3.335672\H,0,0.,-2.487234,1.

 Normal termination of Gaussian 16 at Sat Apr  5 23:12:46 2025.
