 Gaussian 16, Revision C.01,

 ----------------------------------------------------------------------
 #t hf aug-cc-pvdz symm=none int=(grid=ultrafine) guess=(read,tcheck) s
 table=(opt,rrhf)
 ----------------------------------------------------------------------
 -----
 title
 -----
 Symbolic Z-matrix:
 Charge =  0 Multiplicity = 1

 SCF Done:  E(RHF) =  -266.209854888     A.U. after   11 cycles

 1\1\GINC-SE171\Stability\RHF\Aug-CC-pVDZ\C4H10N2\OHZDE\05-Apr-2025\0\\
 #t hf aug-cc-pvdz symm=none int=(grid=ultrafine) guess=(read,tcheck) s
 table=(opt,rrhf)\\title\\0,1\C,0,-0.834927,0.310226,-1.120699\C,0,-0.8
 63686,-1.052974,-0.441012\C,0,0.863686,1.052974,0.441012\C,0,0.834927,
 -0.310226,1.120699\N,0,-0.450116,1.325039,-0.140555\N,0,0.450116,-1.32
 5039,0.140555\H,0,-0.13626,0.260567,-1.970344\H,0,-1.825522,0.552488,-
 1.508068\H,0,-1.664933,-1.048703,0.31425\H,0,-1.091286,-1.828069,-1.17
 4163\H,0,1.091286,1.828069,1.174163\H,0,1.664933,1.048703,-0.31425\H,0

 Normal termination of Gaussian 16 at Sat Apr  5 23:12:47 2025.
 Gaussian 16:  ES64L-G16RevC.01  3-Jul-2019

 ----------------------------------------------------------------------
 #t hf aug-cc-pvdz iop(5/13=1,5/36=2,99/5=2) pseudo=read geom=check gue
 ss=(read,tcheck) scf=(maxcycle=1)
 ----------------------------------------------------------------------
 -----
 title
 -----
 Structure from the checkpoint file:  "piperazine.chk"
 Charge =  0 Multiplicity = 1

                         Standard orientation:
 ---------------------------------------------------------------------
 Center     Atomic      Atomic             Coordinates (Angstroms)
 Number     Number       Type             X           Y           Z
 ---------------------------------------------------------------------
      1          6           0       -0.834927    0.310226   -1.120699
      2          6           0       -0.863686   -1.052974   -0.441012
      3          6           0        0.863686    1.052974    0.441012
      4          6           0        0.834927   -0.310226    1.120699
      5          7           0       -0.450116    1.325039   -0.140555
      6          7           0        0.450116   -1.325039    0.140555
      7          1           0       -0.136260    0.260567   -1.970344
      8          1           0       -1.825522    0.552488   -1.508068
      9          1           0       -1.664933   -1.048703    0.314250
     10          1           0       -1.091286   -1.828069   -1.174163
     11          1           0        1.091286    1.828069    1.174163
     12          1           0        1.664933    1.048703   -0.314250
     13          1           0        1.825522   -0.552488    1.508068
     14          1           0        0.136260   -0.260567    1.970344
     15          1           0       -0.474735    2.247690   -0.552801
     16          1           0        0.474735   -2.247690    0.552801
 ---------------------------------------------------------------------

 SCF Done:  E(RHF) =  -266.498395565     A.U. after    2 cycles

 The electronic state is 1-AG.
 Alpha  occ. eigenvalues --  -15.47834 -15.47770 -11.24821 -11.24802 -11.24796
 Alpha  occ. eigenvalues --  -11.24780  -1.23093  -1.16491  -1.02503  -0.92193
 Alpha  occ. eigenvalues --   -0.86713  -0.76958  -0.72774  -0.66780  -0.63493
 Alpha  occ. eigenvalues --   -0.62053  -0.61014  -0.58994  -0.54640  -0.49720
 Alpha  occ. eigenvalues --   -0.49290  -0.48151  -0.40872  -0.39070
 Alpha virt. eigenvalues --    0.03917   0.04212   0.04749   0.05035   0.05274
 Alpha virt. eigenvalues --    0.05580   0.05735   0.06236   0.09427   0.10184
 Alpha virt. eigenvalues --    0.11225   0.12952   0.13438   0.15003   0.15259

 Mulliken charges:
               1
     1  C   -0.388922
     2  C   -0.388754
     3  C   -0.388754
     4  C   -0.388922
     5  N    0.302445
     6  N    0.302445
     7  H    0.111271
     8  H    0.024639
     9  H    0.110781
    10  H    0.024761
    11  H    0.024761
    12  H    0.110781
    13  H    0.024639
    14  H    0.111271
    15  H    0.203778
    16  H    0.203778
 Sum of Mulliken charges =  -0.00000

 Dipole moment (field-independent basis, Debye):
    X=             -0.0000    Y=              0.0000    Z=              0.0000  Tot=              0.0000

 Test job not archived.
 1\1\GINC-SE171\SP\RHF\Aug-CC-pVDZ\C4H10N2\OHZDE\05-Apr-2025\0\\#t hf a
 ug-cc-pvdz iop(5/13=1,5/36=2,99/5=2) pseudo=read geom=check guess=(rea
 d,tcheck) scf=(maxcycle=1)\\title\\0,1\C,0,-0.834927,0.310226,-1.12069
 9\C,0,-0.863686,-1.052974,-0.441012\C,0,0.863686,1.052974,0.441012\C,0
 ,0.834927,-0.310226,1.120699\N,0,-0.450116,1.325039,-0.140555\N,0,0.45
 0116,-1.325039,0.140555\H,0,-0.13626,0.260567,-1.970344\H,0,-1.825522,
 0.552488,-1.508068\H,0,-1.664933,-1.048703,0.31425\H,0,-1.091286,-1.82
 8069,-1.174163\H,0,1.091286,1.828069,1.174163\H,0,1.664933,1.048703,-0

 Normal termination of Gaussian 16 at Sat Apr  5 23:13:31 2025.
