 Gaussian 16, Revision C.01,

 ----------------------------------------------------------------------
 #t hf aug-cc-pvdz symm=none int=(grid=ultrafine) guess=(read,tcheck) s
 table=(opt,rrhf)
 ----------------------------------------------------------------------
 -----
 title
 -----
 Symbolic Z-matrix:
 Charge =  0 Multiplicity = 1

 SCF Done:  E(RHF) =  -321.216080289     A.U. after   12 cycles

 1\1\GINC-SE169\Stability\RHF\Aug-CC-pVDZ\C4H11N3\OHZDE\05-Apr-2025\0\\
 #t hf aug-cc-pvdz symm=none int=(grid=ultrafine) guess=(read,tcheck) s
 table=(opt,rrhf)\\title\\0,1\C,0,1.133555,1.224172,-0.194407\C,0,1.181
 841,-1.187001,-0.202712\C,0,-0.343283,1.191042,0.180257\C,0,-0.292244,
 -1.22436,0.177403\N,0,1.789141,0.030617,0.328985\N,0,-0.969018,-0.0308
 42,-0.3228\N,0,-2.357848,-0.114512,-0.018199\H,0,1.212514,1.304089,-1.
 289776\H,0,1.599464,2.108612,0.242171\H,0,1.688428,-2.052619,0.225623\
 H,0,1.26264,-1.252758,-1.298708\H,0,-0.442955,1.25993,1.277609\H,0,-0.

 Normal termination of Gaussian 16 at Sat Apr  5 23:12:02 2025.
 Gaussian 16:  ES64L-G16RevC.01  3-Jul-2019

 ----------------------------------------------------------------------
 #t hf aug-cc-pvdz iop(5/13=1,5/36=2,99/5=2) pseudo=read geom=check gue
 ss=(read,tcheck) scf=(maxcycle=1)
 ----------------------------------------------------------------------
 -----
 title
 -----
 Structure from the checkpoint file:  "piperazin-1-amine.chk"
 Charge =  0 Multiplicity = 1

                         Standard orientation:
 ---------------------------------------------------------------------
 Center     Atomic      Atomic             Coordinates (Angstroms)
 Number     Number       Type             X           Y           Z
 ---------------------------------------------------------------------
      1          6           0        1.133555    1.224172   -0.194407
      2          6           0        1.181841   -1.187001   -0.202712
      3          6           0       -0.343283    1.191042    0.180257
      4          6           0       -0.292244   -1.224360    0.177403
      5          7           0        1.789141    0.030617    0.328985
      6          7           0       -0.969018   -0.030842   -0.322800
      7          7           0       -2.357848   -0.114512   -0.018199
      8          1           0        1.212514    1.304089   -1.289776
      9          1           0        1.599464    2.108612    0.242171
     10          1           0        1.688428   -2.052619    0.225623
     11          1           0        1.262640   -1.252758   -1.298708
     12          1           0       -0.442955    1.259930    1.277609
     13          1           0       -0.857002    2.046876   -0.260956
     14          1           0       -0.780392   -2.092624   -0.261687
     15          1           0       -0.379815   -1.300473    1.273848
     16          1           0        2.781405    0.052277    0.136985
     17          1           0       -2.540805    0.215438    0.932435
     18          1           0       -2.858621    0.491293   -0.656692
 ---------------------------------------------------------------------

 SCF Done:  E(RHF) =  -321.561507749     A.U. after    2 cycles

 The electronic state is 1-A.
 Alpha  occ. eigenvalues --  -15.51121 -15.50705 -15.48231 -11.25474 -11.25259
 Alpha  occ. eigenvalues --  -11.25099 -11.24495  -1.28220  -1.20477  -1.07710
 Alpha  occ. eigenvalues --   -1.03127  -0.90648  -0.87873  -0.77858  -0.72758
 Alpha  occ. eigenvalues --   -0.70297  -0.67549  -0.64289  -0.63234  -0.61920
 Alpha  occ. eigenvalues --   -0.58105  -0.55281  -0.50931  -0.50138  -0.49650
 Alpha  occ. eigenvalues --   -0.44692  -0.40910  -0.39739
 Alpha virt. eigenvalues --    0.03816   0.03977   0.04683   0.04888   0.05007
 Alpha virt. eigenvalues --    0.05381   0.06005   0.06410   0.07489   0.08944
 Alpha virt. eigenvalues --    0.10048   0.12322   0.12979   0.14263   0.14460

 Mulliken charges:
               1
     1  C   -0.402363
     2  C   -0.334214
     3  C   -0.275488
     4  C   -0.318623
     5  N    0.351714
     6  N   -0.155797
     7  N    0.141293
     8  H    0.122399
     9  H    0.006035
    10  H    0.002638
    11  H    0.119072
    12  H    0.089506
    13  H   -0.000474
    14  H   -0.021174
    15  H    0.129707
    16  H    0.200560
    17  H    0.202978
    18  H    0.142233
 Sum of Mulliken charges =  -0.00000

 Dipole moment (field-independent basis, Debye):
    X=              0.7759    Y=              1.3418    Z=              0.0070  Tot=              1.5500

 Test job not archived.
 1\1\GINC-SE169\SP\RHF\Aug-CC-pVDZ\C4H11N3\OHZDE\05-Apr-2025\0\\#t hf a
 ug-cc-pvdz iop(5/13=1,5/36=2,99/5=2) pseudo=read geom=check guess=(rea
 d,tcheck) scf=(maxcycle=1)\\title\\0,1\C,0,1.133555,1.224172,-0.194407
 \C,0,1.181841,-1.187001,-0.202712\C,0,-0.343283,1.191042,0.180257\C,0,
 -0.292244,-1.22436,0.177403\N,0,1.789141,0.030617,0.328985\N,0,-0.9690
 18,-0.030842,-0.3228\N,0,-2.357848,-0.114512,-0.018199\H,0,1.212514,1.
 304089,-1.289776\H,0,1.599464,2.108612,0.242171\H,0,1.688428,-2.052619
 ,0.225623\H,0,1.26264,-1.252758,-1.298708\H,0,-0.442955,1.25993,1.2776

 Normal termination of Gaussian 16 at Sat Apr  5 23:12:32 2025.
