 Gaussian 16, Revision C.01,

 ----------------------------------------------------------------------
 #t hf aug-cc-pvdz symm=none int=(grid=ultrafine) guess=(read,tcheck) s
 table=(opt,rrhf)
 ----------------------------------------------------------------------
 -----
 title
 -----
 Symbolic Z-matrix:
 Charge =  0 Multiplicity = 1

 SCF Done:  E(RHF) =  -250.221295736     A.U. after   11 cycles

 1\1\GINC-SE206\Stability\RHF\Aug-CC-pVDZ\C5H11N1\OHZDE\05-Apr-2025\0\\
 #t hf aug-cc-pvdz symm=none int=(grid=ultrafine) guess=(read,tcheck) s
 table=(opt,rrhf)\\title\\0,1\C,0,0.627734,1.332116,0.\C,0,-0.015015,0.
 749126,1.262844\C,0,-0.015015,0.749126,-1.262844\C,0,-0.015015,-0.7778
 13,1.21628\C,0,-0.015015,-0.777813,-1.21628\N,0,-0.683238,-1.236622,0.
 \H,0,0.550093,2.421274,0.\H,0,1.697146,1.095686,0.\H,0,0.514966,1.0907
 53,2.154644\H,0,-1.048069,1.096853,1.34379\H,0,-1.048069,1.096853,-1.3
 4379\H,0,0.514966,1.090753,-2.154644\H,0,1.028243,-1.134962,1.27513\H,

 Normal termination of Gaussian 16 at Sat Apr  5 23:11:48 2025.
 Gaussian 16:  ES64L-G16RevC.01  3-Jul-2019

 ----------------------------------------------------------------------
 #t hf aug-cc-pvdz iop(5/13=1,5/36=2,99/5=2) pseudo=read geom=check gue
 ss=(read,tcheck) scf=(maxcycle=1)
 ----------------------------------------------------------------------
 -----
 title
 -----
 Structure from the checkpoint file:  "piperidine.chk"
 Charge =  0 Multiplicity = 1

                         Standard orientation:
 ---------------------------------------------------------------------
 Center     Atomic      Atomic             Coordinates (Angstroms)
 Number     Number       Type             X           Y           Z
 ---------------------------------------------------------------------
      1          6           0        0.627734    1.332116   -0.000000
      2          6           0       -0.015015    0.749126    1.262844
      3          6           0       -0.015015    0.749126   -1.262844
      4          6           0       -0.015015   -0.777813    1.216280
      5          6           0       -0.015015   -0.777813   -1.216280
      6          7           0       -0.683238   -1.236622    0.000000
      7          1           0        0.550093    2.421274    0.000000
      8          1           0        1.697146    1.095686   -0.000000
      9          1           0        0.514966    1.090753    2.154644
     10          1           0       -1.048069    1.096853    1.343790
     11          1           0       -1.048069    1.096853   -1.343790
     12          1           0        0.514966    1.090753   -2.154644
     13          1           0        1.028243   -1.134962    1.275130
     14          1           0       -0.545722   -1.185262    2.078063
     15          1           0       -0.545722   -1.185262   -2.078063
     16          1           0        1.028243   -1.134962   -1.275130
     17          1           0       -0.769444   -2.243821    0.000000
 ---------------------------------------------------------------------

 SCF Done:  E(RHF) =  -250.497369977     A.U. after    2 cycles

 The electronic state is 1-A'.
 Alpha  occ. eigenvalues --  -15.47567 -11.24793 -11.24779 -11.22143 -11.21935
 Alpha  occ. eigenvalues --  -11.21912  -1.20542  -1.05623  -1.01290  -0.87027
 Alpha  occ. eigenvalues --   -0.84814  -0.75838  -0.70690  -0.62968  -0.62703
 Alpha  occ. eigenvalues --   -0.59661  -0.57572  -0.56474  -0.53889  -0.49290
 Alpha  occ. eigenvalues --   -0.47245  -0.45486  -0.45346  -0.39469
 Alpha virt. eigenvalues --    0.03744   0.04083   0.04193   0.04300   0.05725
 Alpha virt. eigenvalues --    0.05825   0.06171   0.06402   0.07384   0.09423
 Alpha virt. eigenvalues --    0.09948   0.13742   0.13793   0.14288   0.14552

 Mulliken charges:
               1
     1  C   -0.220407
     2  C   -0.243476
     3  C   -0.243476
     4  C   -0.424523
     5  C   -0.424523
     6  N    0.376188
     7  H    0.118618
     8  H    0.099718
     9  H    0.125701
    10  H    0.135996
    11  H    0.135996
    12  H    0.125701
    13  H    0.113580
    14  H   -0.001183
    15  H   -0.001183
    16  H    0.113580
    17  H    0.213695
 Sum of Mulliken charges =  -0.00000

 Dipole moment (field-independent basis, Debye):
    X=              0.9260    Y=             -0.3589    Z=             -0.0000  Tot=              0.9931

 Test job not archived.
 1\1\GINC-SE206\SP\RHF\Aug-CC-pVDZ\C5H11N1\OHZDE\05-Apr-2025\0\\#t hf a
 ug-cc-pvdz iop(5/13=1,5/36=2,99/5=2) pseudo=read geom=check guess=(rea
 d,tcheck) scf=(maxcycle=1)\\title\\0,1\C,0,0.627734,1.332116,0.\C,0,-0
 .015015,0.749126,1.262844\C,0,-0.015015,0.749126,-1.262844\C,0,-0.0150
 15,-0.777813,1.21628\C,0,-0.015015,-0.777813,-1.21628\N,0,-0.683238,-1
 .236622,0.\H,0,0.550093,2.421274,0.\H,0,1.697146,1.095686,0.\H,0,0.514
 966,1.090753,2.154644\H,0,-1.048069,1.096853,1.34379\H,0,-1.048069,1.0
 96853,-1.34379\H,0,0.514966,1.090753,-2.154644\H,0,1.028243,-1.134962,

 Normal termination of Gaussian 16 at Sat Apr  5 23:12:24 2025.
