 Gaussian 16, Revision C.01,

 ----------------------------------------------------------------------
 #t hf aug-cc-pvdz symm=none int=(grid=ultrafine) guess=(read,tcheck) s
 table=(opt,rrhf)
 ----------------------------------------------------------------------
 -----
 title
 -----
 Symbolic Z-matrix:
 Charge =  0 Multiplicity = 1

 SCF Done:  E(RHF) =  -398.825181374     A.U. after   14 cycles
 Normal termination of Gaussian 16 at Sat Apr  5 23:13:13 2025.
 Gaussian 16:  ES64L-G16RevC.01  3-Jul-2019

 ----------------------------------------------------------------------
 #t hf aug-cc-pvdz iop(5/13=1,5/36=2,99/5=2) pseudo=read geom=check gue
 ss=(read,tcheck) scf=(maxcycle=1)
 ----------------------------------------------------------------------
 -----
 title
 -----
 Structure from the checkpoint file:  "proline.chk"
 Charge =  0 Multiplicity = 1

                         Standard orientation:
 ---------------------------------------------------------------------
 Center     Atomic      Atomic             Coordinates (Angstroms)
 Number     Number       Type             X           Y           Z
 ---------------------------------------------------------------------
      1          7           0        0.636602   -1.058123    0.492208
      2          6           0       -0.121601    0.212497    0.582235
      3          6           0       -1.541645    0.060070    0.027611
      4          8           0       -2.347827    0.951873    0.041962
      5          8           0       -1.796324   -1.151121   -0.486153
      6          6           0        0.698716    1.255847   -0.214727
      7          6           0        2.124667    0.698806   -0.171428
      8          6           0        1.890352   -0.811433   -0.258644
      9          1           0       -0.226886    0.531260    1.620367
     10          1           0        0.341413    1.305448   -1.244399
     11          1           0        0.600663    2.251274    0.210253
     12          1           0        2.751505    1.078563   -0.977576
     13          1           0        2.605897    0.951778    0.776149
     14          1           0        1.755051   -1.114676   -1.299508
     15          1           0        2.701458   -1.409225    0.154057
     16          1           0        0.836365   -1.421455    1.412453
     17          1           0       -0.971410   -1.666847   -0.334004
 ---------------------------------------------------------------------

 SCF Done:  E(RHF) =  -399.235432850     A.U. after    2 cycles

 The electronic state is 1-A.
 Alpha  occ. eigenvalues --  -20.58049 -20.51971 -15.52105 -11.37825 -11.29237
 Alpha  occ. eigenvalues --  -11.28073 -11.25285 -11.24995  -1.52884  -1.44075
 Alpha  occ. eigenvalues --   -1.25022  -1.06336  -1.02845  -0.88191  -0.83566
 Alpha  occ. eigenvalues --   -0.80044  -0.75031  -0.74109  -0.66687  -0.64753
 Alpha  occ. eigenvalues --   -0.63146  -0.60795  -0.59038  -0.57858  -0.54173
 Alpha  occ. eigenvalues --   -0.52659  -0.51337  -0.50479  -0.46054  -0.45238
 Alpha  occ. eigenvalues --   -0.41648
 Alpha virt. eigenvalues --    0.02429   0.03415   0.03618   0.04244   0.05499
 Alpha virt. eigenvalues --    0.05843   0.06339   0.06729   0.07825   0.11108
 Alpha virt. eigenvalues --    0.12185   0.12761   0.13307   0.13542   0.14083

 Mulliken charges:
               1
     1  N    0.359071
     2  C   -1.149910
     3  C    2.566950
     4  O   -1.360745
     5  O   -1.319871
     6  C   -0.222840
     7  C   -0.166074
     8  C   -0.273813
     9  H    0.128369
    10  H    0.064402
    11  H    0.165239
    12  H    0.136889
    13  H    0.078878
    14  H    0.040853
    15  H    0.054641
    16  H    0.388137
    17  H    0.509824
 Sum of Mulliken charges =   0.00000

 Dipole moment (field-independent basis, Debye):
    X=              5.7790    Y=             -1.0540    Z=              1.3248  Tot=              6.0218

 Test job not archived.
 1\1\GINC-SE252\SP\RHF\Aug-CC-pVDZ\C5H9N1O2\OHZDE\05-Apr-2025\0\\#t hf
 aug-cc-pvdz iop(5/13=1,5/36=2,99/5=2) pseudo=read geom=check guess=(re
 ad,tcheck) scf=(maxcycle=1)\\title\\0,1\N,0,0.636602,-1.058123,0.49220
 8\C,0,-0.121601,0.212497,0.582235\C,0,-1.541645,0.06007,0.027611\O,0,-
 2.347827,0.951873,0.041962\O,0,-1.796324,-1.151121,-0.486153\C,0,0.698
 716,1.255847,-0.214727\C,0,2.124667,0.698806,-0.171428\C,0,1.890352,-0
 .811433,-0.258644\H,0,-0.226886,0.53126,1.620367\H,0,0.341413,1.305448
 ,-1.244399\H,0,0.600663,2.251274,0.210253\H,0,2.751505,1.078563,-0.977

 Normal termination of Gaussian 16 at Sat Apr  5 23:13:36 2025.
