 Gaussian 16, Revision C.01,

 ----------------------------------------------------------------------
 #t hf aug-cc-pvdz symm=none int=(grid=ultrafine) guess=(read,tcheck) s
 table=(opt,rrhf)
 ----------------------------------------------------------------------
 -----
 title
 -----
 Symbolic Z-matrix:
 Charge =  0 Multiplicity = 1

 SCF Done:  E(RHF) =  -115.878253332     A.U. after   11 cycles
 Normal termination of Gaussian 16 at Sat Apr  5 23:12:43 2025.
 Gaussian 16:  ES64L-G16RevC.01  3-Jul-2019

 ----------------------------------------------------------------------
 #t hf aug-cc-pvdz iop(5/13=1,5/36=2,99/5=2) pseudo=read geom=check gue
 ss=(read,tcheck) scf=(maxcycle=1)
 ----------------------------------------------------------------------
 -----
 title
 -----
 Structure from the checkpoint file:  "propyne.chk"
 Charge =  0 Multiplicity = 1

                         Standard orientation:
 ---------------------------------------------------------------------
 Center     Atomic      Atomic             Coordinates (Angstroms)
 Number     Number       Type             X           Y           Z
 ---------------------------------------------------------------------
      1          6           0        0.000000    1.417677    0.000000
      2          6           0        0.000000    0.218758    0.000000
      3          6           0        0.000000   -1.236142    0.000000
      4          1           0        0.000000    2.478402    0.000000
      5          1           0        1.018882   -1.626721    0.000000
      6          1           0       -0.509441   -1.626721    0.882377
      7          1           0       -0.509441   -1.626721   -0.882377
 ---------------------------------------------------------------------

 SCF Done:  E(RHF) =  -116.003560786     A.U. after    2 cycles

 The electronic state is 1-A'.
 Alpha  occ. eigenvalues --  -11.26081 -11.24381 -11.22953  -1.06134  -0.96505
 Alpha  occ. eigenvalues --   -0.72589  -0.63781  -0.59898  -0.59898  -0.39524
 Alpha  occ. eigenvalues --   -0.39524
 Alpha virt. eigenvalues --    0.03515   0.03960   0.05644   0.05644   0.08794
 Alpha virt. eigenvalues --    0.12069   0.12069   0.13424   0.15511   0.15511
 Alpha virt. eigenvalues --    0.15990   0.16601   0.17080   0.17080   0.22856

 Mulliken charges:
               1
     1  C    0.459212
     2  C   -0.062493
     3  C   -0.625337
     4  H   -0.390844
     5  H    0.206488
     6  H    0.206487
     7  H    0.206487
 Sum of Mulliken charges =  -0.00000

 Dipole moment (field-independent basis, Debye):
    X=             -0.0000    Y=             -0.7886    Z=              0.0000  Tot=              0.7886

 Test job not archived.
 1\1\GINC-SE169\SP\RHF\Aug-CC-pVDZ\C3H4\OHZDE\05-Apr-2025\0\\#t hf aug-
 cc-pvdz iop(5/13=1,5/36=2,99/5=2) pseudo=read geom=check guess=(read,t
 check) scf=(maxcycle=1)\\title\\0,1\C,0,0.,0.,1.417677\C,0,0.,0.,0.218
 758\C,0,0.,0.,-1.236142\H,0,0.,0.,2.478402\H,0,0.,1.018882,-1.626721\H
 ,0,0.882377,-0.509441,-1.626721\H,0,-0.882377,-0.509441,-1.626721\\Ver
 sion=ES64L-G16RevC.01\State=1-A'\HF=-116.0035608\RMSD=2.670e-02\Dipole
 =0.,-0.0000002,-0.3102685\Quadrupole=-1.5816658,-1.5816637,3.1633295,0
 .,0.,0.0000008\PG=CS [SG(C3H2),X(H2)]\\@

 Normal termination of Gaussian 16 at Sat Apr  5 23:13:29 2025.
