 Gaussian 16, Revision C.01,

 ----------------------------------------------------------------------
 #t hf aug-cc-pvdz symm=none int=(grid=ultrafine) guess=(read,tcheck) s
 table=(opt,rrhf)
 ----------------------------------------------------------------------
 -----
 title
 -----
 Symbolic Z-matrix:
 Charge =  0 Multiplicity = 1

 SCF Done:  E(RHF) =  -648.496630934     A.U. after   15 cycles
 Normal termination of Gaussian 16 at Sat Apr  5 23:12:45 2025.
 Gaussian 16:  ES64L-G16RevC.01  3-Jul-2019

 ----------------------------------------------------------------------
 #t hf aug-cc-pvdz iop(5/13=1,5/36=2,99/5=2) pseudo=read geom=check gue
 ss=(read,tcheck) scf=(maxcycle=1)
 ----------------------------------------------------------------------
 -----
 title
 -----
 Structure from the checkpoint file:  "prop-2-ynoyl_chloride.chk"
 Charge =  0 Multiplicity = 1

                         Standard orientation:
 ---------------------------------------------------------------------
 Center     Atomic      Atomic             Coordinates (Angstroms)
 Number     Number       Type             X           Y           Z
 ---------------------------------------------------------------------
      1         17           0       -1.342896   -0.692619   -0.000002
      2          8           0       -0.259568    1.696079    0.000019
      3          6           0       -0.024306    0.532850   -0.000069
      4          6           0        1.265435   -0.081591   -0.000088
      5          6           0        2.355970   -0.580205    0.000092
      6          1           0        3.323175   -1.020440    0.000275
 ---------------------------------------------------------------------

 SCF Done:  E(RHF) =  -648.754758710     A.U. after    2 cycles

 The electronic state is 1-A.
 Alpha  occ. eigenvalues -- -105.59493 -20.60180 -11.45230 -11.30582 -11.29289
 Alpha  occ. eigenvalues --  -10.64330  -7.81258  -7.80868  -7.80852  -1.54677
 Alpha  occ. eigenvalues --   -1.13137  -1.07715  -0.92778  -0.77215  -0.73276
 Alpha  occ. eigenvalues --   -0.68731  -0.62805  -0.50787  -0.48632  -0.48235
 Alpha  occ. eigenvalues --   -0.45745  -0.45071
 Alpha virt. eigenvalues --    0.02800   0.04171   0.07236   0.08269   0.08912
 Alpha virt. eigenvalues --    0.09897   0.09917   0.12862   0.13138   0.13887
 Alpha virt. eigenvalues --    0.15123   0.15749   0.16603   0.17344   0.17637

 Mulliken charges:
               1
     1  Cl  -0.060682
     2  O   -1.096983
     3  C    0.789510
     4  C    0.474980
     5  C    0.176591
     6  H   -0.283417
 Sum of Mulliken charges =   0.00000

 Dipole moment (field-independent basis, Debye):
    X=              2.6104    Y=             -1.8173    Z=              0.0001  Tot=              3.1807

 Test job not archived.
 1\1\GINC-SE042\SP\RHF\Aug-CC-pVDZ\C3H1Cl1O1\OHZDE\05-Apr-2025\0\\#t hf
  aug-cc-pvdz iop(5/13=1,5/36=2,99/5=2) pseudo=read geom=check guess=(r
 ead,tcheck) scf=(maxcycle=1)\\title\\0,1\Cl,0,-1.342896,-0.692618,-0.0
 00002\O,0,-0.259567,1.696079,0.000019\C,0,-0.024306,0.53285,-0.000069\
 C,0,1.265435,-0.081591,-0.000088\C,0,2.35597,-0.580206,0.000092\H,0,3.
 323175,-1.020441,0.000275\\Version=ES64L-G16RevC.01\State=1-A\HF=-648.
 7547587\RMSD=1.845e-02\Dipole=1.026997,-0.7149852,0.0000542\Quadrupole
 =4.9839587,-3.6917141,-1.2922446,-1.8832143,0.0008512,-0.0004574\PG=C0

 Normal termination of Gaussian 16 at Sat Apr  5 23:13:30 2025.
