 Gaussian 16, Revision C.01,

 ----------------------------------------------------------------------
 #t hf aug-cc-pvdz symm=none int=(grid=ultrafine) guess=(read,tcheck) s
 table=(opt,rrhf)
 ----------------------------------------------------------------------
 -----
 title
 -----
 Symbolic Z-matrix:
 Charge =  0 Multiplicity = 1

 SCF Done:  E(RHF) =  -190.743213127     A.U. after   13 cycles
 Normal termination of Gaussian 16 at Sat Apr  5 23:12:44 2025.
 Gaussian 16:  ES64L-G16RevC.01  3-Jul-2019

 ----------------------------------------------------------------------
 #t hf aug-cc-pvdz iop(5/13=1,5/36=2,99/5=2) pseudo=read geom=check gue
 ss=(read,tcheck) scf=(maxcycle=1)
 ----------------------------------------------------------------------
 -----
 title
 -----
 Structure from the checkpoint file:  "propa-1-2-dien-1-ol.chk"
 Charge =  0 Multiplicity = 1

                         Standard orientation:
 ---------------------------------------------------------------------
 Center     Atomic      Atomic             Coordinates (Angstroms)
 Number     Number       Type             X           Y           Z
 ---------------------------------------------------------------------
      1          6           0        0.656988   -0.482689    0.000000
      2          6           0        0.000000    0.643879    0.000000
      3          6           0       -0.646073    1.774994    0.000000
      4          8           0        0.112787   -1.745853    0.000000
      5          1           0        1.737890   -0.517886    0.000000
      6          1           0       -0.928536    2.272014    0.922836
      7          1           0       -0.928536    2.272014   -0.922836
      8          1           0       -0.848607   -1.676418    0.000000
 ---------------------------------------------------------------------

 SCF Done:  E(RHF) =  -190.938219147     A.U. after    2 cycles

 The electronic state is 1-A'.
 Alpha  occ. eigenvalues --  -20.58085 -11.31318 -11.26069 -11.25296  -1.48643
 Alpha  occ. eigenvalues --   -1.07183  -0.95862  -0.79319  -0.68455  -0.65415
 Alpha  occ. eigenvalues --   -0.62463  -0.56793  -0.56712  -0.39928  -0.35567
 Alpha virt. eigenvalues --    0.03520   0.04526   0.04938   0.04968   0.09448
 Alpha virt. eigenvalues --    0.09766   0.10836   0.11791   0.14475   0.15728
 Alpha virt. eigenvalues --    0.15771   0.16566   0.17251   0.18161   0.19401

 Mulliken charges:
               1
     1  C    1.274646
     2  C   -0.204967
     3  C   -0.083977
     4  O   -1.281540
     5  H   -0.026307
     6  H   -0.019956
     7  H   -0.019956
     8  H    0.362056
 Sum of Mulliken charges =   0.00000

 Dipole moment (field-independent basis, Debye):
    X=             -0.9612    Y=              0.9184    Z=             -0.0000  Tot=              1.3294

 Test job not archived.
 1\1\GINC-SE129\SP\RHF\Aug-CC-pVDZ\C3H4O1\OHZDE\05-Apr-2025\0\\#t hf au
 g-cc-pvdz iop(5/13=1,5/36=2,99/5=2) pseudo=read geom=check guess=(read
 ,tcheck) scf=(maxcycle=1)\\title\\0,1\C,0,0.656988,-0.482689,0.\C,0,0.
 ,0.643879,0.\C,0,-0.646073,1.774994,0.\O,0,0.112787,-1.745853,0.\H,0,1
 .73789,-0.517886,0.\H,0,-0.928536,2.272014,0.922836\H,0,-0.928536,2.27
 2014,-0.922836\H,0,-0.848607,-1.676418,0.\\Version=ES64L-G16RevC.01\St
 ate=1-A'\HF=-190.9382191\RMSD=1.721e-02\Dipole=-0.3781472,0.3613323,0.
 \Quadrupole=1.743512,-0.7508239,-0.9926882,0.272993,0.,0.\PG=CS [SG(C3

 Normal termination of Gaussian 16 at Sat Apr  5 23:13:29 2025.
