 Gaussian 16, Revision C.01,

 ----------------------------------------------------------------------
 #t hf aug-cc-pvdz symm=none int=(grid=ultrafine) guess=(read,tcheck) s
 table=(opt,rrhf)
 ----------------------------------------------------------------------
 -----
 title
 -----
 Symbolic Z-matrix:
 Charge =  0 Multiplicity = 1

 SCF Done:  E(RHF) =  -347.846562063     A.U. after   14 cycles
 Normal termination of Gaussian 16 at Sat Apr  5 23:15:06 2025.
 Gaussian 16:  ES64L-G16RevC.01  3-Jul-2019

 ----------------------------------------------------------------------
 #t hf aug-cc-pvdz iop(5/13=1,5/36=2,99/5=2) pseudo=read geom=check gue
 ss=(read,tcheck) scf=(maxcycle=1)
 ----------------------------------------------------------------------
 -----
 title
 -----
 Structure from the checkpoint file:  "propylbenzene.chk"
 Charge =  0 Multiplicity = 1

                         Standard orientation:
 ---------------------------------------------------------------------
 Center     Atomic      Atomic             Coordinates (Angstroms)
 Number     Number       Type             X           Y           Z
 ---------------------------------------------------------------------
      1          6           0        0.386271   -2.839243    0.000000
      2          6           0        0.387351   -2.138596    1.200339
      3          6           0        0.387351   -2.138596   -1.200339
      4          6           0        0.387351   -0.748944    1.197148
      5          6           0        0.387351   -0.748944   -1.197148
      6          6           0        0.385210   -0.031430    0.000000
      7          6           0       -1.108485    3.575531   -0.000000
      8          6           0        0.345445    1.476802   -0.000000
      9          6           0       -1.082048    2.048572   -0.000000
     10          1           0        0.389739   -3.921015    0.000000
     11          1           0        0.393022   -2.674365    2.140600
     12          1           0        0.393022   -2.674365   -2.140600
     13          1           0        0.394621   -0.211935    2.138121
     14          1           0        0.394621   -0.211935   -2.138121
     15          1           0       -0.604834    3.979341    0.880742
     16          1           0       -0.604834    3.979341   -0.880742
     17          1           0       -2.131197    3.954700   -0.000000
     18          1           0        0.878157    1.856658    0.875883
     19          1           0        0.878157    1.856658   -0.875883
     20          1           0       -1.617623    1.668007   -0.873416
     21          1           0       -1.617623    1.668007    0.873416
 ---------------------------------------------------------------------

 SCF Done:  E(RHF) =  -348.218957510     A.U. after    2 cycles

 The electronic state is 1-A'.
 Alpha  occ. eigenvalues --  -11.24175 -11.23855 -11.23832 -11.23485 -11.23397
 Alpha  occ. eigenvalues --  -11.23396 -11.23248 -11.22908 -11.22318  -1.15653
 Alpha  occ. eigenvalues --   -1.07685  -1.01363  -1.01268  -0.92612  -0.83276
 Alpha  occ. eigenvalues --   -0.82831  -0.79304  -0.70579  -0.65962  -0.64131
 Alpha  occ. eigenvalues --   -0.61839  -0.60082  -0.59417  -0.57569  -0.53841
 Alpha  occ. eigenvalues --   -0.53736  -0.50739  -0.49823  -0.48392  -0.47791
 Alpha  occ. eigenvalues --   -0.47585  -0.34262  -0.33256
 Alpha virt. eigenvalues --    0.03402   0.03449   0.03828   0.04046   0.04773
 Alpha virt. eigenvalues --    0.04877   0.06423   0.06935   0.07268   0.07844
 Alpha virt. eigenvalues --    0.08079   0.10724   0.10812   0.11281   0.11449

 Mulliken charges:
               1
     1  C    0.106923
     2  C   -0.002486
     3  C   -0.002486
     4  C    0.173662
     5  C    0.173662
     6  C    1.640023
     7  C   -0.392525
     8  C   -0.787651
     9  C   -0.274365
    10  H   -0.225567
    11  H   -0.234276
    12  H   -0.234276
    13  H   -0.346809
    14  H   -0.346809
    15  H    0.159116
    16  H    0.159116
    17  H    0.123203
    18  H    0.042654
    19  H    0.042654
    20  H    0.113119
    21  H    0.113119
 Sum of Mulliken charges =  -0.00000

 Dipole moment (field-independent basis, Debye):
    X=             -0.1389    Y=              0.3944    Z=              0.0000  Tot=              0.4181

 Test job not archived.
 1\1\GINC-SE151\SP\RHF\Aug-CC-pVDZ\C9H12\OHZDE\05-Apr-2025\0\\#t hf aug
 -cc-pvdz iop(5/13=1,5/36=2,99/5=2) pseudo=read geom=check guess=(read,
 tcheck) scf=(maxcycle=1)\\title\\0,1\C,0,0.386271,-2.839243,0.\C,0,0.3
 87351,-2.138596,1.200339\C,0,0.387351,-2.138596,-1.200339\C,0,0.387351
 ,-0.748944,1.197148\C,0,0.387351,-0.748944,-1.197148\C,0,0.38521,-0.03
 143,0.\C,0,-1.108485,3.575531,0.\C,0,0.345445,1.476802,0.\C,0,-1.08204
 8,2.048572,0.\H,0,0.389739,-3.921015,0.\H,0,0.393022,-2.674365,2.1406\
 H,0,0.393022,-2.674365,-2.1406\H,0,0.394621,-0.211935,2.138121\H,0,0.3

 Normal termination of Gaussian 16 at Sat Apr  5 23:15:59 2025.
