 Gaussian 16, Revision C.01,

 ----------------------------------------------------------------------
 #t hf aug-cc-pvdz symm=none int=(grid=ultrafine) guess=(read,tcheck) s
 table=(opt,rrhf)
 ----------------------------------------------------------------------
 -----
 title
 -----
 Symbolic Z-matrix:
 Charge =  0 Multiplicity = 1

 SCF Done:  E(RHF) =  -118.276328973     A.U. after   10 cycles
 Normal termination of Gaussian 16 at Sat Apr  5 23:12:45 2025.
 Gaussian 16:  ES64L-G16RevC.01  3-Jul-2019

 ----------------------------------------------------------------------
 #t hf aug-cc-pvdz iop(5/13=1,5/36=2,99/5=2) pseudo=read geom=check gue
 ss=(read,tcheck) scf=(maxcycle=1)
 ----------------------------------------------------------------------
 -----
 title
 -----
 Structure from the checkpoint file:  "propane.chk"
 Charge =  0 Multiplicity = 1

                         Standard orientation:
 ---------------------------------------------------------------------
 Center     Atomic      Atomic             Coordinates (Angstroms)
 Number     Number       Type             X           Y           Z
 ---------------------------------------------------------------------
      1          6           0        0.000000   -0.000000    0.584601
      2          6           0        0.000000    1.273888   -0.259060
      3          6           0       -0.000000   -1.273888   -0.259060
      4          1           0        0.880629    1.318580   -0.903482
      5          1           0       -0.880629    1.318580   -0.903482
      6          1           0       -0.880629   -1.318580   -0.903482
      7          1           0        0.000000    2.168536    0.365318
      8          1           0        0.880629   -1.318580   -0.903482
      9          1           0       -0.000000   -2.168536    0.365318
     10          1           0        0.873365   -0.000000    1.242204
     11          1           0       -0.873365    0.000000    1.242204
 ---------------------------------------------------------------------

 SCF Done:  E(RHF) =  -118.415110705     A.U. after    2 cycles

 The electronic state is 1-A1.
 Alpha  occ. eigenvalues --  -11.22511 -11.21913 -11.21908  -1.05526  -0.92669
 Alpha  occ. eigenvalues --   -0.80315  -0.62948  -0.60461  -0.55792  -0.53703
 Alpha  occ. eigenvalues --   -0.48528  -0.48254  -0.47323
 Alpha virt. eigenvalues --    0.04083   0.04256   0.04347   0.04477   0.07218
 Alpha virt. eigenvalues --    0.07487   0.07719   0.08161   0.12246   0.14424
 Alpha virt. eigenvalues --    0.15371   0.15903   0.16877   0.17194   0.17515

 Mulliken charges:
               1
     1  C   -0.500997
     2  C   -0.304606
     3  C   -0.304606
     4  H    0.153432
     5  H    0.153432
     6  H    0.153432
     7  H    0.107978
     8  H    0.153432
     9  H    0.107978
    10  H    0.140263
    11  H    0.140263
 Sum of Mulliken charges =  -0.00000

 Dipole moment (field-independent basis, Debye):
    X=              0.0000    Y=              0.0000    Z=              0.0866  Tot=              0.0866

 Test job not archived.
 1\1\GINC-SE183\SP\RHF\Aug-CC-pVDZ\C3H8\OHZDE\05-Apr-2025\0\\#t hf aug-
 cc-pvdz iop(5/13=1,5/36=2,99/5=2) pseudo=read geom=check guess=(read,t
 check) scf=(maxcycle=1)\\title\\0,1\C,0,0.,0.,0.584601\C,0,0.,1.273888
 ,-0.25906\C,0,0.,-1.273888,-0.25906\H,0,0.880629,1.31858,-0.903482\H,0
 ,-0.880629,1.31858,-0.903482\H,0,-0.880629,-1.31858,-0.903482\H,0,0.,2
 .168536,0.365318\H,0,0.880629,-1.31858,-0.903482\H,0,0.,-2.168536,0.36
 5318\H,0,0.873365,0.,1.242204\H,0,-0.873365,0.,1.242204\\Version=ES64L
 -G16RevC.01\State=1-A1\HF=-118.4151107\RMSD=8.854e-03\Dipole=0.,0.,0.0

 Normal termination of Gaussian 16 at Sat Apr  5 23:13:29 2025.
