 Gaussian 16, Revision C.01,

 ----------------------------------------------------------------------
 #t hf aug-cc-pvdz symm=none int=(grid=ultrafine) guess=(read,tcheck) s
 table=(opt,rrhf)
 ----------------------------------------------------------------------
 -----
 title
 -----
 Symbolic Z-matrix:
 Charge =  0 Multiplicity = 1

 SCF Done:  E(RHF) =  -265.616122612     A.U. after   13 cycles
 Normal termination of Gaussian 16 at Sat Apr  5 23:13:43 2025.
 Gaussian 16:  ES64L-G16RevC.01  3-Jul-2019

 ----------------------------------------------------------------------
 #t hf aug-cc-pvdz iop(5/13=1,5/36=2,99/5=2) pseudo=read geom=check gue
 ss=(read,tcheck) scf=(maxcycle=1)
 ----------------------------------------------------------------------
 -----
 title
 -----
 Structure from the checkpoint file:  "propa-1-2-diene-1-3-diol.chk"
 Charge =  0 Multiplicity = 1

                         Standard orientation:
 ---------------------------------------------------------------------
 Center     Atomic      Atomic             Coordinates (Angstroms)
 Number     Number       Type             X           Y           Z
 ---------------------------------------------------------------------
      1          6           0       -0.000000   -0.000000    0.314636
      2          6           0        0.000000    1.305048    0.357543
      3          6           0       -0.000000   -1.305048    0.357543
      4          8           0        0.776928    2.146963   -0.393553
      5          8           0       -0.776928   -2.146963   -0.393553
      6          1           0       -0.646254    1.874974    1.014469
      7          1           0        0.646254   -1.874974    1.014469
      8          1           0        1.357245    1.618777   -0.955207
      9          1           0       -1.357245   -1.618777   -0.955207
 ---------------------------------------------------------------------

 SCF Done:  E(RHF) =  -265.882486044     A.U. after    2 cycles

 The electronic state is 1-A.
 Alpha  occ. eigenvalues --  -20.58571 -20.58567 -11.32711 -11.32676 -11.23382
 Alpha  occ. eigenvalues --   -1.49487  -1.49299  -1.06389  -0.95160  -0.81537
 Alpha  occ. eigenvalues --   -0.76692  -0.66121  -0.66111  -0.58830  -0.57729
 Alpha  occ. eigenvalues --   -0.57671  -0.56102  -0.36595  -0.36529
 Alpha virt. eigenvalues --    0.03492   0.04307   0.04638   0.05079   0.09725
 Alpha virt. eigenvalues --    0.09895   0.10880   0.11254   0.13538   0.14668
 Alpha virt. eigenvalues --    0.15441   0.15757   0.16779   0.17154   0.19325

 Mulliken charges:
               1
     1  C   -0.464640
     2  C    1.177135
     3  C    1.177135
     4  O   -1.280863
     5  O   -1.280863
     6  H   -0.036190
     7  H   -0.036190
     8  H    0.372238
     9  H    0.372238
 Sum of Mulliken charges =  -0.00000

 Dipole moment (field-independent basis, Debye):
    X=             -0.0000    Y=             -0.0000    Z=             -0.5049  Tot=              0.5049

 Test job not archived.
 1\1\GINC-SE165\SP\RHF\Aug-CC-pVDZ\C3H4O2\OHZDE\05-Apr-2025\0\\#t hf au
 g-cc-pvdz iop(5/13=1,5/36=2,99/5=2) pseudo=read geom=check guess=(read
 ,tcheck) scf=(maxcycle=1)\\title\\0,1\C,0,0.,0.,0.314636\C,0,0.,1.3050
 48,0.357543\C,0,0.,-1.305048,0.357543\O,0,0.776928,2.146963,-0.393553\
 O,0,-0.776928,-2.146963,-0.393553\H,0,-0.646254,1.874974,1.014469\H,0,
 0.646254,-1.874974,1.014469\H,0,1.357245,1.618777,-0.955207\H,0,-1.357
 245,-1.618777,-0.955207\\Version=ES64L-G16RevC.01\State=1-A\HF=-265.88
 2486\RMSD=1.803e-02\Dipole=0.,0.,-0.1986554\Quadrupole=2.446685,-4.465

 Normal termination of Gaussian 16 at Sat Apr  5 23:13:46 2025.
