 Gaussian 16, Revision C.01,

 ----------------------------------------------------------------------
 #t hf aug-cc-pvdz symm=none int=(grid=ultrafine) guess=(read,tcheck) s
 table=(opt,rrhf)
 ----------------------------------------------------------------------
 -----
 title
 -----
 Symbolic Z-matrix:
 Charge =  0 Multiplicity = 1

 SCF Done:  E(RHF) =  -587.108985603     A.U. after   16 cycles
 Normal termination of Gaussian 16 at Sat Apr  5 23:13:43 2025.
 Gaussian 16:  ES64L-G16RevC.01  3-Jul-2019

 ----------------------------------------------------------------------
 #t hf aug-cc-pvdz iop(5/13=1,5/36=2,99/5=2) pseudo=read geom=check gue
 ss=(read,tcheck) scf=(maxcycle=1)
 ----------------------------------------------------------------------
 -----
 title
 -----
 Structure from the checkpoint file:  "prop-2-ynethioic_acid.chk"
 Charge =  0 Multiplicity = 1

                         Standard orientation:
 ---------------------------------------------------------------------
 Center     Atomic      Atomic             Coordinates (Angstroms)
 Number     Number       Type             X           Y           Z
 ---------------------------------------------------------------------
      1         16           0       -1.415690   -0.626525   -0.000006
      2          8           0       -0.221616    1.707573    0.000000
      3          6           0       -0.028547    0.519090    0.000000
      4          6           0        1.281666   -0.084082    0.000004
      5          6           0        2.374298   -0.580157    0.000009
      6          1           0       -0.687542   -1.757741   -0.000004
      7          1           0        3.347002   -1.007548    0.000013
 ---------------------------------------------------------------------

 SCF Done:  E(RHF) =  -587.351931534     A.U. after    2 cycles

 The electronic state is 1-A.
 Alpha  occ. eigenvalues --  -93.99195 -20.57257 -11.41405 -11.29382 -11.28267
 Alpha  occ. eigenvalues --   -8.27359  -6.25177  -6.25036  -6.24813  -1.51158
 Alpha  occ. eigenvalues --   -1.10942  -1.05772  -0.90365  -0.76254  -0.72016
 Alpha  occ. eigenvalues --   -0.65984  -0.59749  -0.55121  -0.45270  -0.44620
 Alpha  occ. eigenvalues --   -0.44460  -0.40943
 Alpha virt. eigenvalues --    0.02778   0.04225   0.05239   0.07599   0.08502
 Alpha virt. eigenvalues --    0.09451   0.10497   0.11870   0.12004   0.12533
 Alpha virt. eigenvalues --    0.13551   0.14634   0.15412   0.16750   0.17243

 Mulliken charges:
               1
     1  S   -0.033436
     2  O   -1.198440
     3  C    0.908874
     4  C    0.246289
     5  C    0.014046
     6  H    0.359876
     7  H   -0.297209
 Sum of Mulliken charges =  -0.00000

 Dipole moment (field-independent basis, Debye):
    X=              2.0270    Y=             -3.3547    Z=              0.0000  Tot=              3.9196

 Test job not archived.
 1\1\GINC-SE040\SP\RHF\Aug-CC-pVDZ\C3H2O1S1\OHZDE\05-Apr-2025\0\\#t hf
 aug-cc-pvdz iop(5/13=1,5/36=2,99/5=2) pseudo=read geom=check guess=(re
 ad,tcheck) scf=(maxcycle=1)\\title\\0,1\S,0,-1.41569,-0.626525,-0.0000
 06\O,0,-0.221616,1.707573,0.\C,0,-0.028547,0.51909,0.\C,0,1.281666,-0.
 084082,0.000004\C,0,2.374298,-0.580157,0.000009\H,0,-0.687542,-1.75774
 1,-0.000004\H,0,3.347002,-1.007548,0.000013\\Version=ES64L-G16RevC.01\
 State=1-A\HF=-587.3519315\RMSD=1.889e-02\Dipole=0.7974991,-1.3198476,0
 .0000026\Quadrupole=4.2814928,-2.0838656,-2.1976272,-1.5120036,0.00002

 Normal termination of Gaussian 16 at Sat Apr  5 23:13:47 2025.
