 Gaussian 16, Revision C.01,

 ----------------------------------------------------------------------
 #t hf aug-cc-pvdz symm=none int=(grid=ultrafine) guess=(read,tcheck) s
 table=(opt,rrhf)
 ----------------------------------------------------------------------
 -----
 title
 -----
 Symbolic Z-matrix:
 Charge =  0 Multiplicity = 1

 SCF Done:  E(RHF) =  -383.994911821     A.U. after   13 cycles

 1\1\GINC-SE085\Stability\RHF\Aug-CC-pVDZ\C6H12O2\OHZDE\05-Apr-2025\0\\
 #t hf aug-cc-pvdz symm=none int=(grid=ultrafine) guess=(read,tcheck) s
 table=(opt,rrhf)\\title\\0,1\C,0,-1.00394,-0.403757,0.\C,0,-3.525526,-
 0.680888,0.\C,0,3.764809,0.667909,0.\C,0,-2.349682,0.286562,0.\C,0,2.3
 10162,1.136229,0.\C,0,1.344509,-0.032085,0.\O,0,-0.826705,-1.596688,0.
 \O,0,0.,0.497494,0.\H,0,-3.504242,-1.325262,0.877722\H,0,-4.466982,-0.
 131692,0.\H,0,-3.504242,-1.325262,-0.877722\H,0,3.988516,0.063792,-0.8
 81154\H,0,4.44692,1.517824,0.\H,0,3.988516,0.063792,0.881154\H,0,-2.37

 Normal termination of Gaussian 16 at Sat Apr  5 23:13:53 2025.
 Gaussian 16:  ES64L-G16RevC.01  3-Jul-2019

 ----------------------------------------------------------------------
 #t hf aug-cc-pvdz iop(5/13=1,5/36=2,99/5=2) pseudo=read geom=check gue
 ss=(read,tcheck) scf=(maxcycle=1)
 ----------------------------------------------------------------------
 -----
 title
 -----
 Structure from the checkpoint file:  "propyl_propanoate.chk"
 Charge =  0 Multiplicity = 1

                         Standard orientation:
 ---------------------------------------------------------------------
 Center     Atomic      Atomic             Coordinates (Angstroms)
 Number     Number       Type             X           Y           Z
 ---------------------------------------------------------------------
      1          6           0       -1.003940   -0.403757    0.000000
      2          6           0       -3.525526   -0.680889    0.000000
      3          6           0        3.764809    0.667909    0.000000
      4          6           0       -2.349682    0.286562    0.000000
      5          6           0        2.310162    1.136229    0.000000
      6          6           0        1.344509   -0.032085    0.000000
      7          8           0       -0.826705   -1.596688    0.000000
      8          8           0        0.000000    0.497494    0.000000
      9          1           0       -3.504242   -1.325263    0.877722
     10          1           0       -4.466982   -0.131693    0.000000
     11          1           0       -3.504242   -1.325263   -0.877722
     12          1           0        3.988516    0.063792   -0.881154
     13          1           0        4.446920    1.517824    0.000000
     14          1           0        3.988516    0.063792    0.881154
     15          1           0       -2.378363    0.948115    0.869070
     16          1           0       -2.378363    0.948115   -0.869070
     17          1           0        2.115703    1.758242   -0.876284
     18          1           0        2.115703    1.758242    0.876284
     19          1           0        1.474239   -0.663085   -0.880525
     20          1           0        1.474239   -0.663085    0.880525
 ---------------------------------------------------------------------

 SCF Done:  E(RHF) =  -384.398550843     A.U. after    2 cycles

 The electronic state is 1-A'.
 Alpha  occ. eigenvalues --  -20.58194 -20.52845 -11.38145 -11.29191 -11.25011
 Alpha  occ. eigenvalues --  -11.23653 -11.23202 -11.22844  -1.53574  -1.44402
 Alpha  occ. eigenvalues --   -1.08362  -1.05403  -0.95426  -0.88537  -0.82124
 Alpha  occ. eigenvalues --   -0.77429  -0.70004  -0.69098  -0.67010  -0.64149
 Alpha  occ. eigenvalues --   -0.60545  -0.59858  -0.56017  -0.54205  -0.53824
 Alpha  occ. eigenvalues --   -0.52543  -0.51542  -0.50281  -0.49569  -0.48887
 Alpha  occ. eigenvalues --   -0.44861  -0.43436
 Alpha virt. eigenvalues --    0.03506   0.03589   0.03974   0.04222   0.04960
 Alpha virt. eigenvalues --    0.05562   0.05627   0.07066   0.07658   0.08519
 Alpha virt. eigenvalues --    0.08734   0.09230   0.10989   0.12986   0.13216

 Mulliken charges:
               1
     1  C    1.817611
     2  C   -0.284708
     3  C   -0.357440
     4  C   -0.517796
     5  C   -0.377664
     6  C    0.425021
     7  O   -1.196336
     8  O   -1.293326
     9  H    0.167203
    10  H    0.125567
    11  H    0.167203
    12  H    0.169829
    13  H    0.108397
    14  H    0.169829
    15  H    0.189297
    16  H    0.189297
    17  H    0.123573
    18  H    0.123573
    19  H    0.125435
    20  H    0.125435
 Sum of Mulliken charges =   0.00000

 Dipole moment (field-independent basis, Debye):
    X=              0.4256    Y=              2.0522    Z=             -0.0000  Tot=              2.0958

 Test job not archived.
 1\1\GINC-SE085\SP\RHF\Aug-CC-pVDZ\C6H12O2\OHZDE\05-Apr-2025\0\\#t hf a
 ug-cc-pvdz iop(5/13=1,5/36=2,99/5=2) pseudo=read geom=check guess=(rea
 d,tcheck) scf=(maxcycle=1)\\title\\0,1\C,0,-1.00394,-0.403757,0.\C,0,-
 3.525526,-0.680888,0.\C,0,3.764809,0.667909,0.\C,0,-2.349682,0.286562,
 0.\C,0,2.310162,1.136229,0.\C,0,1.344509,-0.032085,0.\O,0,-0.826705,-1
 .596688,0.\O,0,0.,0.497494,0.\H,0,-3.504242,-1.325262,0.877722\H,0,-4.
 466982,-0.131692,0.\H,0,-3.504242,-1.325262,-0.877722\H,0,3.988516,0.0
 63792,-0.881154\H,0,4.44692,1.517824,0.\H,0,3.988516,0.063792,0.881154

 Normal termination of Gaussian 16 at Sat Apr  5 23:13:59 2025.
