 Gaussian 16, Revision C.01,

 ----------------------------------------------------------------------
 #t hf aug-cc-pvdz symm=none int=(grid=ultrafine) guess=(read,tcheck) s
 table=(opt,rrhf)
 ----------------------------------------------------------------------
 -----
 title
 -----
 Symbolic Z-matrix:
 Charge =  0 Multiplicity = 1

 SCF Done:  E(RHF) =  -283.382364859     A.U. after   12 cycles

 1\1\GINC-SE106\Stability\RHF\Aug-CC-pVDZ\C3H11N3\OHZDE\05-Apr-2025\0\\
 #t hf aug-cc-pvdz symm=none int=(grid=ultrafine) guess=(read,tcheck) s
 table=(opt,rrhf)\\title\\0,1\C,0,-0.013757,-1.316234,0.197329\C,0,0.08
 3647,1.25184,0.325748\C,0,0.646705,-0.029651,-0.312805\N,0,-1.467041,-
 1.33865,-0.018105\N,0,-1.231706,1.613642,-0.202973\N,0,2.093096,-0.186
 523,-0.11642\H,0,0.508805,-2.160172,-0.26508\H,0,0.1582,-1.387214,1.27
 6005\H,0,0.104816,1.127108,1.421032\H,0,0.77105,2.067989,0.090551\H,0,
 0.47419,0.042447,-1.391124\H,0,-1.874954,-2.159342,0.411086\H,0,-1.678

 Normal termination of Gaussian 16 at Sat Apr  5 23:13:27 2025.
 Gaussian 16:  ES64L-G16RevC.01  3-Jul-2019

 ----------------------------------------------------------------------
 #t hf aug-cc-pvdz iop(5/13=1,5/36=2,99/5=2) pseudo=read geom=check gue
 ss=(read,tcheck) scf=(maxcycle=1)
 ----------------------------------------------------------------------
 -----
 title
 -----
 Structure from the checkpoint file:  "propane-1-2-3-triamine.chk"
 Charge =  0 Multiplicity = 1

                         Standard orientation:
 ---------------------------------------------------------------------
 Center     Atomic      Atomic             Coordinates (Angstroms)
 Number     Number       Type             X           Y           Z
 ---------------------------------------------------------------------
      1          6           0       -0.013755   -1.316234    0.197329
      2          6           0        0.083645    1.251840    0.325748
      3          6           0        0.646705   -0.029650   -0.312805
      4          7           0       -1.467039   -1.338652   -0.018105
      5          7           0       -1.231708    1.613640   -0.202973
      6          7           0        2.093096   -0.186520   -0.116420
      7          1           0        0.508808   -2.160171   -0.265080
      8          1           0        0.158202   -1.387214    1.276005
      9          1           0        0.104814    1.127108    1.421032
     10          1           0        0.771047    2.067990    0.090551
     11          1           0        0.474190    0.042448   -1.391124
     12          1           0       -1.874951   -2.159345    0.411086
     13          1           0       -1.678610   -1.389400   -1.008104
     14          1           0       -1.536051    2.505917    0.164381
     15          1           0       -1.910297    0.908413    0.058611
     16          1           0        2.324036   -0.198743    0.871269
     17          1           0        2.598799    0.587982   -0.527778
 ---------------------------------------------------------------------

 SCF Done:  E(RHF) =  -283.691057129     A.U. after    2 cycles

 The electronic state is 1-A.
 Alpha  occ. eigenvalues --  -15.48632 -15.48139 -15.46628 -11.25331 -11.25265
 Alpha  occ. eigenvalues --  -11.24635  -1.20342  -1.16458  -1.15243  -0.97628
 Alpha  occ. eigenvalues --   -0.89689  -0.79992  -0.70221  -0.69812  -0.68679
 Alpha  occ. eigenvalues --   -0.63889  -0.63285  -0.58532  -0.57445  -0.57127
 Alpha  occ. eigenvalues --   -0.51995  -0.48428  -0.44140  -0.42092  -0.40520
 Alpha virt. eigenvalues --    0.03715   0.04029   0.04553   0.04943   0.05852
 Alpha virt. eigenvalues --    0.06186   0.06354   0.06941   0.07428   0.09309
 Alpha virt. eigenvalues --    0.09846   0.12667   0.13485   0.13893   0.15003

 Mulliken charges:
               1
     1  C   -0.252386
     2  C   -0.532367
     3  C   -1.766829
     4  N   -0.023041
     5  N    0.371748
     6  N    0.604310
     7  H    0.157246
     8  H    0.136137
     9  H    0.146674
    10  H    0.102460
    11  H    0.096206
    12  H    0.150830
    13  H    0.192719
    14  H    0.139522
    15  H    0.140875
    16  H    0.184429
    17  H    0.151468
 Sum of Mulliken charges =   0.00000

 Dipole moment (field-independent basis, Debye):
    X=             -0.0673    Y=             -0.2751    Z=              1.2818  Tot=              1.3127

 Test job not archived.
 1\1\GINC-SE106\SP\RHF\Aug-CC-pVDZ\C3H11N3\OHZDE\05-Apr-2025\0\\#t hf a
 ug-cc-pvdz iop(5/13=1,5/36=2,99/5=2) pseudo=read geom=check guess=(rea
 d,tcheck) scf=(maxcycle=1)\\title\\0,1\C,0,-0.013757,-1.316234,0.19732
 9\C,0,0.083647,1.25184,0.325748\C,0,0.646705,-0.029651,-0.312805\N,0,-
 1.467041,-1.33865,-0.018105\N,0,-1.231706,1.613642,-0.202973\N,0,2.093
 096,-0.186523,-0.11642\H,0,0.508805,-2.160172,-0.26508\H,0,0.1582,-1.3
 87214,1.276005\H,0,0.104816,1.127108,1.421032\H,0,0.77105,2.067989,0.0
 90551\H,0,0.47419,0.042447,-1.391124\H,0,-1.874954,-2.159342,0.411086\

 Normal termination of Gaussian 16 at Sat Apr  5 23:13:41 2025.
