 Gaussian 16, Revision C.01,

 ----------------------------------------------------------------------
 #t hf aug-cc-pvdz symm=none int=(grid=ultrafine) guess=(read,tcheck) s
 table=(opt,rrhf)
 ----------------------------------------------------------------------
 -----
 title
 -----
 Symbolic Z-matrix:
 Charge =  0 Multiplicity = 1

 SCF Done:  E(RHF) =  -170.908990757     A.U. after   14 cycles
 Normal termination of Gaussian 16 at Sat Apr  5 23:13:43 2025.
 Gaussian 16:  ES64L-G16RevC.01  3-Jul-2019

 ----------------------------------------------------------------------
 #t hf aug-cc-pvdz iop(5/13=1,5/36=2,99/5=2) pseudo=read geom=check gue
 ss=(read,tcheck) scf=(maxcycle=1)
 ----------------------------------------------------------------------
 -----
 title
 -----
 Structure from the checkpoint file:  "propargylamine.chk"
 Charge =  0 Multiplicity = 1

                         Standard orientation:
 ---------------------------------------------------------------------
 Center     Atomic      Atomic             Coordinates (Angstroms)
 Number     Number       Type             X           Y           Z
 ---------------------------------------------------------------------
      1          7           0       -1.521190   -0.514806   -0.120022
      2          6           0       -0.579874    0.602125    0.038950
      3          6           0        0.805281    0.144140   -0.003594
      4          6           0        1.943561   -0.232193   -0.014649
      5          1           0       -1.375309   -1.207070    0.604410
      6          1           0       -2.473718   -0.181419   -0.036708
      7          1           0       -0.745639    1.300834   -0.784742
      8          1           0       -0.721665    1.172303    0.967186
      9          1           0        2.950856   -0.565445   -0.034238
 ---------------------------------------------------------------------

 SCF Done:  E(RHF) =  -171.091388329     A.U. after    2 cycles

 The electronic state is 1-A.
 Alpha  occ. eigenvalues --  -15.49634 -11.29096 -11.24269 -11.23434  -1.19344
 Alpha  occ. eigenvalues --   -1.04050  -0.93808  -0.73891  -0.70700  -0.66035
 Alpha  occ. eigenvalues --   -0.62993  -0.58732  -0.45168  -0.40578  -0.39453
 Alpha virt. eigenvalues --    0.03255   0.04000   0.05292   0.05388   0.06633
 Alpha virt. eigenvalues --    0.10150   0.11389   0.11453   0.11995   0.14025
 Alpha virt. eigenvalues --    0.14713   0.16130   0.16545   0.16817   0.18445

 Mulliken charges:
               1
     1  N    0.055171
     2  C   -0.847825
     3  C    0.243433
     4  C    0.338727
     5  H    0.157596
     6  H    0.106346
     7  H    0.173084
     8  H    0.177683
     9  H   -0.404215
 Sum of Mulliken charges =  -0.00000

 Dipole moment (field-independent basis, Debye):
    X=             -0.7389    Y=              0.7328    Z=              1.2674  Tot=              1.6399

 Test job not archived.
 1\1\GINC-SE232\SP\RHF\Aug-CC-pVDZ\C3H5N1\OHZDE\05-Apr-2025\0\\#t hf au
 g-cc-pvdz iop(5/13=1,5/36=2,99/5=2) pseudo=read geom=check guess=(read
 ,tcheck) scf=(maxcycle=1)\\title\\0,1\N,0,-1.52119,-0.514806,-0.120022
 \C,0,-0.579874,0.602125,0.03895\C,0,0.805281,0.14414,-0.003594\C,0,1.9
 43561,-0.232193,-0.014649\H,0,-1.375309,-1.20707,0.60441\H,0,-2.473718
 ,-0.181419,-0.036708\H,0,-0.745639,1.300834,-0.784742\H,0,-0.721665,1.
 172303,0.967186\H,0,2.950856,-0.565445,-0.034238\\Version=ES64L-G16Rev
 C.01\State=1-A\HF=-171.0913883\RMSD=2.541e-02\Dipole=-0.2906942,0.2883

 Normal termination of Gaussian 16 at Sat Apr  5 23:13:46 2025.
