 Gaussian 16, Revision C.01,

 ----------------------------------------------------------------------
 #t hf aug-cc-pvdz symm=none int=(grid=ultrafine) guess=(read,tcheck) s
 table=(opt,rrhf)
 ----------------------------------------------------------------------
 -----
 title
 -----
 Symbolic Z-matrix:
 Charge =  0 Multiplicity = 1

 SCF Done:  E(RHF) =  -117.086693247     A.U. after   12 cycles
 Normal termination of Gaussian 16 at Sat Apr  5 23:13:40 2025.
 Gaussian 16:  ES64L-G16RevC.01  3-Jul-2019

 ----------------------------------------------------------------------
 #t hf aug-cc-pvdz iop(5/13=1,5/36=2,99/5=2) pseudo=read geom=check gue
 ss=(read,tcheck) scf=(maxcycle=1)
 ----------------------------------------------------------------------
 -----
 title
 -----
 Structure from the checkpoint file:  "propene.chk"
 Charge =  0 Multiplicity = 1

                         Standard orientation:
 ---------------------------------------------------------------------
 Center     Atomic      Atomic             Coordinates (Angstroms)
 Number     Number       Type             X           Y           Z
 ---------------------------------------------------------------------
      1          6           0        1.288205    0.152169    0.000000
      2          6           0        0.000000    0.471192    0.000000
      3          6           0       -1.134493   -0.504884    0.000000
      4          1           0        2.059749    0.910251    0.000000
      5          1           0        1.617497   -0.880355    0.000000
      6          1           0       -0.276862    1.521647    0.000000
      7          1           0       -1.772629   -0.363826    0.876178
      8          1           0       -0.777400   -1.534749    0.000000
      9          1           0       -1.772629   -0.363826   -0.876178
 ---------------------------------------------------------------------

 SCF Done:  E(RHF) =  -117.217910916     A.U. after    2 cycles

 The electronic state is 1-A'.
 Alpha  occ. eigenvalues --  -11.24151 -11.23172 -11.22666  -1.06790  -0.93682
 Alpha  occ. eigenvalues --   -0.76236  -0.64961  -0.59586  -0.57351  -0.53266
 Alpha  occ. eigenvalues --   -0.49850  -0.36766
 Alpha virt. eigenvalues --    0.03902   0.04422   0.04549   0.05633   0.06628
 Alpha virt. eigenvalues --    0.07460   0.10840   0.12437   0.14112   0.14720
 Alpha virt. eigenvalues --    0.15814   0.16663   0.17177   0.17200   0.18498

 Mulliken charges:
               1
     1  C   -0.050665
     2  C    0.438959
     3  C   -0.600552
     4  H   -0.083616
     5  H   -0.067737
     6  H   -0.135136
     7  H    0.200803
     8  H    0.097140
     9  H    0.200803
 Sum of Mulliken charges =  -0.00000

 Dipole moment (field-independent basis, Debye):
    X=             -0.4086    Y=             -0.0472    Z=              0.0000  Tot=              0.4113

 Test job not archived.
 1\1\GINC-SE047\SP\RHF\Aug-CC-pVDZ\C3H6\OHZDE\05-Apr-2025\0\\#t hf aug-
 cc-pvdz iop(5/13=1,5/36=2,99/5=2) pseudo=read geom=check guess=(read,t
 check) scf=(maxcycle=1)\\title\\0,1\C,0,1.288205,0.152169,0.\C,0,0.,0.
 471192,0.\C,0,-1.134493,-0.504884,0.\H,0,2.059749,0.910251,0.\H,0,1.61
 7497,-0.880355,0.\H,0,-0.276862,1.521647,0.\H,0,-1.772629,-0.363826,0.
 876178\H,0,-0.7774,-1.534749,0.\H,0,-1.772629,-0.363826,-0.876178\\Ver
 sion=ES64L-G16RevC.01\State=1-A'\HF=-117.2179109\RMSD=1.159e-02\Dipole
 =-0.1607639,-0.0185503,0.\Quadrupole=0.8228615,0.8070751,-1.6299366,-0

 Normal termination of Gaussian 16 at Sat Apr  5 23:13:43 2025.
