 Gaussian 16, Revision C.01,

 ----------------------------------------------------------------------
 #t hf aug-cc-pvdz symm=none int=(grid=ultrafine) guess=(read,tcheck) s
 table=(opt,rrhf)
 ----------------------------------------------------------------------
 -----
 title
 -----
 Symbolic Z-matrix:
 Charge =  0 Multiplicity = 1

 SCF Done:  E(RHF) =  -1310.86806032     A.U. after   13 cycles
 Normal termination of Gaussian 16 at Sat Apr  5 23:13:12 2025.
 Gaussian 16:  ES64L-G16RevC.01  3-Jul-2019

 ----------------------------------------------------------------------
 #t hf aug-cc-pvdz iop(5/13=1,5/36=2,99/5=2) pseudo=read geom=check gue
 ss=(read,tcheck) scf=(maxcycle=1)
 ----------------------------------------------------------------------
 -----
 title
 -----
 Structure from the checkpoint file:  "propane-1-2-3-trithiol.chk"
 Charge =  0 Multiplicity = 1

                         Standard orientation:
 ---------------------------------------------------------------------
 Center     Atomic      Atomic             Coordinates (Angstroms)
 Number     Number       Type             X           Y           Z
 ---------------------------------------------------------------------
      1          6           0        0.834198   -0.936571   -0.030495
      2          6           0       -1.402371   -0.269951    0.991854
      3          6           0        0.042139    0.149384    0.691781
      4         16           0        2.619734   -0.495778   -0.173755
      5         16           0       -2.501238   -0.563857   -0.452043
      6         16           0        0.149502    1.790968   -0.137745
      7          1           0        0.429951   -1.103433   -1.026573
      8          1           0        0.765825   -1.867304    0.532760
      9          1           0       -1.408866   -1.167657    1.610121
     10          1           0       -1.897031    0.521267    1.550558
     11          1           0        0.520127    0.338062    1.655473
     12          1           0        3.083147   -1.750169   -0.026735
     13          1           0       -2.037822   -1.781895   -0.783799
     14          1           0       -0.587096    1.452627   -1.213971
 ---------------------------------------------------------------------

 SCF Done:  E(RHF) =  -1311.17515490     A.U. after    2 cycles

 The electronic state is 1-A.
 Alpha  occ. eigenvalues --  -93.96301 -93.95376 -93.95187 -11.29747 -11.29206
 Alpha  occ. eigenvalues --  -11.28615  -8.24359  -8.23406  -8.23271  -6.22209
 Alpha  occ. eigenvalues --   -6.22062  -6.21843  -6.21247  -6.21116  -6.21112
 Alpha  occ. eigenvalues --   -6.20977  -6.20879  -6.20757  -1.14794  -1.06442
 Alpha  occ. eigenvalues --   -1.02262  -0.94893  -0.89377  -0.79414  -0.66119
 Alpha  occ. eigenvalues --   -0.64863  -0.63519  -0.59955  -0.55081  -0.52822
 Alpha  occ. eigenvalues --   -0.52002  -0.48359  -0.46721  -0.45233  -0.38506
 Alpha  occ. eigenvalues --   -0.37736  -0.36300
 Alpha virt. eigenvalues --    0.02844   0.03533   0.04204   0.04968   0.06334
 Alpha virt. eigenvalues --    0.06625   0.07116   0.07305   0.08853   0.11015
 Alpha virt. eigenvalues --    0.11409   0.12486   0.13323   0.13520   0.13985

 Mulliken charges:
               1
     1  C   -0.793938
     2  C   -0.692681
     3  C   -0.585705
     4  S    0.120134
     5  S   -0.006318
     6  S   -0.030275
     7  H    0.183578
     8  H    0.125311
     9  H    0.123427
    10  H    0.238747
    11  H    0.270523
    12  H    0.305984
    13  H    0.336380
    14  H    0.404833
 Sum of Mulliken charges =  -0.00000

 Dipole moment (field-independent basis, Debye):
    X=             -0.6483    Y=             -2.9658    Z=              1.1588  Tot=              3.2495

 Test job not archived.
 1\1\GINC-SE154\SP\RHF\Aug-CC-pVDZ\C3H8S3\OHZDE\05-Apr-2025\0\\#t hf au
 g-cc-pvdz iop(5/13=1,5/36=2,99/5=2) pseudo=read geom=check guess=(read
 ,tcheck) scf=(maxcycle=1)\\title\\0,1\C,0,0.834198,-0.936571,-0.030495
 \C,0,-1.402371,-0.269951,0.991854\C,0,0.042139,0.149384,0.691781\S,0,2
 .619734,-0.495778,-0.173755\S,0,-2.501238,-0.563857,-0.452043\S,0,0.14
 9502,1.790968,-0.137745\H,0,0.429951,-1.103433,-1.026573\H,0,0.765825,
 -1.867304,0.53276\H,0,-1.408866,-1.167657,1.610121\H,0,-1.897031,0.521
 267,1.550558\H,0,0.520127,0.338062,1.655473\H,0,3.083147,-1.750169,-0.

 Normal termination of Gaussian 16 at Sat Apr  5 23:13:32 2025.
