 Gaussian 16, Revision C.01,

 ----------------------------------------------------------------------
 #t hf aug-cc-pvdz symm=none int=(grid=ultrafine) guess=(read,tcheck) s
 table=(opt,rrhf)
 ----------------------------------------------------------------------
 -----
 title
 -----
 Symbolic Z-matrix:
 Charge =  0 Multiplicity = 1

 SCF Done:  E(RHF) =  -265.673682803     A.U. after   15 cycles
 Normal termination of Gaussian 16 at Sat Apr  5 23:12:46 2025.
 Gaussian 16:  ES64L-G16RevC.01  3-Jul-2019

 ----------------------------------------------------------------------
 #t hf aug-cc-pvdz iop(5/13=1,5/36=2,99/5=2) pseudo=read geom=check gue
 ss=(read,tcheck) scf=(maxcycle=1)
 ----------------------------------------------------------------------
 -----
 title
 -----
 Structure from the checkpoint file:  "propenalol.chk"
 Charge =  0 Multiplicity = 1

                         Standard orientation:
 ---------------------------------------------------------------------
 Center     Atomic      Atomic             Coordinates (Angstroms)
 Number     Number       Type             X           Y           Z
 ---------------------------------------------------------------------
      1          6           0        0.000000    1.096648    0.000000
      2          6           0        1.231022    0.361916    0.000000
      3          6           0       -1.183818    0.424873    0.000000
      4          8           0        1.286331   -0.874778    0.000000
      5          8           0       -1.283038   -0.888616    0.000000
      6          1           0       -0.346283   -1.239665    0.000000
      7          1           0        0.009428    2.175177    0.000000
      8          1           0        2.168876    0.938076    0.000000
      9          1           0       -2.141591    0.932940    0.000000
 ---------------------------------------------------------------------

 SCF Done:  E(RHF) =  -265.939376374     A.U. after    2 cycles

 The electronic state is 1-A'.
 Alpha  occ. eigenvalues --  -20.59376 -20.54796 -11.35621 -11.35422 -11.23958
 Alpha  occ. eigenvalues --   -1.52611  -1.46988  -1.07683  -0.91244  -0.83333
 Alpha  occ. eigenvalues --   -0.73037  -0.68217  -0.65083  -0.62383  -0.60406
 Alpha  occ. eigenvalues --   -0.56325  -0.53675  -0.43146  -0.36940
 Alpha virt. eigenvalues --    0.03040   0.03810   0.05389   0.06215   0.06608
 Alpha virt. eigenvalues --    0.09772   0.10719   0.12663   0.13650   0.13893
 Alpha virt. eigenvalues --    0.14183   0.14377   0.14928   0.15953   0.17554

 Mulliken charges:
               1
     1  C    0.453048
     2  C    0.803494
     3  C    0.995635
     4  O   -1.287690
     5  O   -1.355661
     6  H    0.501410
     7  H   -0.181016
     8  H    0.076087
     9  H   -0.005308
 Sum of Mulliken charges =  -0.00000

 Dipole moment (field-independent basis, Debye):
    X=             -0.5973    Y=              2.8486    Z=              0.0000  Tot=              2.9106

 Test job not archived.
 1\1\GINC-SE046\SP\RHF\Aug-CC-pVDZ\C3H4O2\OHZDE\05-Apr-2025\0\\#t hf au
 g-cc-pvdz iop(5/13=1,5/36=2,99/5=2) pseudo=read geom=check guess=(read
 ,tcheck) scf=(maxcycle=1)\\title\\0,1\C,0,0.,1.096648,0.\C,0,1.231022,
 0.361916,0.\C,0,-1.183818,0.424873,0.\O,0,1.286331,-0.874778,0.\O,0,-1
 .283038,-0.888616,0.\H,0,-0.346283,-1.239665,0.\H,0,0.009428,2.175177,
 0.\H,0,2.168876,0.938076,0.\H,0,-2.141591,0.93294,0.\\Version=ES64L-G1
 6RevC.01\State=1-A'\HF=-265.9393764\RMSD=1.973e-02\Dipole=-0.2349774,1
 .1207415,0.\Quadrupole=0.8405284,0.2519589,-1.0924874,0.6244908,0.,0.\

 Normal termination of Gaussian 16 at Sat Apr  5 23:13:30 2025.
