 Gaussian 16, Revision C.01,

 ----------------------------------------------------------------------
 #t hf aug-cc-pvdz symm=none int=(grid=ultrafine) guess=(read,tcheck) s
 table=(opt,rrhf)
 ----------------------------------------------------------------------
 -----
 title
 -----
 Symbolic Z-matrix:
 Charge =  0 Multiplicity = 1

 SCF Done:  E(RHF) =  -345.458398337     A.U. after   16 cycles
 Normal termination of Gaussian 16 at Sat Apr  5 23:13:35 2025.
 Gaussian 16:  ES64L-G16RevC.01  3-Jul-2019

 ----------------------------------------------------------------------
 #t hf aug-cc-pvdz iop(5/13=1,5/36=2,99/5=2) pseudo=read geom=check gue
 ss=(read,tcheck) scf=(maxcycle=1)
 ----------------------------------------------------------------------
 -----
 title
 -----
 Structure from the checkpoint file:  "prop-1-ynylbenzene.chk"
 Charge =  0 Multiplicity = 1

                         Standard orientation:
 ---------------------------------------------------------------------
 Center     Atomic      Atomic             Coordinates (Angstroms)
 Number     Number       Type             X           Y           Z
 ---------------------------------------------------------------------
      1          6           0       -1.391545    0.000201   -0.000002
      2          6           0       -2.595600    0.000392   -0.000004
      3          6           0        2.836362   -0.000147    0.000002
      4          6           0        2.137248    1.202242    0.000001
      5          6           0        2.137077   -1.202403    0.000001
      6          6           0        0.750328    1.206082   -0.000001
      7          6           0        0.750116   -1.206050   -0.000001
      8          6           0        0.034638    0.000067   -0.000002
      9          6           0       -4.050167   -0.000024    0.000003
     10          1           0        3.918041   -0.000216    0.000003
     11          1           0        2.674572    2.141336    0.000001
     12          1           0        2.674269   -2.141571    0.000002
     13          1           0        0.206696    2.140516   -0.000001
     14          1           0        0.206275   -2.140361   -0.000001
     15          1           0       -4.443661   -0.509666    0.881896
     16          1           0       -4.443259    1.018099   -0.000365
     17          1           0       -4.443669   -0.510309   -0.881514
 ---------------------------------------------------------------------

 SCF Done:  E(RHF) =  -345.817860595     A.U. after    2 cycles

 The electronic state is 1-A.
 Alpha  occ. eigenvalues --  -11.26470 -11.25834 -11.24668 -11.24667 -11.24574
 Alpha  occ. eigenvalues --  -11.24429 -11.24421 -11.23759 -11.22894  -1.16472
 Alpha  occ. eigenvalues --   -1.07181  -1.02978  -1.02201  -0.95537  -0.85225
 Alpha  occ. eigenvalues --   -0.83955  -0.74448  -0.68045  -0.65093  -0.64206
 Alpha  occ. eigenvalues --   -0.61545  -0.60343  -0.59605  -0.59517  -0.52689
 Alpha  occ. eigenvalues --   -0.52576  -0.51099  -0.42457  -0.38718  -0.35043
 Alpha  occ. eigenvalues --   -0.31878
 Alpha virt. eigenvalues --    0.03247   0.03532   0.03789   0.04636   0.04977
 Alpha virt. eigenvalues --    0.05685   0.06881   0.07536   0.08324   0.10261
 Alpha virt. eigenvalues --    0.10392   0.10755   0.11300   0.13172   0.13833

 Mulliken charges:
               1
     1  C    0.577402
     2  C   -0.443263
     3  C   -0.119919
     4  C   -0.045091
     5  C   -0.007201
     6  C   -0.001948
     7  C    0.047833
     8  C    1.210146
     9  C   -0.714929
    10  H   -0.224503
    11  H   -0.234296
    12  H   -0.232272
    13  H   -0.291328
    14  H   -0.291662
    15  H    0.264156
    16  H    0.242739
    17  H    0.264134
 Sum of Mulliken charges =  -0.00000

 Dipole moment (field-independent basis, Debye):
    X=             -0.3664    Y=              0.0003    Z=              0.0000  Tot=              0.3664

 Test job not archived.
 1\1\GINC-SE252\SP\RHF\Aug-CC-pVDZ\C9H8\OHZDE\05-Apr-2025\0\\#t hf aug-
 cc-pvdz iop(5/13=1,5/36=2,99/5=2) pseudo=read geom=check guess=(read,t
 check) scf=(maxcycle=1)\\title\\0,1\C,0,-1.391545,0.000201,-0.000002\C
 ,0,-2.5956,0.000392,-0.000004\C,0,2.836362,-0.000147,0.000002\C,0,2.13
 7248,1.202242,0.000001\C,0,2.137077,-1.202403,0.000001\C,0,0.750328,1.
 206082,-0.000001\C,0,0.750116,-1.20605,-0.000001\C,0,0.034638,0.000067
 ,-0.000002\C,0,-4.050167,-0.000024,0.000003\H,0,3.918041,-0.000216,0.0
 00003\H,0,2.674572,2.141336,0.000001\H,0,2.674269,-2.141571,0.000002\H

 Normal termination of Gaussian 16 at Sat Apr  5 23:13:42 2025.
