 Gaussian 16, Revision C.01,

 ----------------------------------------------------------------------
 #t hf aug-cc-pvdz symm=none int=(grid=ultrafine) guess=(read,tcheck) s
 table=(opt,rrhf)
 ----------------------------------------------------------------------
 -----
 title
 -----
 Symbolic Z-matrix:
 Charge =  0 Multiplicity = 1

 SCF Done:  E(RHF) =  -191.978613924     A.U. after   12 cycles
 Normal termination of Gaussian 16 at Sat Apr  5 23:12:46 2025.
 Gaussian 16:  ES64L-G16RevC.01  3-Jul-2019

 ----------------------------------------------------------------------
 #t hf aug-cc-pvdz iop(5/13=1,5/36=2,99/5=2) pseudo=read geom=check gue
 ss=(read,tcheck) scf=(maxcycle=1)
 ----------------------------------------------------------------------
 -----
 title
 -----
 Structure from the checkpoint file:  "propanal.chk"
 Charge =  0 Multiplicity = 1

                         Standard orientation:
 ---------------------------------------------------------------------
 Center     Atomic      Atomic             Coordinates (Angstroms)
 Number     Number       Type             X           Y           Z
 ---------------------------------------------------------------------
      1          6           0        0.996293   -0.222905    0.000000
      2          6           0       -1.458518    0.470962    0.000000
      3          6           0        0.000000    0.905538    0.000000
      4          8           0        0.716194   -1.394736    0.000000
      5          1           0        2.059410    0.097311    0.000000
      6          1           0       -1.685732   -0.133233    0.877361
      7          1           0       -1.685732   -0.133233   -0.877361
      8          1           0       -2.117948    1.338361    0.000000
      9          1           0        0.236898    1.533556   -0.867218
     10          1           0        0.236898    1.533556    0.867218
 ---------------------------------------------------------------------

 SCF Done:  E(RHF) =  -192.179910432     A.U. after    2 cycles

 The electronic state is 1-A'.
 Alpha  occ. eigenvalues --  -20.54636 -11.34159 -11.25394 -11.23282  -1.47761
 Alpha  occ. eigenvalues --   -1.06725  -0.91722  -0.77973  -0.68932  -0.64096
 Alpha  occ. eigenvalues --   -0.63394  -0.55082  -0.53412  -0.52881  -0.49416
 Alpha  occ. eigenvalues --   -0.41674
 Alpha virt. eigenvalues --    0.03247   0.03952   0.04392   0.05157   0.06840
 Alpha virt. eigenvalues --    0.07727   0.10547   0.10803   0.12259   0.14188
 Alpha virt. eigenvalues --    0.14355   0.15513   0.15724   0.16459   0.17200

 Mulliken charges:
               1
     1  C    0.953437
     2  C   -0.259095
     3  C   -0.573821
     4  O   -1.106387
     5  H    0.111484
     6  H    0.157374
     7  H    0.157374
     8  H    0.134670
     9  H    0.212482
    10  H    0.212482
 Sum of Mulliken charges =  -0.00000

 Dipole moment (field-independent basis, Debye):
    X=              0.1149    Y=              2.9560    Z=              0.0000  Tot=              2.9582

 Test job not archived.
 1\1\GINC-SE179\SP\RHF\Aug-CC-pVDZ\C3H6O1\OHZDE\05-Apr-2025\0\\#t hf au
 g-cc-pvdz iop(5/13=1,5/36=2,99/5=2) pseudo=read geom=check guess=(read
 ,tcheck) scf=(maxcycle=1)\\title\\0,1\C,0,0.996293,-0.222905,0.\C,0,-1
 .458518,0.470962,0.\C,0,0.,0.905538,0.\O,0,0.716194,-1.394736,0.\H,0,2
 .05941,0.097311,0.\H,0,-1.685732,-0.133233,0.877361\H,0,-1.685732,-0.1
 33233,-0.877361\H,0,-2.117948,1.338361,0.\H,0,0.236898,1.533556,-0.867
 218\H,0,0.236898,1.533556,0.867218\\Version=ES64L-G16RevC.01\State=1-A
 '\HF=-192.1799104\RMSD=9.512e-03\Dipole=0.0452221,1.1629822,0.\Quadrup

 Normal termination of Gaussian 16 at Sat Apr  5 23:13:30 2025.
