 Gaussian 16, Revision C.01,

 ----------------------------------------------------------------------
 #t hf aug-cc-pvdz symm=none int=(grid=ultrafine) guess=(read,tcheck) s
 table=(opt,rrhf)
 ----------------------------------------------------------------------
 -----
 title
 -----
 Symbolic Z-matrix:
 Charge =  0 Multiplicity = 1

 SCF Done:  E(RHF) =  -191.935066491     A.U. after   12 cycles
 Normal termination of Gaussian 16 at Sat Apr  5 23:13:43 2025.
 Gaussian 16:  ES64L-G16RevC.01  3-Jul-2019

 ----------------------------------------------------------------------
 #t hf aug-cc-pvdz iop(5/13=1,5/36=2,99/5=2) pseudo=read geom=check gue
 ss=(read,tcheck) scf=(maxcycle=1)
 ----------------------------------------------------------------------
 -----
 title
 -----
 Structure from the checkpoint file:  "propylene_oxide.chk"
 Charge =  0 Multiplicity = 1

                         Standard orientation:
 ---------------------------------------------------------------------
 Center     Atomic      Atomic             Coordinates (Angstroms)
 Number     Number       Type             X           Y           Z
 ---------------------------------------------------------------------
      1          8           0        0.828981   -0.789180   -0.238022
      2          6           0       -1.508266    0.097281   -0.148770
      3          1           0       -1.418953    0.320203   -1.211647
      4          1           0       -2.074015   -0.829198   -0.038726
      5          1           0       -2.076905    0.897311    0.329487
      6          6           0       -0.152980   -0.033489    0.484726
      7          1           0       -0.154020   -0.247472    1.550696
      8          6           0        1.040125    0.616650   -0.061363
      9          1           0        0.954099    1.210204   -0.965902
     10          1           0        1.864673    0.879739    0.592713
 ---------------------------------------------------------------------

 SCF Done:  E(RHF) =  -192.137307184     A.U. after    2 cycles

 The electronic state is 1-A.
 Alpha  occ. eigenvalues --  -20.55339 -11.29480 -11.28867 -11.23594  -1.48541
 Alpha  occ. eigenvalues --   -1.02045  -0.91815  -0.82053  -0.70428  -0.65074
 Alpha  occ. eigenvalues --   -0.59271  -0.56854  -0.53332  -0.51837  -0.44188
 Alpha  occ. eigenvalues --   -0.43482
 Alpha virt. eigenvalues --    0.03657   0.04224   0.04309   0.05415   0.06562
 Alpha virt. eigenvalues --    0.07554   0.10245   0.12224   0.12753   0.14381
 Alpha virt. eigenvalues --    0.15119   0.15799   0.16693   0.17444   0.17773

 Mulliken charges:
               1
     1  O   -1.224152
     2  C   -0.556663
     3  H    0.155258
     4  H    0.210502
     5  H    0.215081
     6  C    0.839316
     7  H   -0.050934
     8  C    0.413953
     9  H    0.000961
    10  H   -0.003323
 Sum of Mulliken charges =  -0.00000

 Dipole moment (field-independent basis, Debye):
    X=             -0.8955    Y=              1.7815    Z=              0.7214  Tot=              2.1204

 Test job not archived.
 1\1\GINC-SE168\SP\RHF\Aug-CC-pVDZ\C3H6O1\OHZDE\05-Apr-2025\0\\#t hf au
 g-cc-pvdz iop(5/13=1,5/36=2,99/5=2) pseudo=read geom=check guess=(read
 ,tcheck) scf=(maxcycle=1)\\title\\0,1\O,0,0.828981,-0.78918,-0.238022\
 C,0,-1.508266,0.097281,-0.14877\H,0,-1.418953,0.320203,-1.211647\H,0,-
 2.074015,-0.829198,-0.038726\H,0,-2.076905,0.897311,0.329487\C,0,-0.15
 298,-0.033489,0.484726\H,0,-0.15402,-0.247472,1.550696\C,0,1.040125,0.
 61665,-0.061363\H,0,0.954099,1.210204,-0.965902\H,0,1.864673,0.879739,
 0.592713\\Version=ES64L-G16RevC.01\State=1-A\HF=-192.1373072\RMSD=1.24

 Normal termination of Gaussian 16 at Sat Apr  5 23:13:46 2025.
