 Gaussian 16, Revision C.01,

 ----------------------------------------------------------------------
 #t hf aug-cc-pvdz symm=none int=(grid=ultrafine) guess=(read,tcheck) s
 table=(opt,rrhf)
 ----------------------------------------------------------------------
 -----
 title
 -----
 Symbolic Z-matrix:
 Charge =  0 Multiplicity = 1

 SCF Done:  E(RHF) =  -288.451367317     A.U. after   15 cycles
 Normal termination of Gaussian 16 at Sat Apr  5 23:13:40 2025.
 Gaussian 16:  ES64L-G16RevC.01  3-Jul-2019

 ----------------------------------------------------------------------
 #t hf aug-cc-pvdz iop(5/13=1,5/36=2,99/5=2) pseudo=read geom=check gue
 ss=(read,tcheck) scf=(maxcycle=1)
 ----------------------------------------------------------------------
 -----
 title
 -----
 Structure from the checkpoint file:  "prop-2-ynoyl_fluoride.chk"
 Charge =  0 Multiplicity = 1

                         Standard orientation:
 ---------------------------------------------------------------------
 Center     Atomic      Atomic             Coordinates (Angstroms)
 Number     Number       Type             X           Y           Z
 ---------------------------------------------------------------------
      1          9           0        1.053714    1.101216    0.000007
      2          8           0        1.153455   -1.111284    0.000013
      3          6           0        0.490920   -0.130271   -0.000038
      4          6           0       -0.939398   -0.040028   -0.000063
      5          6           0       -2.136840   -0.004245    0.000046
      6          1           0       -3.199160    0.026597    0.000161
 ---------------------------------------------------------------------

 SCF Done:  E(RHF) =  -288.723929498     A.U. after    2 cycles

 The electronic state is 1-A.
 Alpha  occ. eigenvalues --  -26.51330 -20.59421 -11.47361 -11.30781 -11.29390
 Alpha  occ. eigenvalues --   -1.65661  -1.53035  -1.10194  -0.95644  -0.81708
 Alpha  occ. eigenvalues --   -0.76615  -0.73570  -0.72037  -0.64084  -0.56732
 Alpha  occ. eigenvalues --   -0.52122  -0.46095  -0.46001
 Alpha virt. eigenvalues --    0.02710   0.05246   0.07495   0.08815   0.09165
 Alpha virt. eigenvalues --    0.09215   0.10543   0.12793   0.14297   0.15180
 Alpha virt. eigenvalues --    0.17080   0.18042   0.18914   0.22783   0.23779

 Mulliken charges:
               1
     1  F   -0.666129
     2  O   -1.023382
     3  C    1.785526
     4  C    0.001863
     5  C    0.197874
     6  H   -0.295751
 Sum of Mulliken charges =  -0.00000

 Dipole moment (field-independent basis, Debye):
    X=             -3.2814    Y=              0.7608    Z=              0.0001  Tot=              3.3684

 Test job not archived.
 1\1\GINC-SE104\SP\RHF\Aug-CC-pVDZ\C3H1F1O1\OHZDE\05-Apr-2025\0\\#t hf
 aug-cc-pvdz iop(5/13=1,5/36=2,99/5=2) pseudo=read geom=check guess=(re
 ad,tcheck) scf=(maxcycle=1)\\title\\0,1\F,0,1.053714,1.101216,0.000007
 \O,0,1.153455,-1.111284,0.000013\C,0,0.49092,-0.130271,-0.000038\C,0,-
 0.939398,-0.040028,-0.000063\C,0,-2.13684,-0.004245,0.000046\H,0,-3.19
 916,0.026597,0.000161\\Version=ES64L-G16RevC.01\State=1-A\HF=-288.7239
 295\RMSD=1.790e-02\Dipole=-1.2910036,0.2993241,0.0000218\Quadrupole=4.
 0961186,-3.6148981,-0.4812205,0.7444556,-0.0006228,0.0000197\PG=C01 [X

 Normal termination of Gaussian 16 at Sat Apr  5 23:13:44 2025.
