 Gaussian 16, Revision C.01,

 ----------------------------------------------------------------------
 #t hf aug-cc-pvdz symm=none int=(grid=ultrafine) guess=(read,tcheck) s
 table=(opt,rrhf)
 ----------------------------------------------------------------------
 -----
 title
 -----
 Symbolic Z-matrix:
 Charge =  0 Multiplicity = 1

 SCF Done:  E(RHF) =  -170.982829024     A.U. after   13 cycles
 Normal termination of Gaussian 16 at Sat Apr  5 23:13:43 2025.
 Gaussian 16:  ES64L-G16RevC.01  3-Jul-2019

 ----------------------------------------------------------------------
 #t hf aug-cc-pvdz iop(5/13=1,5/36=2,99/5=2) pseudo=read geom=check gue
 ss=(read,tcheck) scf=(maxcycle=1)
 ----------------------------------------------------------------------
 -----
 title
 -----
 Structure from the checkpoint file:  "propanenitrile.chk"
 Charge =  0 Multiplicity = 1

                         Standard orientation:
 ---------------------------------------------------------------------
 Center     Atomic      Atomic             Coordinates (Angstroms)
 Number     Number       Type             X           Y           Z
 ---------------------------------------------------------------------
      1          6           0        0.771682   -0.432622    0.000000
      2          6           0       -1.515437    0.563249    0.000000
      3          6           0        0.000000    0.807103    0.000000
      4          7           0        1.364991   -1.417770    0.000000
      5          1           0       -1.819793    0.002200    0.881973
      6          1           0       -2.041098    1.517131    0.000000
      7          1           0       -1.819793    0.002200   -0.881973
      8          1           0        0.294138    1.388238    0.876058
      9          1           0        0.294138    1.388238   -0.876058
 ---------------------------------------------------------------------

 SCF Done:  E(RHF) =  -171.161073762     A.U. after    2 cycles

 The electronic state is 1-A'.
 Alpha  occ. eigenvalues --  -15.50915 -11.29420 -11.27876 -11.25914  -1.23338
 Alpha  occ. eigenvalues --   -1.08881  -0.91833  -0.71409  -0.66735  -0.61282
 Alpha  occ. eigenvalues --   -0.59102  -0.55716  -0.55373  -0.49070  -0.48911
 Alpha virt. eigenvalues --    0.02842   0.04004   0.04207   0.05049   0.06741
 Alpha virt. eigenvalues --    0.09285   0.11226   0.11443   0.12530   0.13499
 Alpha virt. eigenvalues --    0.15025   0.16134   0.16604   0.17312   0.17383

 Mulliken charges:
               1
     1  C   -1.420926
     2  C   -0.277774
     3  C   -0.103585
     4  N    0.829434
     5  H    0.182374
     6  H    0.132185
     7  H    0.182374
     8  H    0.237958
     9  H    0.237958
 Sum of Mulliken charges =  -0.00000

 Dipole moment (field-independent basis, Debye):
    X=             -2.7525    Y=              4.0361    Z=             -0.0000  Tot=              4.8853

 Test job not archived.
 1\1\GINC-SE196\SP\RHF\Aug-CC-pVDZ\C3H5N1\OHZDE\05-Apr-2025\0\\#t hf au
 g-cc-pvdz iop(5/13=1,5/36=2,99/5=2) pseudo=read geom=check guess=(read
 ,tcheck) scf=(maxcycle=1)\\title\\0,1\C,0,0.771682,-0.432622,0.\C,0,-1
 .515437,0.563249,0.\C,0,0.,0.807103,0.\N,0,1.364991,-1.41777,0.\H,0,-1
 .819793,0.0022,0.881973\H,0,-2.041098,1.517131,0.\H,0,-1.819793,0.0022
 ,-0.881973\H,0,0.294138,1.388238,0.876058\H,0,0.294138,1.388238,-0.876
 058\\Version=ES64L-G16RevC.01\State=1-A'\HF=-171.1610738\RMSD=1.951e-0
 2\Dipole=-1.0828998,1.5879157,0.\Quadrupole=-0.8611183,-1.2213797,2.08

 Normal termination of Gaussian 16 at Sat Apr  5 23:13:46 2025.
