 Gaussian 16, Revision C.01,

 ----------------------------------------------------------------------
 #t hf aug-cc-pvdz symm=none int=(grid=ultrafine) guess=(read,tcheck) s
 table=(opt,rrhf)
 ----------------------------------------------------------------------
 -----
 title
 -----
 Symbolic Z-matrix:
 Charge =  0 Multiplicity = 1

 SCF Done:  E(RHF) =  -312.300643257     A.U. after   12 cycles
 Normal termination of Gaussian 16 at Sat Apr  5 23:15:28 2025.
 Gaussian 16:  ES64L-G16RevC.01  3-Jul-2019

 ----------------------------------------------------------------------
 #t hf aug-cc-pvdz iop(5/13=1,5/36=2,99/5=2) pseudo=read geom=check gue
 ss=(read,tcheck) scf=(maxcycle=1)
 ----------------------------------------------------------------------
 -----
 title
 -----
 Structure from the checkpoint file:  "propylcyclopentane.chk"
 Charge =  0 Multiplicity = 1

                         Standard orientation:
 ---------------------------------------------------------------------
 Center     Atomic      Atomic             Coordinates (Angstroms)
 Number     Number       Type             X           Y           Z
 ---------------------------------------------------------------------
      1          6           0       -2.668057   -0.516202   -0.151817
      2          6           0       -2.379219    0.990207    0.083732
      3          6           0       -1.340914   -1.229360    0.139892
      4          6           0       -0.838544    1.117468    0.194491
      5          6           0       -0.268079   -0.224742   -0.304017
      6          6           0        3.632805   -0.000756    0.134440
      7          6           0        1.143001   -0.554336    0.179922
      8          6           0        2.231894    0.390324   -0.333620
      9          1           0       -3.488035   -0.885577    0.464020
     10          1           0       -2.953947   -0.684716   -1.191912
     11          1           0       -2.769755    1.593120   -0.736241
     12          1           0       -2.864319    1.350360    0.991058
     13          1           0       -1.236812   -1.414843    1.213997
     14          1           0       -1.254830   -2.193162   -0.364168
     15          1           0       -0.452275    1.972210   -0.360265
     16          1           0       -0.546339    1.259696    1.238803
     17          1           0       -0.259603   -0.208411   -1.401207
     18          1           0        3.700615    0.007006    1.224348
     19          1           0        3.895190   -1.005453   -0.203653
     20          1           0        4.388824    0.686078   -0.248814
     21          1           0        1.393620   -1.576741   -0.122604
     22          1           0        1.150697   -0.552656    1.276131
     23          1           0        2.014697    1.411417   -0.009971
     24          1           0        2.204946    0.406052   -1.427659
 ---------------------------------------------------------------------

 SCF Done:  E(RHF) =  -312.650507221     A.U. after    2 cycles

 The electronic state is 1-A.
 Alpha  occ. eigenvalues --  -11.22156 -11.22112 -11.21877 -11.21851 -11.21834
 Alpha  occ. eigenvalues --  -11.21831 -11.21690 -11.21642  -1.12660  -1.05695
 Alpha  occ. eigenvalues --   -0.97748  -0.95711  -0.89318  -0.80753  -0.77507
 Alpha  occ. eigenvalues --   -0.75923  -0.66147  -0.64072  -0.62901  -0.58880
 Alpha  occ. eigenvalues --   -0.57649  -0.56114  -0.54094  -0.52889  -0.49390
 Alpha  occ. eigenvalues --   -0.48081  -0.47744  -0.47100  -0.45785  -0.45384
 Alpha  occ. eigenvalues --   -0.44943  -0.44117
 Alpha virt. eigenvalues --    0.03232   0.03443   0.03602   0.04207   0.05207
 Alpha virt. eigenvalues --    0.05481   0.05596   0.06307   0.06493   0.07762
 Alpha virt. eigenvalues --    0.08375   0.08553   0.09284   0.09535   0.11073

 Mulliken charges:
               1
     1  C   -0.229694
     2  C   -0.274009
     3  C    0.047366
     4  C   -0.041469
     5  C   -0.506866
     6  C   -0.402215
     7  C   -0.267239
     8  C   -0.155831
     9  H    0.091919
    10  H    0.103778
    11  H    0.155797
    12  H    0.141503
    13  H    0.146400
    14  H    0.066272
    15  H    0.046813
    16  H    0.099245
    17  H    0.038254
    18  H    0.163041
    19  H    0.157708
    20  H    0.114612
    21  H    0.131778
    22  H    0.136192
    23  H    0.115231
    24  H    0.121413
 Sum of Mulliken charges =  -0.00000

 Dipole moment (field-independent basis, Debye):
    X=             -0.0278    Y=              0.0273    Z=             -0.0932  Tot=              0.1010

 Test job not archived.
 1\1\GINC-SE152\SP\RHF\Aug-CC-pVDZ\C8H16\OHZDE\05-Apr-2025\0\\#t hf aug
 -cc-pvdz iop(5/13=1,5/36=2,99/5=2) pseudo=read geom=check guess=(read,
 tcheck) scf=(maxcycle=1)\\title\\0,1\C,0,-2.668057,-0.516202,-0.151817
 \C,0,-2.379219,0.990207,0.083732\C,0,-1.340914,-1.22936,0.139892\C,0,-
 0.838544,1.117468,0.194491\C,0,-0.268079,-0.224742,-0.304017\C,0,3.632
 805,-0.000756,0.13444\C,0,1.143001,-0.554336,0.179922\C,0,2.231894,0.3
 90324,-0.33362\H,0,-3.488035,-0.885577,0.46402\H,0,-2.953947,-0.684716
 ,-1.191912\H,0,-2.769755,1.59312,-0.736241\H,0,-2.864319,1.35036,0.991

 Normal termination of Gaussian 16 at Sat Apr  5 23:16:04 2025.
