 Gaussian 16, Revision C.01,

 ----------------------------------------------------------------------
 #t hf aug-cc-pvdz symm=none int=(grid=ultrafine) guess=(read,tcheck) s
 table=(opt,rrhf)
 ----------------------------------------------------------------------
 -----
 title
 -----
 Symbolic Z-matrix:
 Charge =  0 Multiplicity = 1

 SCF Done:  E(RHF) =  -423.033539293     A.U. after   13 cycles

 1\1\GINC-SE084\Stability\RHF\Aug-CC-pVDZ\C7H14O2\OHZDE\05-Apr-2025\0\\
 #t hf aug-cc-pvdz symm=none int=(grid=ultrafine) guess=(read,tcheck) s
 table=(opt,rrhf)\\title\\0,1\C,0,0.,0.612118,0.\C,0,3.00813,3.090722,0
 .\C,0,-2.513916,-3.581102,0.\C,0,1.428318,1.107953,0.\C,0,1.55259,2.62
 7842,0.\C,0,-1.17295,-2.848444,0.\C,0,-1.353001,-1.343669,0.\O,0,-0.98
 5991,1.306773,0.\O,0,-0.041603,-0.736721,0.\H,0,3.073746,4.179115,0.\H
 ,0,3.541696,2.727258,0.88086\H,0,3.541696,2.727258,-0.88086\H,0,-3.106
 341,-3.328029,-0.88119\H,0,-2.36653,-4.66089,0.\H,0,-3.106341,-3.32802

 Normal termination of Gaussian 16 at Sat Apr  5 23:15:22 2025.
 Gaussian 16:  ES64L-G16RevC.01  3-Jul-2019

 ----------------------------------------------------------------------
 #t hf aug-cc-pvdz iop(5/13=1,5/36=2,99/5=2) pseudo=read geom=check gue
 ss=(read,tcheck) scf=(maxcycle=1)
 ----------------------------------------------------------------------
 -----
 title
 -----
 Structure from the checkpoint file:  "propyl_butanoate.chk"
 Charge =  0 Multiplicity = 1

                         Standard orientation:
 ---------------------------------------------------------------------
 Center     Atomic      Atomic             Coordinates (Angstroms)
 Number     Number       Type             X           Y           Z
 ---------------------------------------------------------------------
      1          6           0       -0.000000    0.612118    0.000000
      2          6           0        3.008129    3.090723    0.000000
      3          6           0       -2.513914   -3.581103    0.000000
      4          6           0        1.428318    1.107954    0.000000
      5          6           0        1.552589    2.627843    0.000000
      6          6           0       -1.172949   -2.848444    0.000000
      7          6           0       -1.353000   -1.343669    0.000000
      8          8           0       -0.985991    1.306773    0.000000
      9          8           0       -0.041603   -0.736721    0.000000
     10          1           0        3.073745    4.179116    0.000000
     11          1           0        3.541695    2.727259    0.880860
     12          1           0        3.541695    2.727259   -0.880860
     13          1           0       -3.106340   -3.328030   -0.881190
     14          1           0       -2.366528   -4.660891    0.000000
     15          1           0       -3.106340   -3.328030    0.881190
     16          1           0        1.929119    0.673099    0.869456
     17          1           0        1.929119    0.673099   -0.869456
     18          1           0        1.031922    3.030231   -0.870409
     19          1           0        1.031922    3.030231    0.870409
     20          1           0       -0.587969   -3.136322   -0.876168
     21          1           0       -0.587969   -3.136322    0.876168
     22          1           0       -1.899179   -1.001822   -0.880481
     23          1           0       -1.899179   -1.001822    0.880481
 ---------------------------------------------------------------------

 SCF Done:  E(RHF) =  -423.480828153     A.U. after    2 cycles

 The electronic state is 1-A'.
 Alpha  occ. eigenvalues --  -20.58146 -20.52796 -11.38127 -11.29156 -11.24699
 Alpha  occ. eigenvalues --  -11.23625 -11.23181 -11.23117 -11.22646  -1.53522
 Alpha  occ. eigenvalues --   -1.44342  -1.08986  -1.06684  -0.98338  -0.93087
 Alpha  occ. eigenvalues --   -0.83891  -0.81673  -0.77271  -0.69719  -0.69121
 Alpha  occ. eigenvalues --   -0.67222  -0.65146  -0.60904  -0.60436  -0.58060
 Alpha  occ. eigenvalues --   -0.56496  -0.54598  -0.53131  -0.52509  -0.50642
 Alpha  occ. eigenvalues --   -0.49543  -0.49361  -0.49076  -0.48215  -0.44778
 Alpha  occ. eigenvalues --   -0.43361
 Alpha virt. eigenvalues --    0.03541   0.03599   0.03841   0.04086   0.04686
 Alpha virt. eigenvalues --    0.05136   0.05204   0.06852   0.07009   0.07967
 Alpha virt. eigenvalues --    0.07976   0.08475   0.09530   0.10748   0.10827

 Mulliken charges:
               1
     1  C    2.131250
     2  C   -0.426298
     3  C   -0.348540
     4  C   -0.729949
     5  C   -0.108491
     6  C   -0.358177
     7  C    0.384381
     8  O   -1.223418
     9  O   -1.331553
    10  H    0.115746
    11  H    0.162349
    12  H    0.162349
    13  H    0.167886
    14  H    0.108158
    15  H    0.167886
    16  H    0.178297
    17  H    0.178297
    18  H    0.119496
    19  H    0.119496
    20  H    0.127136
    21  H    0.127136
    22  H    0.138280
    23  H    0.138280
 Sum of Mulliken charges =  -0.00000

 Dipole moment (field-independent basis, Debye):
    X=              1.1604    Y=             -1.6131    Z=              0.0000  Tot=              1.9871

 Test job not archived.
 1\1\GINC-SE084\SP\RHF\Aug-CC-pVDZ\C7H14O2\OHZDE\05-Apr-2025\0\\#t hf a
 ug-cc-pvdz iop(5/13=1,5/36=2,99/5=2) pseudo=read geom=check guess=(rea
 d,tcheck) scf=(maxcycle=1)\\title\\0,1\C,0,0.,0.612118,0.\C,0,3.00813,
 3.090722,0.\C,0,-2.513916,-3.581102,0.\C,0,1.428318,1.107953,0.\C,0,1.
 55259,2.627842,0.\C,0,-1.17295,-2.848444,0.\C,0,-1.353001,-1.343669,0.
 \O,0,-0.985991,1.306773,0.\O,0,-0.041603,-0.736721,0.\H,0,3.073746,4.1
 79115,0.\H,0,3.541696,2.727258,0.88086\H,0,3.541696,2.727258,-0.88086\
 H,0,-3.106341,-3.328029,-0.88119\H,0,-2.36653,-4.66089,0.\H,0,-3.10634

 Normal termination of Gaussian 16 at Sat Apr  5 23:16:00 2025.
