 Gaussian 16, Revision C.01,

 ----------------------------------------------------------------------
 #t hf aug-cc-pvdz symm=none int=(grid=ultrafine) guess=(read,tcheck) s
 table=(opt,rrhf)
 ----------------------------------------------------------------------
 -----
 title
 -----
 Symbolic Z-matrix:
 Charge =  0 Multiplicity = 1

 SCF Done:  E(RHF) =  -268.018923573     A.U. after   12 cycles
 Normal termination of Gaussian 16 at Sat Apr  5 23:13:52 2025.
 Gaussian 16:  ES64L-G16RevC.01  3-Jul-2019

 ----------------------------------------------------------------------
 #t hf aug-cc-pvdz iop(5/13=1,5/36=2,99/5=2) pseudo=read geom=check gue
 ss=(read,tcheck) scf=(maxcycle=1)
 ----------------------------------------------------------------------
 -----
 title
 -----
 Structure from the checkpoint file:  "propylene_glycol.chk"
 Charge =  0 Multiplicity = 1

                         Standard orientation:
 ---------------------------------------------------------------------
 Center     Atomic      Atomic             Coordinates (Angstroms)
 Number     Number       Type             X           Y           Z
 ---------------------------------------------------------------------
      1          8           0       -0.463972    1.384052   -0.155574
      2          1           0        0.450340    1.692749   -0.148928
      3          8           0        1.955994   -0.044939    0.007682
      4          1           0        2.204193   -0.174878    0.928152
      5          6           0        0.719569   -0.720388   -0.243068
      6          1           0        0.626152   -0.767914   -1.328484
      7          1           0        0.743413   -1.741843    0.148870
      8          6           0       -0.461734    0.047680    0.337446
      9          1           0       -0.352342    0.067485    1.432972
     10          6           0       -1.793602   -0.587521   -0.016562
     11          1           0       -1.917072   -0.637100   -1.099209
     12          1           0       -1.865467   -1.596382    0.392217
     13          1           0       -2.610789    0.006348    0.390648
 ---------------------------------------------------------------------

 SCF Done:  E(RHF) =  -268.301064723     A.U. after    2 cycles

 The electronic state is 1-A.
 Alpha  occ. eigenvalues --  -20.56195 -20.53997 -11.29041 -11.28885 -11.22848
 Alpha  occ. eigenvalues --   -1.46444  -1.43563  -1.04925  -0.93525  -0.81694
 Alpha  occ. eigenvalues --   -0.71368  -0.68907  -0.66511  -0.60998  -0.56646
 Alpha  occ. eigenvalues --   -0.54562  -0.54097  -0.51553  -0.50478  -0.46317
 Alpha  occ. eigenvalues --   -0.42642
 Alpha virt. eigenvalues --    0.03136   0.03985   0.04397   0.04935   0.06842
 Alpha virt. eigenvalues --    0.07073   0.07416   0.08128   0.11643   0.13351
 Alpha virt. eigenvalues --    0.14142   0.15031   0.15673   0.16320   0.16568

 Mulliken charges:
               1
     1  O   -1.303456
     2  H    0.330003
     3  O   -1.168662
     4  H    0.289784
     5  C    0.802061
     6  H    0.076988
     7  H    0.131047
     8  C    0.433121
     9  H    0.117080
    10  C   -0.262327
    11  H    0.205861
    12  H    0.200701
    13  H    0.147797
 Sum of Mulliken charges =  -0.00000

 Dipole moment (field-independent basis, Debye):
    X=              0.4053    Y=             -1.8627    Z=              1.5821  Tot=              2.4773

 Test job not archived.
 1\1\GINC-SE152\SP\RHF\Aug-CC-pVDZ\C3H8O2\OHZDE\05-Apr-2025\0\\#t hf au
 g-cc-pvdz iop(5/13=1,5/36=2,99/5=2) pseudo=read geom=check guess=(read
 ,tcheck) scf=(maxcycle=1)\\title\\0,1\O,0,-0.463972,1.384052,-0.155574
 \H,0,0.45034,1.692749,-0.148928\O,0,1.955994,-0.044939,0.007682\H,0,2.
 204193,-0.174878,0.928152\C,0,0.719569,-0.720388,-0.243068\H,0,0.62615
 2,-0.767914,-1.328484\H,0,0.743413,-1.741843,0.14887\C,0,-0.461734,0.0
 4768,0.337446\H,0,-0.352342,0.067485,1.432972\C,0,-1.793602,-0.587521,
 -0.016562\H,0,-1.917072,-0.6371,-1.099209\H,0,-1.865467,-1.596382,0.39

 Normal termination of Gaussian 16 at Sat Apr  5 23:13:56 2025.
