 Gaussian 16, Revision C.01,

 ----------------------------------------------------------------------
 #t hf aug-cc-pvdz symm=none int=(grid=ultrafine) guess=(read,tcheck) s
 table=(opt,rrhf)
 ----------------------------------------------------------------------
 -----
 title
 -----
 Symbolic Z-matrix:
 Charge =  0 Multiplicity = 1

 SCF Done:  E(RHF) =  -379.159379589     A.U. after   15 cycles
 Normal termination of Gaussian 16 at Sat Apr  5 23:13:59 2025.
 Gaussian 16:  ES64L-G16RevC.01  3-Jul-2019

 ----------------------------------------------------------------------
 #t hf aug-cc-pvdz iop(5/13=1,5/36=2,99/5=2) pseudo=read geom=check gue
 ss=(read,tcheck) scf=(maxcycle=1)
 ----------------------------------------------------------------------
 -----
 title
 -----
 Structure from the checkpoint file:  "propynyl_propiolate.chk"
 Charge =  0 Multiplicity = 1

                         Standard orientation:
 ---------------------------------------------------------------------
 Center     Atomic      Atomic             Coordinates (Angstroms)
 Number     Number       Type             X           Y           Z
 ---------------------------------------------------------------------
      1          8           0        0.219214   -0.692487    0.000002
      2          8           0       -1.737049   -1.731787    0.000000
      3          6           0       -1.131002   -0.695733    0.000000
      4          6           0       -1.795334    0.594519   -0.000001
      5          6           0        0.941706    0.562529    0.000002
      6          6           0        2.364687    0.276671    0.000000
      7          6           0       -2.399277    1.630600   -0.000004
      8          6           0        3.545311    0.077874    0.000000
      9          1           0        0.670540    1.140839    0.884807
     10          1           0        0.670539    1.140839   -0.884803
     11          1           0       -2.945518    2.542080   -0.000006
     12          1           0        4.590571   -0.108328   -0.000001
 ---------------------------------------------------------------------

 SCF Done:  E(RHF) =  -379.534487125     A.U. after    2 cycles

 The electronic state is 1-A.
 Alpha  occ. eigenvalues --  -20.61253 -20.55358 -11.43001 -11.35013 -11.29503
 Alpha  occ. eigenvalues --  -11.28375 -11.26312 -11.25846  -1.56152  -1.47329
 Alpha  occ. eigenvalues --   -1.09081  -1.08383  -0.99529  -0.92074  -0.78862
 Alpha  occ. eigenvalues --   -0.76022  -0.75146  -0.70947  -0.70790  -0.65715
 Alpha  occ. eigenvalues --   -0.60499  -0.56481  -0.48867  -0.48355  -0.44646
 Alpha  occ. eigenvalues --   -0.44524  -0.42710  -0.41714
 Alpha virt. eigenvalues --    0.02529   0.03324   0.04515   0.04714   0.06668
 Alpha virt. eigenvalues --    0.07640   0.09015   0.09586   0.10620   0.10728
 Alpha virt. eigenvalues --    0.11951   0.12000   0.12707   0.13045   0.13476

 Mulliken charges:
               1
     1  O   -1.252615
     2  O   -1.246216
     3  C    2.077681
     4  C    0.011749
     5  C    0.090199
     6  C    0.148524
     7  C    0.118552
     8  C    0.465669
     9  H    0.190402
    10  H    0.190404
    11  H   -0.368273
    12  H   -0.426077
 Sum of Mulliken charges =   0.00000

 Dipole moment (field-independent basis, Debye):
    X=              1.0615    Y=              4.7359    Z=             -0.0000  Tot=              4.8534

 Test job not archived.
 1\1\GINC-SE188\SP\RHF\Aug-CC-pVDZ\C6H4O2\OHZDE\05-Apr-2025\0\\#t hf au
 g-cc-pvdz iop(5/13=1,5/36=2,99/5=2) pseudo=read geom=check guess=(read
 ,tcheck) scf=(maxcycle=1)\\title\\0,1\O,0,0.219214,-0.692487,0.000002\
 O,0,-1.737049,-1.731787,0.\C,0,-1.131002,-0.695733,0.\C,0,-1.795334,0.
 594519,-0.000001\C,0,0.941706,0.562529,0.000002\C,0,2.364687,0.276671,
 0.\C,0,-2.399277,1.6306,-0.000004\C,0,3.545311,0.077874,0.\H,0,0.67054
 ,1.140839,0.884807\H,0,0.670539,1.140839,-0.884803\H,0,-2.945518,2.542
 08,-0.000006\H,0,4.590571,-0.108328,-0.000001\\Version=ES64L-G16RevC.0

 Normal termination of Gaussian 16 at Sat Apr  5 23:14:05 2025.
