 Gaussian 16, Revision C.01,

 ----------------------------------------------------------------------
 #t hf aug-cc-pvdz symm=none int=(grid=ultrafine) guess=(read,tcheck) s
 table=(opt,rrhf)
 ----------------------------------------------------------------------
 -----
 title
 -----
 Symbolic Z-matrix:
 Charge =  0 Multiplicity = 1

 SCF Done:  E(RHF) =  -321.786139107     A.U. after   15 cycles
 Normal termination of Gaussian 16 at Sat Apr  5 23:13:02 2025.
 Gaussian 16:  ES64L-G16RevC.01  3-Jul-2019

 ----------------------------------------------------------------------
 #t hf aug-cc-pvdz iop(5/13=1,5/36=2,99/5=2) pseudo=read geom=check gue
 ss=(read,tcheck) scf=(maxcycle=1)
 ----------------------------------------------------------------------
 -----
 title
 -----
 Structure from the checkpoint file:  "propyl_nitrite.chk"
 Charge =  0 Multiplicity = 1

                         Standard orientation:
 ---------------------------------------------------------------------
 Center     Atomic      Atomic             Coordinates (Angstroms)
 Number     Number       Type             X           Y           Z
 ---------------------------------------------------------------------
      1          1           0        0.523976   -2.089870    0.151478
      2          7           0       -1.558037    0.145643    0.423258
      3          8           0       -2.483813    0.541713   -0.169766
      4          8           0       -0.642907   -0.522944   -0.431654
      5          6           0        1.780908   -0.362548   -0.207690
      6          1           0        1.873022   -0.557573   -1.278447
      7          1           0        2.615550   -0.879811    0.273817
      8          6           0        0.501420   -1.009602    0.298749
      9          1           0        0.339389   -0.803022    1.358537
     10          1           0        2.807723    1.545267   -0.303725
     11          1           0        1.808716    1.348492    1.134869
     12          1           0        1.057381    1.676612   -0.426643
     13          6           0        1.866715    1.137191    0.065387
 ---------------------------------------------------------------------

 SCF Done:  E(RHF) =  -322.110675751     A.U. after    2 cycles

 The electronic state is 1-A.
 Alpha  occ. eigenvalues --  -20.63705 -20.60621 -15.72252 -11.30272 -11.24383
 Alpha  occ. eigenvalues --  -11.23200  -1.67406  -1.48972  -1.07823  -0.98659
 Alpha  occ. eigenvalues --   -0.92178  -0.83171  -0.76636  -0.73770  -0.70492
 Alpha  occ. eigenvalues --   -0.64174  -0.62827  -0.59871  -0.55543  -0.53871
 Alpha  occ. eigenvalues --   -0.51340  -0.49950  -0.45873  -0.44961
 Alpha virt. eigenvalues --    0.03551   0.03979   0.04208   0.05060   0.06521
 Alpha virt. eigenvalues --    0.06634   0.07465   0.08158   0.10654   0.12205
 Alpha virt. eigenvalues --    0.13990   0.14486   0.14683   0.15402   0.15949

 Mulliken charges:
               1
     1  H    0.062828
     2  N    1.643532
     3  O   -0.971597
     4  O   -1.375111
     5  C   -0.376911
     6  H    0.158665
     7  H    0.164724
     8  C    0.317412
     9  H    0.216567
    10  H    0.113487
    11  H    0.163303
    12  H    0.197238
    13  C   -0.314136
 Sum of Mulliken charges =  -0.00000

 Dipole moment (field-independent basis, Debye):
    X=              2.2933    Y=             -0.8280    Z=              0.6428  Tot=              2.5215

 Test job not archived.
 1\1\GINC-SE085\SP\RHF\Aug-CC-pVDZ\C3H7N1O2\OHZDE\05-Apr-2025\0\\#t hf
 aug-cc-pvdz iop(5/13=1,5/36=2,99/5=2) pseudo=read geom=check guess=(re
 ad,tcheck) scf=(maxcycle=1)\\title\\0,1\H,0,0.523976,-2.08987,0.151478
 \N,0,-1.558037,0.145643,0.423258\O,0,-2.483813,0.541713,-0.169766\O,0,
 -0.642907,-0.522944,-0.431654\C,0,1.780908,-0.362548,-0.20769\H,0,1.87
 3022,-0.557573,-1.278447\H,0,2.61555,-0.879811,0.273817\C,0,0.50142,-1
 .009602,0.298749\H,0,0.339389,-0.803022,1.358537\H,0,2.807723,1.545267
 ,-0.303725\H,0,1.808716,1.348492,1.134869\H,0,1.057381,1.676612,-0.426

 Normal termination of Gaussian 16 at Sat Apr  5 23:13:31 2025.
