 Gaussian 16, Revision C.01,

 ----------------------------------------------------------------------
 #t hf aug-cc-pvdz symm=none int=(grid=ultrafine) guess=(read,tcheck) s
 table=(opt,rrhf)
 ----------------------------------------------------------------------
 -----
 title
 -----
 Symbolic Z-matrix:
 Charge =  0 Multiplicity = 1

 SCF Done:  E(RHF) =  -168.566584415     A.U. after   12 cycles
 Normal termination of Gaussian 16 at Sat Apr  5 23:13:41 2025.
 Gaussian 16:  ES64L-G16RevC.01  3-Jul-2019

 ----------------------------------------------------------------------
 #t hf aug-cc-pvdz iop(5/13=1,5/36=2,99/5=2) pseudo=read geom=check gue
 ss=(read,tcheck) scf=(maxcycle=1)
 ----------------------------------------------------------------------
 -----
 title
 -----
 Structure from the checkpoint file:  "propiolonitrile.chk"
 Charge =  0 Multiplicity = 1

                         Standard orientation:
 ---------------------------------------------------------------------
 Center     Atomic      Atomic             Coordinates (Angstroms)
 Number     Number       Type             X           Y           Z
 ---------------------------------------------------------------------
      1          7           0        0.000000    0.000000    1.892411
      2          6           0        0.000000    0.000000    0.737350
      3          6           0        0.000000    0.000000   -0.631058
      4          6           0        0.000000    0.000000   -1.831727
      5          1           0        0.000000    0.000000   -2.894266
 ---------------------------------------------------------------------

 SCF Done:  E(RHF) =  -168.730015332     A.U. after    2 cycles

 The electronic state is 1-SG.
 Alpha  occ. eigenvalues --  -15.54936 -11.32010 -11.31311 -11.30753  -1.26253
 Alpha  occ. eigenvalues --   -1.10286  -0.92298  -0.76922  -0.63741  -0.57466
 Alpha  occ. eigenvalues --   -0.57466  -0.44966  -0.44966
 Alpha virt. eigenvalues --    0.02567   0.05642   0.05642   0.06573   0.09574
 Alpha virt. eigenvalues --    0.09574   0.09699   0.13150   0.14283   0.14283
 Alpha virt. eigenvalues --    0.15465   0.18499   0.18499   0.23754   0.24722

 Mulliken charges:
               1
     1  N    0.815834
     2  C   -1.937511
     3  C    1.117563
     4  C    0.419760
     5  H   -0.415646
 Sum of Mulliken charges =   0.00000

 Dipole moment (field-independent basis, Debye):
    X=             -0.0000    Y=             -0.0000    Z=             -4.9090  Tot=              4.9090

 Test job not archived.
 1\1\GINC-SE052\SP\RHF\Aug-CC-pVDZ\C3H1N1\OHZDE\05-Apr-2025\0\\#t hf au
 g-cc-pvdz iop(5/13=1,5/36=2,99/5=2) pseudo=read geom=check guess=(read
 ,tcheck) scf=(maxcycle=1)\\title\\0,1\N,0,0.,0.,1.892411\C,0,0.,0.,0.7
 3735\C,0,0.,0.,-0.631058\C,0,0.,0.,-1.831727\H,0,0.,0.,-2.894266\\Vers
 ion=ES64L-G16RevC.01\State=1-SG\HF=-168.7300153\RMSD=4.362e-02\Dipole=
 0.,0.,-1.9313642\Quadrupole=-0.4420864,-0.4420864,0.8841728,0.,0.,0.\P
 G=C*V [C*(H1C1C1C1N1)]\\@

 Normal termination of Gaussian 16 at Sat Apr  5 23:13:44 2025.
