 Gaussian 16, Revision C.01,

 ----------------------------------------------------------------------
 #t hf aug-cc-pvdz symm=none int=(grid=ultrafine) guess=(read,tcheck) s
 table=(opt,rrhf)
 ----------------------------------------------------------------------
 -----
 title
 -----
 Symbolic Z-matrix:
 Charge =  0 Multiplicity = 1

 SCF Done:  E(RHF) =  -265.672744970     A.U. after   15 cycles
 Normal termination of Gaussian 16 at Sat Apr  5 23:13:42 2025.
 Gaussian 16:  ES64L-G16RevC.01  3-Jul-2019

 ----------------------------------------------------------------------
 #t hf aug-cc-pvdz iop(5/13=1,5/36=2,99/5=2) pseudo=read geom=check gue
 ss=(read,tcheck) scf=(maxcycle=1)
 ----------------------------------------------------------------------
 -----
 title
 -----
 Structure from the checkpoint file:  "propanedial.chk"
 Charge =  0 Multiplicity = 1

                         Standard orientation:
 ---------------------------------------------------------------------
 Center     Atomic      Atomic             Coordinates (Angstroms)
 Number     Number       Type             X           Y           Z
 ---------------------------------------------------------------------
      1          6           0        1.070710   -0.368234    0.146305
      2          6           0       -1.282848    0.323971   -0.320122
      3          6           0        0.020532    0.716170    0.346563
      4          8           0        2.179848   -0.153436   -0.260150
      5          8           0       -1.960910   -0.597247    0.054811
      6          1           0        0.734564   -1.388064    0.407927
      7          1           0       -1.572330    0.919367   -1.206311
      8          1           0        0.403972    1.666523   -0.018102
      9          1           0       -0.168069    0.776197    1.422723
 ---------------------------------------------------------------------

 SCF Done:  E(RHF) =  -265.936535652     A.U. after    2 cycles

 The electronic state is 1-A.
 Alpha  occ. eigenvalues --  -20.57309 -20.56756 -11.36956 -11.36477 -11.27807
 Alpha  occ. eigenvalues --   -1.50514  -1.49898  -1.07856  -0.87405  -0.80725
 Alpha  occ. eigenvalues --   -0.72603  -0.67979  -0.66060  -0.65591  -0.59460
 Alpha  occ. eigenvalues --   -0.54226  -0.53258  -0.45468  -0.42590
 Alpha virt. eigenvalues --    0.03322   0.03942   0.04724   0.05586   0.07334
 Alpha virt. eigenvalues --    0.08870   0.10814   0.11176   0.12071   0.13102
 Alpha virt. eigenvalues --    0.14565   0.14659   0.15241   0.15668   0.16824

 Mulliken charges:
               1
     1  C    1.000578
     2  C    1.074913
     3  C   -0.664842
     4  O   -1.077766
     5  O   -1.109538
     6  H    0.157299
     7  H    0.157260
     8  H    0.128487
     9  H    0.333608
 Sum of Mulliken charges =  -0.00000

 Dipole moment (field-independent basis, Debye):
    X=             -0.8984    Y=              1.8363    Z=              0.3629  Tot=              2.0762

 Test job not archived.
 1\1\GINC-SE196\SP\RHF\Aug-CC-pVDZ\C3H4O2\OHZDE\05-Apr-2025\0\\#t hf au
 g-cc-pvdz iop(5/13=1,5/36=2,99/5=2) pseudo=read geom=check guess=(read
 ,tcheck) scf=(maxcycle=1)\\title\\0,1\C,0,1.07071,-0.368234,0.146305\C
 ,0,-1.282848,0.323971,-0.320122\C,0,0.020532,0.71617,0.346563\O,0,2.17
 9848,-0.153436,-0.26015\O,0,-1.96091,-0.597247,0.054811\H,0,0.734564,-
 1.388064,0.407927\H,0,-1.57233,0.919367,-1.206311\H,0,0.403972,1.66652
 3,-0.018102\H,0,-0.168069,0.776197,1.422723\\Version=ES64L-G16RevC.01\
 State=1-A\HF=-265.9365357\RMSD=9.552e-03\Dipole=-0.353449,0.7224465,0.

 Normal termination of Gaussian 16 at Sat Apr  5 23:13:47 2025.
