 Gaussian 16, Revision C.01,

 ----------------------------------------------------------------------
 #t hf aug-cc-pvdz symm=none int=(grid=ultrafine) guess=(read,tcheck) s
 table=(opt,rrhf)
 ----------------------------------------------------------------------
 -----
 title
 -----
 Symbolic Z-matrix:
 Charge =  0 Multiplicity = 1

 SCF Done:  E(RHF) =  -264.465779756     A.U. after   15 cycles
 Normal termination of Gaussian 16 at Sat Apr  5 23:13:41 2025.
 Gaussian 16:  ES64L-G16RevC.01  3-Jul-2019

 ----------------------------------------------------------------------
 #t hf aug-cc-pvdz iop(5/13=1,5/36=2,99/5=2) pseudo=read geom=check gue
 ss=(read,tcheck) scf=(maxcycle=1)
 ----------------------------------------------------------------------
 -----
 title
 -----
 Structure from the checkpoint file:  "propiolic_acid.chk"
 Charge =  0 Multiplicity = 1

                         Standard orientation:
 ---------------------------------------------------------------------
 Center     Atomic      Atomic             Coordinates (Angstroms)
 Number     Number       Type             X           Y           Z
 ---------------------------------------------------------------------
      1          8           0       -1.140757    1.067901   -0.000039
      2          8           0       -1.122638   -1.159311   -0.000036
      3          6           0       -0.509953   -0.131001   -0.000019
      4          6           0        0.939527   -0.050347    0.000023
      5          6           0        2.137587    0.000371    0.000080
      6          1           0       -0.495557    1.786680   -0.000024
      7          1           0        3.199749    0.030461    0.000128
 ---------------------------------------------------------------------

 SCF Done:  E(RHF) =  -264.724000515     A.U. after    2 cycles

 The electronic state is 1-A.
 Alpha  occ. eigenvalues --  -20.62049 -20.55829 -11.43411 -11.29783 -11.28572
 Alpha  occ. eigenvalues --   -1.56394  -1.47723  -1.08944  -0.92802  -0.82870
 Alpha  occ. eigenvalues --   -0.76002  -0.68660  -0.65155  -0.61671  -0.50046
 Alpha  occ. eigenvalues --   -0.48745  -0.45003  -0.44959
 Alpha virt. eigenvalues --    0.02532   0.03877   0.06618   0.08487   0.09456
 Alpha virt. eigenvalues --    0.09632   0.09902   0.12783   0.13282   0.14102
 Alpha virt. eigenvalues --    0.15305   0.16008   0.18062   0.19158   0.20396

 Mulliken charges:
               1
     1  O   -1.170582
     2  O   -1.138892
     3  C    2.019974
     4  C   -0.057990
     5  C    0.224528
     6  H    0.434871
     7  H   -0.311908
 Sum of Mulliken charges =  -0.00000

 Dipole moment (field-independent basis, Debye):
    X=              3.7822    Y=              2.8040    Z=              0.0001  Tot=              4.7083

 Test job not archived.
 1\1\GINC-SE047\SP\RHF\Aug-CC-pVDZ\C3H2O2\OHZDE\05-Apr-2025\0\\#t hf au
 g-cc-pvdz iop(5/13=1,5/36=2,99/5=2) pseudo=read geom=check guess=(read
 ,tcheck) scf=(maxcycle=1)\\title\\0,1\O,0,-1.140757,1.067901,-0.000039
 \O,0,-1.122638,-1.159311,-0.000036\C,0,-0.509953,-0.131001,-0.000019\C
 ,0,0.939527,-0.050347,0.000023\C,0,2.137587,0.000371,0.00008\H,0,-0.49
 5557,1.78668,-0.000024\H,0,3.199749,0.030461,0.000128\\Version=ES64L-G
 16RevC.01\State=1-A\HF=-264.7240005\RMSD=1.980e-02\Dipole=1.488046,1.1
 031821,0.0000513\Quadrupole=1.9515274,-0.8599098,-1.0916175,-0.9060688

 Normal termination of Gaussian 16 at Sat Apr  5 23:13:43 2025.
