 Gaussian 16, Revision C.01,

 ----------------------------------------------------------------------
 #t hf aug-cc-pvdz symm=none int=(grid=ultrafine) guess=(read,tcheck) s
 table=(opt,rrhf)
 ----------------------------------------------------------------------
 -----
 title
 -----
 Symbolic Z-matrix:
 Charge =  0 Multiplicity = 1

 SCF Done:  E(RHF) =  -247.051863441     A.U. after   13 cycles
 Normal termination of Gaussian 16 at Sat Apr  5 23:12:50 2025.
 Gaussian 16:  ES64L-G16RevC.01  3-Jul-2019

 ----------------------------------------------------------------------
 #t hf aug-cc-pvdz iop(5/13=1,5/36=2,99/5=2) pseudo=read geom=check gue
 ss=(read,tcheck) scf=(maxcycle=1)
 ----------------------------------------------------------------------
 -----
 title
 -----
 Structure from the checkpoint file:  "propanamide.chk"
 Charge =  0 Multiplicity = 1

                         Standard orientation:
 ---------------------------------------------------------------------
 Center     Atomic      Atomic             Coordinates (Angstroms)
 Number     Number       Type             X           Y           Z
 ---------------------------------------------------------------------
      1          1           0       -2.592675   -0.045641   -0.145798
      2          1           0       -1.757839   -1.561246   -0.123394
      3          7           0       -1.728931   -0.558727   -0.107702
      4          8           0       -0.540022    1.352356    0.063774
      5          6           0       -0.562261    0.136158    0.032402
      6          1           0        0.704554   -1.095974    1.200102
      7          1           0        0.596109   -1.605295   -0.469148
      8          6           0        0.688051   -0.724248    0.170792
      9          1           0        2.841756   -0.595111    0.039596
     10          1           0        1.993138    0.372041   -1.170851
     11          1           0        2.052216    0.921934    0.496008
     12          6           0        1.971783    0.038345   -0.133659
 ---------------------------------------------------------------------

 SCF Done:  E(RHF) =  -247.309689404     A.U. after    2 cycles

 The electronic state is 1-A.
 Alpha  occ. eigenvalues --  -20.50550 -15.52578 -11.35647 -11.25044 -11.22678
 Alpha  occ. eigenvalues --   -1.45478  -1.22068  -1.05493  -0.90292  -0.81252
 Alpha  occ. eigenvalues --   -0.75153  -0.68729  -0.64445  -0.60767  -0.57067
 Alpha  occ. eigenvalues --   -0.53776  -0.52434  -0.50184  -0.43421  -0.41967
 Alpha virt. eigenvalues --    0.02618   0.04027   0.04684   0.05144   0.06404
 Alpha virt. eigenvalues --    0.06922   0.08086   0.11570   0.12017   0.12361
 Alpha virt. eigenvalues --    0.13481   0.14322   0.16118   0.16905   0.17283

 Mulliken charges:
               1
     1  H    0.067834
     2  H    0.020534
     3  N    0.670030
     4  O   -1.264896
     5  C    0.354820
     6  H    0.234017
     7  H    0.169610
     8  C   -0.411814
     9  H    0.121260
    10  H    0.149227
    11  H    0.178908
    12  C   -0.289529
 Sum of Mulliken charges =  -0.00000

 Dipole moment (field-independent basis, Debye):
    X=             -0.4942    Y=             -3.7410    Z=             -0.0238  Tot=              3.7736

 Test job not archived.
 1\1\GINC-SE106\SP\RHF\Aug-CC-pVDZ\C3H7N1O1\OHZDE\05-Apr-2025\0\\#t hf
 aug-cc-pvdz iop(5/13=1,5/36=2,99/5=2) pseudo=read geom=check guess=(re
 ad,tcheck) scf=(maxcycle=1)\\title\\0,1\H,0,-2.592675,-0.045641,-0.145
 798\H,0,-1.757839,-1.561246,-0.123394\N,0,-1.728931,-0.558727,-0.10770
 2\O,0,-0.540022,1.352356,0.063774\C,0,-0.562261,0.136158,0.032402\H,0,
 0.704554,-1.095974,1.200102\H,0,0.596109,-1.605295,-0.469148\C,0,0.688
 051,-0.724248,0.170792\H,0,2.841756,-0.595111,0.039596\H,0,1.993138,0.
 372041,-1.170851\H,0,2.052216,0.921934,0.496008\C,0,1.971783,0.038345,

 Normal termination of Gaussian 16 at Sat Apr  5 23:13:31 2025.
