 Gaussian 16, Revision C.01,

 ----------------------------------------------------------------------
 #t hf aug-cc-pvdz symm=none int=(grid=ultrafine) guess=(read,tcheck) s
 table=(opt,rrhf)
 ----------------------------------------------------------------------
 -----
 title
 -----
 Symbolic Z-matrix:
 Charge =  0 Multiplicity = 1

 SCF Done:  E(RHF) =  -244.555195591     A.U. after   16 cycles
 Normal termination of Gaussian 16 at Sat Apr  5 23:12:26 2025.
 Gaussian 16:  ES64L-G16RevC.01  3-Jul-2019

 ----------------------------------------------------------------------
 #t hf aug-cc-pvdz iop(5/13=1,5/36=2,99/5=2) pseudo=read geom=check gue
 ss=(read,tcheck) scf=(maxcycle=1)
 ----------------------------------------------------------------------
 -----
 title
 -----
 Structure from the checkpoint file:  "prop-2-enenitrileoxide.chk"
 Charge =  0 Multiplicity = 1

                         Standard orientation:
 ---------------------------------------------------------------------
 Center     Atomic      Atomic             Coordinates (Angstroms)
 Number     Number       Type             X           Y           Z
 ---------------------------------------------------------------------
      1          8           0       -2.423172   -0.167625   -0.000000
      2          7           0       -1.229268    0.011793   -0.000004
      3          6           0       -0.078874    0.155417   -0.000002
      4          6           0        1.300610    0.480348    0.000003
      5          6           0        2.286856   -0.419406    0.000002
      6          1           0        1.529592    1.540379    0.000009
      7          1           0        2.091078   -1.482044   -0.000004
      8          1           0        3.318032   -0.098033    0.000007
 ---------------------------------------------------------------------

 SCF Done:  E(RHF) =  -244.797081424     A.U. after    2 cycles

 The electronic state is 1-A.
 Alpha  occ. eigenvalues --  -20.55724 -15.68113 -11.31994 -11.31018 -11.29286
 Alpha  occ. eigenvalues --   -1.56403  -1.26368  -1.11078  -0.90315  -0.75948
 Alpha  occ. eigenvalues --   -0.73455  -0.70351  -0.69792  -0.66071  -0.58650
 Alpha  occ. eigenvalues --   -0.48095  -0.40053  -0.36985
 Alpha virt. eigenvalues --    0.02500   0.03777   0.04405   0.05020   0.08936
 Alpha virt. eigenvalues --    0.09832   0.09879   0.12273   0.12754   0.13352
 Alpha virt. eigenvalues --    0.14406   0.14601   0.15485   0.16122   0.18029

 Mulliken charges:
               1
     1  O   -1.391118
     2  N    1.504304
     3  C   -1.172438
     4  C    1.357094
     5  C   -0.046304
     6  H   -0.159853
     7  H   -0.038886
     8  H   -0.052797
 Sum of Mulliken charges =  -0.00000

 Dipole moment (field-independent basis, Debye):
    X=              5.5068    Y=              0.4867    Z=              0.0000  Tot=              5.5282

 Test job not archived.
 1\1\GINC-SE388\SP\RHF\Aug-CC-pVDZ\C3H3N1O1\OHZDE\05-Apr-2025\0\\#t hf
 aug-cc-pvdz iop(5/13=1,5/36=2,99/5=2) pseudo=read geom=check guess=(re
 ad,tcheck) scf=(maxcycle=1)\\title\\0,1\O,0,-2.423172,-0.167625,0.\N,0
 ,-1.229268,0.011793,-0.000004\C,0,-0.078874,0.155417,-0.000002\C,0,1.3
 0061,0.480348,0.000003\C,0,2.286856,-0.419406,0.000002\H,0,1.529592,1.
 540379,0.000009\H,0,2.091078,-1.482044,-0.000004\H,0,3.318032,-0.09803
 3,0.000007\\Version=ES64L-G16RevC.01\State=1-A\HF=-244.7970814\RMSD=3.
 025e-02\Dipole=2.166527,0.1914811,0.000002\Quadrupole=-1.8298593,2.545

 Normal termination of Gaussian 16 at Sat Apr  5 23:12:30 2025.
