 Gaussian 16, Revision C.01,

 ----------------------------------------------------------------------
 #t hf aug-cc-pvdz symm=none int=(grid=ultrafine) guess=(read,tcheck) s
 table=(opt,rrhf)
 ----------------------------------------------------------------------
 -----
 title
 -----
 Symbolic Z-matrix:
 Charge =  0 Multiplicity = 1

 SCF Done:  E(RHF) =  -266.887531638     A.U. after   13 cycles
 Normal termination of Gaussian 16 at Sat Apr  5 23:12:49 2025.
 Gaussian 16:  ES64L-G16RevC.01  3-Jul-2019

 ----------------------------------------------------------------------
 #t hf aug-cc-pvdz iop(5/13=1,5/36=2,99/5=2) pseudo=read geom=check gue
 ss=(read,tcheck) scf=(maxcycle=1)
 ----------------------------------------------------------------------
 -----
 title
 -----
 Structure from the checkpoint file:  "propanoic_acid.chk"
 Charge =  0 Multiplicity = 1

                         Standard orientation:
 ---------------------------------------------------------------------
 Center     Atomic      Atomic             Coordinates (Angstroms)
 Number     Number       Type             X           Y           Z
 ---------------------------------------------------------------------
      1          1           0       -1.766142   -0.526208   -1.297472
      2          6           0       -1.849296    0.110726   -0.416946
      3          6           0       -0.795460   -0.266086    0.634887
      4          6           0        0.604920   -0.137267    0.093049
      5          8           0        1.306287   -1.044919   -0.274495
      6          8           0        1.008287    1.158088    0.032116
      7          1           0       -2.849620   -0.014338   -0.003869
      8          1           0       -1.738498    1.147718   -0.730793
      9          1           0       -0.895780    0.381920    1.506215
     10          1           0        1.897322    1.160106   -0.352283
     11          1           0       -0.924854   -1.298789    0.951287
 ---------------------------------------------------------------------

 SCF Done:  E(RHF) =  -267.160288410     A.U. after    2 cycles

 The electronic state is 1-A.
 Alpha  occ. eigenvalues --  -20.60045 -20.53850 -11.39361 -11.25705 -11.24490
 Alpha  occ. eigenvalues --   -1.54678  -1.45155  -1.07411  -0.91684  -0.81237
 Alpha  occ. eigenvalues --   -0.71099  -0.68934  -0.63855  -0.62326  -0.59517
 Alpha  occ. eigenvalues --   -0.55005  -0.53490  -0.52016  -0.47454  -0.44107
 Alpha virt. eigenvalues --    0.03573   0.04022   0.04469   0.05151   0.06762
 Alpha virt. eigenvalues --    0.07457   0.10426   0.11279   0.12215   0.13590
 Alpha virt. eigenvalues --    0.14344   0.15224   0.16322   0.17066   0.17827

 Mulliken charges:
               1
     1  H    0.171048
     2  C   -0.412852
     3  C   -0.580492
     4  C    2.242974
     5  O   -1.252953
     6  O   -1.208380
     7  H    0.131556
     8  H    0.168479
     9  H    0.229631
    10  H    0.339833
    11  H    0.171157
 Sum of Mulliken charges =  -0.00000

 Dipole moment (field-independent basis, Debye):
    X=             -1.3292    Y=              1.4208    Z=              0.4271  Tot=              1.9919

 Test job not archived.
 1\1\GINC-SE231\SP\RHF\Aug-CC-pVDZ\C3H6O2\OHZDE\05-Apr-2025\0\\#t hf au
 g-cc-pvdz iop(5/13=1,5/36=2,99/5=2) pseudo=read geom=check guess=(read
 ,tcheck) scf=(maxcycle=1)\\title\\0,1\H,0,-1.766142,-0.526208,-1.29747
 2\C,0,-1.849296,0.110726,-0.416946\C,0,-0.79546,-0.266086,0.634887\C,0
 ,0.60492,-0.137267,0.093049\O,0,1.306287,-1.044919,-0.274495\O,0,1.008
 287,1.158088,0.032116\H,0,-2.84962,-0.014338,-0.003869\H,0,-1.738498,1
 .147718,-0.730793\H,0,-0.89578,0.38192,1.506215\H,0,1.897322,1.160106,
 -0.352283\H,0,-0.924854,-1.298789,0.951287\\Version=ES64L-G16RevC.01\S

 Normal termination of Gaussian 16 at Sat Apr  5 23:13:30 2025.
