 Gaussian 16, Revision C.01,

 ----------------------------------------------------------------------
 #t hf aug-cc-pvdz symm=none int=(grid=ultrafine) guess=(read,tcheck) s
 table=(opt,rrhf)
 ----------------------------------------------------------------------
 -----
 title
 -----
 Symbolic Z-matrix:
 Charge =  0 Multiplicity = 1

 SCF Done:  E(RHF) =  -447.372882940     A.U. after   13 cycles
 Normal termination of Gaussian 16 at Sat Apr  5 23:14:30 2025.
 Gaussian 16:  ES64L-G16RevC.01  3-Jul-2019

 ----------------------------------------------------------------------
 #t hf aug-cc-pvdz iop(5/13=1,5/36=2,99/5=2) pseudo=read geom=check gue
 ss=(read,tcheck) scf=(maxcycle=1)
 ----------------------------------------------------------------------
 -----
 title
 -----
 Structure from the checkpoint file:  "pyrazino2-3-bpyrazine.chk"
 Charge =  0 Multiplicity = 1

                         Standard orientation:
 ---------------------------------------------------------------------
 Center     Atomic      Atomic             Coordinates (Angstroms)
 Number     Number       Type             X           Y           Z
 ---------------------------------------------------------------------
      1          6           0        0.000000    0.000000    0.712293
      2          7           0        0.000000    1.158741    1.413954
      3          7           0       -0.000000   -1.158741    1.413954
      4          6           0        0.000000   -2.261085    0.709672
      5          6           0        0.000000    2.261085    0.709672
      6          6           0        0.000000   -2.261085   -0.709672
      7          7           0       -0.000000   -1.158741   -1.413954
      8          6           0        0.000000    0.000000   -0.712293
      9          7           0        0.000000    1.158741   -1.413954
     10          6           0        0.000000    2.261085   -0.709672
     11          1           0        0.000000    3.201418   -1.250194
     12          1           0       -0.000000   -3.201418    1.250194
     13          1           0       -0.000000    3.201418    1.250194
     14          1           0       -0.000000   -3.201418   -1.250194
 ---------------------------------------------------------------------

 SCF Done:  E(RHF) =  -447.815277940     A.U. after    2 cycles

 The electronic state is 1-AG.
 Alpha  occ. eigenvalues --  -15.54424 -15.54178 -15.54176 -15.54126 -11.32805
 Alpha  occ. eigenvalues --  -11.32771 -11.30993 -11.30988 -11.30936 -11.30933
 Alpha  occ. eigenvalues --   -1.35275  -1.28902  -1.27253  -1.21412  -1.08035
 Alpha  occ. eigenvalues --   -0.97376  -0.96482  -0.90665  -0.82617  -0.79903
 Alpha  occ. eigenvalues --   -0.78478  -0.69291  -0.68325  -0.66060  -0.65344
 Alpha  occ. eigenvalues --   -0.60707  -0.57024  -0.55680  -0.54496  -0.53569
 Alpha  occ. eigenvalues --   -0.50426  -0.44182  -0.43765  -0.36531
 Alpha virt. eigenvalues --   -0.00946   0.02859   0.04002   0.04080   0.05105
 Alpha virt. eigenvalues --    0.07228   0.07576   0.07858   0.09726   0.10118
 Alpha virt. eigenvalues --    0.10612   0.10716   0.11791   0.11832   0.12764

 Mulliken charges:
               1
     1  C   -2.245981
     2  N    1.336802
     3  N    1.336802
     4  C   -0.091677
     5  C   -0.091677
     6  C   -0.091677
     7  N    1.336802
     8  C   -2.245981
     9  N    1.336802
    10  C   -0.091677
    11  H   -0.122134
    12  H   -0.122134
    13  H   -0.122134
    14  H   -0.122134
 Sum of Mulliken charges =  -0.00000

 Dipole moment (field-independent basis, Debye):
    X=             -0.0000    Y=              0.0000    Z=              0.0000  Tot=              0.0000

 Test job not archived.
 1\1\GINC-SE040\SP\RHF\Aug-CC-pVDZ\C6H4N4\OHZDE\05-Apr-2025\0\\#t hf au
 g-cc-pvdz iop(5/13=1,5/36=2,99/5=2) pseudo=read geom=check guess=(read
 ,tcheck) scf=(maxcycle=1)\\title\\0,1\C,0,0.,0.,0.712293\N,0,0.,1.1587
 41,1.413954\N,0,0.,-1.158741,1.413954\C,0,0.,-2.261085,0.709672\C,0,0.
 ,2.261085,0.709672\C,0,0.,-2.261085,-0.709672\N,0,0.,-1.158741,-1.4139
 54\C,0,0.,0.,-0.712293\N,0,0.,1.158741,-1.413954\C,0,0.,2.261085,-0.70
 9672\H,0,0.,3.201418,-1.250194\H,0,0.,-3.201418,1.250194\H,0,0.,3.2014
 18,1.250194\H,0,0.,-3.201418,-1.250194\\Version=ES64L-G16RevC.01\State

 Normal termination of Gaussian 16 at Sat Apr  5 23:15:58 2025.
