 Gaussian 16, Revision C.01,

 ----------------------------------------------------------------------
 #t hf aug-cc-pvdz symm=none int=(grid=ultrafine) guess=(read,tcheck) s
 table=(opt,rrhf)
 ----------------------------------------------------------------------
 -----
 title
 -----
 Symbolic Z-matrix:
 Charge =  0 Multiplicity = 1

 SCF Done:  E(RHF) =  -262.715935921     A.U. after   11 cycles
 Normal termination of Gaussian 16 at Sat Apr  5 23:12:49 2025.
 Gaussian 16:  ES64L-G16RevC.01  3-Jul-2019

 ----------------------------------------------------------------------
 #t hf aug-cc-pvdz iop(5/13=1,5/36=2,99/5=2) pseudo=read geom=check gue
 ss=(read,tcheck) scf=(maxcycle=1)
 ----------------------------------------------------------------------
 -----
 title
 -----
 Structure from the checkpoint file:  "pyrazine.chk"
 Charge =  0 Multiplicity = 1

                         Standard orientation:
 ---------------------------------------------------------------------
 Center     Atomic      Atomic             Coordinates (Angstroms)
 Number     Number       Type             X           Y           Z
 ---------------------------------------------------------------------
      1          6           0        0.000000    1.130554    0.695666
      2          7           0        0.000000    0.000000    1.399240
      3          6           0        0.000000    1.130554   -0.695666
      4          6           0       -0.000000   -1.130554    0.695666
      5          7           0        0.000000    0.000000   -1.399240
      6          6           0       -0.000000   -1.130554   -0.695666
      7          1           0        0.000000   -2.060631   -1.251616
      8          1           0        0.000000    2.060631   -1.251616
      9          1           0       -0.000000   -2.060631    1.251616
     10          1           0        0.000000    2.060631    1.251616
 ---------------------------------------------------------------------

 SCF Done:  E(RHF) =  -262.981297716     A.U. after    2 cycles

 The electronic state is 1-AG.
 Alpha  occ. eigenvalues --  -15.53338 -15.53259 -11.29115 -11.29109 -11.29048
 Alpha  occ. eigenvalues --  -11.29036  -1.31137  -1.22636  -1.06422  -0.92124
 Alpha  occ. eigenvalues --   -0.91945  -0.75254  -0.74879  -0.68986  -0.62753
 Alpha  occ. eigenvalues --   -0.60254  -0.57807  -0.54799  -0.47594  -0.44723
 Alpha  occ. eigenvalues --   -0.37330
 Alpha virt. eigenvalues --    0.03303   0.04527   0.04558   0.04909   0.04972
 Alpha virt. eigenvalues --    0.08703   0.09221   0.11000   0.11552   0.11779
 Alpha virt. eigenvalues --    0.12218   0.12357   0.12695   0.15335   0.15868

 Mulliken charges:
               1
     1  C   -0.403595
     2  N    0.997804
     3  C   -0.403595
     4  C   -0.403595
     5  N    0.997804
     6  C   -0.403595
     7  H   -0.095306
     8  H   -0.095306
     9  H   -0.095306
    10  H   -0.095306
 Sum of Mulliken charges =   0.00000

 Dipole moment (field-independent basis, Debye):
    X=              0.0000    Y=              0.0000    Z=             -0.0000  Tot=              0.0000

 Test job not archived.
 1\1\GINC-SE199\SP\RHF\Aug-CC-pVDZ\C4H4N2\OHZDE\05-Apr-2025\0\\#t hf au
 g-cc-pvdz iop(5/13=1,5/36=2,99/5=2) pseudo=read geom=check guess=(read
 ,tcheck) scf=(maxcycle=1)\\title\\0,1\C,0,0.,1.130554,0.695666\N,0,0.,
 0.,1.39924\C,0,0.,1.130554,-0.695666\C,0,0.,-1.130554,0.695666\N,0,0.,
 0.,-1.39924\C,0,0.,-1.130554,-0.695666\H,0,0.,-2.060631,-1.251616\H,0,
 0.,2.060631,-1.251616\H,0,0.,-2.060631,1.251616\H,0,0.,2.060631,1.2516
 16\\Version=ES64L-G16RevC.01\State=1-AG\HF=-262.9812977\RMSD=9.193e-02
 \Dipole=0.,0.,0.\Quadrupole=-1.7985872,6.9938004,-5.1952132,0.,0.,0.\P

 Normal termination of Gaussian 16 at Sat Apr  5 23:13:29 2025.
