 Gaussian 16, Revision C.01,

 ----------------------------------------------------------------------
 #t hf aug-cc-pvdz symm=none int=(grid=ultrafine) guess=(read,tcheck) s
 table=(opt,rrhf)
 ----------------------------------------------------------------------
 -----
 title
 -----
 Symbolic Z-matrix:
 Charge =  0 Multiplicity = 1

 SCF Done:  E(RHF) =  -450.363166448     A.U. after   16 cycles
 Normal termination of Gaussian 16 at Sat Apr  5 23:14:21 2025.
 Gaussian 16:  ES64L-G16RevC.01  3-Jul-2019

 ----------------------------------------------------------------------
 #t hf aug-cc-pvdz iop(5/13=1,5/36=2,99/5=2) pseudo=read geom=check gue
 ss=(read,tcheck) scf=(maxcycle=1)
 ----------------------------------------------------------------------
 -----
 title
 -----
 Structure from the checkpoint file:  "pyrazine-2-carboxylic_acid.chk"
 Charge =  0 Multiplicity = 1

                         Standard orientation:
 ---------------------------------------------------------------------
 Center     Atomic      Atomic             Coordinates (Angstroms)
 Number     Number       Type             X           Y           Z
 ---------------------------------------------------------------------
      1          6           0        0.136654   -2.474879    0.000000
      2          6           0       -1.086112   -1.807655    0.000000
      3          6           0        1.225830   -0.491904    0.000000
      4          6           0       -0.000000    0.176466   -0.000000
      5          6           0       -0.001609    1.673965   -0.000000
      6          7           0        1.295697   -1.820585    0.000000
      7          7           0       -1.158456   -0.482162   -0.000000
      8          8           0        1.008914    2.334974   -0.000000
      9          8           0       -1.233925    2.207653   -0.000000
     10          1           0        0.179101   -3.557509    0.000000
     11          1           0       -2.020705   -2.355521    0.000000
     12          1           0        2.152353    0.065709    0.000000
     13          1           0       -1.119932    3.169586   -0.000000
 ---------------------------------------------------------------------

 SCF Done:  E(RHF) =  -450.806218322     A.U. after    2 cycles

 The electronic state is 1-A'.
 Alpha  occ. eigenvalues --  -20.61077 -20.55133 -15.55284 -15.54449 -11.41244
 Alpha  occ. eigenvalues --  -11.31087 -11.31045 -11.30808 -11.30362  -1.56168
 Alpha  occ. eigenvalues --   -1.46583  -1.32913  -1.24447  -1.09279  -0.97020
 Alpha  occ. eigenvalues --   -0.93882  -0.86501  -0.77907  -0.76173  -0.71708
 Alpha  occ. eigenvalues --   -0.71138  -0.66446  -0.65441  -0.61591  -0.60745
 Alpha  occ. eigenvalues --   -0.59201  -0.56107  -0.49288  -0.48748  -0.48173
 Alpha  occ. eigenvalues --   -0.45044  -0.38707
 Alpha virt. eigenvalues --    0.02496   0.03018   0.04146   0.04543   0.05278
 Alpha virt. eigenvalues --    0.06283   0.08244   0.09706   0.10017   0.10738
 Alpha virt. eigenvalues --    0.10889   0.11595   0.12173   0.13672   0.14662

 Mulliken charges:
               1
     1  C   -0.560272
     2  C   -0.135944
     3  C   -0.738076
     4  C   -0.866483
     5  C    2.690946
     6  N    1.052313
     7  N    1.255428
     8  O   -1.352584
     9  O   -1.458954
    10  H   -0.098681
    11  H   -0.136653
    12  H   -0.158759
    13  H    0.507718
 Sum of Mulliken charges =   0.00000

 Dipole moment (field-independent basis, Debye):
    X=             -1.5186    Y=             -1.3485    Z=             -0.0000  Tot=              2.0309

 Test job not archived.
 1\1\GINC-SE188\SP\RHF\Aug-CC-pVDZ\C5H4N2O2\OHZDE\05-Apr-2025\0\\#t hf
 aug-cc-pvdz iop(5/13=1,5/36=2,99/5=2) pseudo=read geom=check guess=(re
 ad,tcheck) scf=(maxcycle=1)\\title\\0,1\C,0,0.136653,-2.474879,0.\C,0,
 -1.086113,-1.807655,0.\C,0,1.22583,-0.491905,0.\C,0,0.,0.176466,0.\C,0
 ,-0.001608,1.673965,0.\N,0,1.295696,-1.820586,0.\N,0,-1.158456,-0.4821
 62,0.\O,0,1.008915,2.334974,0.\O,0,-1.233924,2.207653,0.\H,0,0.179099,
 -3.557509,0.\H,0,-2.020706,-2.35552,0.\H,0,2.152353,0.065708,0.\H,0,-1
 .119931,3.169586,0.\\Version=ES64L-G16RevC.01\State=1-A'\HF=-450.80621

 Normal termination of Gaussian 16 at Sat Apr  5 23:14:26 2025.
