 Gaussian 16, Revision C.01,

 ----------------------------------------------------------------------
 #t hf aug-cc-pvdz symm=none int=(grid=ultrafine) guess=(read,tcheck) s
 table=(opt,rrhf)
 ----------------------------------------------------------------------
 -----
 title
 -----
 Symbolic Z-matrix:
 Charge =  0 Multiplicity = 1

 SCF Done:  E(RHF) =  -354.460327953     A.U. after   15 cycles
 Normal termination of Gaussian 16 at Sat Apr  5 23:14:39 2025.
 Gaussian 16:  ES64L-G16RevC.01  3-Jul-2019

 ----------------------------------------------------------------------
 #t hf aug-cc-pvdz iop(5/13=1,5/36=2,99/5=2) pseudo=read geom=check gue
 ss=(read,tcheck) scf=(maxcycle=1)
 ----------------------------------------------------------------------
 -----
 title
 -----
 Structure from the checkpoint file:  "pyrimidine-2-carbonitrile.chk"
 Charge =  0 Multiplicity = 1

                         Standard orientation:
 ---------------------------------------------------------------------
 Center     Atomic      Atomic             Coordinates (Angstroms)
 Number     Number       Type             X           Y           Z
 ---------------------------------------------------------------------
      1          6           0        0.000000    0.000000    1.983144
      2          6           0        0.000000   -0.000000   -2.114003
      3          6           0        0.000000    1.182119   -1.386720
      4          6           0       -0.000000   -1.182119   -1.386720
      5          6           0        0.000000    0.000000    0.536531
      6          7           0        0.000000    0.000000    3.132944
      7          7           0        0.000000    1.194621   -0.055327
      8          7           0       -0.000000   -1.194621   -0.055327
      9          1           0        0.000000   -0.000000   -3.193985
     10          1           0        0.000000    2.147839   -1.877717
     11          1           0       -0.000000   -2.147839   -1.877717
 ---------------------------------------------------------------------

 SCF Done:  E(RHF) =  -354.809249063     A.U. after    2 cycles

 The electronic state is 1-A1.
 Alpha  occ. eigenvalues --  -15.55081 -15.54986 -15.53042 -11.37846 -11.33414
 Alpha  occ. eigenvalues --  -11.33408 -11.29108 -11.28767  -1.35478  -1.24553
 Alpha  occ. eigenvalues --   -1.23996  -1.12230  -0.97864  -0.95507  -0.83276
 Alpha  occ. eigenvalues --   -0.78022  -0.72405  -0.66064  -0.65087  -0.64946
 Alpha  occ. eigenvalues --   -0.61888  -0.55713  -0.53061  -0.52161  -0.49000
 Alpha  occ. eigenvalues --   -0.48948  -0.41775
 Alpha virt. eigenvalues --    0.02145   0.02735   0.03197   0.03852   0.04139
 Alpha virt. eigenvalues --    0.07641   0.08795   0.09367   0.09535   0.11610
 Alpha virt. eigenvalues --    0.11893   0.12226   0.12357   0.12931   0.13860

 Mulliken charges:
               1
     1  C   -1.832607
     2  C    0.501323
     3  C   -0.272197
     4  C   -0.272197
     5  C   -0.772120
     6  N    1.143879
     7  N    0.955711
     8  N    0.955711
     9  H   -0.127396
    10  H   -0.140053
    11  H   -0.140053
 Sum of Mulliken charges =   0.00000

 Dipole moment (field-independent basis, Debye):
    X=             -0.0000    Y=              0.0000    Z=             -7.6198  Tot=              7.6198

 Test job not archived.
 1\1\GINC-SE108\SP\RHF\Aug-CC-pVDZ\C5H3N3\OHZDE\05-Apr-2025\0\\#t hf au
 g-cc-pvdz iop(5/13=1,5/36=2,99/5=2) pseudo=read geom=check guess=(read
 ,tcheck) scf=(maxcycle=1)\\title\\0,1\C,0,0.,0.,1.983144\C,0,0.,0.,-2.
 114003\C,0,0.,1.182119,-1.38672\C,0,0.,-1.182119,-1.38672\C,0,0.,0.,0.
 536531\N,0,0.,0.,3.132944\N,0,0.,1.194621,-0.055327\N,0,0.,-1.194621,-
 0.055327\H,0,0.,0.,-3.193985\H,0,0.,2.147839,-1.877717\H,0,0.,-2.14783
 9,-1.877717\\Version=ES64L-G16RevC.01\State=1-A1\HF=-354.8092491\RMSD=
 6.907e-02\Dipole=0.,0.,-2.9978705\Quadrupole=0.7982237,1.7288964,-2.52

 Normal termination of Gaussian 16 at Sat Apr  5 23:15:56 2025.
