 Gaussian 16, Revision C.01,

 ----------------------------------------------------------------------
 #t hf aug-cc-pvdz symm=none int=(grid=ultrafine) guess=(read,tcheck) s
 table=(opt,rrhf)
 ----------------------------------------------------------------------
 -----
 title
 -----
 Symbolic Z-matrix:
 Charge =  0 Multiplicity = 1

 SCF Done:  E(RHF) =  -359.465972127     A.U. after   16 cycles
 Normal termination of Gaussian 16 at Sat Apr  5 23:14:16 2025.
 Gaussian 16:  ES64L-G16RevC.01  3-Jul-2019

 ----------------------------------------------------------------------
 #t hf aug-cc-pvdz iop(5/13=1,5/36=2,99/5=2) pseudo=read geom=check gue
 ss=(read,tcheck) scf=(maxcycle=1)
 ----------------------------------------------------------------------
 -----
 title
 -----
 Structure from the checkpoint file:  "pyridine-4-carbaldehyde.chk"
 Charge =  0 Multiplicity = 1

                         Standard orientation:
 ---------------------------------------------------------------------
 Center     Atomic      Atomic             Coordinates (Angstroms)
 Number     Number       Type             X           Y           Z
 ---------------------------------------------------------------------
      1          6           0        1.317704    0.115038    0.000000
      2          6           0       -1.022687   -0.385775   -0.000000
      3          6           0        1.558392   -1.254677    0.000000
      4          6           0       -0.677231   -1.728443    0.000000
      5          6           0       -0.000000    0.561086   -0.000000
      6          6           0       -0.292864    2.016587   -0.000000
      7          7           0        0.586424   -2.165062    0.000000
      8          8           0       -1.402646    2.490215   -0.000000
      9          1           0        2.141104    0.817975    0.000000
     10          1           0       -2.055648   -0.068068   -0.000000
     11          1           0        2.573168   -1.634741    0.000000
     12          1           0       -1.445137   -2.492744   -0.000000
     13          1           0        0.602825    2.668397   -0.000000
 ---------------------------------------------------------------------

 SCF Done:  E(RHF) =  -359.825576332     A.U. after    2 cycles

 The electronic state is 1-A'.
 Alpha  occ. eigenvalues --  -20.56423 -15.52585 -11.36078 -11.29734 -11.29463
 Alpha  occ. eigenvalues --  -11.28265 -11.27377 -11.26676  -1.49358  -1.27904
 Alpha  occ. eigenvalues --   -1.12688  -1.05923  -0.94341  -0.89993  -0.82850
 Alpha  occ. eigenvalues --   -0.74998  -0.71978  -0.68181  -0.65977  -0.64062
 Alpha  occ. eigenvalues --   -0.62918  -0.59055  -0.55166  -0.54774  -0.47834
 Alpha  occ. eigenvalues --   -0.44028  -0.41755  -0.37541
 Alpha virt. eigenvalues --    0.02906   0.03000   0.03653   0.04334   0.05643
 Alpha virt. eigenvalues --    0.06319   0.07735   0.09042   0.09168   0.11016
 Alpha virt. eigenvalues --    0.11082   0.11967   0.12297   0.13499   0.14074

 Mulliken charges:
               1
     1  C    0.893105
     2  C    0.638012
     3  C   -1.253643
     4  C   -1.158782
     5  C    0.969117
     6  C    0.877924
     7  N    1.131979
     8  O   -1.260137
     9  H   -0.234821
    10  H   -0.245402
    11  H   -0.184955
    12  H   -0.179216
    13  H    0.006819
 Sum of Mulliken charges =  -0.00000

 Dipole moment (field-independent basis, Debye):
    X=              1.8488    Y=              0.5703    Z=              0.0000  Tot=              1.9347

 Test job not archived.
 1\1\GINC-SE169\SP\RHF\Aug-CC-pVDZ\C6H5N1O1\OHZDE\05-Apr-2025\0\\#t hf
 aug-cc-pvdz iop(5/13=1,5/36=2,99/5=2) pseudo=read geom=check guess=(re
 ad,tcheck) scf=(maxcycle=1)\\title\\0,1\C,0,1.317704,0.115038,0.\C,0,-
 1.022687,-0.385775,0.\C,0,1.558392,-1.254677,0.\C,0,-0.677231,-1.72844
 3,0.\C,0,0.,0.561086,0.\C,0,-0.292864,2.016587,0.\N,0,0.586424,-2.1650
 62,0.\O,0,-1.402646,2.490215,0.\H,0,2.141104,0.817975,0.\H,0,-2.055648
 ,-0.068068,0.\H,0,2.573168,-1.634741,0.\H,0,-1.445137,-2.492744,0.\H,0
 ,0.602825,2.668397,0.\\Version=ES64L-G16RevC.01\State=1-A'\HF=-359.825

 Normal termination of Gaussian 16 at Sat Apr  5 23:15:52 2025.
