 Gaussian 16, Revision C.01,

 ----------------------------------------------------------------------
 #t hf aug-cc-pvdz symm=none int=(grid=ultrafine) guess=(read,tcheck) s
 table=(opt,rrhf)
 ----------------------------------------------------------------------
 -----
 title
 -----
 Symbolic Z-matrix:
 Charge =  0 Multiplicity = 1

 SCF Done:  E(RHF) =  -359.468203054     A.U. after   15 cycles
 Normal termination of Gaussian 16 at Sat Apr  5 23:14:17 2025.
 Gaussian 16:  ES64L-G16RevC.01  3-Jul-2019

 ----------------------------------------------------------------------
 #t hf aug-cc-pvdz iop(5/13=1,5/36=2,99/5=2) pseudo=read geom=check gue
 ss=(read,tcheck) scf=(maxcycle=1)
 ----------------------------------------------------------------------
 -----
 title
 -----
 Structure from the checkpoint file:  "pyridine-3-carbaldehyde.chk"
 Charge =  0 Multiplicity = 1

                         Standard orientation:
 ---------------------------------------------------------------------
 Center     Atomic      Atomic             Coordinates (Angstroms)
 Number     Number       Type             X           Y           Z
 ---------------------------------------------------------------------
      1          6           0        1.610317   -1.209436   -0.000000
      2          6           0        1.329993    0.147978   -0.000000
      3          6           0        0.543915   -2.101297   -0.000000
      4          6           0       -0.997140   -0.422562   -0.000000
      5          6           0        0.000000    0.559527    0.000000
      6          6           0       -0.339161    1.998058    0.000000
      7          7           0       -0.739333   -1.725611   -0.000000
      8          8           0       -1.461675    2.444254    0.000000
      9          1           0        2.627285   -1.575291   -0.000000
     10          1           0        2.126453    0.882601    0.000000
     11          1           0        0.725761   -3.169850   -0.000000
     12          1           0       -2.037530   -0.121485    0.000000
     13          1           0        0.539218    2.675668    0.000000
 ---------------------------------------------------------------------

 SCF Done:  E(RHF) =  -359.828264770     A.U. after    2 cycles

 The electronic state is 1-A'.
 Alpha  occ. eigenvalues --  -20.55313 -15.52135 -11.35476 -11.30426 -11.30187
 Alpha  occ. eigenvalues --  -11.29183 -11.26620 -11.26595  -1.48400  -1.28062
 Alpha  occ. eigenvalues --   -1.12494  -1.06817  -0.93647  -0.89554  -0.83467
 Alpha  occ. eigenvalues --   -0.75232  -0.72191  -0.68747  -0.65093  -0.63902
 Alpha  occ. eigenvalues --   -0.61752  -0.59214  -0.56580  -0.54049  -0.47593
 Alpha  occ. eigenvalues --   -0.43072  -0.42476  -0.37440
 Alpha virt. eigenvalues --    0.02576   0.03343   0.04386   0.04659   0.05538
 Alpha virt. eigenvalues --    0.06433   0.06635   0.08149   0.09522   0.10870
 Alpha virt. eigenvalues --    0.11582   0.11966   0.12180   0.12987   0.13899

 Mulliken charges:
               1
     1  C    0.261874
     2  C    0.503942
     3  C   -0.753499
     4  C   -1.117137
     5  C    1.506549
     6  C    0.771337
     7  N    0.929751
     8  O   -1.282557
     9  H   -0.185833
    10  H   -0.227752
    11  H   -0.157073
    12  H   -0.237178
    13  H   -0.012424
 Sum of Mulliken charges =   0.00000

 Dipole moment (field-independent basis, Debye):
    X=              4.4921    Y=             -0.5018    Z=             -0.0000  Tot=              4.5201

 Test job not archived.
 1\1\GINC-SE129\SP\RHF\Aug-CC-pVDZ\C6H5N1O1\OHZDE\05-Apr-2025\0\\#t hf
 aug-cc-pvdz iop(5/13=1,5/36=2,99/5=2) pseudo=read geom=check guess=(re
 ad,tcheck) scf=(maxcycle=1)\\title\\0,1\C,0,1.610317,-1.209436,0.\C,0,
 1.329993,0.147978,0.\C,0,0.543915,-2.101297,0.\C,0,-0.99714,-0.422562,
 0.\C,0,0.,0.559527,0.\C,0,-0.339161,1.998058,0.\N,0,-0.739333,-1.72561
 1,0.\O,0,-1.461675,2.444254,0.\H,0,2.627285,-1.575291,0.\H,0,2.126453,
 0.882601,0.\H,0,0.725761,-3.16985,0.\H,0,-2.03753,-0.121485,0.\H,0,0.5
 39218,2.675668,0.\\Version=ES64L-G16RevC.01\State=1-A'\HF=-359.8282648

 Normal termination of Gaussian 16 at Sat Apr  5 23:14:22 2025.
