 Gaussian 16, Revision C.01,

 ----------------------------------------------------------------------
 #t hf aug-cc-pvdz symm=none int=(grid=ultrafine) guess=(read,tcheck) s
 table=(opt,rrhf)
 ----------------------------------------------------------------------
 -----
 title
 -----
 Symbolic Z-matrix:
 Charge =  0 Multiplicity = 1

 SCF Done:  E(RHF) =  -396.492795762     A.U. after   14 cycles
 Normal termination of Gaussian 16 at Sat Apr  5 23:14:08 2025.
 Gaussian 16:  ES64L-G16RevC.01  3-Jul-2019

 ----------------------------------------------------------------------
 #t hf aug-cc-pvdz iop(5/13=1,5/36=2,99/5=2) pseudo=read geom=check gue
 ss=(read,tcheck) scf=(maxcycle=1)
 ----------------------------------------------------------------------
 -----
 title
 -----
 Structure from the checkpoint file:  "pyridine-2-4-diol.chk"
 Charge =  0 Multiplicity = 1

                         Standard orientation:
 ---------------------------------------------------------------------
 Center     Atomic      Atomic             Coordinates (Angstroms)
 Number     Number       Type             X           Y           Z
 ---------------------------------------------------------------------
      1          6           0       -1.181319   -1.083539    0.000000
      2          6           0        0.000000    1.010809    0.000000
      3          6           0        0.048798   -1.709300    0.000000
      4          6           0       -1.198215    0.314134    0.000000
      5          6           0        1.176033    0.261682    0.000000
      6          7           0        1.220451   -1.060717    0.000000
      7          8           0       -2.406742    0.931648    0.000000
      8          8           0        2.354509    0.926245    0.000000
      9          1           0       -2.104345   -1.642803    0.000000
     10          1           0        0.041008    2.091380    0.000000
     11          1           0        0.107341   -2.790875    0.000000
     12          1           0       -2.290414    1.887774    0.000000
     13          1           0        3.049335    0.253679    0.000000
 ---------------------------------------------------------------------

 SCF Done:  E(RHF) =  -396.891084481     A.U. after    2 cycles

 The electronic state is 1-A'.
 Alpha  occ. eigenvalues --  -20.60196 -20.58733 -15.49747 -11.35280 -11.33975
 Alpha  occ. eigenvalues --  -11.29319 -11.24359 -11.23681  -1.51775  -1.51152
 Alpha  occ. eigenvalues --   -1.26164  -1.09251  -1.04165  -0.90563  -0.87278
 Alpha  occ. eigenvalues --   -0.79424  -0.73672  -0.69720  -0.67819  -0.63762
 Alpha  occ. eigenvalues --   -0.63200  -0.61235  -0.59236  -0.57645  -0.54544
 Alpha  occ. eigenvalues --   -0.51200  -0.47355  -0.38467  -0.34780
 Alpha virt. eigenvalues --    0.03036   0.03856   0.04515   0.05425   0.06345
 Alpha virt. eigenvalues --    0.09026   0.10106   0.11490   0.11750   0.12178
 Alpha virt. eigenvalues --    0.12492   0.12597   0.13277   0.13945   0.14045

 Mulliken charges:
               1
     1  C    1.168249
     2  C    1.206696
     3  C   -1.074960
     4  C    0.845878
     5  C   -0.069688
     6  N    1.022263
     7  O   -1.669600
     8  O   -1.534265
     9  H   -0.215216
    10  H   -0.286517
    11  H   -0.184533
    12  H    0.398927
    13  H    0.392766
 Sum of Mulliken charges =  -0.00000

 Dipole moment (field-independent basis, Debye):
    X=             -1.0165    Y=              1.1075    Z=              0.0000  Tot=              1.5032

 Test job not archived.
 1\1\GINC-SE169\SP\RHF\Aug-CC-pVDZ\C5H5N1O2\OHZDE\05-Apr-2025\0\\#t hf
 aug-cc-pvdz iop(5/13=1,5/36=2,99/5=2) pseudo=read geom=check guess=(re
 ad,tcheck) scf=(maxcycle=1)\\title\\0,1\C,0,-1.181319,-1.083539,0.\C,0
 ,0.,1.010809,0.\C,0,0.048798,-1.7093,0.\C,0,-1.198215,0.314134,0.\C,0,
 1.176033,0.261682,0.\N,0,1.220451,-1.060717,0.\O,0,-2.406742,0.931648,
 0.\O,0,2.354509,0.926245,0.\H,0,-2.104345,-1.642803,0.\H,0,0.041008,2.
 09138,0.\H,0,0.107341,-2.790875,0.\H,0,-2.290414,1.887774,0.\H,0,3.049
 335,0.253679,0.\\Version=ES64L-G16RevC.01\State=1-A'\HF=-396.8910845\R

 Normal termination of Gaussian 16 at Sat Apr  5 23:14:13 2025.
