 Gaussian 16, Revision C.01,

 ----------------------------------------------------------------------
 #t hf aug-cc-pvdz symm=none int=(grid=ultrafine) guess=(read,tcheck) s
 table=(opt,rrhf)
 ----------------------------------------------------------------------
 -----
 title
 -----
 Symbolic Z-matrix:
 Charge =  0 Multiplicity = 1

 SCF Done:  E(RHF) =  -1041.79109499     A.U. after   15 cycles
 Normal termination of Gaussian 16 at Sat Apr  5 23:14:23 2025.
 Gaussian 16:  ES64L-G16RevC.01  3-Jul-2019

 ----------------------------------------------------------------------
 #t hf aug-cc-pvdz iop(5/13=1,5/36=2,99/5=2) pseudo=read geom=check gue
 ss=(read,tcheck) scf=(maxcycle=1)
 ----------------------------------------------------------------------
 -----
 title
 -----
 Structure from the checkpoint file:  "pyridine-2-4-dithiol.chk"
 Charge =  0 Multiplicity = 1

                         Standard orientation:
 ---------------------------------------------------------------------
 Center     Atomic      Atomic             Coordinates (Angstroms)
 Number     Number       Type             X           Y           Z
 ---------------------------------------------------------------------
      1          6           0       -1.178117   -1.374042    0.000000
      2          6           0        0.000000    0.710936    0.000000
      3          6           0        0.054673   -2.002123    0.000000
      4          6           0       -1.206605    0.023456    0.000000
      5          6           0        1.184142   -0.028878    0.000000
      6          7           0        1.224295   -1.357495    0.000000
      7         16           0       -2.784231    0.826539    0.000000
      8         16           0        2.727524    0.857050    0.000000
      9          1           0       -2.088791   -1.955558    0.000000
     10          1           0        0.031617    1.791274    0.000000
     11          1           0        0.111277   -3.084243    0.000000
     12          1           0       -2.326622    2.090660    0.000000
     13          1           0        3.485210   -0.253177    0.000000
 ---------------------------------------------------------------------

 SCF Done:  E(RHF) =  -1042.15691016     A.U. after    2 cycles

 The electronic state is 1-A'.
 Alpha  occ. eigenvalues --  -93.98369 -93.96790 -15.51219 -11.32999 -11.31592
 Alpha  occ. eigenvalues --  -11.29718 -11.26173 -11.25576  -8.26496  -8.24973
 Alpha  occ. eigenvalues --   -6.24350  -6.24195  -6.23963  -6.22821  -6.22672
 Alpha  occ. eigenvalues --   -6.22443  -1.28266  -1.14484  -1.09337  -1.02475
 Alpha  occ. eigenvalues --   -1.00091  -0.89272  -0.83903  -0.72760  -0.71944
 Alpha  occ. eigenvalues --   -0.66412  -0.61395  -0.59455  -0.59323  -0.56294
 Alpha  occ. eigenvalues --   -0.51590  -0.50907  -0.48168  -0.45724  -0.43070
 Alpha  occ. eigenvalues --   -0.36232  -0.33823
 Alpha virt. eigenvalues --    0.03422   0.03664   0.04556   0.05452   0.06038
 Alpha virt. eigenvalues --    0.06557   0.08267   0.08299   0.09376   0.10870
 Alpha virt. eigenvalues --    0.11134   0.11583   0.11892   0.12954   0.13344

 Mulliken charges:
               1
     1  C    0.619421
     2  C    0.806137
     3  C   -1.019815
     4  C   -0.057332
     5  C   -1.533302
     6  N    1.033050
     7  S    0.001064
     8  S    0.043611
     9  H   -0.208619
    10  H   -0.216870
    11  H   -0.172498
    12  H    0.330729
    13  H    0.374423
 Sum of Mulliken charges =  -0.00000

 Dipole moment (field-independent basis, Debye):
    X=             -1.4273    Y=              0.5535    Z=              0.0000  Tot=              1.5309

 Test job not archived.
 1\1\GINC-SE085\SP\RHF\Aug-CC-pVDZ\C5H5N1S2\OHZDE\05-Apr-2025\0\\#t hf
 aug-cc-pvdz iop(5/13=1,5/36=2,99/5=2) pseudo=read geom=check guess=(re
 ad,tcheck) scf=(maxcycle=1)\\title\\0,1\C,0,-1.178117,-1.374042,0.\C,0
 ,0.,0.710936,0.\C,0,0.054673,-2.002123,0.\C,0,-1.206605,0.023456,0.\C,
 0,1.184142,-0.028878,0.\N,0,1.224295,-1.357495,0.\S,0,-2.784231,0.8265
 39,0.\S,0,2.727524,0.85705,0.\H,0,-2.088791,-1.955558,0.\H,0,0.031617,
 1.791274,0.\H,0,0.111277,-3.084243,0.\H,0,-2.326622,2.09066,0.\H,0,3.4
 8521,-0.253177,0.\\Version=ES64L-G16RevC.01\State=1-A'\HF=-1042.156910

 Normal termination of Gaussian 16 at Sat Apr  5 23:15:58 2025.
