 Gaussian 16, Revision C.01,

 ----------------------------------------------------------------------
 #t hf aug-cc-pvdz symm=none int=(grid=ultrafine) guess=(read,tcheck) s
 table=(opt,rrhf)
 ----------------------------------------------------------------------
 -----
 title
 -----
 Symbolic Z-matrix:
 Charge =  0 Multiplicity = 1

 SCF Done:  E(RHF) =  -246.724774699     A.U. after   13 cycles
 Normal termination of Gaussian 16 at Sat Apr  5 23:14:32 2025.
 Gaussian 16:  ES64L-G16RevC.01  3-Jul-2019

 ----------------------------------------------------------------------
 #t hf aug-cc-pvdz iop(5/13=1,5/36=2,99/5=2) pseudo=read geom=check gue
 ss=(read,tcheck) scf=(maxcycle=1)
 ----------------------------------------------------------------------
 -----
 title
 -----
 Structure from the checkpoint file:  "pyridine.chk"
 Charge =  0 Multiplicity = 1

                         Standard orientation:
 ---------------------------------------------------------------------
 Center     Atomic      Atomic             Coordinates (Angstroms)
 Number     Number       Type             X           Y           Z
 ---------------------------------------------------------------------
      1          6           0        0.000000    1.138944    0.719367
      2          7           0        0.000000   -0.000000    1.412722
      3          6           0        0.000000    1.193219   -0.669712
      4          6           0       -0.000000   -1.138944    0.719367
      5          6           0       -0.000000   -1.193219   -0.669712
      6          6           0       -0.000000    0.000000   -1.378970
      7          1           0        0.000000   -2.147907   -1.177548
      8          1           0        0.000000    2.053255    1.302467
      9          1           0        0.000000    2.147907   -1.177548
     10          1           0       -0.000000   -2.053255    1.302467
     11          1           0       -0.000000    0.000000   -2.460925
 ---------------------------------------------------------------------

 SCF Done:  E(RHF) =  -246.979112225     A.U. after    2 cycles

 The electronic state is 1-A1.
 Alpha  occ. eigenvalues --  -15.50465 -11.28054 -11.28051 -11.26683 -11.24919
 Alpha  occ. eigenvalues --  -11.24913  -1.26113  -1.09457  -1.04018  -0.87829
 Alpha  occ. eigenvalues --   -0.87082  -0.73950  -0.69121  -0.66250  -0.61278
 Alpha  occ. eigenvalues --   -0.59683  -0.56380  -0.53700  -0.45309  -0.40583
 Alpha  occ. eigenvalues --   -0.35917
 Alpha virt. eigenvalues --    0.03255   0.03820   0.04028   0.05443   0.06325
 Alpha virt. eigenvalues --    0.07797   0.10008   0.11045   0.11232   0.12255
 Alpha virt. eigenvalues --    0.12947   0.13091   0.13283   0.14279   0.14358

 Mulliken charges:
               1
     1  C   -0.778759
     2  N    0.878646
     3  C    0.719028
     4  C   -0.778759
     5  C    0.719028
     6  C    0.109867
     7  H   -0.185176
     8  H   -0.172724
     9  H   -0.185176
    10  H   -0.172724
    11  H   -0.153253
 Sum of Mulliken charges =  -0.00000

 Dipole moment (field-independent basis, Debye):
    X=             -0.0000    Y=              0.0000    Z=             -2.6962  Tot=              2.6962

 Test job not archived.
 1\1\GINC-SE028\SP\RHF\Aug-CC-pVDZ\C5H5N1\OHZDE\05-Apr-2025\0\\#t hf au
 g-cc-pvdz iop(5/13=1,5/36=2,99/5=2) pseudo=read geom=check guess=(read
 ,tcheck) scf=(maxcycle=1)\\title\\0,1\C,0,0.,1.138944,0.719367\N,0,0.,
 0.,1.412722\C,0,0.,1.193219,-0.669712\C,0,0.,-1.138944,0.719367\C,0,0.
 ,-1.193219,-0.669712\C,0,0.,0.,-1.37897\H,0,0.,-2.147907,-1.177548\H,0
 ,0.,2.053255,1.302467\H,0,0.,2.147907,-1.177548\H,0,0.,-2.053255,1.302
 467\H,0,0.,0.,-2.460925\\Version=ES64L-G16RevC.01\State=1-A1\HF=-246.9
 791122\RMSD=2.919e-02\Dipole=0.,0.,-1.0607818\Quadrupole=-3.2896608,4.

 Normal termination of Gaussian 16 at Sat Apr  5 23:15:56 2025.
