 Gaussian 16, Revision C.01,

 ----------------------------------------------------------------------
 #t hf aug-cc-pvdz symm=none int=(grid=ultrafine) guess=(read,tcheck) s
 table=(opt,rrhf)
 ----------------------------------------------------------------------
 -----
 title
 -----
 Symbolic Z-matrix:
 Charge =  0 Multiplicity = 1

 SCF Done:  E(RHF) =  -262.682992513     A.U. after   13 cycles
 Normal termination of Gaussian 16 at Sat Apr  5 23:13:47 2025.
 Gaussian 16:  ES64L-G16RevC.01  3-Jul-2019

 ----------------------------------------------------------------------
 #t hf aug-cc-pvdz iop(5/13=1,5/36=2,99/5=2) pseudo=read geom=check gue
 ss=(read,tcheck) scf=(maxcycle=1)
 ----------------------------------------------------------------------
 -----
 title
 -----
 Structure from the checkpoint file:  "pyridazine.chk"
 Charge =  0 Multiplicity = 1

                         Standard orientation:
 ---------------------------------------------------------------------
 Center     Atomic      Atomic             Coordinates (Angstroms)
 Number     Number       Type             X           Y           Z
 ---------------------------------------------------------------------
      1          6           0        0.000000    0.688857    1.174003
      2          6           0       -0.000000   -0.688857    1.174003
      3          6           0        0.000000   -1.319429   -0.067431
      4          6           0        0.000000    1.319429   -0.067431
      5          1           0        0.000000    1.265199    2.088781
      6          1           0       -0.000000   -1.265199    2.088781
      7          1           0        0.000000   -2.398824   -0.151216
      8          1           0        0.000000    2.398824   -0.151216
      9          7           0        0.000000    0.664263   -1.225286
     10          7           0       -0.000000   -0.664263   -1.225286
 ---------------------------------------------------------------------

 SCF Done:  E(RHF) =  -262.947833817     A.U. after    2 cycles

 The electronic state is 1-A1.
 Alpha  occ. eigenvalues --  -15.55392 -15.54795 -11.29022 -11.28995 -11.27922
 Alpha  occ. eigenvalues --  -11.27839  -1.34588  -1.13087  -1.12027  -0.92114
 Alpha  occ. eigenvalues --   -0.91992  -0.75359  -0.73681  -0.67816  -0.61937
 Alpha  occ. eigenvalues --   -0.61623  -0.61061  -0.51783  -0.45228  -0.42836
 Alpha  occ. eigenvalues --   -0.40772
 Alpha virt. eigenvalues --    0.02847   0.03502   0.04024   0.05007   0.05986
 Alpha virt. eigenvalues --    0.08182   0.09925   0.10642   0.11556   0.12078
 Alpha virt. eigenvalues --    0.12680   0.13595   0.13834   0.14689   0.15364

 Mulliken charges:
               1
     1  C    0.669335
     2  C    0.669335
     3  C   -0.546776
     4  C   -0.546776
     5  H   -0.156419
     6  H   -0.156419
     7  H   -0.117499
     8  H   -0.117499
     9  N    0.151359
    10  N    0.151359
 Sum of Mulliken charges =   0.00000

 Dipole moment (field-independent basis, Debye):
    X=             -0.0000    Y=             -0.0000    Z=              5.1799  Tot=              5.1799

 Test job not archived.
 1\1\GINC-SE108\SP\RHF\Aug-CC-pVDZ\C4H4N2\OHZDE\05-Apr-2025\0\\#t hf au
 g-cc-pvdz iop(5/13=1,5/36=2,99/5=2) pseudo=read geom=check guess=(read
 ,tcheck) scf=(maxcycle=1)\\title\\0,1\C,0,0.,0.688857,1.174003\C,0,0.,
 -0.688857,1.174003\C,0,0.,-1.319429,-0.067431\C,0,0.,1.319429,-0.06743
 1\H,0,0.,1.265199,2.088781\H,0,0.,-1.265199,2.088781\H,0,0.,-2.398824,
 -0.151216\H,0,0.,2.398824,-0.151216\N,0,0.,0.664263,-1.225286\N,0,0.,-
 0.664263,-1.225286\\Version=ES64L-G16RevC.01\State=1-A1\HF=-262.947833
 8\RMSD=5.432e-02\Dipole=0.,0.,2.0379438\Quadrupole=-2.0506518,4.652641

 Normal termination of Gaussian 16 at Sat Apr  5 23:13:51 2025.
