 Gaussian 16, Revision C.01,

 ----------------------------------------------------------------------
 #t hf aug-cc-pvdz symm=none int=(grid=ultrafine) guess=(read,tcheck) s
 table=(opt,rrhf)
 ----------------------------------------------------------------------
 -----
 title
 -----
 Symbolic Z-matrix:
 Charge =  0 Multiplicity = 1

 SCF Done:  E(RHF) =  -338.464261727     A.U. after   15 cycles
 Normal termination of Gaussian 16 at Sat Apr  5 23:14:01 2025.
 Gaussian 16:  ES64L-G16RevC.01  3-Jul-2019

 ----------------------------------------------------------------------
 #t hf aug-cc-pvdz iop(5/13=1,5/36=2,99/5=2) pseudo=read geom=check gue
 ss=(read,tcheck) scf=(maxcycle=1)
 ----------------------------------------------------------------------
 -----
 title
 -----
 Structure from the checkpoint file:  "pyridine-4-carbonitrile.chk"
 Charge =  0 Multiplicity = 1

                         Standard orientation:
 ---------------------------------------------------------------------
 Center     Atomic      Atomic             Coordinates (Angstroms)
 Number     Number       Type             X           Y           Z
 ---------------------------------------------------------------------
      1          6           0        0.000000    0.000000    2.029610
      2          6           0        0.000000    1.200354   -0.112893
      3          6           0       -0.000000   -1.200354   -0.112893
      4          6           0        0.000000    1.140883   -1.499716
      5          6           0       -0.000000   -1.140883   -1.499716
      6          6           0        0.000000    0.000000    0.598544
      7          7           0        0.000000    0.000000    3.181206
      8          7           0        0.000000    0.000000   -2.189569
      9          1           0        0.000000    2.149584    0.402220
     10          1           0       -0.000000   -2.149584    0.402220
     11          1           0        0.000000    2.054587   -2.081755
     12          1           0       -0.000000   -2.054587   -2.081755
 ---------------------------------------------------------------------

 SCF Done:  E(RHF) =  -338.800644681     A.U. after    2 cycles

 The electronic state is 1-A1.
 Alpha  occ. eigenvalues --  -15.53570 -15.53428 -11.32196 -11.30777 -11.30775
 Alpha  occ. eigenvalues --  -11.29919 -11.28536 -11.28527  -1.29191  -1.25344
 Alpha  occ. eigenvalues --   -1.14230  -1.07239  -0.94269  -0.91319  -0.80408
 Alpha  occ. eigenvalues --   -0.73325  -0.70443  -0.67376  -0.64374  -0.62006
 Alpha  occ. eigenvalues --   -0.60292  -0.57765  -0.54552  -0.51873  -0.48583
 Alpha  occ. eigenvalues --   -0.42764  -0.38788
 Alpha virt. eigenvalues --    0.02521   0.02849   0.03683   0.04476   0.05271
 Alpha virt. eigenvalues --    0.07611   0.07949   0.08690   0.09280   0.11228
 Alpha virt. eigenvalues --    0.11401   0.11497   0.11693   0.13298   0.13923

 Mulliken charges:
               1
     1  C   -2.953537
     2  C    0.958527
     3  C    0.958527
     4  C   -1.273545
     5  C   -1.273545
     6  C    2.014481
     7  N    1.127543
     8  N    1.248537
     9  H   -0.223462
    10  H   -0.223462
    11  H   -0.180032
    12  H   -0.180032
 Sum of Mulliken charges =  -0.00000

 Dipole moment (field-independent basis, Debye):
    X=              0.0000    Y=             -0.0000    Z=             -2.4892  Tot=              2.4892

 Test job not archived.
 1\1\GINC-SE183\SP\RHF\Aug-CC-pVDZ\C6H4N2\OHZDE\05-Apr-2025\0\\#t hf au
 g-cc-pvdz iop(5/13=1,5/36=2,99/5=2) pseudo=read geom=check guess=(read
 ,tcheck) scf=(maxcycle=1)\\title\\0,1\C,0,0.,0.,2.02961\C,0,0.,1.20035
 4,-0.112893\C,0,0.,-1.200354,-0.112893\C,0,0.,1.140883,-1.499716\C,0,0
 .,-1.140883,-1.499716\C,0,0.,0.,0.598544\N,0,0.,0.,3.181206\N,0,0.,0.,
 -2.189569\H,0,0.,2.149584,0.40222\H,0,0.,-2.149584,0.40222\H,0,0.,2.05
 4587,-2.081755\H,0,0.,-2.054587,-2.081755\\Version=ES64L-G16RevC.01\St
 ate=1-A1\HF=-338.8006447\RMSD=9.266e-02\Dipole=0.,0.,-0.9793273\Quadru

 Normal termination of Gaussian 16 at Sat Apr  5 23:14:07 2025.
