 Gaussian 16, Revision C.01,

 ----------------------------------------------------------------------
 #t hf aug-cc-pvdz symm=none int=(grid=ultrafine) guess=(read,tcheck) s
 table=(opt,rrhf)
 ----------------------------------------------------------------------
 -----
 title
 -----
 Symbolic Z-matrix:
 Charge =  0 Multiplicity = 1

 SCF Done:  E(RHF) =  -317.788988191     A.U. after   14 cycles
 Normal termination of Gaussian 16 at Sat Apr  5 23:14:28 2025.
 Gaussian 16:  ES64L-G16RevC.01  3-Jul-2019

 ----------------------------------------------------------------------
 #t hf aug-cc-pvdz iop(5/13=1,5/36=2,99/5=2) pseudo=read geom=check gue
 ss=(read,tcheck) scf=(maxcycle=1)
 ----------------------------------------------------------------------
 -----
 title
 -----
 Structure from the checkpoint file:  "pyrimidin-2-amine.chk"
 Charge =  0 Multiplicity = 1

                         Standard orientation:
 ---------------------------------------------------------------------
 Center     Atomic      Atomic             Coordinates (Angstroms)
 Number     Number       Type             X           Y           Z
 ---------------------------------------------------------------------
      1          6           0       -0.000845   -1.808309    0.000000
      2          6           0        0.002500   -1.071896    1.177316
      3          6           0        0.002500   -1.071896   -1.177316
      4          6           0       -0.003688    0.863909   -0.000000
      5          7           0        0.002500    0.255572    1.197627
      6          7           0        0.002500    0.255572   -1.197627
      7          7           0       -0.041543    2.223054   -0.000000
      8          1           0       -0.000837   -2.887318    0.000000
      9          1           0        0.007769   -1.564229    2.143784
     10          1           0        0.007769   -1.564229   -2.143784
     11          1           0        0.119153    2.702771   -0.866351
     12          1           0        0.119153    2.702771    0.866351
 ---------------------------------------------------------------------

 SCF Done:  E(RHF) =  -318.111972561     A.U. after    2 cycles

 The electronic state is 1-A'.
 Alpha  occ. eigenvalues --  -15.51645 -15.49663 -15.49556 -11.35271 -11.30037
 Alpha  occ. eigenvalues --  -11.30028 -11.23425  -1.32292  -1.20941  -1.19628
 Alpha  occ. eigenvalues --   -1.05423  -0.91943  -0.89937  -0.77083  -0.76664
 Alpha  occ. eigenvalues --   -0.69223  -0.68371  -0.62614  -0.61914  -0.60479
 Alpha  occ. eigenvalues --   -0.52218  -0.50066  -0.46041  -0.44399  -0.35369
 Alpha virt. eigenvalues --    0.03248   0.04204   0.04351   0.05279   0.06085
 Alpha virt. eigenvalues --    0.07208   0.10347   0.10614   0.11117   0.12374
 Alpha virt. eigenvalues --    0.12582   0.13520   0.13987   0.14253   0.14263

 Mulliken charges:
               1
     1  C    0.558809
     2  C   -0.275927
     3  C   -0.275927
     4  C   -1.739840
     5  N    0.684391
     6  N    0.684391
     7  N    0.564268
     8  H   -0.166115
     9  H   -0.142022
    10  H   -0.142022
    11  H    0.124997
    12  H    0.124997
 Sum of Mulliken charges =   0.00000

 Dipole moment (field-independent basis, Debye):
    X=              0.5059    Y=             -0.9437    Z=             -0.0000  Tot=              1.0708

 Test job not archived.
 1\1\GINC-SE050\SP\RHF\Aug-CC-pVDZ\C4H5N3\OHZDE\05-Apr-2025\0\\#t hf au
 g-cc-pvdz iop(5/13=1,5/36=2,99/5=2) pseudo=read geom=check guess=(read
 ,tcheck) scf=(maxcycle=1)\\title\\0,1\C,0,-0.000845,-1.808309,0.\C,0,0
 .0025,-1.071896,1.177316\C,0,0.0025,-1.071896,-1.177316\C,0,-0.003688,
 0.863909,0.\N,0,0.0025,0.255572,1.197627\N,0,0.0025,0.255572,-1.197627
 \N,0,-0.041543,2.223054,0.\H,0,-0.000837,-2.887318,0.\H,0,0.007769,-1.
 564229,2.143784\H,0,0.007769,-1.564229,-2.143784\H,0,0.119153,2.702771
 ,-0.866351\H,0,0.119153,2.702771,0.866351\\Version=ES64L-G16RevC.01\St

 Normal termination of Gaussian 16 at Sat Apr  5 23:15:57 2025.
