 Gaussian 16, Revision C.01,

 ----------------------------------------------------------------------
 #t hf aug-cc-pvdz symm=none int=(grid=ultrafine) guess=(read,tcheck) s
 table=(opt,rrhf)
 ----------------------------------------------------------------------
 -----
 title
 -----
 Symbolic Z-matrix:
 Charge =  0 Multiplicity = 1

 SCF Done:  E(RHF) =  -338.466790562     A.U. after   16 cycles
 Normal termination of Gaussian 16 at Sat Apr  5 23:14:07 2025.
 Gaussian 16:  ES64L-G16RevC.01  3-Jul-2019

 ----------------------------------------------------------------------
 #t hf aug-cc-pvdz iop(5/13=1,5/36=2,99/5=2) pseudo=read geom=check gue
 ss=(read,tcheck) scf=(maxcycle=1)
 ----------------------------------------------------------------------
 -----
 title
 -----
 Structure from the checkpoint file:  "pyridine-3-carbonitrile.chk"
 Charge =  0 Multiplicity = 1

                         Standard orientation:
 ---------------------------------------------------------------------
 Center     Atomic      Atomic             Coordinates (Angstroms)
 Number     Number       Type             X           Y           Z
 ---------------------------------------------------------------------
      1          6           0       -0.053693    2.019437   -0.000000
      2          6           0        1.204654   -1.469386    0.000000
      3          6           0        1.220966   -0.085509    0.000000
      4          6           0       -0.022972   -2.123259    0.000000
      5          6           0       -1.181722   -0.159565   -0.000000
      6          6           0       -0.000000    0.592498   -0.000000
      7          7           0       -0.100145    3.170672   -0.000000
      8          7           0       -1.195466   -1.486799   -0.000000
      9          1           0        2.124938   -2.035655    0.000000
     10          1           0        2.150017    0.466484    0.000000
     11          1           0       -0.067714   -3.205810    0.000000
     12          1           0       -2.141358    0.342572   -0.000000
 ---------------------------------------------------------------------

 SCF Done:  E(RHF) =  -338.803527493     A.U. after    2 cycles

 The electronic state is 1-A'.
 Alpha  occ. eigenvalues --  -15.53336 -15.52501 -11.31897 -11.31404 -11.30410
 Alpha  occ. eigenvalues --  -11.30331 -11.29299 -11.27689  -1.29528  -1.24514
 Alpha  occ. eigenvalues --   -1.13662  -1.08287  -0.93839  -0.90891  -0.79911
 Alpha  occ. eigenvalues --   -0.74324  -0.73024  -0.65675  -0.62964  -0.61763
 Alpha  occ. eigenvalues --   -0.60560  -0.58273  -0.53866  -0.52089  -0.47979
 Alpha  occ. eigenvalues --   -0.43366  -0.38724
 Alpha virt. eigenvalues --    0.02495   0.03603   0.04043   0.04265   0.05484
 Alpha virt. eigenvalues --    0.06199   0.08209   0.08599   0.08988   0.11640
 Alpha virt. eigenvalues --    0.11674   0.11737   0.12001   0.12905   0.14290

 Mulliken charges:
               1
     1  C   -2.952763
     2  C    0.307007
     3  C    0.566845
     4  C   -0.756889
     5  C   -0.727719
     6  C    2.254841
     7  N    1.144658
     8  N    0.919601
     9  H   -0.178483
    10  H   -0.224895
    11  H   -0.158714
    12  H   -0.193489
 Sum of Mulliken charges =   0.00000

 Dipole moment (field-independent basis, Debye):
    X=              2.5065    Y=             -4.1530    Z=              0.0000  Tot=              4.8508

 Test job not archived.
 1\1\GINC-SE164\SP\RHF\Aug-CC-pVDZ\C6H4N2\OHZDE\05-Apr-2025\0\\#t hf au
 g-cc-pvdz iop(5/13=1,5/36=2,99/5=2) pseudo=read geom=check guess=(read
 ,tcheck) scf=(maxcycle=1)\\title\\0,1\C,0,-0.053693,2.019437,0.\C,0,1.
 204654,-1.469386,0.\C,0,1.220966,-0.085509,0.\C,0,-0.022972,-2.123259,
 0.\C,0,-1.181722,-0.159565,0.\C,0,0.,0.592498,0.\N,0,-0.100145,3.17067
 2,0.\N,0,-1.195466,-1.486799,0.\H,0,2.124938,-2.035655,0.\H,0,2.150017
 ,0.466484,0.\H,0,-0.067713,-3.20581,0.\H,0,-2.141358,0.342572,0.\\Vers
 ion=ES64L-G16RevC.01\State=1-A'\HF=-338.8035275\RMSD=4.548e-02\Dipole=

 Normal termination of Gaussian 16 at Sat Apr  5 23:14:14 2025.
