 Gaussian 16, Revision C.01,

 ----------------------------------------------------------------------
 #t hf aug-cc-pvdz symm=none int=(grid=ultrafine) guess=(read,tcheck) s
 table=(opt,rrhf)
 ----------------------------------------------------------------------
 -----
 title
 -----
 Symbolic Z-matrix:
 Charge =  0 Multiplicity = 1

 SCF Done:  E(RHF) =  -208.838608894     A.U. after   13 cycles
 Normal termination of Gaussian 16 at Sat Apr  5 23:14:18 2025.
 Gaussian 16:  ES64L-G16RevC.01  3-Jul-2019

 ----------------------------------------------------------------------
 #t hf aug-cc-pvdz iop(5/13=1,5/36=2,99/5=2) pseudo=read geom=check gue
 ss=(read,tcheck) scf=(maxcycle=1)
 ----------------------------------------------------------------------
 -----
 title
 -----
 Structure from the checkpoint file:  "pyrrole.chk"
 Charge =  0 Multiplicity = 1

                         Standard orientation:
 ---------------------------------------------------------------------
 Center     Atomic      Atomic             Coordinates (Angstroms)
 Number     Number       Type             X           Y           Z
 ---------------------------------------------------------------------
      1          6           0        0.000000    0.710696   -0.980035
      2          6           0       -0.000000   -0.710696   -0.980035
      3          6           0        0.000000    1.121982    0.330484
      4          6           0       -0.000000   -1.121982    0.330484
      5          7           0        0.000000    0.000000    1.118833
      6          1           0        0.000000    1.356378   -1.841340
      7          1           0       -0.000000   -1.356378   -1.841340
      8          1           0        0.000000    2.107246    0.761724
      9          1           0       -0.000000   -2.107246    0.761724
     10          1           0        0.000000    0.000000    2.121999
 ---------------------------------------------------------------------

 SCF Done:  E(RHF) =  -209.058071456     A.U. after    2 cycles

 The electronic state is 1-A1.
 Alpha  occ. eigenvalues --  -15.54504 -11.25792 -11.25768 -11.21615 -11.21561
 Alpha  occ. eigenvalues --   -1.29090  -1.05005  -0.98706  -0.81738  -0.78873
 Alpha  occ. eigenvalues --   -0.75395  -0.61533  -0.60519  -0.59551  -0.56179
 Alpha  occ. eigenvalues --   -0.54209  -0.36804  -0.30923
 Alpha virt. eigenvalues --    0.03113   0.04427   0.04613   0.05445   0.05697
 Alpha virt. eigenvalues --    0.10454   0.11742   0.12187   0.13154   0.13437
 Alpha virt. eigenvalues --    0.13972   0.14894   0.15509   0.15636   0.16849

 Mulliken charges:
               1
     1  C    0.452318
     2  C    0.452318
     3  C   -0.431640
     4  C   -0.431640
     5  N    0.655350
     6  H   -0.144508
     7  H   -0.144508
     8  H   -0.200780
     9  H   -0.200780
    10  H   -0.006131
 Sum of Mulliken charges =  -0.00000

 Dipole moment (field-independent basis, Debye):
    X=              0.0000    Y=             -0.0000    Z=              1.5599  Tot=              1.5599

 Test job not archived.
 1\1\GINC-SE158\SP\RHF\Aug-CC-pVDZ\C4H5N1\OHZDE\05-Apr-2025\0\\#t hf au
 g-cc-pvdz iop(5/13=1,5/36=2,99/5=2) pseudo=read geom=check guess=(read
 ,tcheck) scf=(maxcycle=1)\\title\\0,1\C,0,0.,0.710696,-0.980035\C,0,0.
 ,-0.710696,-0.980035\C,0,0.,1.121982,0.330484\C,0,0.,-1.121982,0.33048
 4\N,0,0.,0.,1.118833\H,0,0.,1.356378,-1.84134\H,0,0.,-1.356378,-1.8413
 4\H,0,0.,2.107246,0.761724\H,0,0.,-2.107246,0.761724\H,0,0.,0.,2.12199
 9\\Version=ES64L-G16RevC.01\State=1-A1\HF=-209.0580715\RMSD=2.491e-02\
 Dipole=0.,0.,0.6137186\Quadrupole=-4.9813235,1.3896333,3.5916901,0.,0.

 Normal termination of Gaussian 16 at Sat Apr  5 23:14:20 2025.
