 Gaussian 16, Revision C.01,

 ----------------------------------------------------------------------
 #t hf aug-cc-pvdz symm=none int=(grid=ultrafine) guess=(read,tcheck) s
 table=(opt,rrhf)
 ----------------------------------------------------------------------
 -----
 title
 -----
 Symbolic Z-matrix:
 Charge =  0 Multiplicity = 1

 SCF Done:  E(RHF) =  -284.919797451     A.U. after   13 cycles
 Normal termination of Gaussian 16 at Sat Apr  5 23:14:37 2025.
 Gaussian 16:  ES64L-G16RevC.01  3-Jul-2019

 ----------------------------------------------------------------------
 #t hf aug-cc-pvdz iop(5/13=1,5/36=2,99/5=2) pseudo=read geom=check gue
 ss=(read,tcheck) scf=(maxcycle=1)
 ----------------------------------------------------------------------
 -----
 title
 -----
 Structure from the checkpoint file:  "pyrrolidin-2-one.chk"
 Charge =  0 Multiplicity = 1

                         Standard orientation:
 ---------------------------------------------------------------------
 Center     Atomic      Atomic             Coordinates (Angstroms)
 Number     Number       Type             X           Y           Z
 ---------------------------------------------------------------------
      1          6           0       -0.903175    0.001036   -0.006994
      2          6           0        0.005478    1.220666    0.132987
      3          6           0        1.412127    0.693606   -0.180358
      4          6           0        1.324994   -0.815730    0.127683
      5          7           0       -0.088155   -1.094127   -0.072504
      6          8           0       -2.116544   -0.011504   -0.038990
      7          1           0       -0.330880    2.020914   -0.521866
      8          1           0       -0.083303    1.580279    1.160742
      9          1           0        1.635799    0.834612   -1.237813
     10          1           0        2.197405    1.180877    0.393609
     11          1           0        1.945173   -1.412323   -0.541075
     12          1           0        1.632814   -1.032529    1.156074
     13          1           0       -0.484123   -2.018367   -0.030135
 ---------------------------------------------------------------------

 SCF Done:  E(RHF) =  -285.215974264     A.U. after    2 cycles

 The electronic state is 1-A.
 Alpha  occ. eigenvalues --  -20.50226 -15.52284 -11.35042 -11.28541 -11.25205
 Alpha  occ. eigenvalues --  -11.24810  -1.44981  -1.25863  -1.06627  -0.98619
 Alpha  occ. eigenvalues --   -0.84914  -0.81992  -0.70976  -0.69026  -0.63708
 Alpha  occ. eigenvalues --   -0.59987  -0.59094  -0.57517  -0.56371  -0.51981
 Alpha  occ. eigenvalues --   -0.48806  -0.41601  -0.40745
 Alpha virt. eigenvalues --    0.03064   0.03889   0.03959   0.04567   0.05948
 Alpha virt. eigenvalues --    0.06292   0.06604   0.09929   0.10801   0.12869
 Alpha virt. eigenvalues --    0.13132   0.14164   0.14835   0.15157   0.15609

 Mulliken charges:
               1
     1  C    0.566544
     2  C   -0.312417
     3  C   -0.263869
     4  C   -0.156790
     5  N    0.630942
     6  O   -1.296477
     7  H    0.180943
     8  H    0.210511
     9  H    0.104457
    10  H    0.163557
    11  H    0.069591
    12  H    0.038576
    13  H    0.064431
 Sum of Mulliken charges =  -0.00000

 Dipole moment (field-independent basis, Debye):
    X=              4.3688    Y=             -0.3159    Z=              0.3984  Tot=              4.3983

 Test job not archived.
 1\1\GINC-SE106\SP\RHF\Aug-CC-pVDZ\C4H7N1O1\OHZDE\05-Apr-2025\0\\#t hf
 aug-cc-pvdz iop(5/13=1,5/36=2,99/5=2) pseudo=read geom=check guess=(re
 ad,tcheck) scf=(maxcycle=1)\\title\\0,1\C,0,-0.903175,0.001036,-0.0069
 94\C,0,0.005478,1.220666,0.132987\C,0,1.412127,0.693606,-0.180358\C,0,
 1.324994,-0.81573,0.127683\N,0,-0.088155,-1.094127,-0.072504\O,0,-2.11
 6544,-0.011504,-0.03899\H,0,-0.33088,2.020914,-0.521866\H,0,-0.083303,
 1.580279,1.160742\H,0,1.635799,0.834612,-1.237813\H,0,2.197405,1.18087
 7,0.393609\H,0,1.945173,-1.412323,-0.541075\H,0,1.632814,-1.032529,1.1

 Normal termination of Gaussian 16 at Sat Apr  5 23:15:56 2025.
