 Gaussian 16, Revision C.01,

 ----------------------------------------------------------------------
 #t hf aug-cc-pvdz symm=none int=(grid=ultrafine) guess=(read,tcheck) s
 table=(opt,rrhf)
 ----------------------------------------------------------------------
 -----
 title
 -----
 Symbolic Z-matrix:
 Charge =  0 Multiplicity = 1

 SCF Done:  E(RHF) =  -1077.52678064     A.U. after   17 cycles
 Normal termination of Gaussian 16 at Sat Apr  5 23:14:33 2025.
 Gaussian 16:  ES64L-G16RevC.01  3-Jul-2019

 ----------------------------------------------------------------------
 #t hf aug-cc-pvdz iop(5/13=1,5/36=2,99/5=2) pseudo=read geom=check gue
 ss=(read,tcheck) scf=(maxcycle=1)
 ----------------------------------------------------------------------
 -----
 title
 -----
 Structure from the checkpoint file:  "pyrrolo-1-2-oxadithiazole.chk"
 Charge =  0 Multiplicity = 1

                         Standard orientation:
 ---------------------------------------------------------------------
 Center     Atomic      Atomic             Coordinates (Angstroms)
 Number     Number       Type             X           Y           Z
 ---------------------------------------------------------------------
      1         16           0       -1.051061    1.281881   -0.283900
      2         16           0       -1.895278   -0.532601    0.338547
      3          8           0       -0.614494   -1.427165   -0.363889
      4          7           0        0.475661    0.575388    0.138694
      5          6           0        0.558745   -0.776721   -0.091504
      6          6           0        1.756359    1.099948    0.219774
      7          6           0        1.870920   -1.154035   -0.105040
      8          6           0        2.624545    0.047815    0.089137
      9          1           0        1.921997    2.142592    0.418071
     10          1           0        2.246994   -2.155899   -0.208071
     11          1           0        3.695337    0.112379    0.181703
 ---------------------------------------------------------------------

 SCF Done:  E(RHF) =  -1077.92397122     A.U. after    2 cycles

 The electronic state is 1-A.
 Alpha  occ. eigenvalues --  -94.05561 -94.04128 -20.62825 -15.57833 -11.34161
 Alpha  occ. eigenvalues --  -11.27613 -11.24119 -11.23429  -8.32896  -8.31722
 Alpha  occ. eigenvalues --   -6.30626  -6.30494  -6.30099  -6.29447  -6.29354
 Alpha  occ. eigenvalues --   -6.28970  -1.53552  -1.32174  -1.14459  -1.03729
 Alpha  occ. eigenvalues --   -1.00448  -0.92539  -0.83038  -0.78349  -0.72974
 Alpha  occ. eigenvalues --   -0.67632  -0.65677  -0.62509  -0.60994  -0.58644
 Alpha  occ. eigenvalues --   -0.57639  -0.55063  -0.49660  -0.47080  -0.39518
 Alpha  occ. eigenvalues --   -0.35805  -0.31392
 Alpha virt. eigenvalues --    0.03607   0.04128   0.04250   0.04855   0.05035
 Alpha virt. eigenvalues --    0.07323   0.08616   0.09633   0.10325   0.10975
 Alpha virt. eigenvalues --    0.11427   0.12290   0.13541   0.14310   0.14778

 Mulliken charges:
               1
     1  S    0.257603
     2  S    0.518159
     3  O   -1.545472
     4  N    0.829525
     5  C    0.068279
     6  C   -0.471960
     7  C    0.473399
     8  C    0.353523
     9  H   -0.232581
    10  H   -0.134610
    11  H   -0.115863
 Sum of Mulliken charges =   0.00000

 Dipole moment (field-independent basis, Debye):
    X=             -0.0608    Y=              0.9028    Z=              0.3177  Tot=              0.9590

 Test job not archived.
 1\1\GINC-SE183\SP\RHF\Aug-CC-pVDZ\C4H3N1O1S2\OHZDE\05-Apr-2025\0\\#t h
 f aug-cc-pvdz iop(5/13=1,5/36=2,99/5=2) pseudo=read geom=check guess=(
 read,tcheck) scf=(maxcycle=1)\\title\\0,1\S,0,-1.051061,1.281881,-0.28
 39\S,0,-1.895278,-0.532601,0.338547\O,0,-0.614494,-1.427165,-0.363889\
 N,0,0.475661,0.575388,0.138694\C,0,0.558745,-0.776721,-0.091504\C,0,1.
 756359,1.099948,0.219774\C,0,1.87092,-1.154035,-0.10504\C,0,2.624545,0
 .047815,0.089137\H,0,1.921997,2.142592,0.418071\H,0,2.246994,-2.155899
 ,-0.208071\H,0,3.695337,0.112379,0.181703\\Version=ES64L-G16RevC.01\St

 Normal termination of Gaussian 16 at Sat Apr  5 23:15:57 2025.
