 Gaussian 16, Revision C.01,

 ----------------------------------------------------------------------
 #t hf aug-cc-pvdz symm=none int=(grid=ultrafine) guess=(read,tcheck) s
 table=(opt,rrhf)
 ----------------------------------------------------------------------
 -----
 title
 -----
 Symbolic Z-matrix:
 Charge =  0 Multiplicity = 1

 SCF Done:  E(RHF) =  -269.645425006     A.U. after   12 cycles
 Normal termination of Gaussian 16 at Sat Apr  5 23:14:49 2025.
 Gaussian 16:  ES64L-G16RevC.01  3-Jul-2019

 ----------------------------------------------------------------------
 #t hf aug-cc-pvdz iop(5/13=1,5/36=2,99/5=2) pseudo=read geom=check gue
 ss=(read,tcheck) scf=(maxcycle=1)
 ----------------------------------------------------------------------
 -----
 title
 -----
 Structure from the checkpoint file:  "quadricyclane.chk"
 Charge =  0 Multiplicity = 1

                         Standard orientation:
 ---------------------------------------------------------------------
 Center     Atomic      Atomic             Coordinates (Angstroms)
 Number     Number       Type             X           Y           Z
 ---------------------------------------------------------------------
      1          6           0       -0.756547    0.773373   -0.707390
      2          6           0        0.756547    0.773373   -0.707390
      3          6           0        0.000000    1.149648    0.549230
      4          6           0       -0.756547   -0.773373   -0.707390
      5          6           0        0.756547   -0.773373   -0.707390
      6          6           0       -0.000000   -1.149648    0.549230
      7          6           0       -0.000000   -0.000000    1.534441
      8          1           0       -1.443256    1.422663   -1.227100
      9          1           0        1.443256    1.422663   -1.227100
     10          1           0        0.000000    2.180720    0.872633
     11          1           0       -1.443256   -1.422663   -1.227100
     12          1           0        1.443256   -1.422663   -1.227100
     13          1           0       -0.000000   -2.180720    0.872633
     14          1           0        0.887300   -0.000000    2.171546
     15          1           0       -0.887300    0.000000    2.171546
 ---------------------------------------------------------------------

 SCF Done:  E(RHF) =  -269.933375676     A.U. after    2 cycles

 The electronic state is 1-A1.
 Alpha  occ. eigenvalues --  -11.23246 -11.23218 -11.23188 -11.23145 -11.23133
 Alpha  occ. eigenvalues --  -11.23128 -11.22443  -1.24696  -1.04949  -0.99134
 Alpha  occ. eigenvalues --   -0.86874  -0.77787  -0.76118  -0.72944  -0.71932
 Alpha  occ. eigenvalues --   -0.61011  -0.59939  -0.59784  -0.55008  -0.49937
 Alpha  occ. eigenvalues --   -0.49280  -0.44817  -0.40848  -0.39688  -0.34099
 Alpha virt. eigenvalues --    0.03542   0.03672   0.03678   0.04163   0.05749
 Alpha virt. eigenvalues --    0.05916   0.06272   0.06317   0.10068   0.12611
 Alpha virt. eigenvalues --    0.12643   0.12747   0.13918   0.14361   0.14432

 Mulliken charges:
               1
     1  C    0.225551
     2  C    0.225551
     3  C    0.431076
     4  C    0.225551
     5  C    0.225551
     6  C    0.431076
     7  C   -0.677513
     8  H   -0.239713
     9  H   -0.239713
    10  H   -0.185752
    11  H   -0.239713
    12  H   -0.239713
    13  H   -0.185752
    14  H    0.121757
    15  H    0.121757
 Sum of Mulliken charges =  -0.00000

 Dipole moment (field-independent basis, Debye):
    X=              0.0000    Y=              0.0000    Z=             -0.0378  Tot=              0.0378

 Test job not archived.
 1\1\GINC-SE190\SP\RHF\Aug-CC-pVDZ\C7H8\OHZDE\05-Apr-2025\0\\#t hf aug-
 cc-pvdz iop(5/13=1,5/36=2,99/5=2) pseudo=read geom=check guess=(read,t
 check) scf=(maxcycle=1)\\title\\0,1\C,0,-0.756547,0.773373,-0.70739\C,
 0,0.756547,0.773373,-0.70739\C,0,0.,1.149648,0.54923\C,0,-0.756547,-0.
 773373,-0.70739\C,0,0.756547,-0.773373,-0.70739\C,0,0.,-1.149648,0.549
 23\C,0,0.,0.,1.534441\H,0,-1.443256,1.422663,-1.2271\H,0,1.443256,1.42
 2663,-1.2271\H,0,0.,2.18072,0.872633\H,0,-1.443256,-1.422663,-1.2271\H
 ,0,1.443256,-1.422663,-1.2271\H,0,0.,-2.18072,0.872633\H,0,0.8873,0.,2

 Normal termination of Gaussian 16 at Sat Apr  5 23:15:56 2025.
