 Gaussian 16, Revision C.01,

 ----------------------------------------------------------------------
 #t hf aug-cc-pvdz symm=none int=(grid=ultrafine) guess=(read,tcheck) s
 table=(opt,rrhf)
 ----------------------------------------------------------------------
 -----
 title
 -----
 Symbolic Z-matrix:
 Charge =  0 Multiplicity = 1

 SCF Done:  E(RHF) =  -474.251888092     A.U. after   17 cycles
 Normal termination of Gaussian 16 at Sat Apr  5 23:16:15 2025.
 Gaussian 16:  ES64L-G16RevC.01  3-Jul-2019

 ----------------------------------------------------------------------
 #t hf aug-cc-pvdz iop(5/13=1,5/36=2,99/5=2) pseudo=read geom=check gue
 ss=(read,tcheck) scf=(maxcycle=1)
 ----------------------------------------------------------------------
 -----
 title
 -----
 Structure from the checkpoint file:  "quinolizin-4-one.chk"
 Charge =  0 Multiplicity = 1

                         Standard orientation:
 ---------------------------------------------------------------------
 Center     Atomic      Atomic             Coordinates (Angstroms)
 Number     Number       Type             X           Y           Z
 ---------------------------------------------------------------------
      1          6           0        2.686397   -0.273423    0.000000
      2          6           0       -1.985692   -1.496840    0.000000
      3          6           0        1.738403   -1.247443    0.000000
      4          6           0       -2.345922   -0.171173    0.000000
      5          6           0        2.286782    1.088691    0.000000
      6          6           0       -0.649162   -1.894413    0.000000
      7          6           0        0.967175    1.392721    0.000000
      8          6           0        0.349704   -0.934931    0.000000
      9          6           0       -1.385928    0.877094    0.000000
     10          7           0        0.000000    0.414424    0.000000
     11          8           0       -1.598323    2.082097    0.000000
     12          1           0        3.736243   -0.531123    0.000000
     13          1           0       -2.760365   -2.253012    0.000000
     14          1           0        2.008742   -2.293605    0.000000
     15          1           0       -3.380584    0.135968    0.000000
     16          1           0        3.014750    1.885443    0.000000
     17          1           0       -0.368673   -2.936075    0.000000
     18          1           0        0.565929    2.392966    0.000000
 ---------------------------------------------------------------------

 SCF Done:  E(RHF) =  -474.728504980     A.U. after    2 cycles

 The electronic state is 1-A'.
 Alpha  occ. eigenvalues --  -20.50161 -15.59094 -11.36121 -11.32572 -11.30632
 Alpha  occ. eigenvalues --  -11.28392 -11.27520 -11.26731 -11.25952 -11.23595
 Alpha  occ. eigenvalues --  -11.23174  -1.45375  -1.31977  -1.14041  -1.12970
 Alpha  occ. eigenvalues --   -1.06424  -1.00343  -0.91320  -0.90144  -0.87503
 Alpha  occ. eigenvalues --   -0.76904  -0.73733  -0.73427  -0.68800  -0.65872
 Alpha  occ. eigenvalues --   -0.65706  -0.64427  -0.63006  -0.59981  -0.57249
 Alpha  occ. eigenvalues --   -0.55148  -0.53783  -0.52866  -0.47258  -0.44514
 Alpha  occ. eigenvalues --   -0.42866  -0.37791  -0.28015
 Alpha virt. eigenvalues --    0.02617   0.03150   0.03537   0.04533   0.04586
 Alpha virt. eigenvalues --    0.05368   0.06905   0.07272   0.07775   0.09296
 Alpha virt. eigenvalues --    0.09466   0.10889   0.11694   0.12274   0.12594

 Mulliken charges:
               1
     1  C   -0.458174
     2  C   -0.516268
     3  C    1.194803
     4  C    0.568950
     5  C    0.643412
     6  C    1.177372
     7  C   -0.098320
     8  C   -1.056222
     9  C    0.754901
    10  N    1.194744
    11  O   -1.559770
    12  H   -0.211786
    13  H   -0.208144
    14  H   -0.281355
    15  H   -0.285832
    16  H   -0.210958
    17  H   -0.277063
    18  H   -0.370290
 Sum of Mulliken charges =  -0.00000

 Dipole moment (field-independent basis, Debye):
    X=              3.3267    Y=             -3.3402    Z=              0.0000  Tot=              4.7142

 Test job not archived.
 1\1\GINC-SE196\SP\RHF\Aug-CC-pVDZ\C9H7N1O1\OHZDE\05-Apr-2025\0\\#t hf
 aug-cc-pvdz iop(5/13=1,5/36=2,99/5=2) pseudo=read geom=check guess=(re
 ad,tcheck) scf=(maxcycle=1)\\title\\0,1\C,0,2.686397,-0.273422,0.\C,0,
 -1.985691,-1.496841,0.\C,0,1.738404,-1.247442,0.\C,0,-2.345922,-0.1711
 74,0.\C,0,2.286782,1.088692,0.\C,0,-0.649161,-1.894413,0.\C,0,0.967175
 ,1.392721,0.\C,0,0.349704,-0.934931,0.\C,0,-1.385928,0.877093,0.\N,0,0
 .,0.414424,0.\O,0,-1.598324,2.082096,0.\H,0,3.736243,-0.531122,0.\H,0,
 -2.760364,-2.253013,0.\H,0,2.008743,-2.293604,0.\H,0,-3.380584,0.13596

 Normal termination of Gaussian 16 at Sat Apr  5 23:16:26 2025.
