 Gaussian 16, Revision C.01,

 ----------------------------------------------------------------------
 #t hf aug-cc-pvdz symm=none int=(grid=ultrafine) guess=(read,tcheck) s
 table=(opt,rrhf)
 ----------------------------------------------------------------------
 -----
 title
 -----
 Symbolic Z-matrix:
 Charge =  0 Multiplicity = 1

 SCF Done:  E(RHF) =  -399.392455679     A.U. after   17 cycles
 Normal termination of Gaussian 16 at Sat Apr  5 23:15:39 2025.
 Gaussian 16:  ES64L-G16RevC.01  3-Jul-2019

 ----------------------------------------------------------------------
 #t hf aug-cc-pvdz iop(5/13=1,5/36=2,99/5=2) pseudo=read geom=check gue
 ss=(read,tcheck) scf=(maxcycle=1)
 ----------------------------------------------------------------------
 -----
 title
 -----
 Structure from the checkpoint file:  "quinoline.chk"
 Charge =  0 Multiplicity = 1

                         Standard orientation:
 ---------------------------------------------------------------------
 Center     Atomic      Atomic             Coordinates (Angstroms)
 Number     Number       Type             X           Y           Z
 ---------------------------------------------------------------------
      1          6           0        0.000000    0.703651    0.000000
      2          7           0       -1.128178    1.465945   -0.000000
      3          6           0        1.258493    1.350388    0.000000
      4          6           0       -2.286918    0.851830   -0.000000
      5          6           0       -2.438097   -0.553100   -0.000000
      6          6           0       -1.316052   -1.335881   -0.000000
      7          6           0       -0.043208   -0.722482   -0.000000
      8          6           0        2.416244    0.616895    0.000000
      9          6           0        2.373746   -0.794928    0.000000
     10          6           0        1.170348   -1.450387    0.000000
     11          1           0       -3.428480   -0.986603   -0.000000
     12          1           0       -3.168814    1.484250   -0.000000
     13          1           0        3.297826   -1.356965    0.000000
     14          1           0        3.374149    1.119515    0.000000
     15          1           0       -1.387749   -2.416474   -0.000000
     16          1           0        1.132723   -2.532563    0.000000
     17          1           0        1.270259    2.431307    0.000000
 ---------------------------------------------------------------------

 SCF Done:  E(RHF) =  -399.799501945     A.U. after    2 cycles

 The electronic state is 1-A'.
 Alpha  occ. eigenvalues --  -15.50389 -11.28483 -11.27871 -11.26788 -11.25415
 Alpha  occ. eigenvalues --  -11.25185 -11.25026 -11.24983 -11.24771 -11.24159
 Alpha  occ. eigenvalues --   -1.26372  -1.15076  -1.09835  -1.02821  -1.01596
 Alpha  occ. eigenvalues --   -0.89186  -0.87778  -0.83628  -0.74594  -0.72432
 Alpha  occ. eigenvalues --   -0.71639  -0.64963  -0.62997  -0.61955  -0.59704
 Alpha  occ. eigenvalues --   -0.58916  -0.57888  -0.53128  -0.52055  -0.48383
 Alpha  occ. eigenvalues --   -0.44823  -0.42949  -0.33778  -0.32487
 Alpha virt. eigenvalues --    0.03186   0.03336   0.03688   0.04588   0.05015
 Alpha virt. eigenvalues --    0.05108   0.07045   0.07756   0.08876   0.09393
 Alpha virt. eigenvalues --    0.10002   0.11816   0.11895   0.12707   0.12863

 Mulliken charges:
               1
     1  C   -3.236145
     2  N    1.429401
     3  C    1.553298
     4  C   -0.911893
     5  C    0.133479
     6  C    0.389298
     7  C    1.633085
     8  C    0.107368
     9  C    0.172157
    10  C    0.452148
    11  H   -0.206387
    12  H   -0.216903
    13  H   -0.255530
    14  H   -0.232196
    15  H   -0.263683
    16  H   -0.295842
    17  H   -0.251656
 Sum of Mulliken charges =  -0.00000

 Dipole moment (field-independent basis, Debye):
    X=             -0.1019    Y=             -2.5386    Z=              0.0000  Tot=              2.5407

 Test job not archived.
 1\1\GINC-SE194\SP\RHF\Aug-CC-pVDZ\C9H7N1\OHZDE\05-Apr-2025\0\\#t hf au
 g-cc-pvdz iop(5/13=1,5/36=2,99/5=2) pseudo=read geom=check guess=(read
 ,tcheck) scf=(maxcycle=1)\\title\\0,1\C,0,0.,0.703651,0.\N,0,-1.128178
 ,1.465945,0.\C,0,1.258493,1.350388,0.\C,0,-2.286918,0.85183,0.\C,0,-2.
 438097,-0.5531,0.\C,0,-1.316052,-1.335881,0.\C,0,-0.043208,-0.722482,0
 .\C,0,2.416244,0.616895,0.\C,0,2.373746,-0.794928,0.\C,0,1.170348,-1.4
 50387,0.\H,0,-3.42848,-0.986603,0.\H,0,-3.168814,1.48425,0.\H,0,3.2978
 26,-1.356965,0.\H,0,3.374149,1.119515,0.\H,0,-1.387749,-2.416474,0.\H,

 Normal termination of Gaussian 16 at Sat Apr  5 23:16:00 2025.
