 Gaussian 16, Revision C.01,

 ----------------------------------------------------------------------
 #t hf aug-cc-pvdz symm=none int=(grid=ultrafine) guess=(read,tcheck) s
 table=(opt,rrhf)
 ----------------------------------------------------------------------
 -----
 title
 -----
 Symbolic Z-matrix:
 Charge =  0 Multiplicity = 1

 SCF Done:  E(RHF) =  -327.114313251     A.U. after   12 cycles

 1\1\GINC-SE199\Stability\RHF\Aug-CC-pVDZ\C7H13N1\OHZDE\05-Apr-2025\0\\
 #t hf aug-cc-pvdz symm=none int=(grid=ultrafine) guess=(read,tcheck) s
 table=(opt,rrhf)\\title\\0,1\N,0,0.,0.,1.286725\C,0,0.,1.384344,0.7969
 64\C,0,-1.198877,-0.692172,0.796964\C,0,1.198877,-0.692172,0.796964\C,
 0,0.,1.443662,-0.760521\C,0,-1.250248,-0.721831,-0.760521\C,0,1.250248
 ,-0.721831,-0.760521\C,0,0.,0.,-1.290089\H,0,0.877475,1.885976,1.20793
 1\H,0,-0.877475,1.885976,1.207931\H,0,-2.07204,-0.183072,1.207931\H,0,
 -1.194565,-1.702903,1.207931\H,0,1.194565,-1.702903,1.207931\H,0,2.072

 Normal termination of Gaussian 16 at Sat Apr  5 23:15:34 2025.
 Gaussian 16:  ES64L-G16RevC.01  3-Jul-2019

 ----------------------------------------------------------------------
 #t hf aug-cc-pvdz iop(5/13=1,5/36=2,99/5=2) pseudo=read geom=check gue
 ss=(read,tcheck) scf=(maxcycle=1)
 ----------------------------------------------------------------------
 -----
 title
 -----
 Structure from the checkpoint file:  "quinuclidine.chk"
 Charge =  0 Multiplicity = 1

                         Standard orientation:
 ---------------------------------------------------------------------
 Center     Atomic      Atomic             Coordinates (Angstroms)
 Number     Number       Type             X           Y           Z
 ---------------------------------------------------------------------
      1          7           0       -1.286725    0.000000    0.000000
      2          6           0       -0.796964   -1.384344    0.000000
      3          6           0       -0.796964    0.692172    1.198877
      4          6           0       -0.796964    0.692172   -1.198877
      5          6           0        0.760521   -1.443662   -0.000000
      6          6           0        0.760521    0.721831    1.250248
      7          6           0        0.760521    0.721831   -1.250248
      8          6           0        1.290089    0.000000   -0.000000
      9          1           0       -1.207931   -1.885976   -0.877475
     10          1           0       -1.207931   -1.885976    0.877475
     11          1           0       -1.207931    0.183072    2.072040
     12          1           0       -1.207931    1.702903    1.194565
     13          1           0       -1.207931    1.702903   -1.194565
     14          1           0       -1.207931    0.183072   -2.072040
     15          1           0        1.131569   -1.977815   -0.877284
     16          1           0        1.131569   -1.977815    0.877284
     17          1           0        1.131569    0.229157    2.151480
     18          1           0        1.131569    1.748657    1.274196
     19          1           0        1.131569    1.748657   -1.274196
     20          1           0        1.131569    0.229157   -2.151480
     21          1           0        2.380678    0.000000   -0.000000
 ---------------------------------------------------------------------

 SCF Done:  E(RHF) =  -327.469411327     A.U. after    2 cycles

 The electronic state is 1-A'.
 Alpha  occ. eigenvalues --  -15.47623 -11.24621 -11.24621 -11.24578 -11.22782
 Alpha  occ. eigenvalues --  -11.22065 -11.22065 -11.22018  -1.23311  -1.07002
 Alpha  occ. eigenvalues --   -1.00853  -1.00853  -0.85430  -0.85430  -0.83723
 Alpha  occ. eigenvalues --   -0.70525  -0.67727  -0.67045  -0.67045  -0.57025
 Alpha  occ. eigenvalues --   -0.56581  -0.56581  -0.53442  -0.53442  -0.52269
 Alpha  occ. eigenvalues --   -0.52269  -0.51280  -0.46820  -0.43955  -0.43955
 Alpha  occ. eigenvalues --   -0.36674
 Alpha virt. eigenvalues --    0.03589   0.03947   0.03947   0.04084   0.05443
 Alpha virt. eigenvalues --    0.05443   0.05581   0.05581   0.06803   0.09230
 Alpha virt. eigenvalues --    0.09230   0.09248   0.11370   0.11682   0.13314

 Mulliken charges:
               1
     1  N    0.859559
     2  C   -0.472125
     3  C   -0.472123
     4  C   -0.472123
     5  C    0.055918
     6  C    0.055919
     7  C    0.055919
     8  C   -0.823408
     9  H    0.075721
    10  H    0.075721
    11  H    0.075721
    12  H    0.075720
    13  H    0.075720
    14  H    0.075721
    15  H    0.099214
    16  H    0.099214
    17  H    0.099215
    18  H    0.099212
    19  H    0.099212
    20  H    0.099215
    21  H    0.162858
 Sum of Mulliken charges =  -0.00000

 Dipole moment (field-independent basis, Debye):
    X=              1.3250    Y=              0.0000    Z=             -0.0000  Tot=              1.3250

 Test job not archived.
 1\1\GINC-SE199\SP\RHF\Aug-CC-pVDZ\C7H13N1\OHZDE\05-Apr-2025\0\\#t hf a
 ug-cc-pvdz iop(5/13=1,5/36=2,99/5=2) pseudo=read geom=check guess=(rea
 d,tcheck) scf=(maxcycle=1)\\title\\0,1\N,0,0.,0.,1.286725\C,0,0.,1.384
 344,0.796964\C,0,-1.198877,-0.692172,0.796964\C,0,1.198877,-0.692172,0
 .796964\C,0,0.,1.443662,-0.760521\C,0,-1.250248,-0.721831,-0.760521\C,
 0,1.250248,-0.721831,-0.760521\C,0,0.,0.,-1.290089\H,0,0.877475,1.8859
 76,1.207931\H,0,-0.877475,1.885976,1.207931\H,0,-2.07204,-0.183072,1.2
 07931\H,0,-1.194565,-1.702903,1.207931\H,0,1.194565,-1.702903,1.207931

 Normal termination of Gaussian 16 at Sat Apr  5 23:16:00 2025.
