 Gaussian 16, Revision C.01,

 ----------------------------------------------------------------------
 #t hf aug-cc-pvdz symm=none int=(grid=ultrafine) guess=(read,tcheck) s
 table=(opt,rrhf)
 ----------------------------------------------------------------------
 -----
 title
 -----
 Symbolic Z-matrix:
 Charge =  0 Multiplicity = 1

 SCF Done:  E(RHF) =  -415.385362536     A.U. after   15 cycles
 Normal termination of Gaussian 16 at Sat Apr  5 23:15:31 2025.
 Gaussian 16:  ES64L-G16RevC.01  3-Jul-2019

 ----------------------------------------------------------------------
 #t hf aug-cc-pvdz iop(5/13=1,5/36=2,99/5=2) pseudo=read geom=check gue
 ss=(read,tcheck) scf=(maxcycle=1)
 ----------------------------------------------------------------------
 -----
 title
 -----
 Structure from the checkpoint file:  "quinoxaline.chk"
 Charge =  0 Multiplicity = 1

                         Standard orientation:
 ---------------------------------------------------------------------
 Center     Atomic      Atomic             Coordinates (Angstroms)
 Number     Number       Type             X           Y           Z
 ---------------------------------------------------------------------
      1          6           0        0.000000    0.706926    2.368951
      2          6           0       -0.000000   -0.706926    2.368951
      3          6           0        0.000000    1.406054    1.190448
      4          6           0       -0.000000   -1.406054    1.190448
      5          6           0        0.000000    0.708403   -2.312800
      6          6           0       -0.000000   -0.708403   -2.312800
      7          6           0        0.000000    0.712878   -0.041323
      8          6           0       -0.000000   -0.712878   -0.041323
      9          7           0        0.000000    1.410993   -1.208183
     10          7           0       -0.000000   -1.410993   -1.208183
     11          1           0        0.000000    1.237156    3.311638
     12          1           0       -0.000000   -1.237156    3.311638
     13          1           0        0.000000    2.486877    1.166492
     14          1           0       -0.000000   -2.486877    1.166492
     15          1           0        0.000000    1.250205   -3.252504
     16          1           0       -0.000000   -1.250205   -3.252504
 ---------------------------------------------------------------------

 SCF Done:  E(RHF) =  -415.803797584     A.U. after    2 cycles

 The electronic state is 1-A1.
 Alpha  occ. eigenvalues --  -15.53142 -15.53028 -11.29461 -11.29406 -11.28620
 Alpha  occ. eigenvalues --  -11.28566 -11.25601 -11.25538 -11.25146 -11.25100
 Alpha  occ. eigenvalues --   -1.30988  -1.22912  -1.15565  -1.04485  -1.03449
 Alpha  occ. eigenvalues --   -0.92938  -0.90869  -0.84924  -0.76922  -0.76039
 Alpha  occ. eigenvalues --   -0.72627  -0.66756  -0.63650  -0.63076  -0.61828
 Alpha  occ. eigenvalues --   -0.61064  -0.54406  -0.54345  -0.53920  -0.49291
 Alpha  occ. eigenvalues --   -0.49162  -0.44107  -0.34615  -0.34148
 Alpha virt. eigenvalues --    0.02457   0.03349   0.03644   0.03941   0.04648
 Alpha virt. eigenvalues --    0.05048   0.07071   0.08505   0.09332   0.10894
 Alpha virt. eigenvalues --    0.11179   0.11835   0.12163   0.12284   0.12575

 Mulliken charges:
               1
     1  C    0.424409
     2  C    0.424409
     3  C    1.525080
     4  C    1.525080
     5  C   -0.530006
     6  C   -0.530006
     7  C   -2.229250
     8  C   -2.229250
     9  N    1.416288
    10  N    1.416288
    11  H   -0.223235
    12  H   -0.223235
    13  H   -0.222123
    14  H   -0.222123
    15  H   -0.161163
    16  H   -0.161163
 Sum of Mulliken charges =  -0.00000

 Dipole moment (field-independent basis, Debye):
    X=             -0.0000    Y=             -0.0000    Z=              0.1499  Tot=              0.1499

 Test job not archived.
 1\1\GINC-SE199\SP\RHF\Aug-CC-pVDZ\C8H6N2\OHZDE\05-Apr-2025\0\\#t hf au
 g-cc-pvdz iop(5/13=1,5/36=2,99/5=2) pseudo=read geom=check guess=(read
 ,tcheck) scf=(maxcycle=1)\\title\\0,1\C,0,0.,0.706926,2.368951\C,0,0.,
 -0.706926,2.368951\C,0,0.,1.406054,1.190448\C,0,0.,-1.406054,1.190448\
 C,0,0.,0.708403,-2.3128\C,0,0.,-0.708403,-2.3128\C,0,0.,0.712878,-0.04
 1323\C,0,0.,-0.712878,-0.041323\N,0,0.,1.410993,-1.208183\N,0,0.,-1.41
 0993,-1.208183\H,0,0.,1.237156,3.311638\H,0,0.,-1.237156,3.311638\H,0,
 0.,2.486877,1.166492\H,0,0.,-2.486877,1.166492\H,0,0.,1.250205,-3.2525

 Normal termination of Gaussian 16 at Sat Apr  5 23:15:58 2025.
