 Gaussian 16, Revision C.01,

 ----------------------------------------------------------------------
 #t hf aug-cc-pvdz symm=none int=(grid=ultrafine) guess=(read,tcheck) s
 table=(opt,rrhf)
 ----------------------------------------------------------------------
 -----
 title
 -----
 Symbolic Z-matrix:
 Charge =  0 Multiplicity = 1

 SCF Done:  E(RHF) =  -415.394415194     A.U. after   17 cycles
 Normal termination of Gaussian 16 at Sat Apr  5 23:15:36 2025.
 Gaussian 16:  ES64L-G16RevC.01  3-Jul-2019

 ----------------------------------------------------------------------
 #t hf aug-cc-pvdz iop(5/13=1,5/36=2,99/5=2) pseudo=read geom=check gue
 ss=(read,tcheck) scf=(maxcycle=1)
 ----------------------------------------------------------------------
 -----
 title
 -----
 Structure from the checkpoint file:  "quinazoline.chk"
 Charge =  0 Multiplicity = 1

                         Standard orientation:
 ---------------------------------------------------------------------
 Center     Atomic      Atomic             Coordinates (Angstroms)
 Number     Number       Type             X           Y           Z
 ---------------------------------------------------------------------
      1          6           0       -0.000000    0.710654    0.000000
      2          7           0       -1.139196    1.455520   -0.000000
      3          6           0        1.262828    1.344587    0.000000
      4          6           0       -2.272688    0.801977   -0.000000
      5          7           0       -2.447219   -0.545954   -0.000000
      6          6           0       -1.355631   -1.271463   -0.000000
      7          6           0       -0.059588   -0.708461   -0.000000
      8          6           0        2.405933    0.586778    0.000000
      9          6           0        2.345352   -0.825470    0.000000
     10          6           0        1.133349   -1.465216    0.000000
     11          1           0       -3.182755    1.390554   -0.000000
     12          1           0       -1.474928   -2.351670   -0.000000
     13          1           0        3.262970   -1.397525    0.000000
     14          1           0        3.372410    1.072811    0.000000
     15          1           0        1.075626   -2.546382    0.000000
     16          1           0        1.294255    2.424936    0.000000
 ---------------------------------------------------------------------

 SCF Done:  E(RHF) =  -415.813528127     A.U. after    2 cycles

 The electronic state is 1-A'.
 Alpha  occ. eigenvalues --  -15.51312 -15.50852 -11.31667 -11.31124 -11.29671
 Alpha  occ. eigenvalues --  -11.26798 -11.26652 -11.26102 -11.25824 -11.25226
 Alpha  occ. eigenvalues --   -1.31130  -1.20645  -1.16515  -1.06234  -1.03730
 Alpha  occ. eigenvalues --   -0.93071  -0.90712  -0.85674  -0.77313  -0.75794
 Alpha  occ. eigenvalues --   -0.72608  -0.66692  -0.64811  -0.63071  -0.61099
 Alpha  occ. eigenvalues --   -0.61090  -0.56970  -0.54331  -0.51085  -0.50466
 Alpha  occ. eigenvalues --   -0.47010  -0.44984  -0.37198  -0.34031
 Alpha virt. eigenvalues --    0.02956   0.03321   0.03855   0.03893   0.05092
 Alpha virt. eigenvalues --    0.05744   0.07124   0.07705   0.08460   0.09253
 Alpha virt. eigenvalues --    0.10693   0.11034   0.12037   0.12072   0.12860

 Mulliken charges:
               1
     1  C   -2.514625
     2  N    1.205629
     3  C    1.475582
     4  C   -0.805655
     5  N    0.896334
     6  C   -1.637719
     7  C    1.773840
     8  C    0.018877
     9  C    0.023105
    10  C    0.821703
    11  H   -0.093590
    12  H   -0.190618
    13  H   -0.252625
    14  H   -0.226610
    15  H   -0.263210
    16  H   -0.230419
 Sum of Mulliken charges =   0.00000

 Dipole moment (field-independent basis, Debye):
    X=              2.9432    Y=             -1.8078    Z=              0.0000  Tot=              3.4541

 Test job not archived.
 1\1\GINC-SE190\SP\RHF\Aug-CC-pVDZ\C8H6N2\OHZDE\05-Apr-2025\0\\#t hf au
 g-cc-pvdz iop(5/13=1,5/36=2,99/5=2) pseudo=read geom=check guess=(read
 ,tcheck) scf=(maxcycle=1)\\title\\0,1\C,0,0.039427,-0.709559,0.\N,0,1.
 218194,-1.390076,0.\C,0,-1.186285,-1.412578,0.\C,0,2.313681,-0.674653,
 0.\N,0,2.41316,0.680885,0.\C,0,1.283002,1.344715,0.\C,0,0.020191,0.710
 676,0.\C,0,-2.369673,-0.719355,0.\C,0,-2.387537,0.694079,0.\C,0,-1.212
 893,1.400081,0.\H,0,3.255001,-1.211833,0.\H,0,1.342186,2.429877,0.\H,0
 ,-3.335479,1.214343,0.\H,0,-3.307696,-1.25826,0.\H,0,-1.215242,2.48278

 Normal termination of Gaussian 16 at Sat Apr  5 23:16:07 2025.
