 Gaussian 16, Revision C.01,

 ----------------------------------------------------------------------
 #t hf aug-cc-pvdz symm=none int=(grid=ultrafine) guess=(read,tcheck) s
 table=(opt,rrhf)
 ----------------------------------------------------------------------
 -----
 title
 -----
 Symbolic Z-matrix:
 Charge =  0 Multiplicity = 1

 SCF Done:  E(RHF) =  -1075.17089788     A.U. after   12 cycles

 1\1\GINC-SE187\Stability\RHF\Aug-CC-pVDZ\C4H8Cl2\OHZDE\05-Apr-2025\0\\
 #t hf aug-cc-pvdz symm=none int=(grid=ultrafine) guess=(read,tcheck) s
 table=(opt,rrhf)\\title\\0,1\Cl,0,-0.963836,1.196188,-1.568576\Cl,0,0.
 963836,-1.196188,1.568576\C,0,-1.87728,-0.439478,0.405978\C,0,1.87728,
 0.439478,-0.405978\C,0,-0.655802,0.388883,0.056013\C,0,0.655802,-0.388
 883,-0.056013\H,0,-2.76875,0.184001,0.39551\H,0,2.76875,-0.184001,-0.3
 9551\H,0,1.76393,0.869887,-1.399295\H,0,-1.76393,-0.869887,1.399295\H,
 0,-2.014805,-1.248691,-0.311234\H,0,2.014805,1.248691,0.311234\H,0,0.5

 Normal termination of Gaussian 16 at Sat Apr  5 22:54:04 2025.
 Gaussian 16:  ES64L-G16RevC.01  3-Jul-2019

 ----------------------------------------------------------------------
 #t hf aug-cc-pvdz iop(5/13=1,5/36=2,99/5=2) pseudo=read geom=check gue
 ss=(read,tcheck) scf=(maxcycle=1)
 ----------------------------------------------------------------------
 -----
 title
 -----
 Structure from the checkpoint file:  "R-S-2-3-dichlorobutane.chk"
 Charge =  0 Multiplicity = 1

                         Standard orientation:
 ---------------------------------------------------------------------
 Center     Atomic      Atomic             Coordinates (Angstroms)
 Number     Number       Type             X           Y           Z
 ---------------------------------------------------------------------
      1         17           0       -0.963836    1.196188   -1.568576
      2         17           0        0.963836   -1.196188    1.568576
      3          6           0       -1.877280   -0.439478    0.405978
      4          6           0        1.877280    0.439478   -0.405978
      5          6           0       -0.655802    0.388883    0.056013
      6          6           0        0.655802   -0.388883   -0.056013
      7          1           0       -2.768750    0.184001    0.395510
      8          1           0        2.768750   -0.184001   -0.395510
      9          1           0        1.763930    0.869887   -1.399295
     10          1           0       -1.763930   -0.869887    1.399295
     11          1           0       -2.014805   -1.248691   -0.311234
     12          1           0        2.014805    1.248691    0.311234
     13          1           0        0.528989   -1.216949   -0.749644
     14          1           0       -0.528989    1.216949    0.749644
 ---------------------------------------------------------------------

 SCF Done:  E(RHF) =  -1075.49557129     A.U. after    2 cycles

 The electronic state is 1-AG.
 Alpha  occ. eigenvalues -- -105.56065-105.56064 -11.32695 -11.32668 -11.24605
 Alpha  occ. eigenvalues --  -11.24601 -10.60873 -10.60873  -7.77801  -7.77798
 Alpha  occ. eigenvalues --   -7.77456  -7.77453  -7.77440  -7.77439  -1.16911
 Alpha  occ. eigenvalues --   -1.08165  -1.00182  -0.98538  -0.88932  -0.80611
 Alpha  occ. eigenvalues --   -0.66302  -0.65394  -0.62075  -0.61660  -0.56320
 Alpha  occ. eigenvalues --   -0.54672  -0.53640  -0.52882  -0.50094  -0.46963
 Alpha  occ. eigenvalues --   -0.45348  -0.44905  -0.44028
 Alpha virt. eigenvalues --    0.03913   0.04065   0.04176   0.05279   0.06002
 Alpha virt. eigenvalues --    0.06209   0.06733   0.09411   0.09960   0.10540
 Alpha virt. eigenvalues --    0.12691   0.13260   0.14036   0.14928   0.15516

 Mulliken charges:
               1
     1  Cl  -0.105513
     2  Cl  -0.105513
     3  C   -0.183623
     4  C   -0.183623
     5  C   -0.474206
     6  C   -0.474206
     7  H    0.152555
     8  H    0.152555
     9  H    0.232126
    10  H    0.232126
    11  H    0.214772
    12  H    0.214772
    13  H    0.163889
    14  H    0.163889
 Sum of Mulliken charges =  -0.00000

 Dipole moment (field-independent basis, Debye):
    X=             -0.0000    Y=              0.0000    Z=             -0.0000  Tot=              0.0000

 Test job not archived.
 1\1\GINC-SE187\SP\RHF\Aug-CC-pVDZ\C4H8Cl2\OHZDE\05-Apr-2025\0\\#t hf a
 ug-cc-pvdz iop(5/13=1,5/36=2,99/5=2) pseudo=read geom=check guess=(rea
 d,tcheck) scf=(maxcycle=1)\\title\\0,1\Cl,0,-0.963836,1.196188,-1.5685
 76\Cl,0,0.963836,-1.196188,1.568576\C,0,-1.87728,-0.439478,0.405978\C,
 0,1.87728,0.439478,-0.405978\C,0,-0.655802,0.388883,0.056013\C,0,0.655
 802,-0.388883,-0.056013\H,0,-2.76875,0.184001,0.39551\H,0,2.76875,-0.1
 84001,-0.39551\H,0,1.76393,0.869887,-1.399295\H,0,-1.76393,-0.869887,1
 .399295\H,0,-2.014805,-1.248691,-0.311234\H,0,2.014805,1.248691,0.3112

 Normal termination of Gaussian 16 at Sat Apr  5 22:54:36 2025.
