 Gaussian 16, Revision C.01,

 ----------------------------------------------------------------------
 #t hf aug-cc-pvdz symm=none int=(grid=ultrafine) guess=(read,tcheck) s
 table=(opt,rrhf)
 ----------------------------------------------------------------------
 -----
 title
 -----
 Symbolic Z-matrix:
 Charge =  0 Multiplicity = 1

 SCF Done:  E(RHF) =  -796.043546611     A.U. after   16 cycles
 Normal termination of Gaussian 16 at Sat Apr  5 22:54:59 2025.
 Gaussian 16:  ES64L-G16RevC.01  3-Jul-2019

 ----------------------------------------------------------------------
 #t hf aug-cc-pvdz iop(5/13=1,5/36=2,99/5=2) pseudo=read geom=check gue
 ss=(read,tcheck) scf=(maxcycle=1)
 ----------------------------------------------------------------------
 -----
 title
 -----
 Structure from the checkpoint file:  "S-2-pyridinyl_ethanethioate.chk"
 Charge =  0 Multiplicity = 1

                         Standard orientation:
 ---------------------------------------------------------------------
 Center     Atomic      Atomic             Coordinates (Angstroms)
 Number     Number       Type             X           Y           Z
 ---------------------------------------------------------------------
      1          6           0        2.274150    1.388749   -0.000069
      2          6           0        3.234944    0.386128    0.000107
      3          6           0        0.927785    1.052725   -0.000171
      4          6           0        2.801859   -0.932997    0.000173
      5          6           0        0.607018   -0.304386   -0.000074
      6          6           0       -2.244819    0.347643    0.000025
      7          6           0       -3.658489   -0.190391    0.000171
      8          7           0        1.514712   -1.276021    0.000089
      9          8           0       -1.993920    1.525908    0.000110
     10         16           0       -1.049030   -0.997881   -0.000205
     11          1           0        2.565776    2.430616   -0.000132
     12          1           0        4.290895    0.616050    0.000187
     13          1           0        0.153685    1.800661   -0.000305
     14          1           0        3.511957   -1.751445    0.000302
     15          1           0       -4.172879    0.194508   -0.880641
     16          1           0       -4.172111    0.193012    0.882092
     17          1           0       -3.699155   -1.277234   -0.000689
 ---------------------------------------------------------------------

 SCF Done:  E(RHF) =  -796.504811713     A.U. after    2 cycles

 The electronic state is 1-A.
 Alpha  occ. eigenvalues --  -93.97799 -20.55432 -15.51470 -11.38500 -11.32287
 Alpha  occ. eigenvalues --  -11.28934 -11.27133 -11.26123 -11.25294 -11.25097
 Alpha  occ. eigenvalues --   -8.26021  -6.23830  -6.23611  -6.23442  -1.49674
 Alpha  occ. eigenvalues --   -1.28022  -1.10586  -1.09914  -1.04930  -0.98952
 Alpha  occ. eigenvalues --   -0.89171  -0.86466  -0.77599  -0.72070  -0.70142
 Alpha  occ. eigenvalues --   -0.68357  -0.64965  -0.63376  -0.62976  -0.60542
 Alpha  occ. eigenvalues --   -0.58594  -0.57922  -0.56933  -0.52929  -0.50601
 Alpha  occ. eigenvalues --   -0.45875  -0.43364  -0.41425  -0.40608  -0.33984
 Alpha virt. eigenvalues --    0.03268   0.03502   0.04137   0.04821   0.05343
 Alpha virt. eigenvalues --    0.05644   0.07246   0.07486   0.08797   0.09257
 Alpha virt. eigenvalues --    0.11010   0.11044   0.11392   0.11820   0.12879

 Mulliken charges:
               1
     1  C    0.236308
     2  C    0.728652
     3  C    0.816769
     4  C   -0.754777
     5  C   -2.195712
     6  C    0.678030
     7  C   -0.268083
     8  N    1.307416
     9  O   -1.385453
    10  S    0.987203
    11  H   -0.200073
    12  H   -0.198654
    13  H   -0.168929
    14  H   -0.213661
    15  H    0.231801
    16  H    0.232015
    17  H    0.167149
 Sum of Mulliken charges =  -0.00000

 Dipole moment (field-independent basis, Debye):
    X=              0.2996    Y=              1.0096    Z=              0.0000  Tot=              1.0531

 Test job not archived.
 1\1\GINC-SE188\SP\RHF\Aug-CC-pVDZ\C7H7N1O1S1\OHZDE\05-Apr-2025\0\\#t h
 f aug-cc-pvdz iop(5/13=1,5/36=2,99/5=2) pseudo=read geom=check guess=(
 read,tcheck) scf=(maxcycle=1)\\title\\0,1\C,0,2.27415,1.388749,-0.0000
 69\C,0,3.234944,0.386128,0.000107\C,0,0.927785,1.052725,-0.000171\C,0,
 2.801859,-0.932997,0.000173\C,0,0.607018,-0.304386,-0.000074\C,0,-2.24
 4819,0.347643,0.000025\C,0,-3.658489,-0.190391,0.000171\N,0,1.514712,-
 1.276021,0.000089\O,0,-1.99392,1.525908,0.00011\S,0,-1.04903,-0.997881
 ,-0.000205\H,0,2.565776,2.430616,-0.000132\H,0,4.290895,0.61605,0.0001

 Normal termination of Gaussian 16 at Sat Apr  5 22:55:54 2025.
