 Gaussian 16, Revision C.01,

 ----------------------------------------------------------------------
 #t hf aug-cc-pvdz symm=none int=(grid=ultrafine) guess=(read,tcheck) s
 table=(opt,rrhf)
 ----------------------------------------------------------------------
 -----
 title
 -----
 Symbolic Z-matrix:
 Charge =  0 Multiplicity = 1

 SCF Done:  E(RHF) =  -628.556054074     A.U. after   14 cycles
 Normal termination of Gaussian 16 at Sat Apr  5 22:53:59 2025.
 Gaussian 16:  ES64L-G16RevC.01  3-Jul-2019

 ----------------------------------------------------------------------
 #t hf aug-cc-pvdz iop(5/13=1,5/36=2,99/5=2) pseudo=read geom=check gue
 ss=(read,tcheck) scf=(maxcycle=1)
 ----------------------------------------------------------------------
 -----
 title
 -----
 Structure from the checkpoint file:  "S-ethyl_ethanethioate.chk"
 Charge =  0 Multiplicity = 1

                         Standard orientation:
 ---------------------------------------------------------------------
 Center     Atomic      Atomic             Coordinates (Angstroms)
 Number     Number       Type             X           Y           Z
 ---------------------------------------------------------------------
      1          8           0       -2.357106   -0.826508    0.000023
      2          6           0       -1.415289   -0.075802    0.000085
      3         16           0        0.232683   -0.804196   -0.000140
      4          1           0       -1.076024    1.860038    0.880271
      5          1           0       -2.611239    1.674996    0.000488
      6          1           0       -1.076214    1.860311   -0.879564
      7          6           0       -1.552652    1.427474    0.000338
      8          1           0        1.252246    1.209742   -0.884316
      9          1           0        1.252388    1.209438    0.884567
     10          6           0        1.422814    0.598820    0.000007
     11          1           0        3.026676   -0.571696    0.882060
     12          1           0        3.561268    0.860316   -0.000120
     13          1           0        3.026534   -0.571397   -0.882700
     14          6           0        2.841508    0.040750   -0.000202
 ---------------------------------------------------------------------

 SCF Done:  E(RHF) =  -628.858219907     A.U. after    2 cycles

 The electronic state is 1-A.
 Alpha  occ. eigenvalues --  -93.95997 -20.54428 -11.37347 -11.28607 -11.26035
 Alpha  occ. eigenvalues --  -11.24980  -8.24202  -6.22004  -6.21827  -6.21636
 Alpha  occ. eigenvalues --   -1.48559  -1.11134  -1.03640  -0.97838  -0.85688
 Alpha  occ. eigenvalues --   -0.74869  -0.67230  -0.65784  -0.64122  -0.62043
 Alpha  occ. eigenvalues --   -0.59398  -0.55862  -0.54851  -0.53383  -0.52417
 Alpha  occ. eigenvalues --   -0.46508  -0.40689  -0.37226
 Alpha virt. eigenvalues --    0.02779   0.03530   0.03910   0.04729   0.05997
 Alpha virt. eigenvalues --    0.06314   0.08037   0.08674   0.09378   0.10815
 Alpha virt. eigenvalues --    0.12322   0.12924   0.14064   0.14187   0.14338

 Mulliken charges:
               1
     1  O   -1.218868
     2  C    0.652106
     3  S    0.693188
     4  H    0.312562
     5  H   -0.001233
     6  H    0.312560
     7  C   -0.589017
     8  H    0.187946
     9  H    0.187941
    10  C   -0.613625
    11  H    0.187252
    12  H    0.150281
    13  H    0.187249
    14  C   -0.448343
 Sum of Mulliken charges =  -0.00000

 Dipole moment (field-independent basis, Debye):
    X=              2.8543    Y=              3.7989    Z=              0.0004  Tot=              4.7517

 Test job not archived.
 1\1\GINC-SE198\SP\RHF\Aug-CC-pVDZ\C4H8O1S1\OHZDE\05-Apr-2025\0\\#t hf
 aug-cc-pvdz iop(5/13=1,5/36=2,99/5=2) pseudo=read geom=check guess=(re
 ad,tcheck) scf=(maxcycle=1)\\title\\0,1\O,0,-2.357106,-0.826508,0.0000
 23\C,0,-1.415289,-0.075802,0.000085\S,0,0.232683,-0.804196,-0.00014\H,
 0,-1.076024,1.860038,0.880271\H,0,-2.611239,1.674996,0.000488\H,0,-1.0
 76214,1.860311,-0.879564\C,0,-1.552652,1.427474,0.000338\H,0,1.252246,
 1.209742,-0.884316\H,0,1.252388,1.209438,0.884567\C,0,1.422814,0.59882
 ,0.000007\H,0,3.026676,-0.571696,0.88206\H,0,3.561268,0.860316,-0.0001

 Normal termination of Gaussian 16 at Sat Apr  5 22:54:37 2025.
