 Gaussian 16, Revision C.01,

 ----------------------------------------------------------------------
 #t hf aug-cc-pvdz symm=none int=(grid=ultrafine) guess=(read,tcheck) s
 table=(opt,rrhf)
 ----------------------------------------------------------------------
 -----
 title
 -----
 Symbolic Z-matrix:
 Charge =  0 Multiplicity = 1

 SCF Done:  E(RHF) =  -851.454377359     A.U. after   19 cycles
 Normal termination of Gaussian 16 at Sat Apr  5 22:54:33 2025.
 Gaussian 16:  ES64L-G16RevC.01  3-Jul-2019

 ----------------------------------------------------------------------
 #t hf aug-cc-pvdz iop(5/13=1,5/36=2,99/5=2) pseudo=read geom=check gue
 ss=(read,tcheck) scf=(maxcycle=1)
 ----------------------------------------------------------------------
 -----
 title
 -----
 Structure from the checkpoint file:  "S-hydroperoxy_hexa-2-4-diynethioate.chk"
 Charge =  0 Multiplicity = 1

                         Standard orientation:
 ---------------------------------------------------------------------
 Center     Atomic      Atomic             Coordinates (Angstroms)
 Number     Number       Type             X           Y           Z
 ---------------------------------------------------------------------
      1         16           0        1.777893   -1.017043   -0.098312
      2          8           0        3.331071   -0.521658   -0.383927
      3          8           0        1.564558    1.616301   -0.260640
      4          8           0        3.903677    0.151691    0.784045
      5          6           0        0.945852    0.577476   -0.185281
      6          6           0       -0.473005    0.441711   -0.112433
      7          6           0       -1.670367    0.263764   -0.051931
      8          6           0       -3.011782    0.084916    0.015677
      9          6           0       -4.208213   -0.073703    0.076329
     10          6           0       -5.641659   -0.262465    0.148528
     11          1           0        3.588858    1.056127    0.611506
     12          1           0       -6.026208   -0.654858   -0.794688
     13          1           0       -6.149180    0.680904    0.356636
     14          1           0       -5.899149   -0.970358    0.938381
 ---------------------------------------------------------------------

 SCF Done:  E(RHF) =  -851.955177584     A.U. after    2 cycles

 The electronic state is 1-A.
 Alpha  occ. eigenvalues --  -94.03921 -20.65441 -20.63252 -20.57897 -11.41641
 Alpha  occ. eigenvalues --  -11.31688 -11.30011 -11.29083 -11.28801 -11.28000
 Alpha  occ. eigenvalues --   -8.31470  -6.29283  -6.29038  -6.28807  -1.59975
 Alpha  occ. eigenvalues --   -1.51317  -1.32320  -1.13346  -1.09579  -1.04513
 Alpha  occ. eigenvalues --   -1.00305  -0.91372  -0.84250  -0.73123  -0.71661
 Alpha  occ. eigenvalues --   -0.69355  -0.68156  -0.64340  -0.63179  -0.63117
 Alpha  occ. eigenvalues --   -0.60499  -0.58711  -0.53521  -0.51543  -0.50851
 Alpha  occ. eigenvalues --   -0.48992  -0.44290  -0.40744  -0.39106  -0.38670
 Alpha virt. eigenvalues --    0.02216   0.02789   0.04492   0.04573   0.05224
 Alpha virt. eigenvalues --    0.05888   0.06652   0.07617   0.08739   0.09564
 Alpha virt. eigenvalues --    0.10674   0.11804   0.12552   0.13076   0.13254

 Mulliken charges:
               1
     1  S    0.984204
     2  O   -0.727184
     3  O   -1.269252
     4  O   -0.540510
     5  C   -0.265220
     6  C   -1.092620
     7  C    1.884326
     8  C    2.862967
     9  C   -2.713058
    10  C   -0.489825
    11  H    0.550310
    12  H    0.273734
    13  H    0.270981
    14  H    0.271148
 Sum of Mulliken charges =  -0.00000

 Dipole moment (field-independent basis, Debye):
    X=             -6.0900    Y=             -0.5910    Z=              0.4039  Tot=              6.1319

 Test job not archived.
 1\1\GINC-SE199\SP\RHF\Aug-CC-pVDZ\C6H4O3S1\OHZDE\05-Apr-2025\0\\#t hf
 aug-cc-pvdz iop(5/13=1,5/36=2,99/5=2) pseudo=read geom=check guess=(re
 ad,tcheck) scf=(maxcycle=1)\\title\\0,1\S,0,1.777893,-1.017043,-0.0983
 12\O,0,3.331071,-0.521658,-0.383927\O,0,1.564558,1.616301,-0.26064\O,0
 ,3.903677,0.151691,0.784045\C,0,0.945852,0.577476,-0.185281\C,0,-0.473
 005,0.441711,-0.112433\C,0,-1.670367,0.263764,-0.051931\C,0,-3.011782,
 0.084916,0.015677\C,0,-4.208213,-0.073703,0.076329\C,0,-5.641659,-0.26
 2465,0.148528\H,0,3.588858,1.056127,0.611506\H,0,-6.026208,-0.654858,-

 Normal termination of Gaussian 16 at Sat Apr  5 22:54:41 2025.
