 Gaussian 16, Revision C.01,

 ----------------------------------------------------------------------
 #t hf aug-cc-pvdz symm=none int=(grid=ultrafine) guess=(read,tcheck) s
 table=(opt,rrhf)
 ----------------------------------------------------------------------
 -----
 title
 -----
 Symbolic Z-matrix:
 Charge =  0 Multiplicity = 1

 SCF Done:  E(RHF) =  -742.108831243     A.U. after   16 cycles
 Normal termination of Gaussian 16 at Sat Apr  5 22:54:46 2025.
 Gaussian 16:  ES64L-G16RevC.01  3-Jul-2019

 ----------------------------------------------------------------------
 #t hf aug-cc-pvdz iop(5/13=1,5/36=2,99/5=2) pseudo=read geom=check gue
 ss=(read,tcheck) scf=(maxcycle=1)
 ----------------------------------------------------------------------
 -----
 title
 -----
 Structure from the checkpoint file:  "S-methylsulfinylbenzene.chk"
 Charge =  0 Multiplicity = 1

                         Standard orientation:
 ---------------------------------------------------------------------
 Center     Atomic      Atomic             Coordinates (Angstroms)
 Number     Number       Type             X           Y           Z
 ---------------------------------------------------------------------
      1          6           0       -2.865077    0.100616    0.165518
      2          6           0       -2.070507    1.223857    0.366327
      3          6           0       -2.286294   -1.104138   -0.223924
      4          6           0       -0.692839    1.148380    0.186907
      5          6           0       -0.911773   -1.187321   -0.409725
      6          6           0       -0.127095   -0.061385   -0.186065
      7          6           0        2.115664   -0.968781    1.096612
      8          8           0        2.191158    1.279499   -0.345256
      9         16           0        1.671473   -0.126541   -0.469671
     10          1           0       -3.936059    0.164368    0.301992
     11          1           0       -2.522707    2.162209    0.657897
     12          1           0       -2.905625   -1.974771   -0.391995
     13          1           0       -0.051411    2.009136    0.320028
     14          1           0       -0.461290   -2.117623   -0.732907
     15          1           0        1.639276   -1.946560    1.131766
     16          1           0        1.794165   -0.342110    1.925393
     17          1           0        3.198354   -1.073357    1.090709
 ---------------------------------------------------------------------

 SCF Done:  E(RHF) =  -742.524252304     A.U. after    2 cycles

 The electronic state is 1-A.
 Alpha  occ. eigenvalues --  -94.07450 -20.49655 -11.27747 -11.27525 -11.26615
 Alpha  occ. eigenvalues --  -11.26001 -11.25879 -11.25717 -11.25645  -8.34218
 Alpha  occ. eigenvalues --   -6.32068  -6.31939  -6.31732  -1.42923  -1.17943
 Alpha  occ. eigenvalues --   -1.07963  -1.03660  -1.01821  -0.89957  -0.85629
 Alpha  occ. eigenvalues --   -0.81717  -0.73068  -0.66731  -0.65931  -0.63476
 Alpha  occ. eigenvalues --   -0.62598  -0.61754  -0.59722  -0.58237  -0.53836
 Alpha  occ. eigenvalues --   -0.52573  -0.52513  -0.51634  -0.41843  -0.38913
 Alpha  occ. eigenvalues --   -0.36306  -0.34897
 Alpha virt. eigenvalues --    0.02843   0.03226   0.03816   0.04641   0.05156
 Alpha virt. eigenvalues --    0.05816   0.06918   0.07655   0.08358   0.09266
 Alpha virt. eigenvalues --    0.09908   0.10894   0.11545   0.12255   0.13522

 Mulliken charges:
               1
     1  C    0.045039
     2  C    0.503414
     3  C    0.406957
     4  C   -0.512562
     5  C   -0.065155
     6  C    0.703169
     7  C   -0.690937
     8  O   -1.576386
     9  S    1.738987
    10  H   -0.213894
    11  H   -0.211867
    12  H   -0.221438
    13  H   -0.268681
    14  H   -0.226906
    15  H    0.196961
    16  H    0.233085
    17  H    0.160215
 Sum of Mulliken charges =   0.00000

 Dipole moment (field-independent basis, Debye):
    X=             -2.6218    Y=             -3.2248    Z=              1.5414  Tot=              4.4327

 Test job not archived.
 1\1\GINC-SE047\SP\RHF\Aug-CC-pVDZ\C7H8O1S1\OHZDE\05-Apr-2025\0\\#t hf
 aug-cc-pvdz iop(5/13=1,5/36=2,99/5=2) pseudo=read geom=check guess=(re
 ad,tcheck) scf=(maxcycle=1)\\title\\0,1\C,0,-2.865077,0.100616,0.16551
 8\C,0,-2.070507,1.223857,0.366327\C,0,-2.286294,-1.104138,-0.223924\C,
 0,-0.692839,1.14838,0.186907\C,0,-0.911773,-1.187321,-0.409725\C,0,-0.
 127095,-0.061385,-0.186065\C,0,2.115664,-0.968781,1.096612\O,0,2.19115
 8,1.279499,-0.345256\S,0,1.671473,-0.126541,-0.469671\H,0,-3.936059,0.
 164368,0.301992\H,0,-2.522707,2.162209,0.657897\H,0,-2.905625,-1.97477

 Normal termination of Gaussian 16 at Sat Apr  5 22:54:55 2025.
