 Gaussian 16, Revision C.01,

 ----------------------------------------------------------------------
 #t hf aug-cc-pvdz symm=none int=(grid=ultrafine) guess=(read,tcheck) s
 table=(opt,rrhf)
 ----------------------------------------------------------------------
 -----
 title
 -----
 Symbolic Z-matrix:
 Charge =  0 Multiplicity = 1

 SCF Done:  E(RHF) =  -780.053444248     A.U. after   16 cycles
 Normal termination of Gaussian 16 at Sat Apr  5 22:55:08 2025.
 Gaussian 16:  ES64L-G16RevC.01  3-Jul-2019

 ----------------------------------------------------------------------
 #t hf aug-cc-pvdz iop(5/13=1,5/36=2,99/5=2) pseudo=read geom=check gue
 ss=(read,tcheck) scf=(maxcycle=1)
 ----------------------------------------------------------------------
 -----
 title
 -----
 Structure from the checkpoint file:  "S-methyl_benzenecarbothioate.chk"
 Charge =  0 Multiplicity = 1

                         Standard orientation:
 ---------------------------------------------------------------------
 Center     Atomic      Atomic             Coordinates (Angstroms)
 Number     Number       Type             X           Y           Z
 ---------------------------------------------------------------------
      1          6           0        1.333065    3.036686    0.000000
      2          6           0       -0.058033    3.001626    0.000000
      3          6           0        2.057969    1.849796    0.000000
      4          6           0       -0.721944    1.784420    0.000000
      5          6           0        1.395636    0.630072    0.000000
      6          6           0        0.000000    0.587581    0.000000
      7          6           0       -0.775412   -0.687600    0.000000
      8          6           0       -1.161168   -3.408295    0.000000
      9          8           0       -1.984399   -0.723520    0.000000
     10         16           0        0.197665   -2.203581    0.000000
     11          1           0        1.851085    3.986336    0.000000
     12          1           0       -0.623442    3.923567    0.000000
     13          1           0        3.139026    1.874086    0.000000
     14          1           0       -1.801297    1.738555    0.000000
     15          1           0        1.969563   -0.285827    0.000000
     16          1           0       -1.773676   -3.283052    0.887927
     17          1           0       -0.695712   -4.390868    0.000000
     18          1           0       -1.773676   -3.283052   -0.887927
 ---------------------------------------------------------------------

 SCF Done:  E(RHF) =  -780.501981661     A.U. after    2 cycles

 The electronic state is 1-A'.
 Alpha  occ. eigenvalues --  -93.96230 -20.54421 -11.37369 -11.26888 -11.26381
 Alpha  occ. eigenvalues --  -11.26219 -11.26191 -11.25812 -11.25453 -11.25314
 Alpha  occ. eigenvalues --   -8.24460  -6.22273  -6.22103  -6.21912  -1.48525
 Alpha  occ. eigenvalues --   -1.17609  -1.09126  -1.04805  -1.03413  -0.93163
 Alpha  occ. eigenvalues --   -0.86904  -0.84694  -0.77338  -0.72116  -0.67388
 Alpha  occ. eigenvalues --   -0.66503  -0.63759  -0.62633  -0.61596  -0.60980
 Alpha  occ. eigenvalues --   -0.56732  -0.56456  -0.53916  -0.51981  -0.51335
 Alpha  occ. eigenvalues --   -0.49169  -0.40909  -0.38060  -0.35969  -0.35744
 Alpha virt. eigenvalues --    0.03072   0.03635   0.03780   0.04741   0.05258
 Alpha virt. eigenvalues --    0.05461   0.06291   0.06966   0.07492   0.09745
 Alpha virt. eigenvalues --    0.10055   0.10565   0.10886   0.12705   0.12857

 Mulliken charges:
               1
     1  C   -0.102734
     2  C    0.499273
     3  C    0.302788
     4  C   -0.541615
     5  C    0.021796
     6  C    2.616912
     7  C   -0.398054
     8  C   -0.733321
     9  O   -1.433938
    10  S    0.406365
    11  H   -0.217496
    12  H   -0.218053
    13  H   -0.247255
    14  H   -0.343820
    15  H   -0.164742
    16  H    0.229303
    17  H    0.095287
    18  H    0.229303
 Sum of Mulliken charges =  -0.00000

 Dipole moment (field-independent basis, Debye):
    X=              1.4528    Y=              0.5801    Z=              0.0000  Tot=              1.5643

 Test job not archived.
 1\1\GINC-SE013\SP\RHF\Aug-CC-pVDZ\C8H8O1S1\OHZDE\05-Apr-2025\0\\#t hf
 aug-cc-pvdz iop(5/13=1,5/36=2,99/5=2) pseudo=read geom=check guess=(re
 ad,tcheck) scf=(maxcycle=1)\\title\\0,1\C,0,1.333065,3.036686,0.\C,0,-
 0.058033,3.001626,0.\C,0,2.057969,1.849796,0.\C,0,-0.721944,1.78442,0.
 \C,0,1.395636,0.630072,0.\C,0,0.,0.587581,0.\C,0,-0.775412,-0.6876,0.\
 C,0,-1.161168,-3.408295,0.\O,0,-1.984399,-0.72352,0.\S,0,0.197665,-2.2
 03581,0.\H,0,1.851085,3.986336,0.\H,0,-0.623442,3.923567,0.\H,0,3.1390
 26,1.874086,0.\H,0,-1.801297,1.738555,0.\H,0,1.969563,-0.285827,0.\H,0

 Normal termination of Gaussian 16 at Sat Apr  5 22:55:54 2025.
