 Gaussian 16, Revision C.01,

 ----------------------------------------------------------------------
 #t hf aug-cc-pvdz symm=none int=(grid=ultrafine) guess=(read,tcheck) s
 table=(opt,rrhf)
 ----------------------------------------------------------------------
 -----
 title
 -----
 Symbolic Z-matrix:
 Charge =  0 Multiplicity = 1

 SCF Done:  E(RHF) =  -777.981558625     A.U. after   15 cycles
 Normal termination of Gaussian 16 at Sat Apr  5 22:54:30 2025.
 Gaussian 16:  ES64L-G16RevC.01  3-Jul-2019

 ----------------------------------------------------------------------
 #t hf aug-cc-pvdz iop(5/13=1,5/36=2,99/5=2) pseudo=read geom=check gue
 ss=(read,tcheck) scf=(maxcycle=1)
 ----------------------------------------------------------------------
 -----
 title
 -----
 Structure from the checkpoint file:  "S-methyl-3-furancarbothioate.chk"
 Charge =  0 Multiplicity = 1

                         Standard orientation:
 ---------------------------------------------------------------------
 Center     Atomic      Atomic             Coordinates (Angstroms)
 Number     Number       Type             X           Y           Z
 ---------------------------------------------------------------------
      1          6           0       -1.392165    1.170066    0.000000
      2          6           0       -1.428012    2.519619    0.000000
      3          6           0        0.691129    1.983502    0.000000
      4          6           0        0.000000    0.807541    0.000000
      5          6           0        0.635993   -0.516796    0.000000
      6          6           0        0.661715   -3.268787    0.000000
      7          8           0        1.835393   -0.684653    0.000000
      8          8           0       -0.157808    3.030443    0.000000
      9         16           0       -0.521930   -1.891204    0.000000
     10          1           0       -2.241204    0.509673    0.000000
     11          1           0       -2.223626    3.241441    0.000000
     12          1           0        1.742596    2.204050    0.000000
     13          1           0        1.285248   -3.226145    0.888112
     14          1           0        1.285248   -3.226145   -0.888112
     15          1           0        0.069983   -4.180792    0.000000
 ---------------------------------------------------------------------

 SCF Done:  E(RHF) =  -778.421127419     A.U. after    2 cycles

 The electronic state is 1-A'.
 Alpha  occ. eigenvalues --  -93.96561 -20.63319 -20.54380 -11.37811 -11.32757
 Alpha  occ. eigenvalues --  -11.31174 -11.27154 -11.25865 -11.25794  -8.24790
 Alpha  occ. eigenvalues --   -6.22606  -6.22431  -6.22244  -1.56917  -1.48381
 Alpha  occ. eigenvalues --   -1.13145  -1.08547  -1.03544  -0.94490  -0.86310
 Alpha  occ. eigenvalues --   -0.81413  -0.78760  -0.71699  -0.65641  -0.65376
 Alpha  occ. eigenvalues --   -0.64602  -0.62949  -0.61028  -0.59652  -0.58161
 Alpha  occ. eigenvalues --   -0.55840  -0.54997  -0.49545  -0.42020  -0.41347
 Alpha  occ. eigenvalues --   -0.37623  -0.34825
 Alpha virt. eigenvalues --    0.03359   0.03598   0.04396   0.05166   0.05780
 Alpha virt. eigenvalues --    0.06094   0.07374   0.09234   0.09722   0.10102
 Alpha virt. eigenvalues --    0.10556   0.11805   0.12982   0.13191   0.13544

 Mulliken charges:
               1
     1  C   -0.030070
     2  C    0.871312
     3  C    0.249394
     4  C    1.762786
     5  C    0.385054
     6  C   -0.708615
     7  O   -1.415886
     8  O   -1.520012
     9  S    0.415923
    10  H   -0.169441
    11  H   -0.149185
    12  H   -0.255318
    13  H    0.232162
    14  H    0.232162
    15  H    0.099732
 Sum of Mulliken charges =  -0.00000

 Dipole moment (field-independent basis, Debye):
    X=             -1.4691    Y=              0.0065    Z=             -0.0000  Tot=              1.4691

 Test job not archived.
 1\1\GINC-SE010\SP\RHF\Aug-CC-pVDZ\C6H6O2S1\OHZDE\05-Apr-2025\0\\#t hf
 aug-cc-pvdz iop(5/13=1,5/36=2,99/5=2) pseudo=read geom=check guess=(re
 ad,tcheck) scf=(maxcycle=1)\\title\\0,1\C,0,-1.392165,1.170066,0.\C,0,
 -1.428012,2.519619,0.\C,0,0.691129,1.983502,0.\C,0,0.,0.807541,0.\C,0,
 0.635993,-0.516796,0.\C,0,0.661715,-3.268787,0.\O,0,1.835393,-0.684653
 ,0.\O,0,-0.157808,3.030443,0.\S,0,-0.52193,-1.891204,0.\H,0,-2.241204,
 0.509673,0.\H,0,-2.223626,3.241441,0.\H,0,1.742596,2.20405,0.\H,0,1.28
 5248,-3.226145,0.888112\H,0,1.285248,-3.226145,-0.888112\H,0,0.069983,

 Normal termination of Gaussian 16 at Sat Apr  5 22:54:39 2025.
