 Gaussian 16, Revision C.01,

 ----------------------------------------------------------------------
 #t hf aug-cc-pvdz symm=none int=(grid=ultrafine) guess=(read,tcheck) s
 table=(opt,rrhf)
 ----------------------------------------------------------------------
 -----
 title
 -----
 Symbolic Z-matrix:
 Charge =  0 Multiplicity = 1

 SCF Done:  E(RHF) =  -550.467664889     A.U. after   14 cycles
 Normal termination of Gaussian 16 at Sat Apr  5 22:53:41 2025.
 Gaussian 16:  ES64L-G16RevC.01  3-Jul-2019

 ----------------------------------------------------------------------
 #t hf aug-cc-pvdz iop(5/13=1,5/36=2,99/5=2) pseudo=read geom=check gue
 ss=(read,tcheck) scf=(maxcycle=1)
 ----------------------------------------------------------------------
 -----
 title
 -----
 Structure from the checkpoint file:  "S-methyl_thioformate.chk"
 Charge =  0 Multiplicity = 1

                         Standard orientation:
 ---------------------------------------------------------------------
 Center     Atomic      Atomic             Coordinates (Angstroms)
 Number     Number       Type             X           Y           Z
 ---------------------------------------------------------------------
      1          6           0       -0.591523   -0.910088    0.000000
      2          6           0        1.806424    0.511742    0.000000
      3          8           0       -1.751511   -1.205927    0.000000
      4         16           0        0.000000    0.769997    0.000000
      5          1           0        0.228373   -1.652841    0.000000
      6          1           0        2.021441   -0.556170    0.000000
      7          1           0        2.236433    0.963278    0.889535
      8          1           0        2.236433    0.963278   -0.889535
 ---------------------------------------------------------------------

 SCF Done:  E(RHF) =  -550.681781508     A.U. after    2 cycles

 The electronic state is 1-A'.
 Alpha  occ. eigenvalues --  -93.97541 -20.56080 -11.38133 -11.29071  -8.25781
 Alpha  occ. eigenvalues --   -6.23574  -6.23419  -6.23221  -1.49888  -1.10537
 Alpha  occ. eigenvalues --   -0.94148  -0.81875  -0.68305  -0.65091  -0.62414
 Alpha  occ. eigenvalues --   -0.59167  -0.56168  -0.49775  -0.41982  -0.38400
 Alpha virt. eigenvalues --    0.02855   0.04249   0.04761   0.05877   0.08789
 Alpha virt. eigenvalues --    0.09130   0.10688   0.12293   0.13085   0.13594
 Alpha virt. eigenvalues --    0.15017   0.15762   0.16078   0.16677   0.17179

 Mulliken charges:
               1
     1  C    0.429397
     2  C   -0.655106
     3  O   -1.016504
     4  S    0.558361
     5  H    0.156864
     6  H    0.080189
     7  H    0.223400
     8  H    0.223400
 Sum of Mulliken charges =  -0.00000

 Dipole moment (field-independent basis, Debye):
    X=              4.1817    Y=              0.1140    Z=             -0.0000  Tot=              4.1832

 Test job not archived.
 1\1\GINC-SE045\SP\RHF\Aug-CC-pVDZ\C2H4O1S1\OHZDE\05-Apr-2025\0\\#t hf
 aug-cc-pvdz iop(5/13=1,5/36=2,99/5=2) pseudo=read geom=check guess=(re
 ad,tcheck) scf=(maxcycle=1)\\title\\0,1\C,0,-0.591523,-0.910088,0.\C,0
 ,1.806424,0.511742,0.\O,0,-1.751511,-1.205927,0.\S,0,0.,0.769997,0.\H,
 0,0.228373,-1.652841,0.\H,0,2.021441,-0.55617,0.\H,0,2.236433,0.963278
 ,0.889535\H,0,2.236433,0.963278,-0.889535\\Version=ES64L-G16RevC.01\St
 ate=1-A'\HF=-550.6817815\RMSD=6.775e-03\Dipole=1.6451902,0.0448607,0.\
 Quadrupole=-0.7262163,0.4596225,0.2665938,-1.5930743,0.,0.\PG=CS [SG(C

 Normal termination of Gaussian 16 at Sat Apr  5 22:53:43 2025.
