 Gaussian 16, Revision C.01,

 ----------------------------------------------------------------------
 #t hf aug-cc-pvdz symm=none int=(grid=ultrafine) guess=(read,tcheck) s
 table=(opt,rrhf)
 ----------------------------------------------------------------------
 -----
 title
 -----
 Symbolic Z-matrix:
 Charge =  0 Multiplicity = 1

 SCF Done:  E(RHF) =  -848.102677588     A.U. after   18 cycles
 Normal termination of Gaussian 16 at Sat Apr  5 22:54:34 2025.
 Gaussian 16:  ES64L-G16RevC.01  3-Jul-2019

 ----------------------------------------------------------------------
 #t hf aug-cc-pvdz iop(5/13=1,5/36=2,99/5=2) pseudo=read geom=check gue
 ss=(read,tcheck) scf=(maxcycle=1)
 ----------------------------------------------------------------------
 -----
 title
 -----
 Structure from the checkpoint file:  "S-nitrosocysteine.chk"
 Charge =  0 Multiplicity = 1

                         Standard orientation:
 ---------------------------------------------------------------------
 Center     Atomic      Atomic             Coordinates (Angstroms)
 Number     Number       Type             X           Y           Z
 ---------------------------------------------------------------------
      1         16           0       -1.708055   -0.944543    0.238777
      2          8           0        2.543314    1.082665   -0.736842
      3          8           0        3.099840   -0.995616   -0.091408
      4          8           0       -3.637533    0.704920   -0.308545
      5          7           0        0.648212    1.175180    1.198357
      6          7           0       -2.500457    0.538811   -0.543859
      7          6           0        0.958154   -0.108039    0.596436
      8          6           0       -0.057481   -0.638317   -0.450388
      9          6           0        2.322002   -0.078776   -0.081186
     10          1           0        1.047909   -0.847293    1.390980
     11          1           0        0.293305   -1.573053   -0.885849
     12          1           0       -0.196720    0.090629   -1.251576
     13          1           0       -0.227541    1.132950    1.703394
     14          1           0        0.584033    1.910377    0.505497
     15          1           0        3.412596    1.016178   -1.159186
 ---------------------------------------------------------------------

 SCF Done:  E(RHF) =  -848.600913222     A.U. after    2 cycles

 The electronic state is 1-A.
 Alpha  occ. eigenvalues --  -93.99801 -20.65977 -20.61640 -20.55399 -15.70637
 Alpha  occ. eigenvalues --  -15.50837 -11.40860 -11.30751 -11.29955  -8.27786
 Alpha  occ. eigenvalues --   -6.25528  -6.25388  -6.25164  -1.66319  -1.56412
 Alpha  occ. eigenvalues --   -1.46925  -1.22176  -1.12896  -1.03646  -0.95602
 Alpha  occ. eigenvalues --   -0.87533  -0.83550  -0.74620  -0.73420  -0.72773
 Alpha  occ. eigenvalues --   -0.71690  -0.69190  -0.67489  -0.66021  -0.63910
 Alpha  occ. eigenvalues --   -0.62162  -0.59588  -0.56379  -0.51596  -0.49256
 Alpha  occ. eigenvalues --   -0.47224  -0.44682  -0.41037  -0.39870
 Alpha virt. eigenvalues --    0.03350   0.03939   0.04435   0.04550   0.04751
 Alpha virt. eigenvalues --    0.06478   0.06614   0.07722   0.07904   0.10654
 Alpha virt. eigenvalues --    0.11329   0.11905   0.13250   0.13597   0.14030

 Mulliken charges:
               1
     1  S    0.554528
     2  O   -1.296331
     3  O   -1.281000
     4  O   -0.932623
     5  N    0.575010
     6  N    0.579600
     7  C   -1.368360
     8  C   -0.643653
     9  C    2.395016
    10  H    0.137827
    11  H    0.226427
    12  H    0.258608
    13  H    0.210982
    14  H    0.226922
    15  H    0.357048
 Sum of Mulliken charges =  -0.00000

 Dipole moment (field-independent basis, Debye):
    X=             -0.0438    Y=              0.5520    Z=             -1.0761  Tot=              1.2102

 Test job not archived.
 1\1\GINC-SE047\SP\RHF\Aug-CC-pVDZ\C3H6N2O3S1\OHZDE\05-Apr-2025\0\\#t h
 f aug-cc-pvdz iop(5/13=1,5/36=2,99/5=2) pseudo=read geom=check guess=(
 read,tcheck) scf=(maxcycle=1)\\title\\0,1\S,0,-1.708055,-0.944543,0.23
 8777\O,0,2.543314,1.082665,-0.736842\O,0,3.09984,-0.995616,-0.091408\O
 ,0,-3.637533,0.70492,-0.308545\N,0,0.648212,1.17518,1.198357\N,0,-2.50
 0457,0.538811,-0.543859\C,0,0.958154,-0.108039,0.596436\C,0,-0.057481,
 -0.638317,-0.450388\C,0,2.322002,-0.078776,-0.081186\H,0,1.047909,-0.8
 47293,1.39098\H,0,0.293305,-1.573053,-0.885849\H,0,-0.19672,0.090629,-

 Normal termination of Gaussian 16 at Sat Apr  5 22:54:42 2025.
