 Gaussian 16, Revision C.01,

 ----------------------------------------------------------------------
 #t hf aug-cc-pvdz symm=none int=(grid=ultrafine) guess=(read,tcheck) s
 table=(opt,rrhf)
 ----------------------------------------------------------------------
 -----
 title
 -----
 Symbolic Z-matrix:
 Charge =  0 Multiplicity = 1

 SCF Done:  E(RHF) =  -321.902419393     A.U. after   14 cycles
 Normal termination of Gaussian 16 at Sat Apr  5 23:14:43 2025.
 Gaussian 16:  ES64L-G16RevC.01  3-Jul-2019

 ----------------------------------------------------------------------
 #t hf aug-cc-pvdz iop(5/13=1,5/36=2,99/5=2) pseudo=read geom=check gue
 ss=(read,tcheck) scf=(maxcycle=1)
 ----------------------------------------------------------------------
 -----
 title
 -----
 Structure from the checkpoint file:  "sarcosine.chk"
 Charge =  0 Multiplicity = 1

                         Standard orientation:
 ---------------------------------------------------------------------
 Center     Atomic      Atomic             Coordinates (Angstroms)
 Number     Number       Type             X           Y           Z
 ---------------------------------------------------------------------
      1          1           0       -1.062995    1.233708   -0.007749
      2          7           0       -1.287298    0.301061   -0.329906
      3          1           0       -2.668450   -0.329662    1.188710
      4          1           0       -2.886524   -1.049290   -0.414325
      5          1           0       -3.337280    0.630006   -0.147704
      6          6           0       -2.603422   -0.132820    0.107415
      7          1           0       -0.323323   -1.023463    1.042073
      8          1           0       -0.185290   -1.445839   -0.662916
      9          6           0       -0.216255   -0.595054    0.027536
     10          8           0        1.244161    1.313708    0.076402
     11          6           0        1.122183    0.123838    0.016980
     12          1           0        1.964442   -1.602938   -0.095392
     13          8           0        2.217773   -0.675674   -0.014519
 ---------------------------------------------------------------------

 SCF Done:  E(RHF) =  -322.233116078     A.U. after    2 cycles

 The electronic state is 1-A.
 Alpha  occ. eigenvalues --  -20.60892 -20.54126 -15.49710 -11.40056 -11.29574
 Alpha  occ. eigenvalues --  -11.26506  -1.55078  -1.46303  -1.22338  -1.01458
 Alpha  occ. eigenvalues --   -0.90680  -0.83727  -0.76302  -0.68898  -0.68403
 Alpha  occ. eigenvalues --   -0.65073  -0.62858  -0.61672  -0.57695  -0.55588
 Alpha  occ. eigenvalues --   -0.54281  -0.48010  -0.45140  -0.41965
 Alpha virt. eigenvalues --    0.02715   0.03844   0.04345   0.05169   0.06231
 Alpha virt. eigenvalues --    0.06842   0.08172   0.09487   0.11069   0.12123
 Alpha virt. eigenvalues --    0.13772   0.14247   0.14736   0.15549   0.16042

 Mulliken charges:
               1
     1  H    0.255507
     2  N    0.300894
     3  H    0.153445
     4  H    0.115876
     5  H    0.027321
     6  C   -0.458511
     7  H    0.190093
     8  H    0.037948
     9  C   -0.726739
    10  O   -1.226492
    11  C    2.214746
    12  H    0.408350
    13  O   -1.292439
 Sum of Mulliken charges =  -0.00000

 Dipole moment (field-independent basis, Debye):
    X=             -2.0948    Y=             -3.8030    Z=              0.8698  Tot=              4.4280

 Test job not archived.
 1\1\GINC-SE232\SP\RHF\Aug-CC-pVDZ\C3H7N1O2\OHZDE\05-Apr-2025\0\\#t hf
 aug-cc-pvdz iop(5/13=1,5/36=2,99/5=2) pseudo=read geom=check guess=(re
 ad,tcheck) scf=(maxcycle=1)\\title\\0,1\H,0,-1.062995,1.233708,-0.0077
 49\N,0,-1.287298,0.301061,-0.329906\H,0,-2.66845,-0.329662,1.18871\H,0
 ,-2.886524,-1.04929,-0.414325\H,0,-3.33728,0.630006,-0.147704\C,0,-2.6
 03422,-0.13282,0.107415\H,0,-0.323323,-1.023463,1.042073\H,0,-0.18529,
 -1.445839,-0.662916\C,0,-0.216255,-0.595054,0.027536\O,0,1.244161,1.31
 3708,0.076402\C,0,1.122183,0.123838,0.01698\H,0,1.964442,-1.602938,-0.

 Normal termination of Gaussian 16 at Sat Apr  5 23:15:56 2025.
