 Gaussian 16, Revision C.01,

 ----------------------------------------------------------------------
 #t hf aug-cc-pvdz symm=none int=(grid=ultrafine) guess=(read,tcheck) s
 table=(opt,rrhf)
 ----------------------------------------------------------------------
 -----
 title
 -----
 Symbolic Z-matrix:
 Charge =  0 Multiplicity = 1

 SCF Done:  E(RHF) =  -386.882962520     A.U. after   14 cycles
 Normal termination of Gaussian 16 at Sat Apr  5 23:17:17 2025.
 Gaussian 16:  ES64L-G16RevC.01  3-Jul-2019

 ----------------------------------------------------------------------
 #t hf aug-cc-pvdz iop(5/13=1,5/36=2,99/5=2) pseudo=read geom=check gue
 ss=(read,tcheck) scf=(maxcycle=1)
 ----------------------------------------------------------------------
 -----
 title
 -----
 Structure from the checkpoint file:  "sec-butylbenzene.chk"
 Charge =  0 Multiplicity = 1

                         Standard orientation:
 ---------------------------------------------------------------------
 Center     Atomic      Atomic             Coordinates (Angstroms)
 Number     Number       Type             X           Y           Z
 ---------------------------------------------------------------------
      1          6           0        2.857988   -0.186371   -0.233131
      2          6           0        2.053766    0.384179   -1.214486
      3          6           0        2.290498   -0.563987    0.976902
      4          6           0        0.697008    0.573868   -0.984913
      5          6           0        0.930680   -0.371454    1.200202
      6          6           0        0.110355    0.199210    0.227134
      7          6           0       -2.106231   -1.897819   -0.384502
      8          6           0       -1.735472    1.906080    0.469313
      9          6           0       -2.268736   -0.382193   -0.478594
     10          6           0       -1.370680    0.413775    0.488686
     11          1           0        3.914630   -0.333895   -0.411250
     12          1           0        2.484835    0.682992   -2.161028
     13          1           0        2.904128   -1.009341    1.748912
     14          1           0        0.089544    1.020400   -1.761714
     15          1           0        0.498685   -0.670061    2.147496
     16          1           0       -2.781757   -2.406774   -1.073300
     17          1           0       -1.088989   -2.207419   -0.625697
     18          1           0       -2.330630   -2.254856    0.622994
     19          1           0       -1.578291    2.339587   -0.519828
     20          1           0       -2.785198    2.048697    0.731767
     21          1           0       -1.128084    2.469271    1.178299
     22          1           0       -2.072665   -0.053669   -1.503150
     23          1           0       -3.308762   -0.116218   -0.270236
     24          1           0       -1.572502    0.039560    1.497058
 ---------------------------------------------------------------------

 SCF Done:  E(RHF) =  -387.297819802     A.U. after    2 cycles

 The electronic state is 1-A.
 Alpha  occ. eigenvalues --  -11.24014 -11.23883 -11.23830 -11.23743 -11.23498
 Alpha  occ. eigenvalues --  -11.23368 -11.23360 -11.22689 -11.22285 -11.21770
 Alpha  occ. eigenvalues --   -1.15830  -1.09046  -1.01264  -1.00987  -0.97659
 Alpha  occ. eigenvalues --   -0.87269  -0.83957  -0.82849  -0.77432  -0.70575
 Alpha  occ. eigenvalues --   -0.65909  -0.63537  -0.61967  -0.60156  -0.59444
 Alpha  occ. eigenvalues --   -0.58294  -0.57722  -0.54541  -0.52275  -0.50832
 Alpha  occ. eigenvalues --   -0.50427  -0.49702  -0.47442  -0.46949  -0.46180
 Alpha  occ. eigenvalues --   -0.34248  -0.33331
 Alpha virt. eigenvalues --    0.03250   0.03288   0.03766   0.03853   0.04793
 Alpha virt. eigenvalues --    0.04968   0.05825   0.06488   0.07036   0.07396
 Alpha virt. eigenvalues --    0.08108   0.08848   0.09634   0.10555   0.10891

 Mulliken charges:
               1
     1  C    0.187847
     2  C   -0.056489
     3  C    0.168300
     4  C    0.164154
     5  C    0.031991
     6  C    1.711530
     7  C   -0.390705
     8  C   -0.307731
     9  C   -0.094018
    10  C   -1.131466
    11  H   -0.237685
    12  H   -0.246533
    13  H   -0.241767
    14  H   -0.369114
    15  H   -0.390051
    16  H    0.093103
    17  H    0.194813
    18  H    0.166118
    19  H    0.215046
    20  H    0.118397
    21  H    0.140870
    22  H    0.168619
    23  H    0.113280
    24  H   -0.008508
 Sum of Mulliken charges =  -0.00000

 Dipole moment (field-independent basis, Debye):
    X=             -0.3683    Y=              0.0367    Z=              0.0385  Tot=              0.3721

 Test job not archived.
 1\1\GINC-SE041\SP\RHF\Aug-CC-pVDZ\C10H14\OHZDE\05-Apr-2025\0\\#t hf au
 g-cc-pvdz iop(5/13=1,5/36=2,99/5=2) pseudo=read geom=check guess=(read
 ,tcheck) scf=(maxcycle=1)\\title\\0,1\C,0,2.857988,-0.186371,-0.233131
 \C,0,2.053766,0.384179,-1.214486\C,0,2.290498,-0.563987,0.976902\C,0,0
 .697008,0.573868,-0.984913\C,0,0.93068,-0.371454,1.200202\C,0,0.110355
 ,0.19921,0.227134\C,0,-2.106231,-1.897819,-0.384502\C,0,-1.735472,1.90
 608,0.469313\C,0,-2.268736,-0.382193,-0.478594\C,0,-1.37068,0.413775,0
 .488686\H,0,3.91463,-0.333895,-0.41125\H,0,2.484835,0.682992,-2.161028

 Normal termination of Gaussian 16 at Sat Apr  5 23:17:34 2025.
