 Gaussian 16, Revision C.01,

 ----------------------------------------------------------------------
 #t hf aug-cc-pvdz symm=none int=(grid=ultrafine) guess=(read,tcheck) s
 table=(opt,rrhf)
 ----------------------------------------------------------------------
 -----
 title
 -----
 Symbolic Z-matrix:
 Charge =  0 Multiplicity = 1

 SCF Done:  E(RHF) =  -396.792676285     A.U. after   14 cycles
 Normal termination of Gaussian 16 at Sat Apr  5 23:14:53 2025.
 Gaussian 16:  ES64L-G16RevC.01  3-Jul-2019

 ----------------------------------------------------------------------
 #t hf aug-cc-pvdz iop(5/13=1,5/36=2,99/5=2) pseudo=read geom=check gue
 ss=(read,tcheck) scf=(maxcycle=1)
 ----------------------------------------------------------------------
 -----
 title
 -----
 Structure from the checkpoint file:  "serine.chk"
 Charge =  0 Multiplicity = 1

                         Standard orientation:
 ---------------------------------------------------------------------
 Center     Atomic      Atomic             Coordinates (Angstroms)
 Number     Number       Type             X           Y           Z
 ---------------------------------------------------------------------
      1          7           0       -0.177991    1.757044   -0.045284
      2          6           0       -0.174557    0.454696    0.630245
      3          6           0        1.009523   -0.385808    0.110632
      4          8           0        1.076352   -1.580041    0.246542
      5          8           0        1.963473    0.331956   -0.488889
      6          1           0        1.615569    1.250303   -0.522903
      7          6           0       -1.479889   -0.332217    0.505893
      8          8           0       -1.818406   -0.558856   -0.858546
      9          1           0        0.029220    0.618593    1.692314
     10          1           0       -2.295702    0.252625    0.931383
     11          1           0       -1.398556   -1.270636    1.055345
     12          1           0       -1.310349   -1.313636   -1.174889
     13          1           0       -0.748545    1.709812   -0.883078
     14          1           0       -0.547515    2.489126    0.545335
 ---------------------------------------------------------------------

 SCF Done:  E(RHF) =  -397.193944755     A.U. after    2 cycles

 The electronic state is 1-A.
 Alpha  occ. eigenvalues --  -20.59106 -20.56568 -20.53388 -15.52732 -11.39167
 Alpha  occ. eigenvalues --  -11.30496 -11.30296  -1.54187  -1.46579  -1.45364
 Alpha  occ. eigenvalues --   -1.22506  -1.02954  -0.90942  -0.81565  -0.76508
 Alpha  occ. eigenvalues --   -0.73174  -0.71209  -0.68026  -0.65294  -0.63606
 Alpha  occ. eigenvalues --   -0.61670  -0.58566  -0.55677  -0.51843  -0.50801
 Alpha  occ. eigenvalues --   -0.46840  -0.46286  -0.43050
 Alpha virt. eigenvalues --    0.02442   0.04005   0.04609   0.04950   0.06390
 Alpha virt. eigenvalues --    0.06694   0.07068   0.09806   0.10697   0.12198
 Alpha virt. eigenvalues --    0.13770   0.14089   0.14767   0.15238   0.15639

 Mulliken charges:
               1
     1  N    0.297259
     2  C   -1.918458
     3  C    2.406180
     4  O   -1.298927
     5  O   -1.295647
     6  H    0.465710
     7  C    1.091325
     8  O   -1.110049
     9  H    0.273684
    10  H    0.042636
    11  H    0.159188
    12  H    0.305496
    13  H    0.293167
    14  H    0.288435
 Sum of Mulliken charges =  -0.00000

 Dipole moment (field-independent basis, Debye):
    X=             -2.3557    Y=              3.2719    Z=              1.4645  Tot=              4.2895

 Test job not archived.
 1\1\GINC-SE052\SP\RHF\Aug-CC-pVDZ\C3H7N1O3\OHZDE\05-Apr-2025\0\\#t hf
 aug-cc-pvdz iop(5/13=1,5/36=2,99/5=2) pseudo=read geom=check guess=(re
 ad,tcheck) scf=(maxcycle=1)\\title\\0,1\N,0,-0.177991,1.757044,-0.0452
 84\C,0,-0.174557,0.454696,0.630245\C,0,1.009523,-0.385808,0.110632\O,0
 ,1.076352,-1.580041,0.246542\O,0,1.963473,0.331956,-0.488889\H,0,1.615
 569,1.250303,-0.522903\C,0,-1.479889,-0.332217,0.505893\O,0,-1.818406,
 -0.558856,-0.858546\H,0,0.02922,0.618593,1.692314\H,0,-2.295702,0.2526
 25,0.931383\H,0,-1.398556,-1.270636,1.055345\H,0,-1.310349,-1.313636,-

 Normal termination of Gaussian 16 at Sat Apr  5 23:15:58 2025.
