 Gaussian 16, Revision C.01,

 ----------------------------------------------------------------------
 #t hf aug-cc-pvdz symm=none int=(grid=ultrafine) guess=(read,tcheck) s
 table=(opt,rrhf)
 ----------------------------------------------------------------------
 -----
 title
 -----
 Symbolic Z-matrix:
 Charge =  0 Multiplicity = 1

 SCF Done:  E(RHF) =  -345.428137970     A.U. after   12 cycles
 Normal termination of Gaussian 16 at Sat Apr  5 23:15:22 2025.
 Gaussian 16:  ES64L-G16RevC.01  3-Jul-2019

 ----------------------------------------------------------------------
 #t hf aug-cc-pvdz iop(5/13=1,5/36=2,99/5=2) pseudo=read geom=check gue
 ss=(read,tcheck) scf=(maxcycle=1)
 ----------------------------------------------------------------------
 -----
 title
 -----
 Structure from the checkpoint file:  "spiro4-4nona-1-3-6-8-tetraene.chk"
 Charge =  0 Multiplicity = 1

                         Standard orientation:
 ---------------------------------------------------------------------
 Center     Atomic      Atomic             Coordinates (Angstroms)
 Number     Number       Type             X           Y           Z
 ---------------------------------------------------------------------
      1          6           0        0.000000    0.000000    0.000000
      2          6           0        0.000000    1.177445    0.958848
      3          6           0       -0.000000   -1.177445    0.958848
      4          6           0        1.177445   -0.000000   -0.958848
      5          6           0       -1.177445    0.000000   -0.958848
      6          6           0        0.000000    0.734608    2.223211
      7          6           0       -0.000000   -0.734608    2.223211
      8          6           0        0.734608    0.000000   -2.223211
      9          6           0       -0.734608    0.000000   -2.223211
     10          1           0        0.000000    2.201549    0.620322
     11          1           0       -0.000000   -2.201549    0.620322
     12          1           0        2.201549   -0.000000   -0.620322
     13          1           0       -2.201549    0.000000   -0.620322
     14          1           0        0.000000    1.348828    3.111832
     15          1           0       -0.000000   -1.348828    3.111832
     16          1           0        1.348828   -0.000000   -3.111832
     17          1           0       -1.348828    0.000000   -3.111832
 ---------------------------------------------------------------------

 SCF Done:  E(RHF) =  -345.787495476     A.U. after    2 cycles

 The electronic state is 1-A1.
 Alpha  occ. eigenvalues --  -11.25132 -11.23917 -11.23902 -11.23902 -11.23894
 Alpha  occ. eigenvalues --  -11.23796 -11.23794 -11.23785 -11.23785  -1.18637
 Alpha  occ. eigenvalues --   -1.12175  -0.97241  -0.97241  -0.95889  -0.81535
 Alpha  occ. eigenvalues --   -0.74453  -0.74453  -0.73756  -0.71860  -0.67534
 Alpha  occ. eigenvalues --   -0.57967  -0.57967  -0.54635  -0.54457  -0.54457
 Alpha  occ. eigenvalues --   -0.53395  -0.49851  -0.42812  -0.42812  -0.34963
 Alpha  occ. eigenvalues --   -0.29579
 Alpha virt. eigenvalues --    0.03433   0.03704   0.04008   0.04008   0.05019
 Alpha virt. eigenvalues --    0.05663   0.05893   0.05893   0.08854   0.08854
 Alpha virt. eigenvalues --    0.11663   0.12300   0.12300   0.12662   0.13219

 Mulliken charges:
               1
     1  C   -0.447572
     2  C    0.337888
     3  C    0.337888
     4  C    0.337888
     5  C    0.337888
     6  C    0.125644
     7  C    0.125644
     8  C    0.125644
     9  C    0.125644
    10  H   -0.222149
    11  H   -0.222149
    12  H   -0.222149
    13  H   -0.222149
    14  H   -0.129490
    15  H   -0.129490
    16  H   -0.129490
    17  H   -0.129490
 Sum of Mulliken charges =  -0.00000

 Dipole moment (field-independent basis, Debye):
    X=              0.0000    Y=              0.0000    Z=              0.0000  Tot=              0.0000

 Test job not archived.
 1\1\GINC-SE052\SP\RHF\Aug-CC-pVDZ\C9H8\OHZDE\05-Apr-2025\0\\#t hf aug-
 cc-pvdz iop(5/13=1,5/36=2,99/5=2) pseudo=read geom=check guess=(read,t
 check) scf=(maxcycle=1)\\title\\0,1\C,0,0.,0.,0.\C,0,0.,1.177445,0.958
 848\C,0,0.,-1.177445,0.958848\C,0,1.177445,0.,-0.958848\C,0,-1.177445,
 0.,-0.958848\C,0,0.,0.734608,2.223211\C,0,0.,-0.734608,2.223211\C,0,0.
 734608,0.,-2.223211\C,0,-0.734608,0.,-2.223211\H,0,0.,2.201549,0.62032
 2\H,0,0.,-2.201549,0.620322\H,0,2.201549,0.,-0.620322\H,0,-2.201549,0.
 ,-0.620322\H,0,0.,1.348828,3.111832\H,0,0.,-1.348828,3.111832\H,0,1.34

 Normal termination of Gaussian 16 at Sat Apr  5 23:15:59 2025.
