 Gaussian 16, Revision C.01,

 ----------------------------------------------------------------------
 #t hf aug-cc-pvdz symm=none int=(grid=ultrafine) guess=(read,tcheck) s
 table=(opt,rrhf)
 ----------------------------------------------------------------------
 -----
 title
 -----
 Symbolic Z-matrix:
 Charge =  0 Multiplicity = 1

 SCF Done:  E(RHF) =  -193.936798254     A.U. after   11 cycles
 Normal termination of Gaussian 16 at Sat Apr  5 23:14:36 2025.
 Gaussian 16:  ES64L-G16RevC.01  3-Jul-2019

 ----------------------------------------------------------------------
 #t hf aug-cc-pvdz iop(5/13=1,5/36=2,99/5=2) pseudo=read geom=check gue
 ss=(read,tcheck) scf=(maxcycle=1)
 ----------------------------------------------------------------------
 -----
 title
 -----
 Structure from the checkpoint file:  "spiropentane.chk"
 Charge =  0 Multiplicity = 1

                         Standard orientation:
 ---------------------------------------------------------------------
 Center     Atomic      Atomic             Coordinates (Angstroms)
 Number     Number       Type             X           Y           Z
 ---------------------------------------------------------------------
      1          6           0        0.000000    0.000000    0.000000
      2          6           0        0.000000    0.763303    1.266524
      3          6           0       -0.000000   -0.763303    1.266524
      4          6           0       -0.763303    0.000000   -1.266524
      5          6           0        0.763303   -0.000000   -1.266524
      6          1           0        0.910461    1.264133    1.569347
      7          1           0       -0.910461    1.264133    1.569347
      8          1           0       -0.910461   -1.264133    1.569347
      9          1           0        0.910461   -1.264133    1.569347
     10          1           0       -1.264133   -0.910461   -1.569347
     11          1           0       -1.264133    0.910461   -1.569347
     12          1           0        1.264133    0.910461   -1.569347
     13          1           0        1.264133   -0.910461   -1.569347
 ---------------------------------------------------------------------

 SCF Done:  E(RHF) =  -194.150569314     A.U. after    2 cycles

 The electronic state is 1-A1.
 Alpha  occ. eigenvalues --  -11.23827 -11.23142 -11.23133 -11.23113 -11.23113
 Alpha  occ. eigenvalues --   -1.17312  -1.06587  -0.82698  -0.82698  -0.74755
 Alpha  occ. eigenvalues --   -0.66717  -0.64579  -0.64579  -0.52757  -0.51217
 Alpha  occ. eigenvalues --   -0.49630  -0.42182  -0.42182  -0.39637
 Alpha virt. eigenvalues --    0.04128   0.04169   0.04169   0.04192   0.06358
 Alpha virt. eigenvalues --    0.06358   0.06477   0.09280   0.09557   0.11600
 Alpha virt. eigenvalues --    0.13859   0.13859   0.14683   0.15493   0.15925

 Mulliken charges:
               1
     1  C    0.591008
     2  C   -0.019280
     3  C   -0.019280
     4  C   -0.019280
     5  C   -0.019280
     6  H   -0.064236
     7  H   -0.064236
     8  H   -0.064236
     9  H   -0.064236
    10  H   -0.064236
    11  H   -0.064236
    12  H   -0.064236
    13  H   -0.064236
 Sum of Mulliken charges =  -0.00000

 Dipole moment (field-independent basis, Debye):
    X=             -0.0000    Y=              0.0000    Z=             -0.0000  Tot=              0.0000

 Test job not archived.
 1\1\GINC-SE175\SP\RHF\Aug-CC-pVDZ\C5H8\OHZDE\05-Apr-2025\0\\#t hf aug-
 cc-pvdz iop(5/13=1,5/36=2,99/5=2) pseudo=read geom=check guess=(read,t
 check) scf=(maxcycle=1)\\title\\0,1\C,0,0.,0.,0.\C,0,0.,0.763303,1.266
 524\C,0,0.,-0.763303,1.266524\C,0,-0.763303,0.,-1.266524\C,0,0.763303,
 0.,-1.266524\H,0,0.910461,1.264133,1.569347\H,0,-0.910461,1.264133,1.5
 69347\H,0,-0.910461,-1.264133,1.569347\H,0,0.910461,-1.264133,1.569347
 \H,0,-1.264133,-0.910461,-1.569347\H,0,-1.264133,0.910461,-1.569347\H,
 0,1.264133,0.910461,-1.569347\H,0,1.264133,-0.910461,-1.569347\\Versio

 Normal termination of Gaussian 16 at Sat Apr  5 23:15:56 2025.
