 Gaussian 16, Revision C.01,

 ----------------------------------------------------------------------
 #t hf aug-cc-pvdz symm=none int=(grid=ultrafine) guess=(read,tcheck) s
 table=(opt,rrhf)
 ----------------------------------------------------------------------
 -----
 title
 -----
 Symbolic Z-matrix:
 Charge =  0 Multiplicity = 1

 SCF Done:  E(RHF) =  -307.619562935     A.U. after   15 cycles
 Normal termination of Gaussian 16 at Sat Apr  5 23:15:09 2025.
 Gaussian 16:  ES64L-G16RevC.01  3-Jul-2019

 ----------------------------------------------------------------------
 #t hf aug-cc-pvdz iop(5/13=1,5/36=2,99/5=2) pseudo=read geom=check gue
 ss=(read,tcheck) scf=(maxcycle=1)
 ----------------------------------------------------------------------
 -----
 title
 -----
 Structure from the checkpoint file:  "styrene.chk"
 Charge =  0 Multiplicity = 1

                         Standard orientation:
 ---------------------------------------------------------------------
 Center     Atomic      Atomic             Coordinates (Angstroms)
 Number     Number       Type             X           Y           Z
 ---------------------------------------------------------------------
      1          6           0        0.646281   -2.178017    0.000000
      2          6           0        1.654479   -1.222905    0.000000
      3          6           0       -0.685207   -1.768319    0.000000
      4          6           0        1.332018    0.128421    0.000000
      5          6           0       -1.004470   -0.419868    0.000000
      6          6           0        0.000000    0.557656    0.000000
      7          6           0       -1.470206    2.598351    0.000000
      8          6           0       -0.279787    1.999196    0.000000
      9          1           0        0.891660   -3.231362    0.000000
     10          1           0        2.692244   -1.528409    0.000000
     11          1           0       -1.476757   -2.505897    0.000000
     12          1           0        2.123019    0.867889    0.000000
     13          1           0       -2.044665   -0.124640    0.000000
     14          1           0       -1.545935    3.676443    0.000000
     15          1           0       -2.403023    2.050610    0.000000
     16          1           0        0.604810    2.628272    0.000000
 ---------------------------------------------------------------------

 SCF Done:  E(RHF) =  -307.940816695     A.U. after    2 cycles

 The electronic state is 1-A'.
 Alpha  occ. eigenvalues --  -11.25055 -11.24818 -11.24399 -11.24361 -11.24266
 Alpha  occ. eigenvalues --  -11.24254 -11.24219 -11.23764  -1.16333  -1.07442
 Alpha  occ. eigenvalues --   -1.02036  -0.99422  -0.86056  -0.83668  -0.77612
 Alpha  occ. eigenvalues --   -0.71390  -0.66856  -0.64708  -0.62316  -0.60080
 Alpha  occ. eigenvalues --   -0.59413  -0.53750  -0.52377  -0.50765  -0.49845
 Alpha  occ. eigenvalues --   -0.42014  -0.34900  -0.31506
 Alpha virt. eigenvalues --    0.03399   0.03534   0.03739   0.04855   0.04948
 Alpha virt. eigenvalues --    0.06947   0.07268   0.07846   0.09698   0.09925
 Alpha virt. eigenvalues --    0.10970   0.11253   0.12620   0.12870   0.13665

 Mulliken charges:
               1
     1  C   -0.160270
     2  C    0.134873
     3  C   -0.198870
     4  C    0.049205
     5  C    0.295475
     6  C    1.508294
     7  C   -0.136729
     8  C    0.385202
     9  H   -0.225985
    10  H   -0.238528
    11  H   -0.248287
    12  H   -0.305776
    13  H   -0.273392
    14  H   -0.208182
    15  H   -0.103453
    16  H   -0.273577
 Sum of Mulliken charges =  -0.00000

 Dipole moment (field-independent basis, Debye):
    X=              0.0558    Y=             -0.1547    Z=              0.0000  Tot=              0.1645

 Test job not archived.
 1\1\GINC-SE177\SP\RHF\Aug-CC-pVDZ\C8H8\OHZDE\05-Apr-2025\0\\#t hf aug-
 cc-pvdz iop(5/13=1,5/36=2,99/5=2) pseudo=read geom=check guess=(read,t
 check) scf=(maxcycle=1)\\title\\0,1\C,0,0.646281,-2.178017,0.\C,0,1.65
 4479,-1.222905,0.\C,0,-0.685207,-1.768319,0.\C,0,1.332018,0.128421,0.\
 C,0,-1.00447,-0.419868,0.\C,0,0.,0.557656,0.\C,0,-1.470206,2.598351,0.
 \C,0,-0.279787,1.999196,0.\H,0,0.89166,-3.231362,0.\H,0,2.692244,-1.52
 8409,0.\H,0,-1.476757,-2.505897,0.\H,0,2.123019,0.867889,0.\H,0,-2.044
 665,-0.12464,0.\H,0,-1.545935,3.676443,0.\H,0,-2.403023,2.05061,0.\H,0

 Normal termination of Gaussian 16 at Sat Apr  5 23:16:00 2025.
