 Gaussian 16, Revision C.01,

 ----------------------------------------------------------------------
 #t hf aug-cc-pvdz symm=none int=(grid=ultrafine) guess=(read,tcheck) s
 table=(opt,rrhf)
 ----------------------------------------------------------------------
 -----
 title
 -----
 Symbolic Z-matrix:
 Charge =  0 Multiplicity = 1

 SCF Done:  E(RHF) =  -262.721320498     A.U. after   13 cycles
 Normal termination of Gaussian 16 at Sat Apr  5 23:14:31 2025.
 Gaussian 16:  ES64L-G16RevC.01  3-Jul-2019

 ----------------------------------------------------------------------
 #t hf aug-cc-pvdz iop(5/13=1,5/36=2,99/5=2) pseudo=read geom=check gue
 ss=(read,tcheck) scf=(maxcycle=1)
 ----------------------------------------------------------------------
 -----
 title
 -----
 Structure from the checkpoint file:  "succinonitrile.chk"
 Charge =  0 Multiplicity = 1

                         Standard orientation:
 ---------------------------------------------------------------------
 Center     Atomic      Atomic             Coordinates (Angstroms)
 Number     Number       Type             X           Y           Z
 ---------------------------------------------------------------------
      1          6           0        0.422954    0.646920    0.000000
      2          6           0       -0.422954   -0.646920    0.000000
      3          6           0       -0.422954    1.834859    0.000000
      4          6           0        0.422954   -1.834859    0.000000
      5          7           0        1.107673   -2.757950    0.000000
      6          7           0       -1.107673    2.757950    0.000000
      7          1           0        1.069525    0.672423    0.877634
      8          1           0        1.069525    0.672423   -0.877634
      9          1           0       -1.069525   -0.672423    0.877634
     10          1           0       -1.069525   -0.672423   -0.877634
 ---------------------------------------------------------------------

 SCF Done:  E(RHF) =  -262.982635529     A.U. after    2 cycles

 The electronic state is 1-AG.
 Alpha  occ. eigenvalues --  -15.53518 -15.53518 -11.32863 -11.32838 -11.30273
 Alpha  occ. eigenvalues --  -11.30269  -1.26092  -1.25604  -1.14002  -0.99319
 Alpha  occ. eigenvalues --   -0.76826  -0.71651  -0.71109  -0.63943  -0.62749
 Alpha  occ. eigenvalues --   -0.61545  -0.61227  -0.53318  -0.51954  -0.51256
 Alpha  occ. eigenvalues --   -0.50743
 Alpha virt. eigenvalues --    0.02646   0.03637   0.03900   0.05371   0.05788
 Alpha virt. eigenvalues --    0.09415   0.09946   0.10937   0.11132   0.11143
 Alpha virt. eigenvalues --    0.12393   0.13481   0.14237   0.14655   0.15523

 Mulliken charges:
               1
     1  C    0.203512
     2  C    0.203512
     3  C   -1.600349
     4  C   -1.600349
     5  N    0.937146
     6  N    0.937146
     7  H    0.229845
     8  H    0.229845
     9  H    0.229845
    10  H    0.229845
 Sum of Mulliken charges =  -0.00000

 Dipole moment (field-independent basis, Debye):
    X=             -0.0000    Y=             -0.0000    Z=             -0.0000  Tot=              0.0000

 Test job not archived.
 1\1\GINC-SE180\SP\RHF\Aug-CC-pVDZ\C4H4N2\OHZDE\05-Apr-2025\0\\#t hf au
 g-cc-pvdz iop(5/13=1,5/36=2,99/5=2) pseudo=read geom=check guess=(read
 ,tcheck) scf=(maxcycle=1)\\title\\0,1\C,0,0.422954,0.64692,0.\C,0,-0.4
 22954,-0.64692,0.\C,0,-0.422954,1.834859,0.\C,0,0.422954,-1.834859,0.\
 N,0,1.107673,-2.75795,0.\N,0,-1.107673,2.75795,0.\H,0,1.069525,0.67242
 3,0.877634\H,0,1.069525,0.672423,-0.877634\H,0,-1.069525,-0.672423,0.8
 77634\H,0,-1.069525,-0.672423,-0.877634\\Version=ES64L-G16RevC.01\Stat
 e=1-AG\HF=-262.9826355\RMSD=3.051e-02\Dipole=0.,0.,0.\Quadrupole=4.288

 Normal termination of Gaussian 16 at Sat Apr  5 23:15:55 2025.
