 Gaussian 16, Revision C.01,

 ----------------------------------------------------------------------
 #t hf aug-cc-pvdz symm=none int=(grid=ultrafine) guess=(read,tcheck) s
 table=(opt,rrhf)
 ----------------------------------------------------------------------
 -----
 title
 -----
 Symbolic Z-matrix:
 Charge =  0 Multiplicity = 1

 SCF Done:  E(RHF) =  -454.534732395     A.U. after   13 cycles
 Normal termination of Gaussian 16 at Sat Apr  5 23:14:58 2025.
 Gaussian 16:  ES64L-G16RevC.01  3-Jul-2019

 ----------------------------------------------------------------------
 #t hf aug-cc-pvdz iop(5/13=1,5/36=2,99/5=2) pseudo=read geom=check gue
 ss=(read,tcheck) scf=(maxcycle=1)
 ----------------------------------------------------------------------
 -----
 title
 -----
 Structure from the checkpoint file:  "succinic_acid.chk"
 Charge =  0 Multiplicity = 1

                         Standard orientation:
 ---------------------------------------------------------------------
 Center     Atomic      Atomic             Coordinates (Angstroms)
 Number     Number       Type             X           Y           Z
 ---------------------------------------------------------------------
      1          8           0       -2.569105   -0.409889   -0.572480
      2          6           0       -1.603311   -0.035392    0.038272
      3          6           0       -0.692304    1.087981   -0.403001
      4          6           0        0.695435    1.135208    0.232886
      5          6           0        1.604629   -0.043381   -0.033539
      6          8           0        2.579645   -0.312785    0.616746
      7          8           0        1.230271   -0.763568   -1.119024
      8          8           0       -1.243334   -0.568197    1.231448
      9          1           0       -1.222247    2.014615   -0.166974
     10          1           0       -0.636885    1.034304   -1.487924
     11          1           0        0.640007    1.245840    1.313535
     12          1           0        1.226901    2.014895   -0.139503
     13          1           0        1.873901   -1.480386   -1.220794
     14          1           0       -1.888183   -1.260241    1.440431
 ---------------------------------------------------------------------

 SCF Done:  E(RHF) =  -454.984748887     A.U. after    2 cycles

 The electronic state is 1-A.
 Alpha  occ. eigenvalues --  -20.61157 -20.61148 -20.54508 -20.54502 -11.40517
 Alpha  occ. eigenvalues --  -11.40507 -11.27417 -11.27392  -1.55897  -1.55648
 Alpha  occ. eigenvalues --   -1.46177  -1.46125  -1.10786  -0.97630  -0.85157
 Alpha  occ. eigenvalues --   -0.82449  -0.72167  -0.72023  -0.71505  -0.67075
 Alpha  occ. eigenvalues --   -0.66165  -0.65228  -0.59931  -0.59780  -0.57674
 Alpha  occ. eigenvalues --   -0.56970  -0.54627  -0.48569  -0.48078  -0.45128
 Alpha  occ. eigenvalues --   -0.44888
 Alpha virt. eigenvalues --    0.03155   0.03739   0.03918   0.05197   0.05564
 Alpha virt. eigenvalues --    0.07071   0.09554   0.09762   0.10675   0.13066
 Alpha virt. eigenvalues --    0.13396   0.14068   0.14834   0.15185   0.15206

 Mulliken charges:
               1
     1  O   -1.259310
     2  C    2.091954
     3  C   -0.483406
     4  C   -0.483518
     5  C    2.087343
     6  O   -1.260233
     7  O   -1.244149
     8  O   -1.245912
     9  H    0.267370
    10  H    0.244328
    11  H    0.247177
    12  H    0.266215
    13  H    0.386338
    14  H    0.385805
 Sum of Mulliken charges =  -0.00000

 Dipole moment (field-independent basis, Debye):
    X=             -0.0148    Y=              0.9496    Z=             -0.0575  Tot=              0.9515

 Test job not archived.
 1\1\GINC-SE180\SP\RHF\Aug-CC-pVDZ\C4H6O4\OHZDE\05-Apr-2025\0\\#t hf au
 g-cc-pvdz iop(5/13=1,5/36=2,99/5=2) pseudo=read geom=check guess=(read
 ,tcheck) scf=(maxcycle=1)\\title\\0,1\O,0,-2.569105,-0.409889,-0.57248
 \C,0,-1.603311,-0.035392,0.038272\C,0,-0.692304,1.087981,-0.403001\C,0
 ,0.695435,1.135208,0.232886\C,0,1.604629,-0.043381,-0.033539\O,0,2.579
 645,-0.312785,0.616746\O,0,1.230271,-0.763568,-1.119024\O,0,-1.243334,
 -0.568197,1.231448\H,0,-1.222247,2.014615,-0.166974\H,0,-0.636885,1.03
 4304,-1.487924\H,0,0.640007,1.24584,1.313535\H,0,1.226901,2.014895,-0.

 Normal termination of Gaussian 16 at Sat Apr  5 23:16:03 2025.
