 Gaussian 16, Revision C.01,

 ----------------------------------------------------------------------
 #t hf aug-cc-pvdz symm=none int=(grid=ultrafine) guess=(read,tcheck) s
 table=(opt,rrhf)
 ----------------------------------------------------------------------
 -----
 title
 -----
 Symbolic Z-matrix:
 Charge =  0 Multiplicity = 1

 SCF Done:  E(RHF) =  -549.223503970     A.U. after   14 cycles
 Normal termination of Gaussian 16 at Sat Apr  5 23:14:21 2025.
 Gaussian 16:  ES64L-G16RevC.01  3-Jul-2019

 ----------------------------------------------------------------------
 #t hf aug-cc-pvdz iop(5/13=1,5/36=2,99/5=2) pseudo=read geom=check gue
 ss=(read,tcheck) scf=(maxcycle=1)
 ----------------------------------------------------------------------
 -----
 title
 -----
 Structure from the checkpoint file:  "sulfanylacetylenol.chk"
 Charge =  0 Multiplicity = 1

                         Standard orientation:
 ---------------------------------------------------------------------
 Center     Atomic      Atomic             Coordinates (Angstroms)
 Number     Number       Type             X           Y           Z
 ---------------------------------------------------------------------
      1         16           0       -1.717687   -0.094549    0.004331
      2          8           0        2.473344   -0.005347   -0.104993
      3          6           0       -0.032037    0.049767   -0.007089
      4          6           0        1.170348    0.011478    0.003985
      5          1           0       -2.024932    1.220216    0.023363
      6          1           0        2.891302   -0.032124    0.765910
 ---------------------------------------------------------------------

 SCF Done:  E(RHF) =  -549.431968903     A.U. after    2 cycles

 The electronic state is 1-A.
 Alpha  occ. eigenvalues --  -93.98799 -20.63203 -11.31182 -11.25830  -8.26714
 Alpha  occ. eigenvalues --   -6.24595  -6.24416  -6.24184  -1.54446  -1.09674
 Alpha  occ. eigenvalues --   -0.99648  -0.82212  -0.67804  -0.65557  -0.62135
 Alpha  occ. eigenvalues --   -0.53932  -0.47841  -0.38318  -0.34902
 Alpha virt. eigenvalues --    0.02798   0.04254   0.07897   0.09482   0.09725
 Alpha virt. eigenvalues --    0.11785   0.12273   0.13939   0.15223   0.15654
 Alpha virt. eigenvalues --    0.17565   0.17765   0.18654   0.21371   0.23487

 Mulliken charges:
               1
     1  S   -0.022055
     2  O   -1.085898
     3  C    0.330793
     4  C    0.140162
     5  H    0.287938
     6  H    0.349061
 Sum of Mulliken charges =   0.00000

 Dipole moment (field-independent basis, Debye):
    X=              1.0845    Y=              0.8236    Z=              1.5190  Tot=              2.0401

 Test job not archived.
 1\1\GINC-SE225\SP\RHF\Aug-CC-pVDZ\C2H2O1S1\OHZDE\05-Apr-2025\0\\#t hf
 aug-cc-pvdz iop(5/13=1,5/36=2,99/5=2) pseudo=read geom=check guess=(re
 ad,tcheck) scf=(maxcycle=1)\\title\\0,1\S,0,-1.717687,-0.094549,0.0043
 31\O,0,2.473344,-0.005347,-0.104993\C,0,-0.032037,0.049767,-0.007089\C
 ,0,1.170348,0.011478,0.003985\H,0,-2.024932,1.220216,0.023363\H,0,2.89
 1302,-0.032124,0.76591\\Version=ES64L-G16RevC.01\State=1-A\HF=-549.431
 9689\RMSD=2.012e-02\Dipole=0.4266805,0.3240401,0.5976226\Quadrupole=3.
 5643773,-1.1297061,-2.4346711,-1.968798,3.7069411,-0.0131917\PG=C01 [X

 Normal termination of Gaussian 16 at Sat Apr  5 23:14:23 2025.
