 Gaussian 16, Revision C.01,

 ----------------------------------------------------------------------
 #t hf aug-cc-pvdz symm=none int=(grid=ultrafine) guess=(read,tcheck) s
 table=(opt,rrhf)
 ----------------------------------------------------------------------
 -----
 title
 -----
 Symbolic Z-matrix:
 Charge =  0 Multiplicity = 1

 SCF Done:  E(RHF) =  -700.197143337     A.U. after   14 cycles
 Normal termination of Gaussian 16 at Sat Apr  5 23:14:29 2025.
 Gaussian 16:  ES64L-G16RevC.01  3-Jul-2019

 ----------------------------------------------------------------------
 #t hf aug-cc-pvdz iop(5/13=1,5/36=2,99/5=2) pseudo=read geom=check gue
 ss=(read,tcheck) scf=(maxcycle=1)
 ----------------------------------------------------------------------
 -----
 title
 -----
 Structure from the checkpoint file:  "sulfanyl-2-hydroxyacetate.chk"
 Charge =  0 Multiplicity = 1

                         Standard orientation:
 ---------------------------------------------------------------------
 Center     Atomic      Atomic             Coordinates (Angstroms)
 Number     Number       Type             X           Y           Z
 ---------------------------------------------------------------------
      1         16           0        2.048400   -0.290055   -0.000004
      2          8           0        0.344735   -0.570900    0.000028
      3          8           0        0.114295    1.662368   -0.000031
      4          8           0       -2.201166   -1.044702   -0.000050
      5          6           0       -0.370001    0.558920    0.000004
      6          6           0       -1.869456    0.327817    0.000042
      7          1           0        2.266181   -1.618423    0.000025
      8          1           0       -3.158635   -1.130729   -0.000000
      9          1           0       -2.254090    0.847812   -0.883395
     10          1           0       -2.254023    0.847674    0.883591
 ---------------------------------------------------------------------

 SCF Done:  E(RHF) =  -700.552843948     A.U. after    2 cycles

 The electronic state is 1-A.
 Alpha  occ. eigenvalues --  -94.02418 -20.62215 -20.57404 -20.54613 -11.40561
 Alpha  occ. eigenvalues --  -11.32302  -8.29809  -6.27653  -6.27439  -6.27135
 Alpha  occ. eigenvalues --   -1.56230  -1.47574  -1.46352  -1.05033  -0.98263
 Alpha  occ. eigenvalues --   -0.79046  -0.73531  -0.71585  -0.69376  -0.66846
 Alpha  occ. eigenvalues --   -0.62549  -0.59925  -0.54608  -0.50858  -0.50678
 Alpha  occ. eigenvalues --   -0.46322  -0.45614  -0.38463
 Alpha virt. eigenvalues --    0.02965   0.04272   0.05223   0.05248   0.06793
 Alpha virt. eigenvalues --    0.09035   0.11318   0.12141   0.12564   0.14645
 Alpha virt. eigenvalues --    0.14786   0.15983   0.16243   0.16749   0.16762

 Mulliken charges:
               1
     1  S    0.334908
     2  O   -1.272516
     3  O   -1.222304
     4  O   -1.192985
     5  C    1.696334
     6  C    0.554842
     7  H    0.325013
     8  H    0.361695
     9  H    0.207499
    10  H    0.207513
 Sum of Mulliken charges =  -0.00000

 Dipole moment (field-independent basis, Debye):
    X=             -2.1566    Y=             -1.6385    Z=              0.0003  Tot=              2.7085

 Test job not archived.
 1\1\GINC-SE145\SP\RHF\Aug-CC-pVDZ\C2H4O3S1\OHZDE\05-Apr-2025\0\\#t hf
 aug-cc-pvdz iop(5/13=1,5/36=2,99/5=2) pseudo=read geom=check guess=(re
 ad,tcheck) scf=(maxcycle=1)\\title\\0,1\S,0,2.0484,-0.290055,-0.000004
 \O,0,0.344735,-0.5709,0.000028\O,0,0.114295,1.662368,-0.000031\O,0,-2.
 201166,-1.044702,-0.00005\C,0,-0.370001,0.55892,0.000004\C,0,-1.869456
 ,0.327817,0.000042\H,0,2.266181,-1.618423,0.000025\H,0,-3.158635,-1.13
 0729,0.\H,0,-2.25409,0.847812,-0.883395\H,0,-2.254023,0.847674,0.88359
 1\\Version=ES64L-G16RevC.01\State=1-A\HF=-700.5528439\RMSD=1.067e-02\D

 Normal termination of Gaussian 16 at Sat Apr  5 23:15:55 2025.
