 Gaussian 16, Revision C.01,

 ----------------------------------------------------------------------
 #t hf aug-cc-pvdz symm=none int=(grid=ultrafine) guess=(read,tcheck) s
 table=(opt,rrhf)
 ----------------------------------------------------------------------
 -----
 title
 -----
 Symbolic Z-matrix:
 Charge =  0 Multiplicity = 1

 SCF Done:  E(RHF) =  -926.988111746     A.U. after   14 cycles
 Normal termination of Gaussian 16 at Sat Apr  5 23:14:24 2025.
 Gaussian 16:  ES64L-G16RevC.01  3-Jul-2019

 ----------------------------------------------------------------------
 #t hf aug-cc-pvdz iop(5/13=1,5/36=2,99/5=2) pseudo=read geom=check gue
 ss=(read,tcheck) scf=(maxcycle=1)
 ----------------------------------------------------------------------
 -----
 title
 -----
 Structure from the checkpoint file:  "sulfanylmethylthiocyanate.chk"
 Charge =  0 Multiplicity = 1

                         Standard orientation:
 ---------------------------------------------------------------------
 Center     Atomic      Atomic             Coordinates (Angstroms)
 Number     Number       Type             X           Y           Z
 ---------------------------------------------------------------------
      1         16           0       -0.581423    0.778059   -0.046508
      2         16           0        2.290563   -0.099694   -0.028882
      3          7           0       -3.075461   -0.603242    0.072586
      4          6           0        0.575090   -0.674352   -0.075835
      5          6           0       -2.060382   -0.051436    0.023082
      6          1           0        2.304288    0.255860    1.269161
      7          1           0        0.444681   -1.205612   -1.013319
      8          1           0        0.344772   -1.326672    0.758810
 ---------------------------------------------------------------------

 SCF Done:  E(RHF) =  -927.235283494     A.U. after    2 cycles

 The electronic state is 1-A.
 Alpha  occ. eigenvalues --  -94.02112 -93.99230 -15.53126 -11.34590 -11.30976
 Alpha  occ. eigenvalues --   -8.30102  -8.27292  -6.27942  -6.27711  -6.27482
 Alpha  occ. eigenvalues --   -6.25140  -6.24991  -6.24757  -1.25058  -1.15295
 Alpha  occ. eigenvalues --   -1.05773  -0.90399  -0.71230  -0.68311  -0.61946
 Alpha  occ. eigenvalues --   -0.59809  -0.56313  -0.55279  -0.51749  -0.49060
 Alpha  occ. eigenvalues --   -0.41076  -0.40318
 Alpha virt. eigenvalues --    0.03027   0.03845   0.04933   0.06232   0.07285
 Alpha virt. eigenvalues --    0.08920   0.09720   0.10679   0.12152   0.12541
 Alpha virt. eigenvalues --    0.13638   0.14345   0.14517   0.15329   0.15875

 Mulliken charges:
               1
     1  S    0.777526
     2  S    0.126759
     3  N    0.649474
     4  C   -1.024060
     5  C   -1.377654
     6  H    0.349214
     7  H    0.284257
     8  H    0.214484
 Sum of Mulliken charges =  -0.00000

 Dipole moment (field-independent basis, Debye):
    X=              4.0274    Y=              0.2392    Z=              0.6197  Tot=              4.0818

 Test job not archived.
 1\1\GINC-SE046\SP\RHF\Aug-CC-pVDZ\C2H3N1S2\OHZDE\05-Apr-2025\0\\#t hf
 aug-cc-pvdz iop(5/13=1,5/36=2,99/5=2) pseudo=read geom=check guess=(re
 ad,tcheck) scf=(maxcycle=1)\\title\\0,1\S,0,-0.581423,0.778059,-0.0465
 08\S,0,2.290563,-0.099694,-0.028882\N,0,-3.075461,-0.603242,0.072586\C
 ,0,0.57509,-0.674352,-0.075835\C,0,-2.060382,-0.051436,0.023082\H,0,2.
 304288,0.25586,1.269161\H,0,0.444681,-1.205612,-1.013319\H,0,0.344772,
 -1.326672,0.75881\\Version=ES64L-G16RevC.01\State=1-A\HF=-927.2352835\
 RMSD=1.062e-02\Dipole=1.584495,0.0941177,0.2438179\Quadrupole=-8.19993

 Normal termination of Gaussian 16 at Sat Apr  5 23:15:56 2025.
