 Gaussian 16, Revision C.01,

 ----------------------------------------------------------------------
 #t hf aug-cc-pvdz symm=none int=(grid=ultrafine) guess=(read,tcheck) s
 table=(opt,rrhf)
 ----------------------------------------------------------------------
 -----
 title
 -----
 Symbolic Z-matrix:
 Charge =  0 Multiplicity = 1

 SCF Done:  E(RHF) =  -1009.40409580     A.U. after   14 cycles
 Normal termination of Gaussian 16 at Sat Apr  5 23:14:24 2025.
 Gaussian 16:  ES64L-G16RevC.01  3-Jul-2019

 ----------------------------------------------------------------------
 #t hf aug-cc-pvdz iop(5/13=1,5/36=2,99/5=2) pseudo=read geom=check gue
 ss=(read,tcheck) scf=(maxcycle=1)
 ----------------------------------------------------------------------
 -----
 title
 -----
 Structure from the checkpoint file:  "sulfanylacetyl_chloride.chk"
 Charge =  0 Multiplicity = 1

                         Standard orientation:
 ---------------------------------------------------------------------
 Center     Atomic      Atomic             Coordinates (Angstroms)
 Number     Number       Type             X           Y           Z
 ---------------------------------------------------------------------
      1         17           0        1.676546   -0.809324   -0.064042
      2         16           0       -1.948152   -0.418639   -0.243515
      3          8           0        0.873755    1.670610   -0.356742
      4          6           0        0.580777    0.624501    0.110504
      5          6           0       -0.682958    0.310390    0.867857
      6          1           0       -2.149817    0.689707   -0.979994
      7          1           0       -1.058018    1.227789    1.313361
      8          1           0       -0.499959   -0.434986    1.635345
 ---------------------------------------------------------------------

 SCF Done:  E(RHF) =  -1009.68923161     A.U. after    2 cycles

 The electronic state is 1-A.
 Alpha  occ. eigenvalues -- -105.58395 -93.98532 -20.59435 -11.43122 -11.31989
 Alpha  occ. eigenvalues --  -10.63258  -8.26553  -7.80180  -7.79807  -7.79792
 Alpha  occ. eigenvalues --   -6.24394  -6.24251  -6.24007  -1.54335  -1.13622
 Alpha  occ. eigenvalues --   -1.07603  -0.95634  -0.79139  -0.70648  -0.69540
 Alpha  occ. eigenvalues --   -0.63403  -0.62330  -0.56009  -0.50755  -0.48411
 Alpha  occ. eigenvalues --   -0.47873  -0.46259  -0.39718
 Alpha virt. eigenvalues --    0.03405   0.04243   0.05141   0.07027   0.08618
 Alpha virt. eigenvalues --    0.09619   0.10637   0.10851   0.12086   0.12956
 Alpha virt. eigenvalues --    0.14412   0.14698   0.15622   0.16622   0.17218

 Mulliken charges:
               1
     1  Cl  -0.077841
     2  S    0.059966
     3  O   -1.039767
     4  C    0.868835
     5  C   -0.645515
     6  H    0.354346
     7  H    0.183570
     8  H    0.296405
 Sum of Mulliken charges =  -0.00000

 Dipole moment (field-independent basis, Debye):
    X=             -1.7545    Y=              0.2105    Z=              1.5360  Tot=              2.3414

 Test job not archived.
 1\1\GINC-SE146\SP\RHF\Aug-CC-pVDZ\C2H3Cl1O1S1\OHZDE\05-Apr-2025\0\\#t
 hf aug-cc-pvdz iop(5/13=1,5/36=2,99/5=2) pseudo=read geom=check guess=
 (read,tcheck) scf=(maxcycle=1)\\title\\0,1\Cl,0,1.676546,-0.809324,-0.
 064042\S,0,-1.948152,-0.418639,-0.243515\O,0,0.873755,1.67061,-0.35674
 2\C,0,0.580777,0.624501,0.110504\C,0,-0.682958,0.31039,0.867857\H,0,-2
 .149817,0.689707,-0.979994\H,0,-1.058018,1.227789,1.313361\H,0,-0.4999
 59,-0.434986,1.635345\\Version=ES64L-G16RevC.01\State=1-A\HF=-1009.689
 2316\RMSD=7.469e-03\Dipole=-0.6902877,0.082835,0.6043021\Quadrupole=-1

 Normal termination of Gaussian 16 at Sat Apr  5 23:15:54 2025.
