 Gaussian 16, Revision C.01,

 ----------------------------------------------------------------------
 #t hf aug-cc-pvdz symm=none int=(grid=ultrafine) guess=(read,tcheck) s
 table=(opt,rrhf)
 ----------------------------------------------------------------------
 -----
 title
 -----
 Symbolic Z-matrix:
 Charge =  0 Multiplicity = 1

 SCF Done:  E(RHF) =  -309.855572164     A.U. after   12 cycles
 Normal termination of Gaussian 16 at Sat Apr  5 23:15:29 2025.
 Gaussian 16:  ES64L-G16RevC.01  3-Jul-2019

 ----------------------------------------------------------------------
 #t hf aug-cc-pvdz iop(5/13=1,5/36=2,99/5=2) pseudo=read geom=check gue
 ss=(read,tcheck) scf=(maxcycle=1)
 ----------------------------------------------------------------------
 -----
 title
 -----
 Structure from the checkpoint file:  "syn-tricyclo4-2-0-02-5octane.chk"
 Charge =  0 Multiplicity = 1

                         Standard orientation:
 ---------------------------------------------------------------------
 Center     Atomic      Atomic             Coordinates (Angstroms)
 Number     Number       Type             X           Y           Z
 ---------------------------------------------------------------------
      1          6           0       -0.780890    0.782120    0.714182
      2          6           0        0.780890    0.782120    0.714182
      3          6           0        0.780890   -0.782120    0.714182
      4          6           0       -0.780890   -0.782120    0.714182
      5          6           0       -1.552994    0.779426   -0.630946
      6          6           0       -1.552994   -0.779426   -0.630946
      7          1           0       -1.230266    1.359101    1.520382
      8          1           0       -1.230266   -1.359101    1.520382
      9          1           0       -1.058422    1.259186   -1.474246
     10          1           0       -2.550804    1.207825   -0.545553
     11          1           0       -2.550804   -1.207825   -0.545553
     12          1           0       -1.058422   -1.259186   -1.474246
     13          6           0        1.552994   -0.779426   -0.630946
     14          6           0        1.552994    0.779426   -0.630946
     15          1           0        1.230266    1.359101    1.520382
     16          1           0        1.230266   -1.359101    1.520382
     17          1           0        2.550804   -1.207825   -0.545553
     18          1           0        1.058422   -1.259186   -1.474246
     19          1           0        2.550804    1.207825   -0.545553
     20          1           0        1.058422    1.259186   -1.474246
 ---------------------------------------------------------------------

 SCF Done:  E(RHF) =  -310.192561450     A.U. after    2 cycles

 The electronic state is 1-A1.
 Alpha  occ. eigenvalues --  -11.22279 -11.22217 -11.22206 -11.22197 -11.22118
 Alpha  occ. eigenvalues --  -11.22082 -11.22077 -11.22065  -1.17476  -1.07210
 Alpha  occ. eigenvalues --   -0.95090  -0.92787  -0.85546  -0.81342  -0.77092
 Alpha  occ. eigenvalues --   -0.69825  -0.66631  -0.65578  -0.62099  -0.57919
 Alpha  occ. eigenvalues --   -0.57290  -0.55522  -0.51428  -0.48155  -0.48117
 Alpha  occ. eigenvalues --   -0.46014  -0.43153  -0.41497  -0.40692  -0.37776
 Alpha virt. eigenvalues --    0.03459   0.03478   0.03523   0.04205   0.05234
 Alpha virt. eigenvalues --    0.05702   0.05854   0.05891   0.08301   0.08780
 Alpha virt. eigenvalues --    0.09272   0.11272   0.11338   0.11932   0.14106

 Mulliken charges:
               1
     1  C    0.104861
     2  C    0.104861
     3  C    0.104861
     4  C    0.104861
     5  C    0.015361
     6  C    0.015361
     7  H   -0.160449
     8  H   -0.160449
     9  H    0.043871
    10  H   -0.003644
    11  H   -0.003644
    12  H    0.043871
    13  C    0.015361
    14  C    0.015361
    15  H   -0.160449
    16  H   -0.160449
    17  H   -0.003644
    18  H    0.043871
    19  H   -0.003644
    20  H    0.043871
 Sum of Mulliken charges =   0.00000

 Dipole moment (field-independent basis, Debye):
    X=             -0.0000    Y=              0.0000    Z=              0.1608  Tot=              0.1608

 Test job not archived.
 1\1\GINC-SE045\SP\RHF\Aug-CC-pVDZ\C8H12\OHZDE\05-Apr-2025\0\\#t hf aug
 -cc-pvdz iop(5/13=1,5/36=2,99/5=2) pseudo=read geom=check guess=(read,
 tcheck) scf=(maxcycle=1)\\title\\0,1\C,0,-0.78089,0.78212,0.714182\C,0
 ,0.78089,0.78212,0.714182\C,0,0.78089,-0.78212,0.714182\C,0,-0.78089,-
 0.78212,0.714182\C,0,-1.552994,0.779426,-0.630946\C,0,-1.552994,-0.779
 426,-0.630946\H,0,-1.230266,1.359101,1.520382\H,0,-1.230266,-1.359101,
 1.520382\H,0,-1.058422,1.259186,-1.474246\H,0,-2.550804,1.207825,-0.54
 5553\H,0,-2.550804,-1.207825,-0.545553\H,0,-1.058422,-1.259186,-1.4742

 Normal termination of Gaussian 16 at Sat Apr  5 23:16:04 2025.
