 Gaussian 16, Revision C.01,

 ----------------------------------------------------------------------
 #t hf aug-cc-pvdz symm=none int=(grid=ultrafine) guess=(read,tcheck) s
 table=(opt,rrhf)
 ----------------------------------------------------------------------
 -----
 title
 -----
 Symbolic Z-matrix:
 Charge =  0 Multiplicity = 1

 SCF Done:  E(RHF) =  -743.554935459     A.U. after   13 cycles
 Normal termination of Gaussian 16 at Sat Apr  5 23:15:40 2025.
 Gaussian 16:  ES64L-G16RevC.01  3-Jul-2019

 ----------------------------------------------------------------------
 #t hf aug-cc-pvdz iop(5/13=1,5/36=2,99/5=2) pseudo=read geom=check gue
 ss=(read,tcheck) scf=(maxcycle=1)
 ----------------------------------------------------------------------
 -----
 title
 -----
 Structure from the checkpoint file:  "t-butylmethylsulfone.chk"
 Charge =  0 Multiplicity = 1

                         Standard orientation:
 ---------------------------------------------------------------------
 Center     Atomic      Atomic             Coordinates (Angstroms)
 Number     Number       Type             X           Y           Z
 ---------------------------------------------------------------------
      1          6           0       -1.390811    0.856682   -1.268373
      2          6           0       -1.015837    0.089879   -0.000005
      3          6           0       -1.643181   -1.309663   -0.000111
      4          6           0       -1.390836    0.856501    1.268466
      5         16           0        0.822500   -0.225263   -0.000009
      6          6           0        1.634089    1.387915    0.000134
      7          8           0        1.168494   -0.878127    1.262513
      8          8           0        1.168524   -0.877920   -1.262630
      9          1           0       -1.046643    0.337279   -2.160653
     10          1           0       -2.477629    0.942210   -1.319652
     11          1           0       -0.985356    1.868581   -1.272654
     12          1           0       -1.352891   -1.874065    0.884264
     13          1           0       -2.728961   -1.202795   -0.000121
     14          1           0       -1.352864   -1.873940   -0.884557
     15          1           0       -0.985388    1.868403    1.272894
     16          1           0       -2.477655    0.942015    1.319740
     17          1           0       -1.046678    0.336974    2.160677
     18          1           0        2.695942    1.152116    0.000133
     19          1           0        1.370738    1.934035   -0.900315
     20          1           0        1.370707    1.933886    0.900664
 ---------------------------------------------------------------------

 SCF Done:  E(RHF) =  -743.984328746     A.U. after    2 cycles

 The electronic state is 1-A.
 Alpha  occ. eigenvalues --  -94.17316 -20.52262 -20.52258 -11.29823 -11.28369
 Alpha  occ. eigenvalues --  -11.25053 -11.25038 -11.24142  -8.42730  -6.40820
 Alpha  occ. eigenvalues --   -6.40611  -6.40543  -1.53250  -1.41578  -1.13910
 Alpha  occ. eigenvalues --   -1.04952  -0.96733  -0.96067  -0.89068  -0.76376
 Alpha  occ. eigenvalues --   -0.70014  -0.66587  -0.65578  -0.63746  -0.63569
 Alpha  occ. eigenvalues --   -0.60883  -0.59716  -0.57337  -0.57103  -0.55764
 Alpha  occ. eigenvalues --   -0.54746  -0.51059  -0.50997  -0.47591  -0.47032
 Alpha  occ. eigenvalues --   -0.44524  -0.41225
 Alpha virt. eigenvalues --    0.02771   0.03171   0.03759   0.04432   0.05722
 Alpha virt. eigenvalues --    0.05817   0.06275   0.07048   0.07474   0.09310
 Alpha virt. eigenvalues --    0.09415   0.09769   0.11748   0.12441   0.13465

 Mulliken charges:
               1
     1  C    0.067396
     2  C   -2.494827
     3  C    0.263648
     4  C    0.067398
     5  S    3.497686
     6  C   -0.705676
     7  O   -1.636284
     8  O   -1.636285
     9  H    0.232135
    10  H    0.221721
    11  H    0.135724
    12  H    0.224613
    13  H    0.190054
    14  H    0.224611
    15  H    0.135729
    16  H    0.221717
    17  H    0.232132
    18  H    0.240953
    19  H    0.258777
    20  H    0.258779
 Sum of Mulliken charges =  -0.00000

 Dipole moment (field-independent basis, Debye):
    X=             -2.8878    Y=              4.2826    Z=              0.0003  Tot=              5.1653

 Test job not archived.
 1\1\GINC-SE047\SP\RHF\Aug-CC-pVDZ\C5H12O2S1\OHZDE\05-Apr-2025\0\\#t hf
  aug-cc-pvdz iop(5/13=1,5/36=2,99/5=2) pseudo=read geom=check guess=(r
 ead,tcheck) scf=(maxcycle=1)\\title\\0,1\C,0,-1.390811,0.856682,-1.268
 373\C,0,-1.015837,0.089879,-0.000005\C,0,-1.643181,-1.309663,-0.000111
 \C,0,-1.390836,0.856501,1.268466\S,0,0.8225,-0.225263,-0.000009\C,0,1.
 634089,1.387915,0.000134\O,0,1.168494,-0.878127,1.262513\O,0,1.168524,
 -0.87792,-1.26263\H,0,-1.046643,0.337279,-2.160653\H,0,-2.477629,0.942
 211,-1.319652\H,0,-0.985355,1.868581,-1.272654\H,0,-1.352891,-1.874065

 Normal termination of Gaussian 16 at Sat Apr  5 23:16:04 2025.
