 Gaussian 16, Revision C.01,

 ----------------------------------------------------------------------
 #t hf aug-cc-pvdz symm=none int=(grid=ultrafine) guess=(read,tcheck) s
 table=(opt,rrhf)
 ----------------------------------------------------------------------
 -----
 title
 -----
 Symbolic Z-matrix:
 Charge =  0 Multiplicity = 1

 SCF Done:  E(RHF) =  -414.211459084     A.U. after   14 cycles
 Normal termination of Gaussian 16 at Sat Apr  5 23:15:16 2025.
 Gaussian 16:  ES64L-G16RevC.01  3-Jul-2019

 ----------------------------------------------------------------------
 #t hf aug-cc-pvdz iop(5/13=1,5/36=2,99/5=2) pseudo=read geom=check gue
 ss=(read,tcheck) scf=(maxcycle=1)
 ----------------------------------------------------------------------
 -----
 title
 -----
 Structure from the checkpoint file:  "terephthalonitrile.chk"
 Charge =  0 Multiplicity = 1

                         Standard orientation:
 ---------------------------------------------------------------------
 Center     Atomic      Atomic             Coordinates (Angstroms)
 Number     Number       Type             X           Y           Z
 ---------------------------------------------------------------------
      1          6           0        0.000000    0.000000    2.819994
      2          6           0        0.000000    0.000000   -2.819994
      3          6           0        0.000000    1.212111    0.691573
      4          6           0        0.000000    1.212111   -0.691573
      5          6           0       -0.000000   -1.212111    0.691573
      6          6           0       -0.000000   -1.212111   -0.691573
      7          6           0        0.000000    0.000000    1.390135
      8          6           0        0.000000    0.000000   -1.390135
      9          7           0        0.000000    0.000000    3.971955
     10          7           0        0.000000    0.000000   -3.971955
     11          1           0        0.000000    2.144546    1.236677
     12          1           0        0.000000    2.144546   -1.236677
     13          1           0       -0.000000   -2.144546    1.236677
     14          1           0       -0.000000   -2.144546   -1.236677
 ---------------------------------------------------------------------

 SCF Done:  E(RHF) =  -414.618144980     A.U. after    2 cycles

 The electronic state is 1-AG.
 Alpha  occ. eigenvalues --  -15.53755 -15.53727 -11.32618 -11.32581 -11.30347
 Alpha  occ. eigenvalues --  -11.30320 -11.30299 -11.30292 -11.30282 -11.30246
 Alpha  occ. eigenvalues --   -1.26184  -1.25724  -1.21859  -1.11046  -1.08145
 Alpha  occ. eigenvalues --   -0.95772  -0.90247  -0.80998  -0.80072  -0.72066
 Alpha  occ. eigenvalues --   -0.68067  -0.66058  -0.64498  -0.62550  -0.60411
 Alpha  occ. eigenvalues --   -0.59809  -0.57860  -0.56313  -0.52423  -0.52204
 Alpha  occ. eigenvalues --   -0.51416  -0.40341  -0.39773
 Alpha virt. eigenvalues --    0.00807   0.02503   0.02958   0.03901   0.05689
 Alpha virt. eigenvalues --    0.05924   0.07696   0.07769   0.08487   0.09241
 Alpha virt. eigenvalues --    0.10186   0.11229   0.11636   0.12486   0.12555

 Mulliken charges:
               1
     1  C   -3.340603
     2  C   -3.340603
     3  C    0.060141
     4  C    0.060141
     5  C    0.060141
     6  C    0.060141
     7  C    2.639353
     8  C    2.639353
     9  N    1.160529
    10  N    1.160529
    11  H   -0.289781
    12  H   -0.289781
    13  H   -0.289781
    14  H   -0.289781
 Sum of Mulliken charges =  -0.00000

 Dipole moment (field-independent basis, Debye):
    X=              0.0000    Y=             -0.0000    Z=             -0.0000  Tot=              0.0000

 Test job not archived.
 1\1\GINC-SE152\SP\RHF\Aug-CC-pVDZ\C8H4N2\OHZDE\05-Apr-2025\0\\#t hf au
 g-cc-pvdz iop(5/13=1,5/36=2,99/5=2) pseudo=read geom=check guess=(read
 ,tcheck) scf=(maxcycle=1)\\title\\0,1\C,0,0.,0.,2.819994\C,0,0.,0.,-2.
 819994\C,0,0.,1.212111,0.691573\C,0,0.,1.212111,-0.691573\C,0,0.,-1.21
 2111,0.691573\C,0,0.,-1.212111,-0.691573\C,0,0.,0.,1.390135\C,0,0.,0.,
 -1.390135\N,0,0.,0.,3.971955\N,0,0.,0.,-3.971955\H,0,0.,2.144546,1.236
 677\H,0,0.,2.144546,-1.236677\H,0,0.,-2.144546,1.236677\H,0,0.,-2.1445
 46,-1.236677\\Version=ES64L-G16RevC.01\State=1-AG\HF=-414.618145\RMSD=

 Normal termination of Gaussian 16 at Sat Apr  5 23:15:57 2025.
