 Gaussian 16, Revision C.01,

 ----------------------------------------------------------------------
 #t hf aug-cc-pvdz symm=none int=(grid=ultrafine) guess=(read,tcheck) s
 table=(opt,rrhf)
 ----------------------------------------------------------------------
 -----
 title
 -----
 Symbolic Z-matrix:
 Charge =  0 Multiplicity = 1

 SCF Done:  E(RHF) =  -386.878948571     A.U. after   14 cycles
 Normal termination of Gaussian 16 at Sat Apr  5 23:17:22 2025.
 Gaussian 16:  ES64L-G16RevC.01  3-Jul-2019

 ----------------------------------------------------------------------
 #t hf aug-cc-pvdz iop(5/13=1,5/36=2,99/5=2) pseudo=read geom=check gue
 ss=(read,tcheck) scf=(maxcycle=1)
 ----------------------------------------------------------------------
 -----
 title
 -----
 Structure from the checkpoint file:  "tertbutylbenzene.chk"
 Charge =  0 Multiplicity = 1

                         Standard orientation:
 ---------------------------------------------------------------------
 Center     Atomic      Atomic             Coordinates (Angstroms)
 Number     Number       Type             X           Y           Z
 ---------------------------------------------------------------------
      1          6           0        1.016390    2.717163    0.000000
      2          6           0        1.881445    1.628485    0.000000
      3          6           0       -0.351319    2.489477    0.000000
      4          6           0        1.378116    0.335664    0.000000
      5          6           0       -0.850314    1.189521    0.000000
      6          6           0        0.000795    0.083541    0.000000
      7          6           0        0.000795   -2.093932    1.258284
      8          6           0        0.000795   -2.093932   -1.258284
      9          6           0       -2.048330   -1.439541    0.000000
     10          6           0       -0.514092   -1.363859    0.000000
     11          1           0        1.405258    3.726594    0.000000
     12          1           0        2.952226    1.785794    0.000000
     13          1           0       -1.040642    3.323885    0.000000
     14          1           0        2.076582   -0.490211    0.000000
     15          1           0       -1.921023    1.051194    0.000000
     16          1           0       -0.357843   -3.125177    1.270861
     17          1           0        1.089525   -2.120203    1.294620
     18          1           0       -0.351283   -1.601521    2.165820
     19          1           0        1.089525   -2.120203   -1.294620
     20          1           0       -0.357843   -3.125177   -1.270861
     21          1           0       -0.351283   -1.601521   -2.165820
     22          1           0       -2.361319   -2.484481    0.000000
     23          1           0       -2.478782   -0.967247    0.883628
     24          1           0       -2.478782   -0.967247   -0.883628
 ---------------------------------------------------------------------

 SCF Done:  E(RHF) =  -387.293144366     A.U. after    2 cycles

 The electronic state is 1-A'.
 Alpha  occ. eigenvalues --  -11.24855 -11.24131 -11.23739 -11.23680 -11.23394
 Alpha  occ. eigenvalues --  -11.23283 -11.23232 -11.22218 -11.22197 -11.22179
 Alpha  occ. eigenvalues --   -1.15954  -1.09946  -1.01275  -0.99917  -0.93578
 Alpha  occ. eigenvalues --   -0.93416  -0.84226  -0.82662  -0.75974  -0.70581
 Alpha  occ. eigenvalues --   -0.64555  -0.63895  -0.62405  -0.60933  -0.59752
 Alpha  occ. eigenvalues --   -0.58798  -0.55413  -0.54017  -0.53282  -0.52211
 Alpha  occ. eigenvalues --   -0.50859  -0.50370  -0.47404  -0.46987  -0.46250
 Alpha  occ. eigenvalues --   -0.34143  -0.33305
 Alpha virt. eigenvalues --    0.03277   0.03375   0.03764   0.04114   0.04746
 Alpha virt. eigenvalues --    0.04892   0.06021   0.06531   0.07388   0.07650
 Alpha virt. eigenvalues --    0.07735   0.09650   0.09978   0.10766   0.11049

 Mulliken charges:
               1
     1  C    0.130136
     2  C   -0.120385
     3  C    0.018679
     4  C    0.246406
     5  C    0.260337
     6  C    2.217419
     7  C   -0.032259
     8  C   -0.032259
     9  C    0.146875
    10  C   -2.789287
    11  H   -0.237505
    12  H   -0.255144
    13  H   -0.254837
    14  H   -0.387606
    15  H   -0.448195
    16  H    0.172569
    17  H    0.145442
    18  H    0.172176
    19  H    0.145442
    20  H    0.172569
    21  H    0.172176
    22  H    0.065707
    23  H    0.245771
    24  H    0.245771
 Sum of Mulliken charges =  -0.00000

 Dipole moment (field-independent basis, Debye):
    X=             -0.1406    Y=             -0.4038    Z=             -0.0000  Tot=              0.4276

 Test job not archived.
 1\1\GINC-SE153\SP\RHF\Aug-CC-pVDZ\C10H14\OHZDE\05-Apr-2025\0\\#t hf au
 g-cc-pvdz iop(5/13=1,5/36=2,99/5=2) pseudo=read geom=check guess=(read
 ,tcheck) scf=(maxcycle=1)\\title\\0,1\C,0,1.01639,2.717163,0.\C,0,1.88
 1445,1.628485,0.\C,0,-0.351319,2.489477,0.\C,0,1.378116,0.335664,0.\C,
 0,-0.850314,1.189521,0.\C,0,0.000795,0.083541,0.\C,0,0.000795,-2.09393
 2,1.258284\C,0,0.000795,-2.093932,-1.258284\C,0,-2.04833,-1.439541,0.\
 C,0,-0.514092,-1.363859,0.\H,0,1.405258,3.726594,0.\H,0,2.952226,1.785
 794,0.\H,0,-1.040642,3.323885,0.\H,0,2.076582,-0.490211,0.\H,0,-1.9210

 Normal termination of Gaussian 16 at Sat Apr  5 23:17:33 2025.
