 Gaussian 16, Revision C.01,

 ----------------------------------------------------------------------
 #t hf aug-cc-pvdz symm=none int=(grid=ultrafine) guess=(read,tcheck) s
 table=(opt,rrhf)
 ----------------------------------------------------------------------
 -----
 title
 -----
 Symbolic Z-matrix:
 Charge =  0 Multiplicity = 1

 SCF Done:  E(RHF) =  -312.267474502     A.U. after   12 cycles
 Normal termination of Gaussian 16 at Sat Apr  5 23:16:20 2025.
 Gaussian 16:  ES64L-G16RevC.01  3-Jul-2019

 ----------------------------------------------------------------------
 #t hf aug-cc-pvdz iop(5/13=1,5/36=2,99/5=2) pseudo=read geom=check gue
 ss=(read,tcheck) scf=(maxcycle=1)
 ----------------------------------------------------------------------
 -----
 title
 -----
 Structure from the checkpoint file:  "tertbutylcyclobutane.chk"
 Charge =  0 Multiplicity = 1

                         Standard orientation:
 ---------------------------------------------------------------------
 Center     Atomic      Atomic             Coordinates (Angstroms)
 Number     Number       Type             X           Y           Z
 ---------------------------------------------------------------------
      1          6           0       -0.176910   -0.999418   -0.000000
      2          6           0        0.539789    0.364342    0.000000
      3          6           0        0.254060   -1.777499    1.254087
      4          6           0       -1.706916   -0.860851   -0.000000
      5          6           0        0.254060    1.442946    1.082409
      6          6           0        0.254060   -1.777499   -1.254087
      7          6           0        0.486107    2.526258    0.000000
      8          1           0       -0.178689    3.388865    0.000000
      9          1           0        0.895719    1.457716    1.962608
     10          6           0        0.254060    1.442946   -1.082409
     11          1           0        0.895719    1.457716   -1.962608
     12          1           0       -2.173656   -1.847725   -0.000000
     13          1           0       -0.206452   -2.767279   -1.276969
     14          1           0       -0.785006    1.429853    1.411389
     15          1           0       -0.785006    1.429853   -1.411389
     16          1           0        1.615876    0.164339   -0.000000
     17          1           0       -0.038955   -1.254061   -2.165956
     18          1           0       -2.067434   -0.330830    0.882403
     19          1           0       -2.067434   -0.330830   -0.882403
     20          1           0       -0.206452   -2.767279    1.276969
     21          1           0        1.337322   -1.913005   -1.279707
     22          1           0        1.516228    2.882374    0.000000
     23          1           0        1.337322   -1.913005    1.279707
     24          1           0       -0.038955   -1.254061    2.165956
 ---------------------------------------------------------------------

 SCF Done:  E(RHF) =  -312.615987437     A.U. after    2 cycles

 The electronic state is 1-A'.
 Alpha  occ. eigenvalues --  -11.23312 -11.22381 -11.22206 -11.22001 -11.21996
 Alpha  occ. eigenvalues --  -11.21562 -11.21547 -11.21499  -1.14086  -1.07504
 Alpha  occ. eigenvalues --   -0.93130  -0.93002  -0.89117  -0.89062  -0.77748
 Alpha  occ. eigenvalues --   -0.72366  -0.65631  -0.64960  -0.60376  -0.60247
 Alpha  occ. eigenvalues --   -0.56889  -0.55304  -0.54020  -0.53810  -0.51409
 Alpha  occ. eigenvalues --   -0.50226  -0.49212  -0.47515  -0.46831  -0.44213
 Alpha  occ. eigenvalues --   -0.42984  -0.42001
 Alpha virt. eigenvalues --    0.03448   0.03476   0.03537   0.04084   0.05481
 Alpha virt. eigenvalues --    0.05607   0.05873   0.05987   0.06311   0.08704
 Alpha virt. eigenvalues --    0.08918   0.09342   0.09416   0.09491   0.09941

 Mulliken charges:
               1
     1  C   -2.881598
     2  C    0.305297
     3  C    0.227690
     4  C    0.158247
     5  C    0.074271
     6  C    0.227690
     7  C   -0.051368
     8  H    0.000860
     9  H    0.008678
    10  C    0.074271
    11  H    0.008678
    12  H    0.159786
    13  H    0.176774
    14  H    0.053124
    15  H    0.053124
    16  H   -0.057489
    17  H    0.227788
    18  H    0.189254
    19  H    0.189254
    20  H    0.176774
    21  H    0.208478
    22  H    0.034151
    23  H    0.208478
    24  H    0.227788
 Sum of Mulliken charges =  -0.00000

 Dipole moment (field-independent basis, Debye):
    X=              0.0430    Y=             -0.0079    Z=             -0.0000  Tot=              0.0437

 Test job not archived.
 1\1\GINC-SE172\SP\RHF\Aug-CC-pVDZ\C8H16\OHZDE\05-Apr-2025\0\\#t hf aug
 -cc-pvdz iop(5/13=1,5/36=2,99/5=2) pseudo=read geom=check guess=(read,
 tcheck) scf=(maxcycle=1)\\title\\0,1\C,0,-0.17691,-0.999418,0.\C,0,0.5
 39789,0.364342,0.\C,0,0.25406,-1.777499,1.254087\C,0,-1.706916,-0.8608
 51,0.\C,0,0.25406,1.442946,1.082409\C,0,0.25406,-1.777499,-1.254087\C,
 0,0.486107,2.526258,0.\H,0,-0.178689,3.388865,0.\H,0,0.895719,1.457716
 ,1.962608\C,0,0.25406,1.442946,-1.082409\H,0,0.895719,1.457716,-1.9626
 08\H,0,-2.173656,-1.847725,0.\H,0,-0.206452,-2.767279,-1.276969\H,0,-0

 Normal termination of Gaussian 16 at Sat Apr  5 23:16:29 2025.
