 Gaussian 16, Revision C.01,

 ----------------------------------------------------------------------
 #t hf aug-cc-pvdz symm=none int=(grid=ultrafine) guess=(read,tcheck) s
 table=(opt,rrhf)
 ----------------------------------------------------------------------
 -----
 title
 -----
 Symbolic Z-matrix:
 Charge =  0 Multiplicity = 1

 SCF Done:  E(RHF) =  -407.083510602     A.U. after   11 cycles
 Normal termination of Gaussian 16 at Sat Apr  5 23:16:11 2025.
 Gaussian 16:  ES64L-G16RevC.01  3-Jul-2019

 ----------------------------------------------------------------------
 #t hf aug-cc-pvdz iop(5/13=1,5/36=2,99/5=2) pseudo=read geom=check gue
 ss=(read,tcheck) scf=(maxcycle=1)
 ----------------------------------------------------------------------
 -----
 title
 -----
 Structure from the checkpoint file:  "tetracyanomethane.chk"
 Charge =  0 Multiplicity = 1

                         Standard orientation:
 ---------------------------------------------------------------------
 Center     Atomic      Atomic             Coordinates (Angstroms)
 Number     Number       Type             X           Y           Z
 ---------------------------------------------------------------------
      1          6           0        0.000000    0.000000    0.000000
      2          6           0        0.856146    0.856146    0.856146
      3          6           0       -0.856146   -0.856146    0.856146
      4          6           0       -0.856146    0.856146   -0.856146
      5          6           0        0.856146   -0.856146   -0.856146
      6          7           0        1.518318    1.518318    1.518318
      7          7           0       -1.518318   -1.518318    1.518318
      8          7           0       -1.518318    1.518318   -1.518318
      9          7           0        1.518318   -1.518318   -1.518318
 ---------------------------------------------------------------------

 SCF Done:  E(RHF) =  -407.466770313     A.U. after    2 cycles

 The electronic state is 1-A1.
 Alpha  occ. eigenvalues --  -15.60196 -15.60196 -15.60196 -15.60160 -11.49962
 Alpha  occ. eigenvalues --  -11.36606 -11.36606 -11.36606 -11.36583  -1.34288
 Alpha  occ. eigenvalues --   -1.31289  -1.31289  -1.31289  -1.22397  -0.89351
 Alpha  occ. eigenvalues --   -0.89351  -0.89351  -0.68786  -0.68392  -0.68392
 Alpha  occ. eigenvalues --   -0.68392  -0.61041  -0.61041  -0.58455  -0.58455
 Alpha  occ. eigenvalues --   -0.58455  -0.57339  -0.57339  -0.57339
 Alpha virt. eigenvalues --    0.02488   0.05179   0.05179   0.05179   0.06524
 Alpha virt. eigenvalues --    0.06524   0.06595   0.06595   0.06595   0.09487
 Alpha virt. eigenvalues --    0.09487   0.09487   0.10958   0.12613   0.12613

 Mulliken charges:
               1
     1  C   -0.128539
     2  C   -0.980206
     3  C   -0.980206
     4  C   -0.980206
     5  C   -0.980206
     6  N    1.012340
     7  N    1.012340
     8  N    1.012340
     9  N    1.012340
 Sum of Mulliken charges =   0.00000

 Dipole moment (field-independent basis, Debye):
    X=             -0.0000    Y=             -0.0000    Z=              0.0000  Tot=              0.0000

 Test job not archived.
 1\1\GINC-SE154\SP\RHF\Aug-CC-pVDZ\C5N4\OHZDE\05-Apr-2025\0\\#t hf aug-
 cc-pvdz iop(5/13=1,5/36=2,99/5=2) pseudo=read geom=check guess=(read,t
 check) scf=(maxcycle=1)\\title\\0,1\C,0,0.,0.,0.\C,0,0.856146,0.856146
 ,0.856146\C,0,-0.856146,-0.856146,0.856146\C,0,-0.856146,0.856146,-0.8
 56146\C,0,0.856146,-0.856146,-0.856146\N,0,1.518318,1.518318,1.518318\
 N,0,-1.518318,-1.518318,1.518318\N,0,-1.518318,1.518318,-1.518318\N,0,
 1.518318,-1.518318,-1.518318\\Version=ES64L-G16RevC.01\State=1-A1\HF=-
 407.4667703\RMSD=2.888e-02\Dipole=0.,0.,0.\Quadrupole=0.,0.,0.,0.,0.,0

 Normal termination of Gaussian 16 at Sat Apr  5 23:16:15 2025.
