 Gaussian 16, Revision C.01,

 ----------------------------------------------------------------------
 #t hf aug-cc-pvdz symm=none int=(grid=ultrafine) guess=(read,tcheck) s
 table=(opt,rrhf)
 ----------------------------------------------------------------------
 -----
 title
 -----
 Symbolic Z-matrix:
 Charge =  0 Multiplicity = 1

 SCF Done:  E(RHF) =  -473.477535846     A.U. after   10 cycles
 Normal termination of Gaussian 16 at Sat Apr  5 23:14:28 2025.
 Gaussian 16:  ES64L-G16RevC.01  3-Jul-2019

 ----------------------------------------------------------------------
 #t hf aug-cc-pvdz iop(5/13=1,5/36=2,99/5=2) pseudo=read geom=check gue
 ss=(read,tcheck) scf=(maxcycle=1)
 ----------------------------------------------------------------------
 -----
 title
 -----
 Structure from the checkpoint file:  "tetrafluoroethylene.chk"
 Charge =  0 Multiplicity = 1

                         Standard orientation:
 ---------------------------------------------------------------------
 Center     Atomic      Atomic             Coordinates (Angstroms)
 Number     Number       Type             X           Y           Z
 ---------------------------------------------------------------------
      1          6           0        0.000000    0.000000    0.660447
      2          6           0        0.000000    0.000000   -0.660447
      3          9           0        0.000000    1.100779    1.387647
      4          9           0       -0.000000   -1.100779    1.387647
      5          9           0       -0.000000   -1.100779   -1.387647
      6          9           0        0.000000    1.100779   -1.387647
 ---------------------------------------------------------------------

 SCF Done:  E(RHF) =  -473.909812949     A.U. after    2 cycles

 The electronic state is 1-AG.
 Alpha  occ. eigenvalues --  -26.53699 -26.53699 -26.53698 -26.53697 -11.45909
 Alpha  occ. eigenvalues --  -11.45796  -1.71498  -1.69814  -1.64851  -1.63675
 Alpha  occ. eigenvalues --   -1.10276  -0.90451  -0.85765  -0.83417  -0.79323
 Alpha  occ. eigenvalues --   -0.77517  -0.74351  -0.71709  -0.69151  -0.68422
 Alpha  occ. eigenvalues --   -0.67071  -0.65975  -0.65345  -0.40642
 Alpha virt. eigenvalues --    0.06991   0.07289   0.09299   0.09361   0.11956
 Alpha virt. eigenvalues --    0.12203   0.12425   0.18844   0.19887   0.23409
 Alpha virt. eigenvalues --    0.24652   0.25323   0.27171   0.29917   0.30296

 Mulliken charges:
               1
     1  C    1.359648
     2  C    1.359648
     3  F   -0.679824
     4  F   -0.679824
     5  F   -0.679824
     6  F   -0.679824
 Sum of Mulliken charges =  -0.00000

 Dipole moment (field-independent basis, Debye):
    X=              0.0000    Y=             -0.0000    Z=              0.0000  Tot=              0.0000

 Test job not archived.
 1\1\GINC-SE204\SP\RHF\Aug-CC-pVDZ\C2F4\OHZDE\05-Apr-2025\0\\#t hf aug-
 cc-pvdz iop(5/13=1,5/36=2,99/5=2) pseudo=read geom=check guess=(read,t
 check) scf=(maxcycle=1)\\title\\0,1\C,0,0.,0.,0.660447\C,0,0.,0.,-0.66
 0447\F,0,0.,1.100779,1.387647\F,0,0.,-1.100779,1.387647\F,0,0.,-1.1007
 79,-1.387647\F,0,0.,1.100779,-1.387647\\Version=ES64L-G16RevC.01\State
 =1-AG\HF=-473.9098129\RMSD=9.152e-03\Dipole=0.,0.,0.\Quadrupole=1.4328
 381,-0.8559723,-0.5768658,0.,0.,0.\PG=D02H [C2"(C1.C1),SG(F4)]\\@

 Normal termination of Gaussian 16 at Sat Apr  5 23:15:54 2025.
