 Gaussian 16, Revision C.01,

 ----------------------------------------------------------------------
 #t hf aug-cc-pvdz symm=none int=(grid=ultrafine) guess=(read,tcheck) s
 table=(opt,rrhf)
 ----------------------------------------------------------------------
 -----
 title
 -----
 Symbolic Z-matrix:
 Charge =  0 Multiplicity = 1

 SCF Done:  E(RHF) =  -424.532463169     A.U. after   12 cycles
 Normal termination of Gaussian 16 at Sat Apr  5 23:21:06 2025.
 Gaussian 16:  ES64L-G16RevC.01  3-Jul-2019

 ----------------------------------------------------------------------
 #t hf aug-cc-pvdz iop(5/13=1,5/36=2,99/5=2) pseudo=read geom=check gue
 ss=(read,tcheck) scf=(maxcycle=1)
 ----------------------------------------------------------------------
 -----
 title
 -----
 Structure from the checkpoint file:  "tetraspiro2-0-0-0-2-1-1-1undecane.chk"
 Charge =  0 Multiplicity = 1

                         Standard orientation:
 ---------------------------------------------------------------------
 Center     Atomic      Atomic             Coordinates (Angstroms)
 Number     Number       Type             X           Y           Z
 ---------------------------------------------------------------------
      1          6           0        0.413406    2.700298   -1.134720
      2          6           0        0.000000    3.315092    0.199170
      3          6           0       -0.395103    1.934856   -0.158726
      4          6           0       -1.657201    1.128232   -0.172530
      5          6           0       -0.395289    0.613063    0.456739
      6          6           0        0.000000   -0.000000    1.767022
      7          6           0        0.395289   -0.613063    0.456739
      8          6           0        1.657201   -1.128232   -0.172530
      9          6           0        0.395103   -1.934856   -0.158726
     10          6           0       -0.000000   -3.315092    0.199170
     11          6           0       -0.413406   -2.700298   -1.134720
     12          1           0       -0.070461    3.069979   -2.029417
     13          1           0        1.454651    2.435395   -1.262890
     14          1           0        0.769193    3.453264    0.948163
     15          1           0       -0.755429    4.089910    0.182539
     16          1           0       -2.465963    1.433064    0.481413
     17          1           0       -1.971867    0.689861   -1.112222
     18          1           0        0.765446    0.497373    2.351754
     19          1           0       -0.765446   -0.497373    2.351754
     20          1           0        1.971867   -0.689861   -1.112222
     21          1           0        2.465963   -1.433064    0.481413
     22          1           0       -0.769193   -3.453264    0.948163
     23          1           0        0.755429   -4.089910    0.182539
     24          1           0       -1.454651   -2.435395   -1.262890
     25          1           0        0.070461   -3.069979   -2.029417
 ---------------------------------------------------------------------

 SCF Done:  E(RHF) =  -424.988080804     A.U. after    2 cycles

 The electronic state is 1-A.
 Alpha  occ. eigenvalues --  -11.24128 -11.24058 -11.23957 -11.23951 -11.23232
 Alpha  occ. eigenvalues --  -11.23216 -11.23211 -11.23175 -11.23174 -11.23159
 Alpha  occ. eigenvalues --  -11.23149  -1.20245  -1.16579  -1.11174  -1.05499
 Alpha  occ. eigenvalues --   -1.00891  -0.82802  -0.82567  -0.79623  -0.79365
 Alpha  occ. eigenvalues --   -0.75538  -0.70852  -0.68824  -0.64904  -0.64807
 Alpha  occ. eigenvalues --   -0.62264  -0.61914  -0.60620  -0.54451  -0.52089
 Alpha  occ. eigenvalues --   -0.51888  -0.50542  -0.47989  -0.46264  -0.43936
 Alpha  occ. eigenvalues --   -0.43161  -0.41627  -0.38016  -0.37913  -0.37612
 Alpha virt. eigenvalues --    0.03389   0.03392   0.03439   0.03951   0.04781
 Alpha virt. eigenvalues --    0.05300   0.05352   0.05872   0.05963   0.07426
 Alpha virt. eigenvalues --    0.08356   0.08547   0.09315   0.09348   0.11272

 Mulliken charges:
               1
     1  C    0.201737
     2  C    0.226939
     3  C    0.266476
     4  C   -0.163058
     5  C    0.263643
     6  C   -0.426704
     7  C    0.263643
     8  C   -0.163058
     9  C    0.266476
    10  C    0.226939
    11  C    0.201737
    12  H   -0.090523
    13  H   -0.119008
    14  H   -0.101726
    15  H   -0.091195
    16  H   -0.054814
    17  H   -0.069224
    18  H   -0.055895
    19  H   -0.055895
    20  H   -0.069224
    21  H   -0.054814
    22  H   -0.101726
    23  H   -0.091195
    24  H   -0.119008
    25  H   -0.090523
 Sum of Mulliken charges =  -0.00000

 Dipole moment (field-independent basis, Debye):
    X=             -0.0000    Y=             -0.0000    Z=             -0.0253  Tot=              0.0253

 Test job not archived.
 1\1\GINC-SE165\SP\RHF\Aug-CC-pVDZ\C11H14\OHZDE\05-Apr-2025\0\\#t hf au
 g-cc-pvdz iop(5/13=1,5/36=2,99/5=2) pseudo=read geom=check guess=(read
 ,tcheck) scf=(maxcycle=1)\\title\\0,1\C,0,0.413406,2.700298,-1.13472\C
 ,0,0.,3.315092,0.19917\C,0,-0.395103,1.934856,-0.158726\C,0,-1.657201,
 1.128232,-0.17253\C,0,-0.395289,0.613063,0.456739\C,0,0.,0.,1.767022\C
 ,0,0.395289,-0.613063,0.456739\C,0,1.657201,-1.128232,-0.17253\C,0,0.3
 95103,-1.934856,-0.158726\C,0,0.,-3.315092,0.19917\C,0,-0.413406,-2.70
 0298,-1.13472\H,0,-0.070461,3.069979,-2.029417\H,0,1.454651,2.435395,-

 Normal termination of Gaussian 16 at Sat Apr  5 23:21:19 2025.
