 Gaussian 16, Revision C.01,

 ----------------------------------------------------------------------
 #t hf aug-cc-pvdz symm=none int=(grid=ultrafine) guess=(read,tcheck) s
 table=(opt,rrhf)
 ----------------------------------------------------------------------
 -----
 title
 -----
 Symbolic Z-matrix:
 Charge =  0 Multiplicity = 1

 SCF Done:  E(RHF) =  -666.434703051     A.U. after   15 cycles
 Normal termination of Gaussian 16 at Sat Apr  5 23:16:36 2025.
 Gaussian 16:  ES64L-G16RevC.01  3-Jul-2019

 ----------------------------------------------------------------------
 #t hf aug-cc-pvdz iop(5/13=1,5/36=2,99/5=2) pseudo=read geom=check gue
 ss=(read,tcheck) scf=(maxcycle=1)
 ----------------------------------------------------------------------
 -----
 title
 -----
 Structure from the checkpoint file:  "tetrahydro-2H-thiopyran-2-one.chk"
 Charge =  0 Multiplicity = 1

                         Standard orientation:
 ---------------------------------------------------------------------
 Center     Atomic      Atomic             Coordinates (Angstroms)
 Number     Number       Type             X           Y           Z
 ---------------------------------------------------------------------
      1          6           0        1.198990    0.282454   -0.007474
      2          6           0        0.320746    1.512346   -0.137212
      3          6           0       -1.130693    1.395994    0.326233
      4          6           0       -1.862920    0.229298   -0.332913
      5          6           0       -1.354110   -1.115285    0.160621
      6          8           0        2.401259    0.353704    0.028692
      7         16           0        0.466430   -1.359194   -0.017043
      8          1           0        0.844847    2.313553    0.384969
      9          1           0        0.347721    1.769982   -1.201227
     10          1           0       -1.165947    1.279754    1.413293
     11          1           0       -1.641073    2.333624    0.100488
     12          1           0       -2.931348    0.287652   -0.110885
     13          1           0       -1.760809    0.292351   -1.419347
     14          1           0       -1.596179   -1.250292    1.214503
     15          1           0       -1.802249   -1.937985   -0.394177
 ---------------------------------------------------------------------

 SCF Done:  E(RHF) =  -666.774448632     A.U. after    2 cycles

 The electronic state is 1-A.
 Alpha  occ. eigenvalues --  -93.95969 -20.54047 -11.36992 -11.28389 -11.26004
 Alpha  occ. eigenvalues --  -11.25725 -11.25569  -8.24173  -6.21974  -6.21797
 Alpha  occ. eigenvalues --   -6.21612  -1.48266  -1.14044  -1.05121  -1.01697
 Alpha  occ. eigenvalues --   -0.89246  -0.83898  -0.73663  -0.67428  -0.65336
 Alpha  occ. eigenvalues --   -0.64000  -0.63127  -0.60734  -0.58396  -0.53971
 Alpha  occ. eigenvalues --   -0.52305  -0.50426  -0.49792  -0.46254  -0.39893
 Alpha  occ. eigenvalues --   -0.37069
 Alpha virt. eigenvalues --    0.02771   0.03331   0.03452   0.04557   0.05859
 Alpha virt. eigenvalues --    0.06205   0.06859   0.08079   0.09173   0.11289
 Alpha virt. eigenvalues --    0.11641   0.13064   0.13638   0.13902   0.14152

 Mulliken charges:
               1
     1  C    0.547171
     2  C   -0.404788
     3  C   -0.244198
     4  C   -0.196766
     5  C   -0.606440
     6  O   -1.258240
     7  S    0.716438
     8  H    0.162236
     9  H    0.289420
    10  H    0.124441
    11  H    0.148161
    12  H    0.153051
    13  H    0.128428
    14  H    0.239097
    15  H    0.201988
 Sum of Mulliken charges =  -0.00000

 Dipole moment (field-independent basis, Debye):
    X=             -4.8073    Y=              1.3162    Z=             -0.0128  Tot=              4.9843

 Test job not archived.
 1\1\GINC-SE108\SP\RHF\Aug-CC-pVDZ\C5H8O1S1\OHZDE\05-Apr-2025\0\\#t hf
 aug-cc-pvdz iop(5/13=1,5/36=2,99/5=2) pseudo=read geom=check guess=(re
 ad,tcheck) scf=(maxcycle=1)\\title\\0,1\C,0,1.19899,0.282455,-0.007474
 \C,0,0.320745,1.512346,-0.137212\C,0,-1.130694,1.395994,0.326233\C,0,-
 1.86292,0.229297,-0.332913\C,0,-1.354109,-1.115286,0.160621\O,0,2.4012
 59,0.353705,0.028692\S,0,0.466431,-1.359194,-0.017043\H,0,0.844846,2.3
 13553,0.384969\H,0,0.34772,1.769982,-1.201227\H,0,-1.165948,1.279754,1
 .413293\H,0,-1.641074,2.333623,0.100488\H,0,-2.931348,0.287651,-0.1108

 Normal termination of Gaussian 16 at Sat Apr  5 23:16:42 2025.
