 Gaussian 16, Revision C.01,

 ----------------------------------------------------------------------
 #t hf aug-cc-pvdz symm=none int=(grid=ultrafine) guess=(read,tcheck) s
 table=(opt,rrhf)
 ----------------------------------------------------------------------
 -----
 title
 -----
 Symbolic Z-matrix:
 Charge =  0 Multiplicity = 1

 SCF Done:  E(RHF) =  -549.079217987     A.U. after   12 cycles
 Normal termination of Gaussian 16 at Sat Apr  5 23:16:04 2025.
 Gaussian 16:  ES64L-G16RevC.01  3-Jul-2019

 ----------------------------------------------------------------------
 #t hf aug-cc-pvdz iop(5/13=1,5/36=2,99/5=2) pseudo=read geom=check gue
 ss=(read,tcheck) scf=(maxcycle=1)
 ----------------------------------------------------------------------
 -----
 title
 -----
 Structure from the checkpoint file:  "tetrafluorocyclobutadiene.chk"
 Charge =  0 Multiplicity = 1

                         Standard orientation:
 ---------------------------------------------------------------------
 Center     Atomic      Atomic             Coordinates (Angstroms)
 Number     Number       Type             X           Y           Z
 ---------------------------------------------------------------------
      1          6           0        0.135333    0.760964    0.664678
      2          6           0       -0.135333   -0.760964    0.664678
      3          6           0       -0.135333   -0.760964   -0.664678
      4          6           0        0.135333    0.760964   -0.664678
      5          9           0       -0.135333    1.670444    1.579297
      6          9           0        0.135333   -1.670444    1.579297
      7          9           0        0.135333   -1.670444   -1.579297
      8          9           0       -0.135333    1.670444   -1.579297
 ---------------------------------------------------------------------

 SCF Done:  E(RHF) =  -549.583916346     A.U. after    2 cycles

 The electronic state is 1-AG.
 Alpha  occ. eigenvalues --  -26.53074 -26.53073 -26.53072 -26.53072 -11.39374
 Alpha  occ. eigenvalues --  -11.39367 -11.39255 -11.39218  -1.67010  -1.66374
 Alpha  occ. eigenvalues --   -1.66082  -1.65827  -1.25339  -0.98846  -0.91102
 Alpha  occ. eigenvalues --   -0.83436  -0.82800  -0.79995  -0.77084  -0.75150
 Alpha  occ. eigenvalues --   -0.73434  -0.72219  -0.71050  -0.70375  -0.69836
 Alpha  occ. eigenvalues --   -0.67609  -0.60072  -0.54425  -0.50324  -0.33846
 Alpha virt. eigenvalues --    0.03429   0.06419   0.06844   0.06860   0.08977
 Alpha virt. eigenvalues --    0.09669   0.11355   0.12322   0.12347   0.13767
 Alpha virt. eigenvalues --    0.15172   0.15643   0.15708   0.18620   0.18881

 Mulliken charges:
               1
     1  C    0.751972
     2  C    0.751972
     3  C    0.751972
     4  C    0.751972
     5  F   -0.751972
     6  F   -0.751972
     7  F   -0.751972
     8  F   -0.751972
 Sum of Mulliken charges =  -0.00000

 Dipole moment (field-independent basis, Debye):
    X=             -0.0000    Y=              0.0000    Z=              0.0000  Tot=              0.0000

 Test job not archived.
 1\1\GINC-SE169\SP\RHF\Aug-CC-pVDZ\C4F4\OHZDE\05-Apr-2025\0\\#t hf aug-
 cc-pvdz iop(5/13=1,5/36=2,99/5=2) pseudo=read geom=check guess=(read,t
 check) scf=(maxcycle=1)\\title\\0,1\C,0,0.135333,0.760964,0.664678\C,0
 ,-0.135333,-0.760964,0.664678\C,0,-0.135333,-0.760964,-0.664678\C,0,0.
 135333,0.760964,-0.664678\F,0,-0.135333,1.670444,1.579297\F,0,0.135333
 ,-1.670444,1.579297\F,0,0.135333,-1.670444,-1.579297\F,0,-0.135333,1.6
 70444,-1.579297\\Version=ES64L-G16RevC.01\State=1-AG\HF=-549.5839163\R
 MSD=1.096e-02\Dipole=0.,0.,0.\Quadrupole=1.3477136,-1.1089337,-0.23877

 Normal termination of Gaussian 16 at Sat Apr  5 23:16:06 2025.
