 Gaussian 16, Revision C.01,

 ----------------------------------------------------------------------
 #t hf aug-cc-pvdz symm=none int=(grid=ultrafine) guess=(read,tcheck) s
 table=(opt,rrhf)
 ----------------------------------------------------------------------
 -----
 title
 -----
 Symbolic Z-matrix:
 Charge =  0 Multiplicity = 1

 SCF Done:  E(RHF) =  -444.963332415     A.U. after   13 cycles
 Normal termination of Gaussian 16 at Sat Apr  5 23:14:43 2025.
 Gaussian 16:  ES64L-G16RevC.01  3-Jul-2019

 ----------------------------------------------------------------------
 #t hf aug-cc-pvdz iop(5/13=1,5/36=2,99/5=2) pseudo=read geom=check gue
 ss=(read,tcheck) scf=(maxcycle=1)
 ----------------------------------------------------------------------
 -----
 title
 -----
 Structure from the checkpoint file:  "tetracyanoethylene.chk"
 Charge =  0 Multiplicity = 1

                         Standard orientation:
 ---------------------------------------------------------------------
 Center     Atomic      Atomic             Coordinates (Angstroms)
 Number     Number       Type             X           Y           Z
 ---------------------------------------------------------------------
      1          6           0        0.000000    0.000000    0.681974
      2          6           0        0.000000    0.000000   -0.681974
      3          6           0        0.000000    1.213865    1.428575
      4          6           0       -0.000000   -1.213865    1.428575
      5          6           0        0.000000    1.213865   -1.428575
      6          6           0       -0.000000   -1.213865   -1.428575
      7          7           0        0.000000    2.183501    2.049472
      8          7           0       -0.000000   -2.183501    2.049472
      9          7           0        0.000000    2.183501   -2.049472
     10          7           0       -0.000000   -2.183501   -2.049472
 ---------------------------------------------------------------------

 SCF Done:  E(RHF) =  -445.381007569     A.U. after    2 cycles

 The electronic state is 1-AG.
 Alpha  occ. eigenvalues --  -15.59593 -15.59563 -15.59561 -15.59516 -11.43403
 Alpha  occ. eigenvalues --  -11.43331 -11.35386 -11.35382 -11.35375 -11.35365
 Alpha  occ. eigenvalues --   -1.32646  -1.31043  -1.30518  -1.30010  -1.23520
 Alpha  occ. eigenvalues --   -1.08131  -0.93746  -0.85896  -0.82713  -0.68092
 Alpha  occ. eigenvalues --   -0.67927  -0.67825  -0.67796  -0.66889  -0.60596
 Alpha  occ. eigenvalues --   -0.58695  -0.58607  -0.58086  -0.57859  -0.57319
 Alpha  occ. eigenvalues --   -0.56158  -0.47148
 Alpha virt. eigenvalues --   -0.08732   0.03318   0.05079   0.06102   0.06145
 Alpha virt. eigenvalues --    0.07277   0.07634   0.08422   0.08624   0.09120
 Alpha virt. eigenvalues --    0.09325   0.10929   0.11041   0.11883   0.12121

 Mulliken charges:
               1
     1  C    3.013522
     2  C    3.013522
     3  C   -2.542261
     4  C   -2.542261
     5  C   -2.542261
     6  C   -2.542261
     7  N    1.035500
     8  N    1.035500
     9  N    1.035500
    10  N    1.035500
 Sum of Mulliken charges =  -0.00000

 Dipole moment (field-independent basis, Debye):
    X=              0.0000    Y=             -0.0000    Z=             -0.0000  Tot=              0.0000

 Test job not archived.
 1\1\GINC-SE014\SP\RHF\Aug-CC-pVDZ\C6N4\OHZDE\05-Apr-2025\0\\#t hf aug-
 cc-pvdz iop(5/13=1,5/36=2,99/5=2) pseudo=read geom=check guess=(read,t
 check) scf=(maxcycle=1)\\title\\0,1\C,0,0.,0.,0.681974\C,0,0.,0.,-0.68
 1974\C,0,0.,1.213865,1.428575\C,0,0.,-1.213865,1.428575\C,0,0.,1.21386
 5,-1.428575\C,0,0.,-1.213865,-1.428575\N,0,0.,2.183501,2.049472\N,0,0.
 ,-2.183501,2.049472\N,0,0.,2.183501,-2.049472\N,0,0.,-2.183501,-2.0494
 72\\Version=ES64L-G16RevC.01\State=1-AG\HF=-445.3810076\RMSD=1.295e-01
 \Dipole=0.,0.,0.\Quadrupole=11.1044453,-9.1893025,-1.9151428,0.,0.,0.\

 Normal termination of Gaussian 16 at Sat Apr  5 23:15:55 2025.
