 Gaussian 16, Revision C.01,

 ----------------------------------------------------------------------
 #t hf aug-cc-pvdz symm=none int=(grid=ultrafine) guess=(read,tcheck) s
 table=(opt,rrhf)
 ----------------------------------------------------------------------
 -----
 title
 -----
 Symbolic Z-matrix:
 Charge =  0 Multiplicity = 1

 SCF Done:  E(RHF) =  -1913.70573389     A.U. after   11 cycles
 Normal termination of Gaussian 16 at Sat Apr  5 23:14:24 2025.
 Gaussian 16:  ES64L-G16RevC.01  3-Jul-2019

 ----------------------------------------------------------------------
 #t hf aug-cc-pvdz iop(5/13=1,5/36=2,99/5=2) pseudo=read geom=check gue
 ss=(read,tcheck) scf=(maxcycle=1)
 ----------------------------------------------------------------------
 -----
 title
 -----
 Structure from the checkpoint file:  "tetrachloroethylene.chk"
 Charge =  0 Multiplicity = 1

                         Standard orientation:
 ---------------------------------------------------------------------
 Center     Atomic      Atomic             Coordinates (Angstroms)
 Number     Number       Type             X           Y           Z
 ---------------------------------------------------------------------
      1          6           0        0.000000    0.000000    0.669101
      2          6           0        0.000000    0.000000   -0.669101
      3         17           0        0.000000    1.454916    1.595675
      4         17           0       -0.000000   -1.454916    1.595675
      5         17           0       -0.000000   -1.454916   -1.595675
      6         17           0        0.000000    1.454916   -1.595675
 ---------------------------------------------------------------------

 SCF Done:  E(RHF) =  -1914.08075466     A.U. after    2 cycles

 The electronic state is 1-AG.
 Alpha  occ. eigenvalues -- -105.61148-105.61148-105.61147-105.61147 -11.39926
 Alpha  occ. eigenvalues --  -11.39811 -10.65972 -10.65970 -10.65968 -10.65967
 Alpha  occ. eigenvalues --   -7.82948  -7.82947  -7.82942  -7.82929  -7.82492
 Alpha  occ. eigenvalues --   -7.82492  -7.82485  -7.82483  -7.82479  -7.82478
 Alpha  occ. eigenvalues --   -7.82477  -7.82474  -1.24685  -1.16065  -1.10448
 Alpha  occ. eigenvalues --   -1.07353  -0.98001  -0.75737  -0.69487  -0.67997
 Alpha  occ. eigenvalues --   -0.63039  -0.59168  -0.54629  -0.52626  -0.51642
 Alpha  occ. eigenvalues --   -0.51127  -0.50349  -0.49669  -0.46305  -0.37843
 Alpha virt. eigenvalues --    0.05783   0.07262   0.07267   0.08698   0.09297
 Alpha virt. eigenvalues --    0.11178   0.11693   0.12390   0.13345   0.14625
 Alpha virt. eigenvalues --    0.14697   0.14945   0.16934   0.17222   0.17731

 Mulliken charges:
               1
     1  C    0.076404
     2  C    0.076404
     3  Cl  -0.038202
     4  Cl  -0.038202
     5  Cl  -0.038202
     6  Cl  -0.038202
 Sum of Mulliken charges =  -0.00000

 Dipole moment (field-independent basis, Debye):
    X=              0.0000    Y=             -0.0000    Z=             -0.0000  Tot=              0.0000

 Test job not archived.
 1\1\GINC-SE173\SP\RHF\Aug-CC-pVDZ\C2Cl4\OHZDE\05-Apr-2025\0\\#t hf aug
 -cc-pvdz iop(5/13=1,5/36=2,99/5=2) pseudo=read geom=check guess=(read,
 tcheck) scf=(maxcycle=1)\\title\\0,1\C,0,0.,0.,0.669101\C,0,0.,0.,-0.6
 69101\Cl,0,0.,1.454916,1.595675\Cl,0,0.,-1.454916,1.595675\Cl,0,0.,-1.
 454916,-1.595675\Cl,0,0.,1.454916,-1.595675\\Version=ES64L-G16RevC.01\
 State=1-AG\HF=-1914.0807547\RMSD=9.610e-03\Dipole=0.,0.,0.\Quadrupole=
 -1.2350152,1.4352624,-0.2002472,0.,0.,0.\PG=D02H [C2"(C1.C1),SG(Cl4)]\
 \@

 Normal termination of Gaussian 16 at Sat Apr  5 23:15:56 2025.
