 Gaussian 16, Revision C.01,

 ----------------------------------------------------------------------
 #t hf aug-cc-pvdz symm=none int=(grid=ultrafine) guess=(read,tcheck) s
 table=(opt,rrhf)
 ----------------------------------------------------------------------
 -----
 title
 -----
 Symbolic Z-matrix:
 Charge =  0 Multiplicity = 1

 SCF Done:  E(RHF) =  -553.682089282     A.U. after   12 cycles
 Normal termination of Gaussian 16 at Sat Apr  5 23:16:32 2025.
 Gaussian 16:  ES64L-G16RevC.01  3-Jul-2019

 ----------------------------------------------------------------------
 #t hf aug-cc-pvdz iop(5/13=1,5/36=2,99/5=2) pseudo=read geom=check gue
 ss=(read,tcheck) scf=(maxcycle=1)
 ----------------------------------------------------------------------
 -----
 title
 -----
 Structure from the checkpoint file:  "tetrahydrothiophene.chk"
 Charge =  0 Multiplicity = 1

                         Standard orientation:
 ---------------------------------------------------------------------
 Center     Atomic      Atomic             Coordinates (Angstroms)
 Number     Number       Type             X           Y           Z
 ---------------------------------------------------------------------
      1          1           0        0.727709    2.103092    0.342737
      2          1           0       -0.986957    1.809222    0.025908
      3          6           0        0.000000    1.349368    0.050917
      4          1           0        1.422074    0.557865   -1.364380
      5          1           0        0.016317    1.302538   -2.122147
      6          6           0        0.340403    0.685094   -1.282406
      7          1           0       -0.016317   -1.302538   -2.122147
      8          1           0       -1.422074   -0.557865   -1.364380
      9          6           0       -0.340403   -0.685094   -1.282406
     10          1           0        0.986957   -1.809222    0.025908
     11          1           0       -0.727709   -2.103092    0.342737
     12          6           0       -0.000000   -1.349368    0.050917
     13         16           0        0.000000   -0.000000    1.313352
 ---------------------------------------------------------------------

 SCF Done:  E(RHF) =  -553.915569729     A.U. after    2 cycles

 The electronic state is 1-A.
 Alpha  occ. eigenvalues --  -93.92870 -11.26158 -11.26143 -11.24144 -11.24117
 Alpha  occ. eigenvalues --   -8.20967  -6.18770  -6.18651  -6.18419  -1.13487
 Alpha  occ. eigenvalues --   -0.98896  -0.98125  -0.79927  -0.79582  -0.66437
 Alpha  occ. eigenvalues --   -0.64970  -0.60636  -0.55498  -0.51511  -0.50269
 Alpha  occ. eigenvalues --   -0.48760  -0.48387  -0.42831  -0.33706
 Alpha virt. eigenvalues --    0.03519   0.03870   0.03972   0.04776   0.06480
 Alpha virt. eigenvalues --    0.06525   0.06791   0.07649   0.08744   0.13239
 Alpha virt. eigenvalues --    0.14336   0.14658   0.15088   0.15105   0.15322

 Mulliken charges:
               1
     1  H    0.174270
     2  H    0.167395
     3  C   -0.606397
     4  H    0.111697
     5  H    0.156549
     6  C   -0.270124
     7  H    0.156549
     8  H    0.111697
     9  C   -0.270124
    10  H    0.167395
    11  H    0.174270
    12  C   -0.606397
    13  S    0.533218
 Sum of Mulliken charges =  -0.00000

 Dipole moment (field-independent basis, Debye):
    X=              0.0000    Y=              0.0000    Z=             -2.3257  Tot=              2.3257

 Test job not archived.
 1\1\GINC-SE042\SP\RHF\Aug-CC-pVDZ\C4H8S1\OHZDE\05-Apr-2025\0\\#t hf au
 g-cc-pvdz iop(5/13=1,5/36=2,99/5=2) pseudo=read geom=check guess=(read
 ,tcheck) scf=(maxcycle=1)\\title\\0,1\H,0,0.727709,2.103092,0.342737\H
 ,0,-0.986957,1.809222,0.025908\C,0,0.,1.349368,0.050917\H,0,1.422074,0
 .557865,-1.36438\H,0,0.016317,1.302538,-2.122147\C,0,0.340403,0.685094
 ,-1.282406\H,0,-0.016317,-1.302538,-2.122147\H,0,-1.422074,-0.557865,-
 1.36438\C,0,-0.340403,-0.685094,-1.282406\H,0,0.986957,-1.809222,0.025
 908\H,0,-0.727709,-2.103092,0.342737\C,0,0.,-1.349368,0.050917\S,0,0.,

 Normal termination of Gaussian 16 at Sat Apr  5 23:16:35 2025.
