 Gaussian 16, Revision C.01,

 ----------------------------------------------------------------------
 #t hf aug-cc-pvdz symm=none int=(grid=ultrafine) guess=(read,tcheck) s
 table=(opt,rrhf)
 ----------------------------------------------------------------------
 -----
 title
 -----
 Symbolic Z-matrix:
 Charge =  0 Multiplicity = 1

 SCF Done:  E(RHF) =  -270.051075092     A.U. after   11 cycles

 1\1\GINC-SE220\Stability\RHF\Aug-CC-pVDZ\C5H10O1\OHZDE\05-Apr-2025\0\\
 #t hf aug-cc-pvdz symm=none int=(grid=ultrafine) guess=(read,tcheck) s
 table=(opt,rrhf)\\title\\0,1\C,0,-0.621065,1.325981,0.\C,0,0.020904,0.
 729584,1.256731\C,0,0.020904,0.729584,-1.256731\C,0,0.020904,-0.794091
 ,1.182195\C,0,0.020904,-0.794091,-1.182195\O,0,0.655923,-1.267487,0.\H
 ,0,-1.692321,1.099091,0.\H,0,-0.531769,2.413763,0.\H,0,1.053246,1.0778
 01,1.346976\H,0,-0.509437,1.050894,2.156429\H,0,-0.509437,1.050894,-2.
 156429\H,0,1.053246,1.077801,-1.346976\H,0,0.568763,-1.234712,2.014395

 Normal termination of Gaussian 16 at Sat Apr  5 23:14:52 2025.
 Gaussian 16:  ES64L-G16RevC.01  3-Jul-2019

 ----------------------------------------------------------------------
 #t hf aug-cc-pvdz iop(5/13=1,5/36=2,99/5=2) pseudo=read geom=check gue
 ss=(read,tcheck) scf=(maxcycle=1)
 ----------------------------------------------------------------------
 -----
 title
 -----
 Structure from the checkpoint file:  "tetrahydro-2H-pyran.chk"
 Charge =  0 Multiplicity = 1

                         Standard orientation:
 ---------------------------------------------------------------------
 Center     Atomic      Atomic             Coordinates (Angstroms)
 Number     Number       Type             X           Y           Z
 ---------------------------------------------------------------------
      1          6           0       -0.621065    1.325981   -0.000000
      2          6           0        0.020904    0.729584    1.256731
      3          6           0        0.020904    0.729584   -1.256731
      4          6           0        0.020904   -0.794091    1.182195
      5          6           0        0.020904   -0.794091   -1.182195
      6          8           0        0.655923   -1.267487    0.000000
      7          1           0       -1.692321    1.099091   -0.000000
      8          1           0       -0.531769    2.413763   -0.000000
      9          1           0        1.053246    1.077801    1.346976
     10          1           0       -0.509437    1.050894    2.156429
     11          1           0       -0.509437    1.050894   -2.156429
     12          1           0        1.053246    1.077801   -1.346976
     13          1           0        0.568763   -1.234712    2.014395
     14          1           0       -1.011867   -1.171361    1.218225
     15          1           0       -1.011867   -1.171361   -1.218225
     16          1           0        0.568763   -1.234712   -2.014395
 ---------------------------------------------------------------------

 SCF Done:  E(RHF) =  -270.341602884     A.U. after    2 cycles

 The electronic state is 1-A'.
 Alpha  occ. eigenvalues --  -20.53448 -11.27640 -11.27554 -11.22984 -11.22705
 Alpha  occ. eigenvalues --  -11.22684  -1.45035  -1.08065  -1.02632  -0.88221
 Alpha  occ. eigenvalues --   -0.86159  -0.77389  -0.68175  -0.64113  -0.63104
 Alpha  occ. eigenvalues --   -0.61644  -0.57956  -0.54780  -0.54356  -0.50464
 Alpha  occ. eigenvalues --   -0.48552  -0.46583  -0.44563  -0.40040
 Alpha virt. eigenvalues --    0.03705   0.03831   0.03841   0.04372   0.06165
 Alpha virt. eigenvalues --    0.06349   0.06531   0.07082   0.07469   0.09608
 Alpha virt. eigenvalues --    0.12777   0.14001   0.14262   0.14622   0.15261

 Mulliken charges:
               1
     1  C   -0.316246
     2  C   -0.281700
     3  C   -0.281700
     4  C    0.523330
     5  C    0.523330
     6  O   -1.297739
     7  H    0.111896
     8  H    0.136451
     9  H    0.136336
    10  H    0.147841
    11  H    0.147841
    12  H    0.136336
    13  H   -0.037013
    14  H    0.194025
    15  H    0.194025
    16  H   -0.037013
 Sum of Mulliken charges =   0.00000

 Dipole moment (field-independent basis, Debye):
    X=             -1.0772    Y=              1.1488    Z=             -0.0000  Tot=              1.5748

 Test job not archived.
 1\1\GINC-SE220\SP\RHF\Aug-CC-pVDZ\C5H10O1\OHZDE\05-Apr-2025\0\\#t hf a
 ug-cc-pvdz iop(5/13=1,5/36=2,99/5=2) pseudo=read geom=check guess=(rea
 d,tcheck) scf=(maxcycle=1)\\title\\0,1\C,0,-0.621065,1.325981,0.\C,0,0
 .020904,0.729584,1.256731\C,0,0.020904,0.729584,-1.256731\C,0,0.020904
 ,-0.794091,1.182195\C,0,0.020904,-0.794091,-1.182195\O,0,0.655923,-1.2
 67487,0.\H,0,-1.692321,1.099091,0.\H,0,-0.531769,2.413763,0.\H,0,1.053
 246,1.077801,1.346976\H,0,-0.509437,1.050894,2.156429\H,0,-0.509437,1.
 050894,-2.156429\H,0,1.053246,1.077801,-1.346976\H,0,0.568763,-1.23471

 Normal termination of Gaussian 16 at Sat Apr  5 23:15:56 2025.
