 Gaussian 16, Revision C.01,

 ----------------------------------------------------------------------
 #t hf aug-cc-pvdz symm=none int=(grid=ultrafine) guess=(read,tcheck) s
 table=(opt,rrhf)
 ----------------------------------------------------------------------
 -----
 title
 -----
 Symbolic Z-matrix:
 Charge =  0 Multiplicity = 1

 SCF Done:  E(RHF) =  -592.720199721     A.U. after   13 cycles

 1\1\GINC-SE185\Stability\RHF\Aug-CC-pVDZ\C5H10S1\OHZDE\05-Apr-2025\0\\
 #t hf aug-cc-pvdz symm=none int=(grid=ultrafine) guess=(read,tcheck) s
 table=(opt,rrhf)\\title\\0,1\S,0,-1.476701,-0.452025,-0.259302\C,0,1.9
 13232,-0.302099,-0.804682\H,0,1.265426,-0.226374,-1.678866\H,0,2.68384
 4,0.46612,-0.886402\H,0,2.406718,-1.274145,-0.844759\C,0,-0.015272,-1.
 169321,0.615996\H,0,0.23235,-2.1242,0.156285\H,0,-0.282085,-1.344028,1
 .657022\C,0,1.122948,-0.146438,0.49693\H,0,1.809247,-0.288791,1.336203
 \C,0,-0.761847,1.249024,-0.31183\H,0,-1.51911,1.960559,0.008816\H,0,-0

 Normal termination of Gaussian 16 at Sat Apr  5 23:16:28 2025.
 Gaussian 16:  ES64L-G16RevC.01  3-Jul-2019

 ----------------------------------------------------------------------
 #t hf aug-cc-pvdz iop(5/13=1,5/36=2,99/5=2) pseudo=read geom=check gue
 ss=(read,tcheck) scf=(maxcycle=1)
 ----------------------------------------------------------------------
 -----
 title
 -----
 Structure from the checkpoint file:  "tetrahydro-3-methylthiophene.chk"
 Charge =  0 Multiplicity = 1

                         Standard orientation:
 ---------------------------------------------------------------------
 Center     Atomic      Atomic             Coordinates (Angstroms)
 Number     Number       Type             X           Y           Z
 ---------------------------------------------------------------------
      1         16           0       -1.476701   -0.452024   -0.259302
      2          6           0        1.913232   -0.302099   -0.804682
      3          1           0        1.265426   -0.226374   -1.678866
      4          1           0        2.683844    0.466119   -0.886402
      5          1           0        2.406718   -1.274146   -0.844759
      6          6           0       -0.015272   -1.169321    0.615996
      7          1           0        0.232349   -2.124200    0.156285
      8          1           0       -0.282085   -1.344028    1.657022
      9          6           0        1.122948   -0.146438    0.496930
     10          1           0        1.809247   -0.288791    1.336203
     11          6           0       -0.761847    1.249024   -0.311830
     12          1           0       -1.519109    1.960560    0.008816
     13          1           0       -0.481066    1.483947   -1.337013
     14          6           0        0.449983    1.229470    0.621149
     15          1           0        0.115459    1.375949    1.649963
     16          1           0        1.142170    2.039539    0.382198
 ---------------------------------------------------------------------

 SCF Done:  E(RHF) =  -592.996578204     A.U. after    2 cycles

 The electronic state is 1-A.
 Alpha  occ. eigenvalues --  -93.92822 -11.26049 -11.25934 -11.24523 -11.23898
 Alpha  occ. eigenvalues --  -11.22673  -8.20909  -6.18713  -6.18592  -6.18364
 Alpha  occ. eigenvalues --   -1.14182  -1.01754  -0.98560  -0.91723  -0.79676
 Alpha  occ. eigenvalues --   -0.76811  -0.66924  -0.64626  -0.61582  -0.56892
 Alpha  occ. eigenvalues --   -0.55825  -0.53771  -0.50094  -0.48362  -0.48051
 Alpha  occ. eigenvalues --   -0.47566  -0.42548  -0.33653
 Alpha virt. eigenvalues --    0.03263   0.03705   0.03818   0.04616   0.06147
 Alpha virt. eigenvalues --    0.06302   0.06318   0.06870   0.08001   0.09801
 Alpha virt. eigenvalues --    0.10291   0.12548   0.13604   0.14280   0.14946

 Mulliken charges:
               1
     1  S    0.536508
     2  C   -0.269993
     3  H    0.254982
     4  H    0.135419
     5  H    0.116523
     6  C   -0.529842
     7  H    0.160337
     8  H    0.115117
     9  C   -0.555239
    10  H    0.158676
    11  C   -0.645935
    12  H    0.160790
    13  H    0.152869
    14  C   -0.037065
    15  H    0.105803
    16  H    0.141050
 Sum of Mulliken charges =  -0.00000

 Dipole moment (field-independent basis, Debye):
    X=              2.0370    Y=              0.8659    Z=              0.7586  Tot=              2.3398

 Test job not archived.
 1\1\GINC-SE185\SP\RHF\Aug-CC-pVDZ\C5H10S1\OHZDE\05-Apr-2025\0\\#t hf a
 ug-cc-pvdz iop(5/13=1,5/36=2,99/5=2) pseudo=read geom=check guess=(rea
 d,tcheck) scf=(maxcycle=1)\\title\\0,1\S,0,-1.476701,-0.452025,-0.2593
 02\C,0,1.913232,-0.302099,-0.804682\H,0,1.265426,-0.226374,-1.678866\H
 ,0,2.683844,0.46612,-0.886402\H,0,2.406718,-1.274145,-0.844759\C,0,-0.
 015272,-1.169321,0.615996\H,0,0.23235,-2.1242,0.156285\H,0,-0.282085,-
 1.344028,1.657022\C,0,1.122948,-0.146438,0.49693\H,0,1.809247,-0.28879
 1,1.336203\C,0,-0.761847,1.249024,-0.31183\H,0,-1.51911,1.960559,0.008

 Normal termination of Gaussian 16 at Sat Apr  5 23:16:34 2025.
