 Gaussian 16, Revision C.01,

 ----------------------------------------------------------------------
 #t hf aug-cc-pvdz symm=none int=(grid=ultrafine) guess=(read,tcheck) s
 table=(opt,rrhf)
 ----------------------------------------------------------------------
 -----
 title
 -----
 Symbolic Z-matrix:
 Charge =  0 Multiplicity = 1

 SCF Done:  E(RHF) =  -854.093789118     A.U. after   13 cycles
 Normal termination of Gaussian 16 at Sat Apr  5 23:18:12 2025.
 Gaussian 16:  ES64L-G16RevC.01  3-Jul-2019

 ----------------------------------------------------------------------
 #t hf aug-cc-pvdz iop(5/13=1,5/36=2,99/5=2) pseudo=read geom=check gue
 ss=(read,tcheck) scf=(maxcycle=1)
 ----------------------------------------------------------------------
 -----
 title
 -----
 Structure from the checkpoint file:  "tetranitromethane.chk"
 Charge =  0 Multiplicity = 1

                         Standard orientation:
 ---------------------------------------------------------------------
 Center     Atomic      Atomic             Coordinates (Angstroms)
 Number     Number       Type             X           Y           Z
 ---------------------------------------------------------------------
      1          6           0        0.000000    0.000000    0.000000
      2          7           0        0.447266   -1.152752    0.927023
      3          8           0        1.211160   -0.804270    1.793232
      4          7           0       -0.447266    1.152752    0.927023
      5          8           0        0.000000    2.247297    0.698711
      6          8           0       -1.211160    0.804270    1.793232
      7          7           0       -1.152752   -0.447266   -0.927023
      8          8           0       -2.247297    0.000000   -0.698711
      9          8           0       -0.804270   -1.211160   -1.793232
     10          7           0        1.152752    0.447266   -0.927023
     11          8           0        0.804270    1.211160   -1.793232
     12          8           0        2.247297   -0.000000   -0.698711
     13          8           0       -0.000000   -2.247297    0.698711
 ---------------------------------------------------------------------

 SCF Done:  E(RHF) =  -854.887726177     A.U. after    2 cycles

 The electronic state is 1-A.
 Alpha  occ. eigenvalues --  -20.68174 -20.68168 -20.68168 -20.68168 -20.67743
 Alpha  occ. eigenvalues --  -20.67743 -20.67737 -20.67732 -15.89231 -15.89231
 Alpha  occ. eigenvalues --  -15.89192 -15.89045 -11.56121  -1.78122  -1.76749
 Alpha  occ. eigenvalues --   -1.76596  -1.76596  -1.61868  -1.61057  -1.61057
 Alpha  occ. eigenvalues --   -1.60957  -1.31132  -1.10131  -1.09181  -1.09181
 Alpha  occ. eigenvalues --   -0.93205  -0.91424  -0.90635  -0.90635  -0.84180
 Alpha  occ. eigenvalues --   -0.83609  -0.82660  -0.82654  -0.82654  -0.82448
 Alpha  occ. eigenvalues --   -0.81342  -0.81342  -0.63909  -0.60324  -0.58544
 Alpha  occ. eigenvalues --   -0.58544  -0.57424  -0.56561  -0.56561  -0.55467
 Alpha  occ. eigenvalues --   -0.54035  -0.52026  -0.51672  -0.51672
 Alpha virt. eigenvalues --   -0.03186  -0.02067  -0.02067  -0.01155   0.07400
 Alpha virt. eigenvalues --    0.10280   0.10280   0.10480   0.11662   0.11662
 Alpha virt. eigenvalues --    0.11894   0.12496   0.13027   0.16845   0.17161

 Mulliken charges:
               1
     1  C   -1.834649
     2  N    3.344455
     3  O   -1.504648
     4  N    3.344455
     5  O   -1.381145
     6  O   -1.504648
     7  N    3.344455
     8  O   -1.381145
     9  O   -1.504648
    10  N    3.344455
    11  O   -1.504648
    12  O   -1.381145
    13  O   -1.381145
 Sum of Mulliken charges =   0.00000

 Dipole moment (field-independent basis, Debye):
    X=              0.0000    Y=             -0.0000    Z=             -0.0000  Tot=              0.0000

 Test job not archived.
 1\1\GINC-SE158\SP\RHF\Aug-CC-pVDZ\C1N4O8\OHZDE\05-Apr-2025\0\\#t hf au
 g-cc-pvdz iop(5/13=1,5/36=2,99/5=2) pseudo=read geom=check guess=(read
 ,tcheck) scf=(maxcycle=1)\\title\\0,1\C,0,0.,0.,0.\N,0,0.447266,-1.152
 752,0.927023\O,0,1.21116,-0.80427,1.793232\N,0,-0.447266,1.152752,0.92
 7023\O,0,0.,2.247297,0.698711\O,0,-1.21116,0.80427,1.793232\N,0,-1.152
 752,-0.447266,-0.927023\O,0,-2.247297,0.,-0.698711\O,0,-0.80427,-1.211
 16,-1.793232\N,0,1.152752,0.447266,-0.927023\O,0,0.80427,1.21116,-1.79
 3232\O,0,2.247297,0.,-0.698711\O,0,0.,-2.247297,0.698711\\Version=ES64

 Normal termination of Gaussian 16 at Sat Apr  5 23:18:17 2025.
