 Gaussian 16, Revision C.01,

 ----------------------------------------------------------------------
 #t hf aug-cc-pvdz symm=none int=(grid=ultrafine) guess=(read,tcheck) s
 table=(opt,rrhf)
 ----------------------------------------------------------------------
 -----
 title
 -----
 Symbolic Z-matrix:
 Charge =  0 Multiplicity = 1

 SCF Done:  E(RHF) =  -592.723363130     A.U. after   12 cycles

 1\1\GINC-SE129\Stability\RHF\Aug-CC-pVDZ\C5H10S1\OHZDE\05-Apr-2025\0\\
 #t hf aug-cc-pvdz symm=none int=(grid=ultrafine) guess=(read,tcheck) s
 table=(opt,rrhf)\\title\\0,1\S,0,-0.747974,-1.318207,0.\C,0,0.805831,1
 .524574,0.\C,0,0.139507,1.01143,1.280779\C,0,0.139507,1.01143,-1.28077
 9\C,0,0.139507,-0.511309,1.383433\C,0,0.139507,-0.511309,-1.383433\H,0
 ,0.797332,2.616416,0.\H,0,1.85981,1.225806,0.\H,0,1.161031,-0.896509,1
 .416773\H,0,1.161031,-0.896509,-1.416773\H,0,0.661931,1.421155,2.15029
 9\H,0,0.661931,1.421155,-2.150299\H,0,-0.89091,1.371982,1.328857\H,0,-

 Normal termination of Gaussian 16 at Sat Apr  5 23:16:26 2025.
 Gaussian 16:  ES64L-G16RevC.01  3-Jul-2019

 ----------------------------------------------------------------------
 #t hf aug-cc-pvdz iop(5/13=1,5/36=2,99/5=2) pseudo=read geom=check gue
 ss=(read,tcheck) scf=(maxcycle=1)
 ----------------------------------------------------------------------
 -----
 title
 -----
 Structure from the checkpoint file:  "tetrahydro-2H-thiopyran.chk"
 Charge =  0 Multiplicity = 1

                         Standard orientation:
 ---------------------------------------------------------------------
 Center     Atomic      Atomic             Coordinates (Angstroms)
 Number     Number       Type             X           Y           Z
 ---------------------------------------------------------------------
      1         16           0       -0.747974   -1.318207   -0.000000
      2          6           0        0.805831    1.524574    0.000000
      3          6           0        0.139507    1.011430    1.280779
      4          6           0        0.139507    1.011430   -1.280779
      5          6           0        0.139507   -0.511309    1.383433
      6          6           0        0.139507   -0.511309   -1.383433
      7          1           0        0.797332    2.616416    0.000000
      8          1           0        1.859810    1.225806    0.000000
      9          1           0        1.161031   -0.896509    1.416773
     10          1           0        1.161031   -0.896509   -1.416773
     11          1           0        0.661931    1.421155    2.150299
     12          1           0        0.661931    1.421155   -2.150299
     13          1           0       -0.890910    1.371982    1.328857
     14          1           0       -0.890910    1.371982   -1.328857
     15          1           0       -0.368406   -0.846533   -2.286830
     16          1           0       -0.368406   -0.846533    2.286830
 ---------------------------------------------------------------------

 SCF Done:  E(RHF) =  -593.000134546     A.U. after    2 cycles

 The electronic state is 1-A'.
 Alpha  occ. eigenvalues --  -93.93030 -11.26040 -11.26006 -11.23467 -11.23460
 Alpha  occ. eigenvalues --  -11.23264  -8.21121  -6.18938  -6.18795  -6.18577
 Alpha  occ. eigenvalues --   -1.12714  -1.02451  -1.01949  -0.85103  -0.84852
 Alpha  occ. eigenvalues --   -0.76317  -0.65683  -0.62424  -0.62059  -0.58836
 Alpha  occ. eigenvalues --   -0.55768  -0.53875  -0.50778  -0.50603  -0.48025
 Alpha  occ. eigenvalues --   -0.44546  -0.42140  -0.33798
 Alpha virt. eigenvalues --    0.03518   0.03564   0.03774   0.04413   0.05857
 Alpha virt. eigenvalues --    0.06331   0.06445   0.07213   0.07502   0.09433
 Alpha virt. eigenvalues --    0.10540   0.13712   0.13765   0.14574   0.14641

 Mulliken charges:
               1
     1  S    0.483702
     2  C   -0.336475
     3  C   -0.213483
     4  C   -0.213483
     5  C   -0.631696
     6  C   -0.631696
     7  H    0.127759
     8  H    0.126260
     9  H    0.193861
    10  H    0.193861
    11  H    0.131367
    12  H    0.131367
    13  H    0.149203
    14  H    0.149203
    15  H    0.170126
    16  H    0.170126
 Sum of Mulliken charges =  -0.00000

 Dipole moment (field-independent basis, Debye):
    X=              1.3921    Y=              1.5715    Z=              0.0000  Tot=              2.0994

 Test job not archived.
 1\1\GINC-SE129\SP\RHF\Aug-CC-pVDZ\C5H10S1\OHZDE\05-Apr-2025\0\\#t hf a
 ug-cc-pvdz iop(5/13=1,5/36=2,99/5=2) pseudo=read geom=check guess=(rea
 d,tcheck) scf=(maxcycle=1)\\title\\0,1\S,0,-0.747974,-1.318207,0.\C,0,
 0.805831,1.524574,0.\C,0,0.139507,1.01143,1.280779\C,0,0.139507,1.0114
 3,-1.280779\C,0,0.139507,-0.511309,1.383433\C,0,0.139507,-0.511309,-1.
 383433\H,0,0.797332,2.616416,0.\H,0,1.85981,1.225806,0.\H,0,1.161031,-
 0.896509,1.416773\H,0,1.161031,-0.896509,-1.416773\H,0,0.661931,1.4211
 55,2.150299\H,0,0.661931,1.421155,-2.150299\H,0,-0.89091,1.371982,1.32

 Normal termination of Gaussian 16 at Sat Apr  5 23:16:30 2025.
