 Gaussian 16, Revision C.01,

 ----------------------------------------------------------------------
 #t hf aug-cc-pvdz symm=none int=(grid=ultrafine) guess=(read,tcheck) s
 table=(opt,rrhf)
 ----------------------------------------------------------------------
 -----
 title
 -----
 Symbolic Z-matrix:
 Charge =  0 Multiplicity = 1

 SCF Done:  E(RHF) =  -1875.85026988     A.U. after   10 cycles
 Normal termination of Gaussian 16 at Sat Apr  5 23:14:24 2025.
 Gaussian 16:  ES64L-G16RevC.01  3-Jul-2019

 ----------------------------------------------------------------------
 #t hf aug-cc-pvdz iop(5/13=1,5/36=2,99/5=2) pseudo=read geom=check gue
 ss=(read,tcheck) scf=(maxcycle=1)
 ----------------------------------------------------------------------
 -----
 title
 -----
 Structure from the checkpoint file:  "tetrachloromethane.chk"
 Charge =  0 Multiplicity = 1

                         Standard orientation:
 ---------------------------------------------------------------------
 Center     Atomic      Atomic             Coordinates (Angstroms)
 Number     Number       Type             X           Y           Z
 ---------------------------------------------------------------------
      1          6           0        0.000000    0.000000    0.000000
      2         17           0        1.030607    1.030607    1.030607
      3         17           0       -1.030607   -1.030607    1.030607
      4         17           0        1.030607   -1.030607   -1.030607
      5         17           0       -1.030607    1.030607   -1.030607
 ---------------------------------------------------------------------

 SCF Done:  E(RHF) =  -1876.18753278     A.U. after    2 cycles

 The electronic state is 1-A1.
 Alpha  occ. eigenvalues -- -105.61156-105.61156-105.61156-105.61155 -11.51000
 Alpha  occ. eigenvalues --  -10.66009 -10.66009 -10.66009 -10.65990  -7.82957
 Alpha  occ. eigenvalues --   -7.82957  -7.82957  -7.82939  -7.82495  -7.82495
 Alpha  occ. eigenvalues --   -7.82495  -7.82491  -7.82491  -7.82491  -7.82491
 Alpha  occ. eigenvalues --   -7.82491  -1.25243  -1.08679  -1.08679  -1.08679
 Alpha  occ. eigenvalues --   -0.82891  -0.66883  -0.66883  -0.66883  -0.54360
 Alpha  occ. eigenvalues --   -0.54360  -0.50024  -0.50024  -0.50024  -0.47220
 Alpha  occ. eigenvalues --   -0.47220  -0.47220
 Alpha virt. eigenvalues --    0.05238   0.07756   0.08303   0.08303   0.08303
 Alpha virt. eigenvalues --    0.12094   0.12094   0.12094   0.15093   0.15093
 Alpha virt. eigenvalues --    0.18636   0.18636   0.18636   0.19146   0.19146

 Mulliken charges:
               1
     1  C   -1.358717
     2  Cl   0.339679
     3  Cl   0.339679
     4  Cl   0.339679
     5  Cl   0.339679
 Sum of Mulliken charges =   0.00000

 Dipole moment (field-independent basis, Debye):
    X=              0.0000    Y=             -0.0000    Z=             -0.0000  Tot=              0.0000

 Test job not archived.
 1\1\GINC-SE011\SP\RHF\Aug-CC-pVDZ\C1Cl4\OHZDE\05-Apr-2025\0\\#t hf aug
 -cc-pvdz iop(5/13=1,5/36=2,99/5=2) pseudo=read geom=check guess=(read,
 tcheck) scf=(maxcycle=1)\\title\\0,1\C,0,0.,0.,0.\Cl,0,1.030607,1.0306
 07,1.030607\Cl,0,-1.030607,-1.030607,1.030607\Cl,0,1.030607,-1.030607,
 -1.030607\Cl,0,-1.030607,1.030607,-1.030607\\Version=ES64L-G16RevC.01\
 State=1-A1\HF=-1876.1875328\RMSD=3.481e-03\Dipole=0.,0.,0.\Quadrupole=
 0.,0.,0.,0.,0.,0.\PG=TD [O(C1),4C3(Cl1)]\\@

 Normal termination of Gaussian 16 at Sat Apr  5 23:15:56 2025.
