 Gaussian 16, Revision C.01,

 ----------------------------------------------------------------------
 #t hf aug-cc-pvdz symm=none int=(grid=ultrafine) guess=(read,tcheck) s
 table=(opt,rrhf)
 ----------------------------------------------------------------------
 -----
 title
 -----
 Symbolic Z-matrix:
 Charge =  0 Multiplicity = 1

 SCF Done:  E(RHF) =  -231.005886921     A.U. after   11 cycles
 Normal termination of Gaussian 16 at Sat Apr  5 23:16:17 2025.
 Gaussian 16:  ES64L-G16RevC.01  3-Jul-2019

 ----------------------------------------------------------------------
 #t hf aug-cc-pvdz iop(5/13=1,5/36=2,99/5=2) pseudo=read geom=check gue
 ss=(read,tcheck) scf=(maxcycle=1)
 ----------------------------------------------------------------------
 -----
 title
 -----
 Structure from the checkpoint file:  "tetrahydrofuran.chk"
 Charge =  0 Multiplicity = 1

                         Standard orientation:
 ---------------------------------------------------------------------
 Center     Atomic      Atomic             Coordinates (Angstroms)
 Number     Number       Type             X           Y           Z
 ---------------------------------------------------------------------
      1          6           0        0.000000    0.766501   -0.994198
      2          6           0       -0.000000   -0.766501   -0.994198
      3          6           0        0.461326    1.081053    0.428368
      4          6           0       -0.461326   -1.081053    0.428368
      5          8           0       -0.000000    0.000000    1.249603
      6          1           0        0.652460    1.198961   -1.751443
      7          1           0       -1.009869    1.145990   -1.159921
      8          1           0       -0.652460   -1.198961   -1.751443
      9          1           0        1.009869   -1.145990   -1.159921
     10          1           0        1.553740    1.135699    0.488606
     11          1           0        0.050023    2.012637    0.819323
     12          1           0       -1.553740   -1.135699    0.488606
     13          1           0       -0.050023   -2.012637    0.819323
 ---------------------------------------------------------------------

 SCF Done:  E(RHF) =  -231.253642965     A.U. after    2 cycles

 The electronic state is 1-A.
 Alpha  occ. eigenvalues --  -20.53048 -11.27678 -11.27606 -11.23350 -11.23329
 Alpha  occ. eigenvalues --   -1.44517  -1.06639  -0.99301  -0.81476  -0.81273
 Alpha  occ. eigenvalues --   -0.68827  -0.67956  -0.59726  -0.59363  -0.56439
 Alpha  occ. eigenvalues --   -0.50699  -0.50390  -0.48223  -0.46796  -0.40141
 Alpha virt. eigenvalues --    0.03709   0.03960   0.04151   0.04607   0.06639
 Alpha virt. eigenvalues --    0.06694   0.06904   0.07384   0.11017   0.13823
 Alpha virt. eigenvalues --    0.14449   0.14590   0.14682   0.14976   0.15904

 Mulliken charges:
               1
     1  C   -0.420988
     2  C   -0.420988
     3  C    0.722532
     4  C    0.722532
     5  O   -1.329446
     6  H    0.170084
     7  H    0.067894
     8  H    0.170084
     9  H    0.067894
    10  H    0.065252
    11  H    0.059949
    12  H    0.065252
    13  H    0.059949
 Sum of Mulliken charges =  -0.00000

 Dipole moment (field-independent basis, Debye):
    X=             -0.0000    Y=             -0.0000    Z=             -1.8913  Tot=              1.8913

 Test job not archived.
 1\1\GINC-SE225\SP\RHF\Aug-CC-pVDZ\C4H8O1\OHZDE\05-Apr-2025\0\\#t hf au
 g-cc-pvdz iop(5/13=1,5/36=2,99/5=2) pseudo=read geom=check guess=(read
 ,tcheck) scf=(maxcycle=1)\\title\\0,1\C,0,0.,0.766501,-0.994198\C,0,0.
 ,-0.766501,-0.994198\C,0,0.461326,1.081053,0.428368\C,0,-0.461326,-1.0
 81053,0.428368\O,0,0.,0.,1.249603\H,0,0.65246,1.198961,-1.751443\H,0,-
 1.009869,1.14599,-1.159921\H,0,-0.65246,-1.198961,-1.751443\H,0,1.0098
 69,-1.14599,-1.159921\H,0,1.55374,1.135699,0.488606\H,0,0.050023,2.012
 637,0.819323\H,0,-1.55374,-1.135699,0.488606\H,0,-0.050023,-2.012637,0

 Normal termination of Gaussian 16 at Sat Apr  5 23:16:20 2025.
