 Gaussian 16, Revision C.01,

 ----------------------------------------------------------------------
 #t hf aug-cc-pvdz symm=none int=(grid=ultrafine) guess=(read,tcheck) s
 table=(opt,rrhf)
 ----------------------------------------------------------------------
 -----
 title
 -----
 Symbolic Z-matrix:
 Charge =  0 Multiplicity = 1

 SCF Done:  E(RHF) =  -343.781302669     A.U. after   14 cycles
 Normal termination of Gaussian 16 at Sat Apr  5 23:16:52 2025.
 Gaussian 16:  ES64L-G16RevC.01  3-Jul-2019

 ----------------------------------------------------------------------
 #t hf aug-cc-pvdz iop(5/13=1,5/36=2,99/5=2) pseudo=read geom=check gue
 ss=(read,tcheck) scf=(maxcycle=1)
 ----------------------------------------------------------------------
 -----
 title
 -----
 Structure from the checkpoint file:  "tetrahydropyran-2-one.chk"
 Charge =  0 Multiplicity = 1

                         Standard orientation:
 ---------------------------------------------------------------------
 Center     Atomic      Atomic             Coordinates (Angstroms)
 Number     Number       Type             X           Y           Z
 ---------------------------------------------------------------------
      1          6           0       -1.136499   -0.015675   -0.013358
      2          6           0       -0.351177    1.282015   -0.109345
      3          6           0        1.121374    1.196395    0.288033
      4          6           0        1.730375   -0.061094   -0.320692
      5          6           0        0.967631   -1.274376    0.171548
      6          8           0       -2.337675   -0.038845    0.011767
      7          8           0       -0.460963   -1.190435   -0.035842
      8          1           0       -0.435798    1.586810   -1.156969
      9          1           0       -0.898296    2.025035    0.467869
     10          1           0        1.649445    2.092882   -0.038416
     11          1           0        1.214168    1.154900    1.376777
     12          1           0        1.688686   -0.010986   -1.412045
     13          1           0        2.779640   -0.174267   -0.041841
     14          1           0        1.269887   -2.184408   -0.342725
     15          1           0        1.131141   -1.419315    1.242831
 ---------------------------------------------------------------------

 SCF Done:  E(RHF) =  -344.134740079     A.U. after    2 cycles

 The electronic state is 1-A.
 Alpha  occ. eigenvalues --  -20.58206 -20.51996 -11.38374 -11.31013 -11.25868
 Alpha  occ. eigenvalues --  -11.25603 -11.25490  -1.53071  -1.44118  -1.11489
 Alpha  occ. eigenvalues --   -1.03648  -0.92025  -0.86594  -0.75933  -0.70477
 Alpha  occ. eigenvalues --   -0.67575  -0.67070  -0.63915  -0.62176  -0.60413
 Alpha  occ. eigenvalues --   -0.57356  -0.52392  -0.51366  -0.51023  -0.48935
 Alpha  occ. eigenvalues --   -0.43749  -0.42274
 Alpha virt. eigenvalues --    0.02767   0.03350   0.03414   0.04439   0.05882
 Alpha virt. eigenvalues --    0.06205   0.06725   0.07749   0.09560   0.12153
 Alpha virt. eigenvalues --    0.13249   0.13425   0.13951   0.14242   0.14498

 Mulliken charges:
               1
     1  C    1.874104
     2  C   -0.411628
     3  C   -0.196768
     4  C   -0.351179
     5  C    0.609263
     6  O   -1.311104
     7  O   -1.363112
     8  H    0.272364
     9  H    0.148255
    10  H    0.142787
    11  H    0.146572
    12  H    0.118915
    13  H    0.170578
    14  H    0.028822
    15  H    0.122131
 Sum of Mulliken charges =  -0.00000

 Dipole moment (field-independent basis, Debye):
    X=              5.0879    Y=              1.3252    Z=              0.0763  Tot=              5.2582

 Test job not archived.
 1\1\GINC-SE036\SP\RHF\Aug-CC-pVDZ\C5H8O2\OHZDE\05-Apr-2025\0\\#t hf au
 g-cc-pvdz iop(5/13=1,5/36=2,99/5=2) pseudo=read geom=check guess=(read
 ,tcheck) scf=(maxcycle=1)\\title\\0,1\C,0,-1.136499,-0.015675,-0.01335
 8\C,0,-0.351177,1.282015,-0.109345\C,0,1.121374,1.196395,0.288033\C,0,
 1.730375,-0.061094,-0.320692\C,0,0.967631,-1.274376,0.171548\O,0,-2.33
 7675,-0.038845,0.011767\O,0,-0.460963,-1.190435,-0.035842\H,0,-0.43579
 8,1.58681,-1.156969\H,0,-0.898296,2.025035,0.467869\H,0,1.649445,2.092
 882,-0.038416\H,0,1.214168,1.1549,1.376777\H,0,1.688686,-0.010986,-1.4

 Normal termination of Gaussian 16 at Sat Apr  5 23:16:58 2025.
