 Gaussian 16, Revision C.01,

 ----------------------------------------------------------------------
 #t hf aug-cc-pvdz symm=none int=(grid=ultrafine) guess=(read,tcheck) s
 table=(opt,rrhf)
 ----------------------------------------------------------------------
 -----
 title
 -----
 Symbolic Z-matrix:
 Charge =  0 Multiplicity = 1

 SCF Done:  E(RHF) =  -425.877134363     A.U. after   12 cycles
 Normal termination of Gaussian 16 at Sat Apr  5 23:19:02 2025.
 Gaussian 16:  ES64L-G16RevC.01  3-Jul-2019

 ----------------------------------------------------------------------
 #t hf aug-cc-pvdz iop(5/13=1,5/36=2,99/5=2) pseudo=read geom=check gue
 ss=(read,tcheck) scf=(maxcycle=1)
 ----------------------------------------------------------------------
 -----
 title
 -----
 Structure from the checkpoint file:  "tetracyclo-undecane.chk"
 Charge =  0 Multiplicity = 1

                         Standard orientation:
 ---------------------------------------------------------------------
 Center     Atomic      Atomic             Coordinates (Angstroms)
 Number     Number       Type             X           Y           Z
 ---------------------------------------------------------------------
      1          6           0       -2.401528    0.502518   -0.667526
      2          6           0       -2.260633   -1.021826   -0.364232
      3          6           0       -1.222072    1.126694    0.106636
      4          6           0       -0.997200   -1.082851    0.518924
      5          6           0       -1.144453    0.209527    1.343374
      6          6           0        0.221275   -0.773296   -0.380965
      7          6           0        0.094854    0.782700   -0.624847
      8          6           0        1.349485    1.451766    0.000179
      9          6           0        1.581769   -0.992045    0.255521
     10          6           0        2.270694    0.335229    0.459780
     11          6           0        2.775082   -0.620972   -0.585328
     12          1           0       -3.352715    0.889677   -0.300403
     13          1           0       -2.352143    0.725742   -1.733924
     14          1           0       -2.158654   -1.624292   -1.267296
     15          1           0       -3.129856   -1.394619    0.178895
     16          1           0       -1.339901    2.191878    0.303109
     17          1           0       -0.899022   -2.008675    1.084603
     18          1           0       -0.291880    0.414655    1.989396
     19          1           0       -2.051980    0.229391    1.948912
     20          1           0        0.145237   -1.338197   -1.312928
     21          1           0        0.018474    1.024497   -1.684640
     22          1           0        1.840307    2.119123   -0.711691
     23          1           0        1.063396    2.066804    0.856481
     24          1           0        1.694152   -1.794885    0.972678
     25          1           0        2.893858    0.506385    1.327317
     26          1           0        2.609293   -0.379963   -1.628590
     27          1           0        3.707801   -1.132180   -0.391015
 ---------------------------------------------------------------------

 SCF Done:  E(RHF) =  -426.336661583     A.U. after    2 cycles

 The electronic state is 1-A.
 Alpha  occ. eigenvalues --  -11.22589 -11.22387 -11.22297 -11.22284 -11.22256
 Alpha  occ. eigenvalues --  -11.22227 -11.22207 -11.22064 -11.21896 -11.21873
 Alpha  occ. eigenvalues --  -11.21575  -1.18755  -1.13710  -1.01419  -0.98659
 Alpha  occ. eigenvalues --   -0.94662  -0.92889  -0.83417  -0.77893  -0.77613
 Alpha  occ. eigenvalues --   -0.74977  -0.72444  -0.67991  -0.67404  -0.65288
 Alpha  occ. eigenvalues --   -0.62220  -0.58962  -0.56775  -0.55143  -0.52534
 Alpha  occ. eigenvalues --   -0.50333  -0.49869  -0.49149  -0.49017  -0.47819
 Alpha  occ. eigenvalues --   -0.46030  -0.44090  -0.43802  -0.43125  -0.40023
 Alpha  occ. eigenvalues --   -0.39012
 Alpha virt. eigenvalues --    0.03007   0.03153   0.03342   0.03896   0.04835
 Alpha virt. eigenvalues --    0.05097   0.05214   0.05510   0.05711   0.07788
 Alpha virt. eigenvalues --    0.08408   0.08551   0.08652   0.08991   0.10393

 Mulliken charges:
               1
     1  C   -0.085796
     2  C   -0.017872
     3  C   -0.108695
     4  C   -0.061242
     5  C    0.180454
     6  C   -0.219691
     7  C   -0.053639
     8  C   -0.452406
     9  C    0.516582
    10  C    0.500378
    11  C    0.341043
    12  H    0.072921
    13  H    0.098913
    14  H    0.091023
    15  H    0.047087
    16  H   -0.075430
    17  H   -0.087072
    18  H    0.104880
    19  H   -0.019684
    20  H   -0.070678
    21  H   -0.065269
    22  H    0.095460
    23  H    0.082694
    24  H   -0.303554
    25  H   -0.203562
    26  H   -0.119157
    27  H   -0.187690
 Sum of Mulliken charges =  -0.00000

 Dipole moment (field-independent basis, Debye):
    X=             -0.1071    Y=              0.0272    Z=              0.1516  Tot=              0.1876

 Test job not archived.
 1\1\GINC-SE164\SP\RHF\Aug-CC-pVDZ\C11H16\OHZDE\05-Apr-2025\0\\#t hf au
 g-cc-pvdz iop(5/13=1,5/36=2,99/5=2) pseudo=read geom=check guess=(read
 ,tcheck) scf=(maxcycle=1)\\title\\0,1\C,0,-2.401528,0.502518,-0.667526
 \C,0,-2.260633,-1.021826,-0.364232\C,0,-1.222072,1.126694,0.106636\C,0
 ,-0.9972,-1.082851,0.518924\C,0,-1.144453,0.209527,1.343374\C,0,0.2212
 75,-0.773296,-0.380965\C,0,0.094854,0.7827,-0.624847\C,0,1.349485,1.45
 1766,0.000179\C,0,1.581769,-0.992045,0.255521\C,0,2.270694,0.335229,0.
 45978\C,0,2.775082,-0.620972,-0.585328\H,0,-3.352715,0.889677,-0.30040

 Normal termination of Gaussian 16 at Sat Apr  5 23:19:27 2025.
