 Gaussian 16, Revision C.01,

 ----------------------------------------------------------------------
 #t hf aug-cc-pvdz symm=none int=(grid=ultrafine) guess=(read,tcheck) s
 table=(opt,rrhf)
 ----------------------------------------------------------------------
 -----
 title
 -----
 Symbolic Z-matrix:
 Charge =  0 Multiplicity = 1

 SCF Done:  E(RHF) =  -592.722461083     A.U. after   13 cycles

 1\1\GINC-SE206\Stability\RHF\Aug-CC-pVDZ\C5H10S1\OHZDE\05-Apr-2025\0\\
 #t hf aug-cc-pvdz symm=none int=(grid=ultrafine) guess=(read,tcheck) s
 table=(opt,rrhf)\\title\\0,1\C,0,-2.277189,0.125824,0.21236\H,0,-2.220
 83,0.016412,1.295791\H,0,-2.855694,1.024383,-0.016248\H,0,-2.824192,-0
 .729215,-0.185129\S,0,0.123265,-1.298216,-0.068974\C,0,1.67673,-0.3648
 75,0.283148\H,0,2.502112,-0.834989,-0.246639\H,0,1.880084,-0.410297,1.
 35212\C,0,-0.886248,0.229699,-0.395836\H,0,-0.974067,0.321657,-1.47958
 1\C,0,1.420648,1.071535,-0.176011\H,0,1.587312,1.148737,-1.252546\H,0,

 Normal termination of Gaussian 16 at Sat Apr  5 23:14:53 2025.
 Gaussian 16:  ES64L-G16RevC.01  3-Jul-2019

 ----------------------------------------------------------------------
 #t hf aug-cc-pvdz iop(5/13=1,5/36=2,99/5=2) pseudo=read geom=check gue
 ss=(read,tcheck) scf=(maxcycle=1)
 ----------------------------------------------------------------------
 -----
 title
 -----
 Structure from the checkpoint file:  "tetrahydro-2-methylthiophene.chk"
 Charge =  0 Multiplicity = 1

                         Standard orientation:
 ---------------------------------------------------------------------
 Center     Atomic      Atomic             Coordinates (Angstroms)
 Number     Number       Type             X           Y           Z
 ---------------------------------------------------------------------
      1          6           0       -2.277189    0.125824    0.212360
      2          1           0       -2.220830    0.016412    1.295791
      3          1           0       -2.855694    1.024384   -0.016248
      4          1           0       -2.824192   -0.729215   -0.185129
      5         16           0        0.123265   -1.298216   -0.068974
      6          6           0        1.676730   -0.364875    0.283148
      7          1           0        2.502112   -0.834989   -0.246639
      8          1           0        1.880084   -0.410297    1.352120
      9          6           0       -0.886248    0.229699   -0.395836
     10          1           0       -0.974067    0.321657   -1.479581
     11          6           0        1.420648    1.071535   -0.176011
     12          1           0        1.587312    1.148737   -1.252546
     13          1           0        2.105520    1.766873    0.312872
     14          6           0       -0.039816    1.384131    0.141919
     15          1           0       -0.360577    2.332565   -0.294901
     16          1           0       -0.176661    1.457447    1.224367
 ---------------------------------------------------------------------

 SCF Done:  E(RHF) =  -592.998942706     A.U. after    2 cycles

 The electronic state is 1-A.
 Alpha  occ. eigenvalues --  -93.92562 -11.26604 -11.26038 -11.24024 -11.23798
 Alpha  occ. eigenvalues --  -11.22962  -8.20670  -6.18467  -6.18351  -6.18126
 Alpha  occ. eigenvalues --   -1.14030  -1.02902  -0.98094  -0.90960  -0.79977
 Alpha  occ. eigenvalues --   -0.77149  -0.66215  -0.64079  -0.61451  -0.57825
 Alpha  occ. eigenvalues --   -0.56656  -0.52710  -0.50563  -0.48925  -0.48430
 Alpha  occ. eigenvalues --   -0.46567  -0.42201  -0.33589
 Alpha virt. eigenvalues --    0.03485   0.03612   0.03893   0.04555   0.05981
 Alpha virt. eigenvalues --    0.06152   0.06293   0.07262   0.07525   0.09599
 Alpha virt. eigenvalues --    0.10382   0.12451   0.13868   0.14383   0.14712

 Mulliken charges:
               1
     1  C   -0.308892
     2  H    0.203998
     3  H    0.183593
     4  H    0.139876
     5  S    0.488393
     6  C   -0.647041
     7  H    0.158523
     8  H    0.162656
     9  C   -0.539633
    10  H    0.097058
    11  C   -0.113632
    12  H    0.115926
    13  H    0.156247
    14  C   -0.347794
    15  H    0.122263
    16  H    0.128460
 Sum of Mulliken charges =  -0.00000

 Dipole moment (field-independent basis, Debye):
    X=              0.3918    Y=              2.2383    Z=              0.0020  Tot=              2.2723

 Test job not archived.
 1\1\GINC-SE206\SP\RHF\Aug-CC-pVDZ\C5H10S1\OHZDE\05-Apr-2025\0\\#t hf a
 ug-cc-pvdz iop(5/13=1,5/36=2,99/5=2) pseudo=read geom=check guess=(rea
 d,tcheck) scf=(maxcycle=1)\\title\\0,1\C,0,-2.277189,0.125824,0.21236\
 H,0,-2.22083,0.016412,1.295791\H,0,-2.855694,1.024383,-0.016248\H,0,-2
 .824192,-0.729215,-0.185129\S,0,0.123265,-1.298216,-0.068974\C,0,1.676
 73,-0.364875,0.283148\H,0,2.502112,-0.834989,-0.246639\H,0,1.880084,-0
 .410297,1.35212\C,0,-0.886248,0.229699,-0.395836\H,0,-0.974067,0.32165
 7,-1.479581\C,0,1.420648,1.071535,-0.176011\H,0,1.587312,1.148737,-1.2

 Normal termination of Gaussian 16 at Sat Apr  5 23:15:58 2025.
