 Gaussian 16, Revision C.01,

 ----------------------------------------------------------------------
 #t hf aug-cc-pvdz symm=none int=(grid=ultrafine) guess=(read,tcheck) s
 table=(opt,rrhf)
 ----------------------------------------------------------------------
 -----
 title
 -----
 Symbolic Z-matrix:
 Charge =  0 Multiplicity = 1

 SCF Done:  E(RHF) =  -637.375750960     A.U. after   16 cycles
 Normal termination of Gaussian 16 at Sat Apr  5 23:21:08 2025.
 Gaussian 16:  ES64L-G16RevC.01  3-Jul-2019

 ----------------------------------------------------------------------
 #t hf aug-cc-pvdz iop(5/13=1,5/36=2,99/5=2) pseudo=read geom=check gue
 ss=(read,tcheck) scf=(maxcycle=1)
 ----------------------------------------------------------------------
 -----
 title
 -----
 Structure from the checkpoint file:  "theophylline.chk"
 Charge =  0 Multiplicity = 1

                         Standard orientation:
 ---------------------------------------------------------------------
 Center     Atomic      Atomic             Coordinates (Angstroms)
 Number     Number       Type             X           Y           Z
 ---------------------------------------------------------------------
      1          8           0       -0.702493   -2.681831   -0.000062
      2          6           0       -0.427456   -1.502083   -0.000033
      3          6           0        0.890406   -0.915681   -0.000045
      4          6           0        1.039767    0.449836   -0.000006
      5          6           0        0.269702    2.790611    0.000072
      6          7           0        0.022247    1.356401    0.000047
      7          6           0       -1.294568    0.876674    0.000053
      8          7           0       -1.455705   -0.502781    0.000017
      9          6           0       -2.848272   -0.963109    0.000032
     10          8           0       -2.241746    1.641359    0.000089
     11          7           0        2.127187   -1.527354   -0.000091
     12          6           0        2.991264   -0.559718   -0.000081
     13          7           0        2.381227    0.689357   -0.000031
     14          1           0        4.063530   -0.659977   -0.000108
     15          1           0        2.840421    1.583267   -0.000003
     16          1           0        0.825941    3.084691    0.892129
     17          1           0       -0.692999    3.289743    0.000154
     18          1           0        0.825822    3.084747   -0.892040
     19          1           0       -3.364115   -0.590499    0.882301
     20          1           0       -2.830297   -2.046278    0.000011
     21          1           0       -3.364145   -0.590467   -0.882207
 ---------------------------------------------------------------------

 SCF Done:  E(RHF) =  -638.010396542     A.U. after    2 cycles

 The electronic state is 1-A.
 Alpha  occ. eigenvalues --  -20.52797 -20.51884 -15.59741 -15.58143 -15.55779
 Alpha  occ. eigenvalues --  -15.51796 -11.41534 -11.37628 -11.35481 -11.32825
 Alpha  occ. eigenvalues --  -11.30429 -11.26387 -11.26259  -1.49356  -1.46865
 Alpha  occ. eigenvalues --   -1.38578  -1.31513  -1.26058  -1.21068  -1.08022
 Alpha  occ. eigenvalues --   -1.01785  -0.98811  -0.91753  -0.90359  -0.89297
 Alpha  occ. eigenvalues --   -0.84648  -0.76433  -0.74571  -0.72712  -0.69714
 Alpha  occ. eigenvalues --   -0.67247  -0.66335  -0.66121  -0.65127  -0.64657
 Alpha  occ. eigenvalues --   -0.61882  -0.59594  -0.57060  -0.56139  -0.55530
 Alpha  occ. eigenvalues --   -0.51168  -0.49551  -0.47667  -0.46992  -0.43486
 Alpha  occ. eigenvalues --   -0.42907  -0.33742
 Alpha virt. eigenvalues --    0.01408   0.03189   0.03786   0.04184   0.04903
 Alpha virt. eigenvalues --    0.06101   0.06271   0.06992   0.08340   0.08443
 Alpha virt. eigenvalues --    0.09707   0.10145   0.11094   0.11260   0.11980

 Mulliken charges:
               1
     1  O   -1.473961
     2  C    1.116823
     3  C   -0.952884
     4  C   -1.981138
     5  C   -0.130684
     6  N    1.008773
     7  C    0.688174
     8  N    0.983243
     9  C   -0.187700
    10  O   -1.367011
    11  N    1.364432
    12  C   -0.972749
    13  N    1.068767
    14  H   -0.122880
    15  H   -0.002542
    16  H    0.197741
    17  H    0.021858
    18  H    0.197757
    19  H    0.248736
    20  H    0.046506
    21  H    0.248739
 Sum of Mulliken charges =   0.00000

 Dipole moment (field-independent basis, Debye):
    X=              3.9966    Y=              6.2404    Z=              0.0001  Tot=              7.4105

 Test job not archived.
 1\1\GINC-SE196\SP\RHF\Aug-CC-pVDZ\C7H8N4O2\OHZDE\05-Apr-2025\0\\#t hf
 aug-cc-pvdz iop(5/13=1,5/36=2,99/5=2) pseudo=read geom=check guess=(re
 ad,tcheck) scf=(maxcycle=1)\\title\\0,1\O,0,-0.702493,-2.681831,-0.000
 062\C,0,-0.427456,-1.502083,-0.000033\C,0,0.890406,-0.915681,-0.000045
 \C,0,1.039767,0.449836,-0.000006\C,0,0.269702,2.790611,0.000072\N,0,0.
 022247,1.356401,0.000047\C,0,-1.294568,0.876674,0.000053\N,0,-1.455705
 ,-0.502781,0.000017\C,0,-2.848272,-0.963109,0.000032\O,0,-2.241746,1.6
 41359,0.000089\N,0,2.127187,-1.527354,-0.000091\C,0,2.991264,-0.559718

 Normal termination of Gaussian 16 at Sat Apr  5 23:21:26 2025.
