 Gaussian 16, Revision C.01,

 ----------------------------------------------------------------------
 #t hf aug-cc-pvdz symm=none int=(grid=ultrafine) guess=(read,tcheck) s
 table=(opt,rrhf)
 ----------------------------------------------------------------------
 -----
 title
 -----
 Symbolic Z-matrix:
 Charge =  0 Multiplicity = 1

 SCF Done:  E(RHF) =  -719.339388249     A.U. after   13 cycles
 Normal termination of Gaussian 16 at Sat Apr  5 23:16:51 2025.
 Gaussian 16:  ES64L-G16RevC.01  3-Jul-2019

 ----------------------------------------------------------------------
 #t hf aug-cc-pvdz iop(5/13=1,5/36=2,99/5=2) pseudo=read geom=check gue
 ss=(read,tcheck) scf=(maxcycle=1)
 ----------------------------------------------------------------------
 -----
 title
 -----
 Structure from the checkpoint file:  "thiazolidine-1-1-dioxide.chk"
 Charge =  0 Multiplicity = 1

                         Standard orientation:
 ---------------------------------------------------------------------
 Center     Atomic      Atomic             Coordinates (Angstroms)
 Number     Number       Type             X           Y           Z
 ---------------------------------------------------------------------
      1          6           0        1.834252    0.658103   -0.170078
      2          6           0        1.649901   -0.833890    0.185441
      3          6           0        0.498294    1.346797    0.118872
      4          7           0        0.326076   -1.259222   -0.291458
      5          8           0       -1.335449   -0.168992    1.339154
      6          8           0       -1.629458    0.146059   -1.144584
      7         16           0       -0.765053    0.008844    0.017322
      8          1           0        2.646117    1.108508    0.400152
      9          1           0        2.080033    0.749839   -1.228760
     10          1           0        2.410975   -1.464557   -0.268110
     11          1           0        1.690040   -0.982698    1.264866
     12          1           0        0.427121    1.743751    1.127834
     13          1           0        0.219725    2.107908   -0.603766
     14          1           0        0.308880   -1.432296   -1.291141
 ---------------------------------------------------------------------

 SCF Done:  E(RHF) =  -719.737208312     A.U. after    2 cycles

 The electronic state is 1-A.
 Alpha  occ. eigenvalues --  -94.20652 -20.54071 -20.53561 -15.54554 -11.30307
 Alpha  occ. eigenvalues --  -11.29461 -11.27767  -8.45703  -6.43803  -6.43616
 Alpha  occ. eigenvalues --   -6.43513  -1.55677  -1.43546  -1.26675  -1.09666
 Alpha  occ. eigenvalues --   -1.01306  -0.87618  -0.85219  -0.74603  -0.71565
 Alpha  occ. eigenvalues --   -0.67915  -0.67233  -0.63843  -0.62255  -0.59901
 Alpha  occ. eigenvalues --   -0.55979  -0.54161  -0.51113  -0.49503  -0.47111
 Alpha  occ. eigenvalues --   -0.45614  -0.44635
 Alpha virt. eigenvalues --    0.02469   0.03357   0.03632   0.04618   0.05928
 Alpha virt. eigenvalues --    0.06153   0.07107   0.09967   0.10870   0.12606
 Alpha virt. eigenvalues --    0.12828   0.13605   0.14184   0.14381   0.14798

 Mulliken charges:
               1
     1  C   -0.247518
     2  C   -0.435492
     3  C   -0.670856
     4  N   -0.199452
     5  O   -1.586310
     6  O   -1.586362
     7  S    3.626428
     8  H    0.167154
     9  H    0.119753
    10  H    0.093069
    11  H    0.073828
    12  H    0.193634
    13  H    0.195599
    14  H    0.256525
 Sum of Mulliken charges =  -0.00000

 Dipole moment (field-independent basis, Debye):
    X=              6.0365    Y=              1.5631    Z=             -1.0661  Tot=              6.3261

 Test job not archived.
 1\1\GINC-SE040\SP\RHF\Aug-CC-pVDZ\C3H7N1O2S1\OHZDE\05-Apr-2025\0\\#t h
 f aug-cc-pvdz iop(5/13=1,5/36=2,99/5=2) pseudo=read geom=check guess=(
 read,tcheck) scf=(maxcycle=1)\\title\\0,1\C,0,1.834252,0.658103,-0.170
 078\C,0,1.649901,-0.83389,0.185441\C,0,0.498294,1.346797,0.118872\N,0,
 0.326076,-1.259222,-0.291458\O,0,-1.335449,-0.168992,1.339154\O,0,-1.6
 29458,0.146059,-1.144584\S,0,-0.765053,0.008844,0.017322\H,0,2.646117,
 1.108508,0.400152\H,0,2.080033,0.749839,-1.22876\H,0,2.410975,-1.46455
 7,-0.26811\H,0,1.69004,-0.982698,1.264866\H,0,0.427121,1.743751,1.1278

 Normal termination of Gaussian 16 at Sat Apr  5 23:16:57 2025.
