 Gaussian 16, Revision C.01,

 ----------------------------------------------------------------------
 #t hf aug-cc-pvdz symm=none int=(grid=ultrafine) guess=(read,tcheck) s
 table=(opt,rrhf)
 ----------------------------------------------------------------------
 -----
 title
 -----
 Symbolic Z-matrix:
 Charge =  0 Multiplicity = 1

 SCF Done:  E(RHF) =  -567.331525453     A.U. after   15 cycles
 Normal termination of Gaussian 16 at Sat Apr  5 23:16:21 2025.
 Gaussian 16:  ES64L-G16RevC.01  3-Jul-2019

 ----------------------------------------------------------------------
 #t hf aug-cc-pvdz iop(5/13=1,5/36=2,99/5=2) pseudo=read geom=check gue
 ss=(read,tcheck) scf=(maxcycle=1)
 ----------------------------------------------------------------------
 -----
 title
 -----
 Structure from the checkpoint file:  "thiazole.chk"
 Charge =  0 Multiplicity = 1

                         Standard orientation:
 ---------------------------------------------------------------------
 Center     Atomic      Atomic             Coordinates (Angstroms)
 Number     Number       Type             X           Y           Z
 ---------------------------------------------------------------------
      1          6           0        0.639432   -1.264100   -0.000000
      2          6           0        1.220264   -0.033712    0.000000
      3          6           0       -1.203295   -0.069611   -0.000000
      4          7           0       -0.732370   -1.277174   -0.000000
      5         16           0        0.000000    1.184691    0.000000
      6          1           0        1.176233   -2.200416   -0.000000
      7          1           0        2.266607    0.216808    0.000000
      8          1           0       -2.254655    0.173318   -0.000000
 ---------------------------------------------------------------------

 SCF Done:  E(RHF) =  -567.562194031     A.U. after    2 cycles

 The electronic state is 1-A'.
 Alpha  occ. eigenvalues --  -93.99349 -15.51571 -11.31968 -11.27946 -11.27819
 Alpha  occ. eigenvalues --   -8.27592  -6.25341  -6.25259  -6.25049  -1.29371
 Alpha  occ. eigenvalues --   -1.09643  -1.02193  -0.83568  -0.79222  -0.72305
 Alpha  occ. eigenvalues --   -0.62686  -0.58758  -0.58683  -0.52284  -0.46845
 Alpha  occ. eigenvalues --   -0.41541  -0.35709
 Alpha virt. eigenvalues --    0.03549   0.04013   0.04926   0.07508   0.08324
 Alpha virt. eigenvalues --    0.09379   0.10481   0.12056   0.12105   0.12657
 Alpha virt. eigenvalues --    0.12952   0.13697   0.15819   0.15924   0.16605

 Mulliken charges:
               1
     1  C   -0.085053
     2  C   -0.185773
     3  C   -0.804254
     4  N    0.686001
     5  S    0.620268
     6  H   -0.081315
     7  H   -0.138664
     8  H   -0.011211
 Sum of Mulliken charges =   0.00000

 Dipole moment (field-independent basis, Debye):
    X=              1.0295    Y=              1.5548    Z=              0.0000  Tot=              1.8648

 Test job not archived.
 1\1\GINC-SE040\SP\RHF\Aug-CC-pVDZ\C3H3N1S1\OHZDE\05-Apr-2025\0\\#t hf
 aug-cc-pvdz iop(5/13=1,5/36=2,99/5=2) pseudo=read geom=check guess=(re
 ad,tcheck) scf=(maxcycle=1)\\title\\0,1\C,0,0.639432,-1.2641,0.\C,0,1.
 220264,-0.033712,0.\C,0,-1.203295,-0.069611,0.\N,0,-0.73237,-1.277174,
 0.\S,0,0.,1.184691,0.\H,0,1.176233,-2.200416,0.\H,0,2.266607,0.216808,
 0.\H,0,-2.254655,0.173318,0.\\Version=ES64L-G16RevC.01\State=1-A'\HF=-
 567.562194\RMSD=1.698e-02\Dipole=0.4050349,0.6117228,0.\Quadrupole=4.2
 853092,-1.6569787,-2.6283305,-2.8057939,0.,0.\PG=CS [SG(C3H3N1S1)]\\@

 Normal termination of Gaussian 16 at Sat Apr  5 23:16:26 2025.
