 Gaussian 16, Revision C.01,

 ----------------------------------------------------------------------
 #t hf aug-cc-pvdz symm=none int=(grid=ultrafine) guess=(read,tcheck) s
 table=(opt,rrhf)
 ----------------------------------------------------------------------
 -----
 title
 -----
 Symbolic Z-matrix:
 Charge =  0 Multiplicity = 1

 SCF Done:  E(RHF) =  -981.993859735     A.U. after   15 cycles
 Normal termination of Gaussian 16 at Sat Apr  5 23:16:25 2025.
 Gaussian 16:  ES64L-G16RevC.01  3-Jul-2019

 ----------------------------------------------------------------------
 #t hf aug-cc-pvdz iop(5/13=1,5/36=2,99/5=2) pseudo=read geom=check gue
 ss=(read,tcheck) scf=(maxcycle=1)
 ----------------------------------------------------------------------
 -----
 title
 -----
 Structure from the checkpoint file:  "thiadiazolidine-4-thione.chk"
 Charge =  0 Multiplicity = 1

                         Standard orientation:
 ---------------------------------------------------------------------
 Center     Atomic      Atomic             Coordinates (Angstroms)
 Number     Number       Type             X           Y           Z
 ---------------------------------------------------------------------
      1         16           0       -1.849048   -0.498034   -0.251110
      2         16           0        2.347895   -0.118777   -0.102268
      3          7           0        0.029899    1.184602    0.018376
      4          7           0       -1.384596    1.156257    0.116381
      5          6           0        0.716388    0.030291    0.085786
      6          6           0       -0.237505   -1.118129    0.367886
      7          1           0        0.445368    2.022351   -0.358482
      8          1           0       -1.620549    1.333484    1.090140
      9          1           0        0.061019   -2.005332   -0.179311
     10          1           0       -0.257812   -1.340511    1.436386
 ---------------------------------------------------------------------

 SCF Done:  E(RHF) =  -982.303286422     A.U. after    2 cycles

 The electronic state is 1-A.
 Alpha  occ. eigenvalues --  -94.00470 -93.91122 -15.59557 -15.59109 -11.37485
 Alpha  occ. eigenvalues --  -11.30773  -8.28268  -8.19392  -6.26044  -6.25893
 Alpha  occ. eigenvalues --   -6.25614  -6.17262  -6.16951  -6.16825  -1.37238
 Alpha  occ. eigenvalues --   -1.17658  -1.11315  -0.99836  -0.91659  -0.86889
 Alpha  occ. eigenvalues --   -0.78517  -0.70197  -0.65358  -0.63820  -0.58040
 Alpha  occ. eigenvalues --   -0.55329  -0.52882  -0.49012  -0.39229  -0.36439
 Alpha  occ. eigenvalues --   -0.34658
 Alpha virt. eigenvalues --    0.02745   0.04050   0.04729   0.05593   0.06654
 Alpha virt. eigenvalues --    0.07143   0.08507   0.09131   0.10208   0.12307
 Alpha virt. eigenvalues --    0.13183   0.14036   0.14691   0.14986   0.16200

 Mulliken charges:
               1
     1  S    0.643839
     2  S    0.161249
     3  N    0.569515
     4  N   -0.526338
     5  C   -0.900061
     6  C   -0.776376
     7  H    0.026408
     8  H    0.232969
     9  H    0.293305
    10  H    0.275490
 Sum of Mulliken charges =  -0.00000

 Dipole moment (field-independent basis, Debye):
    X=             -2.6038    Y=             -0.0443    Z=              1.5950  Tot=              3.0538

 Test job not archived.
 1\1\GINC-SE025\SP\RHF\Aug-CC-pVDZ\C2H4N2S2\OHZDE\05-Apr-2025\0\\#t hf
 aug-cc-pvdz iop(5/13=1,5/36=2,99/5=2) pseudo=read geom=check guess=(re
 ad,tcheck) scf=(maxcycle=1)\\title\\0,1\S,0,-1.849048,-0.498034,-0.251
 11\S,0,2.347895,-0.118777,-0.102268\N,0,0.029899,1.184602,0.018376\N,0
 ,-1.384596,1.156257,0.116381\C,0,0.716388,0.030291,0.085786\C,0,-0.237
 505,-1.118129,0.367886\H,0,0.445368,2.022351,-0.358482\H,0,-1.620549,1
 .333484,1.09014\H,0,0.061019,-2.005332,-0.179311\H,0,-0.257812,-1.3405
 11,1.436386\\Version=ES64L-G16RevC.01\State=1-A\HF=-982.3032864\RMSD=1

 Normal termination of Gaussian 16 at Sat Apr  5 23:16:29 2025.
