 Gaussian 16, Revision C.01,

 ----------------------------------------------------------------------
 #t hf aug-cc-pvdz symm=none int=(grid=ultrafine) guess=(read,tcheck) s
 table=(opt,rrhf)
 ----------------------------------------------------------------------
 -----
 title
 -----
 Symbolic Z-matrix:
 Charge =  0 Multiplicity = 1

 SCF Done:  E(RHF) =  -514.615397578     A.U. after   12 cycles
 Normal termination of Gaussian 16 at Sat Apr  5 23:16:19 2025.
 Gaussian 16:  ES64L-G16RevC.01  3-Jul-2019

 ----------------------------------------------------------------------
 #t hf aug-cc-pvdz iop(5/13=1,5/36=2,99/5=2) pseudo=read geom=check gue
 ss=(read,tcheck) scf=(maxcycle=1)
 ----------------------------------------------------------------------
 -----
 title
 -----
 Structure from the checkpoint file:  "thietane.chk"
 Charge =  0 Multiplicity = 1

                         Standard orientation:
 ---------------------------------------------------------------------
 Center     Atomic      Atomic             Coordinates (Angstroms)
 Number     Number       Type             X           Y           Z
 ---------------------------------------------------------------------
      1         16           0        0.340727    1.046092    0.000000
      2          6           0       -0.205833   -0.304647    1.150622
      3          6           0       -0.205833   -0.304647   -1.150622
      4          6           0       -0.205833   -1.328854   -0.000000
      5          1           0       -1.195905   -0.094659    1.550789
      6          1           0        0.484953   -0.493732    1.967693
      7          1           0       -1.195905   -0.094659   -1.550789
      8          1           0        0.484953   -0.493732   -1.967693
      9          1           0       -1.043401   -2.027484   -0.000000
     10          1           0        0.718680   -1.904316   -0.000000
 ---------------------------------------------------------------------

 SCF Done:  E(RHF) =  -514.804747902     A.U. after    2 cycles

 The electronic state is 1-A'.
 Alpha  occ. eigenvalues --  -93.93441 -11.26767 -11.26754 -11.24976  -8.21507
 Alpha  occ. eigenvalues --   -6.19260  -6.19220  -6.18942  -1.14166  -0.92782
 Alpha  occ. eigenvalues --   -0.92548  -0.76968  -0.66538  -0.63377  -0.57695
 Alpha  occ. eigenvalues --   -0.52671  -0.51446  -0.47110  -0.41515  -0.34299
 Alpha virt. eigenvalues --    0.03664   0.03926   0.04224   0.05125   0.06704
 Alpha virt. eigenvalues --    0.07190   0.08598   0.11444   0.12128   0.12565
 Alpha virt. eigenvalues --    0.13648   0.16037   0.16081   0.16553   0.16889

 Mulliken charges:
               1
     1  S    0.408978
     2  C   -0.458919
     3  C   -0.458919
     4  C   -0.080401
     5  H    0.119793
     6  H    0.058748
     7  H    0.119793
     8  H    0.058748
     9  H    0.096340
    10  H    0.135837
 Sum of Mulliken charges =  -0.00000

 Dipole moment (field-independent basis, Debye):
    X=             -0.8064    Y=             -2.1105    Z=              0.0000  Tot=              2.2593

 Test job not archived.
 1\1\GINC-SE106\SP\RHF\Aug-CC-pVDZ\C3H6S1\OHZDE\05-Apr-2025\0\\#t hf au
 g-cc-pvdz iop(5/13=1,5/36=2,99/5=2) pseudo=read geom=check guess=(read
 ,tcheck) scf=(maxcycle=1)\\title\\0,1\S,0,0.340727,1.046092,0.\C,0,-0.
 205833,-0.304647,1.150622\C,0,-0.205833,-0.304647,-1.150622\C,0,-0.205
 833,-1.328854,0.\H,0,-1.195905,-0.094659,1.550789\H,0,0.484953,-0.4937
 32,1.967693\H,0,-1.195905,-0.094659,-1.550789\H,0,0.484953,-0.493732,-
 1.967693\H,0,-1.043401,-2.027484,0.\H,0,0.71868,-1.904316,0.\\Version=
 ES64L-G16RevC.01\State=1-A'\HF=-514.8047479\RMSD=1.035e-02\Dipole=-0.3

 Normal termination of Gaussian 16 at Sat Apr  5 23:16:22 2025.
