 Gaussian 16, Revision C.01,

 ----------------------------------------------------------------------
 #t hf aug-cc-pvdz symm=none int=(grid=ultrafine) guess=(read,tcheck) s
 table=(opt,rrhf)
 ----------------------------------------------------------------------
 -----
 title
 -----
 Symbolic Z-matrix:
 Charge =  0 Multiplicity = 1

 SCF Done:  E(RHF) =  -475.577453953     A.U. after   12 cycles
 Normal termination of Gaussian 16 at Sat Apr  5 23:16:18 2025.
 Gaussian 16:  ES64L-G16RevC.01  3-Jul-2019

 ----------------------------------------------------------------------
 #t hf aug-cc-pvdz iop(5/13=1,5/36=2,99/5=2) pseudo=read geom=check gue
 ss=(read,tcheck) scf=(maxcycle=1)
 ----------------------------------------------------------------------
 -----
 title
 -----
 Structure from the checkpoint file:  "thiirane.chk"
 Charge =  0 Multiplicity = 1

                         Standard orientation:
 ---------------------------------------------------------------------
 Center     Atomic      Atomic             Coordinates (Angstroms)
 Number     Number       Type             X           Y           Z
 ---------------------------------------------------------------------
      1         16           0        0.000000    0.000000    0.871858
      2          6           0        0.000000    0.738462   -0.803990
      3          6           0       -0.000000   -0.738462   -0.803990
      4          1           0       -0.912020    1.251798   -1.075460
      5          1           0        0.912020    1.251798   -1.075460
      6          1           0        0.912020   -1.251798   -1.075460
      7          1           0       -0.912020   -1.251798   -1.075460
 ---------------------------------------------------------------------

 SCF Done:  E(RHF) =  -475.721865590     A.U. after    2 cycles

 The electronic state is 1-A1.
 Alpha  occ. eigenvalues --  -93.93950 -11.28677 -11.28597  -8.22038  -6.19857
 Alpha  occ. eigenvalues --   -6.19650  -6.19415  -1.15906  -0.85811  -0.85168
 Alpha  occ. eigenvalues --   -0.68227  -0.62511  -0.55209  -0.45334  -0.43361
 Alpha  occ. eigenvalues --   -0.35376
 Alpha virt. eigenvalues --    0.03724   0.04188   0.04431   0.06830   0.06936
 Alpha virt. eigenvalues --    0.11320   0.11871   0.12814   0.13385   0.14336
 Alpha virt. eigenvalues --    0.15016   0.16673   0.17304   0.19648   0.19790

 Mulliken charges:
               1
     1  S    0.119043
     2  C   -0.049138
     3  C   -0.049138
     4  H   -0.005192
     5  H   -0.005192
     6  H   -0.005192
     7  H   -0.005192
 Sum of Mulliken charges =  -0.00000

 Dipole moment (field-independent basis, Debye):
    X=             -0.0000    Y=             -0.0000    Z=             -2.3114  Tot=              2.3114

 Test job not archived.
 1\1\GINC-SE115\SP\RHF\Aug-CC-pVDZ\C2H4S1\OHZDE\05-Apr-2025\0\\#t hf au
 g-cc-pvdz iop(5/13=1,5/36=2,99/5=2) pseudo=read geom=check guess=(read
 ,tcheck) scf=(maxcycle=1)\\title\\0,1\S,0,0.,0.,0.871858\C,0,0.,0.7384
 62,-0.80399\C,0,0.,-0.738462,-0.80399\H,0,-0.91202,1.251798,-1.07546\H
 ,0,0.91202,1.251798,-1.07546\H,0,0.91202,-1.251798,-1.07546\H,0,-0.912
 02,-1.251798,-1.07546\\Version=ES64L-G16RevC.01\State=1-A1\HF=-475.721
 8656\RMSD=9.110e-03\Dipole=0.,0.,-0.909386\Quadrupole=-0.563584,1.0580
 927,-0.4945087,0.,0.,0.\PG=C02V [C2(S1),SGV(C2),X(H4)]\\@

 Normal termination of Gaussian 16 at Sat Apr  5 23:16:20 2025.
