 Gaussian 16, Revision C.01,

 ----------------------------------------------------------------------
 #t hf aug-cc-pvdz symm=none int=(grid=ultrafine) guess=(read,tcheck) s
 table=(opt,rrhf)
 ----------------------------------------------------------------------
 -----
 title
 -----
 Symbolic Z-matrix:
 Charge =  0 Multiplicity = 1

 SCF Done:  E(RHF) =  -546.672110546     A.U. after   12 cycles
 Normal termination of Gaussian 16 at Sat Apr  5 23:16:19 2025.
 Gaussian 16:  ES64L-G16RevC.01  3-Jul-2019

 ----------------------------------------------------------------------
 #t hf aug-cc-pvdz iop(5/13=1,5/36=2,99/5=2) pseudo=read geom=check gue
 ss=(read,tcheck) scf=(maxcycle=1)
 ----------------------------------------------------------------------
 -----
 title
 -----
 Structure from the checkpoint file:  "thiourea.chk"
 Charge =  0 Multiplicity = 1

                         Standard orientation:
 ---------------------------------------------------------------------
 Center     Atomic      Atomic             Coordinates (Angstroms)
 Number     Number       Type             X           Y           Z
 ---------------------------------------------------------------------
      1          6           0       -0.000000    0.000000   -0.316883
      2         16           0        0.000000   -0.000000    1.353097
      3          7           0       -0.000000    1.146987   -1.046835
      4          7           0       -0.000000   -1.146987   -1.046835
      5          1           0        0.128543    2.000926   -0.533905
      6          1           0        0.285536    1.143343   -2.012373
      7          1           0       -0.128543   -2.000926   -0.533905
      8          1           0       -0.285536   -1.143343   -2.012373
 ---------------------------------------------------------------------

 SCF Done:  E(RHF) =  -546.887039443     A.U. after    2 cycles

 The electronic state is 1-A.
 Alpha  occ. eigenvalues --  -93.88553 -15.54842 -15.54790 -11.38784  -8.16873
 Alpha  occ. eigenvalues --   -6.14759  -6.14401  -6.14325  -1.31016  -1.20435
 Alpha  occ. eigenvalues --   -1.01152  -0.86904  -0.79121  -0.76939  -0.70328
 Alpha  occ. eigenvalues --   -0.61657  -0.53136  -0.48854  -0.34368  -0.33550
 Alpha virt. eigenvalues --    0.01906   0.04055   0.05468   0.06511   0.09555
 Alpha virt. eigenvalues --    0.10400   0.12515   0.12667   0.15318   0.15413
 Alpha virt. eigenvalues --    0.16050   0.16116   0.17149   0.18019   0.18765

 Mulliken charges:
               1
     1  C   -1.439526
     2  S    0.169097
     3  N    0.485578
     4  N    0.485578
     5  H    0.166517
     6  H   -0.016881
     7  H    0.166517
     8  H   -0.016881
 Sum of Mulliken charges =  -0.00000

 Dipole moment (field-independent basis, Debye):
    X=             -0.0000    Y=              0.0000    Z=             -5.2557  Tot=              5.2557

 Test job not archived.
 1\1\GINC-SE085\SP\RHF\Aug-CC-pVDZ\C1H4N2S1\OHZDE\05-Apr-2025\0\\#t hf
 aug-cc-pvdz iop(5/13=1,5/36=2,99/5=2) pseudo=read geom=check guess=(re
 ad,tcheck) scf=(maxcycle=1)\\title\\0,1\C,0,0.,0.,-0.316883\S,0,0.,0.,
 1.353097\N,0,0.,1.146987,-1.046835\N,0,0.,-1.146987,-1.046835\H,0,0.12
 8543,2.000926,-0.533905\H,0,0.285536,1.143343,-2.012373\H,0,-0.128543,
 -2.000926,-0.533905\H,0,-0.285536,-1.143343,-2.012373\\Version=ES64L-G
 16RevC.01\State=1-A\HF=-546.8870394\RMSD=1.690e-02\Dipole=0.,0.,-2.067
 7433\Quadrupole=-4.0033545,3.1277257,0.8756287,1.6304495,0.,0.\PG=C02

 Normal termination of Gaussian 16 at Sat Apr  5 23:16:21 2025.
