 Gaussian 16, Revision C.01,

 ----------------------------------------------------------------------
 #t hf aug-cc-pvdz symm=none int=(grid=ultrafine) guess=(read,tcheck) s
 table=(opt,rrhf)
 ----------------------------------------------------------------------
 -----
 title
 -----
 Symbolic Z-matrix:
 Charge =  0 Multiplicity = 1

 SCF Done:  E(RHF) =  -436.534001007     A.U. after   12 cycles
 Normal termination of Gaussian 16 at Sat Apr  5 23:16:15 2025.
 Gaussian 16:  ES64L-G16RevC.01  3-Jul-2019

 ----------------------------------------------------------------------
 #t hf aug-cc-pvdz iop(5/13=1,5/36=2,99/5=2) pseudo=read geom=check gue
 ss=(read,tcheck) scf=(maxcycle=1)
 ----------------------------------------------------------------------
 -----
 title
 -----
 Structure from the checkpoint file:  "thioformaldehyde.chk"
 Charge =  0 Multiplicity = 1

                         Standard orientation:
 ---------------------------------------------------------------------
 Center     Atomic      Atomic             Coordinates (Angstroms)
 Number     Number       Type             X           Y           Z
 ---------------------------------------------------------------------
      1         16           0        0.000000   -0.000000    0.585088
      2          6           0        0.000000    0.000000   -1.025466
      3          1           0        0.000000    0.920769   -1.604308
      4          1           0       -0.000000   -0.920769   -1.604308
 ---------------------------------------------------------------------

 SCF Done:  E(RHF) =  -436.632066256     A.U. after    2 cycles

 The electronic state is 1-A1.
 Alpha  occ. eigenvalues --  -93.95218 -11.33183  -8.23436  -6.21226  -6.21088
 Alpha  occ. eigenvalues --   -6.20796  -1.09249  -0.83304  -0.65353  -0.55407
 Alpha  occ. eigenvalues --   -0.42945  -0.35993
 Alpha virt. eigenvalues --    0.03037   0.03499   0.04908   0.07317   0.11176
 Alpha virt. eigenvalues --    0.12428   0.14248   0.16043   0.16183   0.17951
 Alpha virt. eigenvalues --    0.24530   0.26818   0.29428   0.30914   0.31144

 Mulliken charges:
               1
     1  S    0.217499
     2  C   -0.455781
     3  H    0.119141
     4  H    0.119141
 Sum of Mulliken charges =   0.00000

 Dipole moment (field-independent basis, Debye):
    X=             -0.0000    Y=             -0.0000    Z=             -2.2346  Tot=              2.2346

 Test job not archived.
 1\1\GINC-SE194\SP\RHF\Aug-CC-pVDZ\C1H2S1\OHZDE\05-Apr-2025\0\\#t hf au
 g-cc-pvdz iop(5/13=1,5/36=2,99/5=2) pseudo=read geom=check guess=(read
 ,tcheck) scf=(maxcycle=1)\\title\\0,1\S,0,0.,0.,0.585088\C,0,0.,0.,-1.
 025466\H,0,0.,0.920769,-1.604308\H,0,0.,-0.920769,-1.604308\\Version=E
 S64L-G16RevC.01\State=1-A1\HF=-436.6320663\RMSD=6.960e-03\Dipole=0.,0.
 ,-0.8791569\Quadrupole=-0.7870845,-1.1023475,1.889432,0.,0.,0.\PG=C02V
  [C2(C1S1),SGV(H2)]\\@

 Normal termination of Gaussian 16 at Sat Apr  5 23:16:17 2025.
