 Gaussian 16, Revision C.01,

 ----------------------------------------------------------------------
 #t hf aug-cc-pvdz symm=none int=(grid=ultrafine) guess=(read,tcheck) s
 table=(opt,rrhf)
 ----------------------------------------------------------------------
 -----
 title
 -----
 Symbolic Z-matrix:
 Charge =  0 Multiplicity = 1

 SCF Done:  E(RHF) =  -475.583038844     A.U. after   13 cycles
 Normal termination of Gaussian 16 at Sat Apr  5 23:16:17 2025.
 Gaussian 16:  ES64L-G16RevC.01  3-Jul-2019

 ----------------------------------------------------------------------
 #t hf aug-cc-pvdz iop(5/13=1,5/36=2,99/5=2) pseudo=read geom=check gue
 ss=(read,tcheck) scf=(maxcycle=1)
 ----------------------------------------------------------------------
 -----
 title
 -----
 Structure from the checkpoint file:  "thioacetaldehyde.chk"
 Charge =  0 Multiplicity = 1

                         Standard orientation:
 ---------------------------------------------------------------------
 Center     Atomic      Atomic             Coordinates (Angstroms)
 Number     Number       Type             X           Y           Z
 ---------------------------------------------------------------------
      1          6           0        0.000000    0.619383    0.000000
      2          6           0       -1.485214    0.718099    0.000000
      3         16           0        0.874031   -0.744703    0.000000
      4          1           0        0.520354    1.577729    0.000000
      5          1           0       -1.957612   -0.260850    0.000000
      6          1           0       -1.817979    1.286739    0.874315
      7          1           0       -1.817979    1.286739   -0.874315
 ---------------------------------------------------------------------

 SCF Done:  E(RHF) =  -475.725563697     A.U. after    2 cycles

 The electronic state is 1-A'.
 Alpha  occ. eigenvalues --  -93.93566 -11.33130 -11.25847  -8.21810  -6.19613
 Alpha  occ. eigenvalues --   -6.19448  -6.19192  -1.11317  -0.97923  -0.78638
 Alpha  occ. eigenvalues --   -0.64246  -0.60115  -0.58110  -0.52105  -0.40692
 Alpha  occ. eigenvalues --   -0.34997
 Alpha virt. eigenvalues --    0.03200   0.04469   0.04509   0.05258   0.06064
 Alpha virt. eigenvalues --    0.08800   0.11130   0.13251   0.13571   0.14259
 Alpha virt. eigenvalues --    0.15628   0.16301   0.17312   0.17704   0.17879

 Mulliken charges:
               1
     1  C   -0.256881
     2  C   -0.458961
     3  S    0.119516
     4  H   -0.022536
     5  H    0.174934
     6  H    0.221963
     7  H    0.221963
 Sum of Mulliken charges =   0.00000

 Dipole moment (field-independent basis, Debye):
    X=             -1.9239    Y=              2.2777    Z=             -0.0000  Tot=              2.9815

 Test job not archived.
 1\1\GINC-SE173\SP\RHF\Aug-CC-pVDZ\C2H4S1\OHZDE\05-Apr-2025\0\\#t hf au
 g-cc-pvdz iop(5/13=1,5/36=2,99/5=2) pseudo=read geom=check guess=(read
 ,tcheck) scf=(maxcycle=1)\\title\\0,1\C,0,0.,0.619383,0.\C,0,-1.485214
 ,0.718099,0.\S,0,0.874031,-0.744703,0.\H,0,0.520354,1.577729,0.\H,0,-1
 .957612,-0.26085,0.\H,0,-1.817979,1.286739,0.874315\H,0,-1.817979,1.28
 6739,-0.874315\\Version=ES64L-G16RevC.01\State=1-A'\HF=-475.7255637\RM
 SD=7.713e-03\Dipole=-0.7569122,0.8961247,0.\Quadrupole=-0.4841051,0.76
 58454,-0.2817403,-0.4586692,0.,0.\PG=CS [SG(C2H2S1),X(H2)]\\@

 Normal termination of Gaussian 16 at Sat Apr  5 23:16:19 2025.
