 Gaussian 16, Revision C.01,

 ----------------------------------------------------------------------
 #t hf aug-cc-pvdz symm=none int=(grid=ultrafine) guess=(read,tcheck) s
 table=(opt,rrhf)
 ----------------------------------------------------------------------
 -----
 title
 -----
 Symbolic Z-matrix:
 Charge =  0 Multiplicity = 1

 SCF Done:  E(RHF) =  -601.677377111     A.U. after   13 cycles
 Normal termination of Gaussian 16 at Sat Apr  5 23:16:21 2025.
 Gaussian 16:  ES64L-G16RevC.01  3-Jul-2019

 ----------------------------------------------------------------------
 #t hf aug-cc-pvdz iop(5/13=1,5/36=2,99/5=2) pseudo=read geom=check gue
 ss=(read,tcheck) scf=(maxcycle=1)
 ----------------------------------------------------------------------
 -----
 title
 -----
 Structure from the checkpoint file:  "thiosemicarbazide.chk"
 Charge =  0 Multiplicity = 1

                         Standard orientation:
 ---------------------------------------------------------------------
 Center     Atomic      Atomic             Coordinates (Angstroms)
 Number     Number       Type             X           Y           Z
 ---------------------------------------------------------------------
      1         16           0       -1.756434   -0.365803   -0.000188
      2          7           0        0.863151   -0.693485    0.000281
      3          7           0        0.167197    1.487661   -0.000079
      4          7           0        2.197899   -0.268846    0.000181
      5          6           0       -0.173325    0.187895    0.000004
      6          1           0        0.618610   -1.671311    0.000117
      7          1           0        1.137120    1.757055    0.000069
      8          1           0       -0.566962    2.169753   -0.000192
      9          1           0        2.678241   -0.603657    0.827164
     10          1           0        2.678150   -0.603667   -0.826856
 ---------------------------------------------------------------------

 SCF Done:  E(RHF) =  -601.950479833     A.U. after    2 cycles

 The electronic state is 1-A.
 Alpha  occ. eigenvalues --  -93.87656 -15.57047 -15.56464 -15.53810 -11.37757
 Alpha  occ. eigenvalues --   -8.15959  -6.13854  -6.13479  -6.13424  -1.34858
 Alpha  occ. eigenvalues --   -1.24663  -1.12868  -0.98588  -0.87281  -0.78442
 Alpha  occ. eigenvalues --   -0.77518  -0.76483  -0.71746  -0.59938  -0.52396
 Alpha  occ. eigenvalues --   -0.51908  -0.47377  -0.33205  -0.32927
 Alpha virt. eigenvalues --    0.01915   0.04326   0.05010   0.05586   0.06474
 Alpha virt. eigenvalues --    0.09495   0.11575   0.11615   0.14013   0.14105
 Alpha virt. eigenvalues --    0.14390   0.15292   0.15910   0.17023   0.17785

 Mulliken charges:
               1
     1  S    0.166760
     2  N    0.382558
     3  N    0.664391
     4  N   -0.473265
     5  C   -1.472075
     6  H    0.174945
     7  H    0.013246
     8  H    0.156648
     9  H    0.193384
    10  H    0.193407
 Sum of Mulliken charges =  -0.00000

 Dipole moment (field-independent basis, Debye):
    X=              5.9015    Y=              0.5355    Z=              0.0002  Tot=              5.9257

 Test job not archived.
 1\1\GINC-SE085\SP\RHF\Aug-CC-pVDZ\C1H5N3S1\OHZDE\05-Apr-2025\0\\#t hf
 aug-cc-pvdz iop(5/13=1,5/36=2,99/5=2) pseudo=read geom=check guess=(re
 ad,tcheck) scf=(maxcycle=1)\\title\\0,1\S,0,-1.756434,-0.365803,-0.000
 188\N,0,0.863151,-0.693485,0.000281\N,0,0.167197,1.487661,-0.000079\N,
 0,2.197899,-0.268846,0.000181\C,0,-0.173325,0.187895,0.000004\H,0,0.61
 861,-1.671311,0.000117\H,0,1.13712,1.757055,0.000069\H,0,-0.566962,2.1
 69753,-0.000192\H,0,2.678241,-0.603657,0.827164\H,0,2.67815,-0.603667,
 -0.826856\\Version=ES64L-G16RevC.01\State=1-A\HF=-601.9504798\RMSD=2.0

 Normal termination of Gaussian 16 at Sat Apr  5 23:16:25 2025.
