 Gaussian 16, Revision C.01,

 ----------------------------------------------------------------------
 #t hf aug-cc-pvdz symm=none int=(grid=ultrafine) guess=(read,tcheck) s
 table=(opt,rrhf)
 ----------------------------------------------------------------------
 -----
 title
 -----
 Symbolic Z-matrix:
 Charge =  0 Multiplicity = 1

 SCF Done:  E(RHF) =  -703.348216690     A.U. after   12 cycles
 Normal termination of Gaussian 16 at Sat Apr  5 23:16:54 2025.
 Gaussian 16:  ES64L-G16RevC.01  3-Jul-2019

 ----------------------------------------------------------------------
 #t hf aug-cc-pvdz iop(5/13=1,5/36=2,99/5=2) pseudo=read geom=check gue
 ss=(read,tcheck) scf=(maxcycle=1)
 ----------------------------------------------------------------------
 -----
 title
 -----
 Structure from the checkpoint file:  "thiolane-1-1-dioxide.chk"
 Charge =  0 Multiplicity = 1

                         Standard orientation:
 ---------------------------------------------------------------------
 Center     Atomic      Atomic             Coordinates (Angstroms)
 Number     Number       Type             X           Y           Z
 ---------------------------------------------------------------------
      1          6           0        0.000000    0.770224   -1.780388
      2          6           0       -0.000000   -0.770224   -1.780388
      3          6           0       -0.597986    1.220604   -0.448931
      4          6           0        0.597986   -1.220604   -0.448931
      5          8           0       -1.137264   -0.551302    1.517439
      6          8           0        1.137264    0.551302    1.517439
      7         16           0       -0.000000   -0.000000    0.784354
      8          1           0        1.022518    1.140282   -1.873334
      9          1           0       -0.569407    1.169658   -2.618789
     10          1           0       -1.022518   -1.140282   -1.873334
     11          1           0        0.569407   -1.169658   -2.618789
     12          1           0       -0.277102    2.202041   -0.111847
     13          1           0       -1.683808    1.153218   -0.434458
     14          1           0        0.277102   -2.202041   -0.111847
     15          1           0        1.683808   -1.153218   -0.434458
 ---------------------------------------------------------------------

 SCF Done:  E(RHF) =  -703.730312380     A.U. after    2 cycles

 The electronic state is 1-A.
 Alpha  occ. eigenvalues --  -94.17856 -20.52819 -20.52815 -11.28662 -11.28653
 Alpha  occ. eigenvalues --  -11.27307 -11.27284  -8.43255  -6.41349  -6.41134
 Alpha  occ. eigenvalues --   -6.41066  -1.53688  -1.42037  -1.16156  -1.03370
 Alpha  occ. eigenvalues --   -0.98781  -0.84472  -0.81563  -0.70894  -0.70074
 Alpha  occ. eigenvalues --   -0.64667  -0.64495  -0.62355  -0.62266  -0.56701
 Alpha  occ. eigenvalues --   -0.55270  -0.53782  -0.52624  -0.47541  -0.47089
 Alpha  occ. eigenvalues --   -0.44982  -0.41643
 Alpha virt. eigenvalues --    0.02484   0.03300   0.03560   0.04531   0.06154
 Alpha virt. eigenvalues --    0.06277   0.06399   0.07552   0.09966   0.12679
 Alpha virt. eigenvalues --    0.13058   0.13409   0.13889   0.14239   0.14490

 Mulliken charges:
               1
     1  C   -0.203928
     2  C   -0.203928
     3  C   -0.668500
     4  C   -0.668500
     5  O   -1.636971
     6  O   -1.636971
     7  S    3.725293
     8  H    0.117320
     9  H    0.149448
    10  H    0.117320
    11  H    0.149448
    12  H    0.186741
    13  H    0.193243
    14  H    0.186741
    15  H    0.193243
 Sum of Mulliken charges =   0.00000

 Dipole moment (field-independent basis, Debye):
    X=              0.0000    Y=             -0.0000    Z=             -5.9041  Tot=              5.9041

 Test job not archived.
 1\1\GINC-SE199\SP\RHF\Aug-CC-pVDZ\C4H8O2S1\OHZDE\05-Apr-2025\0\\#t hf
 aug-cc-pvdz iop(5/13=1,5/36=2,99/5=2) pseudo=read geom=check guess=(re
 ad,tcheck) scf=(maxcycle=1)\\title\\0,1\C,0,0.,0.770224,-1.780388\C,0,
 0.,-0.770224,-1.780388\C,0,-0.597986,1.220604,-0.448931\C,0,0.597986,-
 1.220604,-0.448931\O,0,-1.137264,-0.551302,1.517439\O,0,1.137264,0.551
 302,1.517439\S,0,0.,0.,0.784354\H,0,1.022518,1.140282,-1.873334\H,0,-0
 .569407,1.169658,-2.618789\H,0,-1.022518,-1.140282,-1.873334\H,0,0.569
 407,-1.169658,-2.618789\H,0,-0.277102,2.202041,-0.111847\H,0,-1.683808

 Normal termination of Gaussian 16 at Sat Apr  5 23:17:00 2025.
