 Gaussian 16, Revision C.01,

 ----------------------------------------------------------------------
 #t hf aug-cc-pvdz symm=none int=(grid=ultrafine) guess=(read,tcheck) s
 table=(opt,rrhf)
 ----------------------------------------------------------------------
 -----
 title
 -----
 Symbolic Z-matrix:
 Charge =  0 Multiplicity = 1

 SCF Done:  E(RHF) =  -717.092722531     A.U. after   15 cycles
 Normal termination of Gaussian 16 at Sat Apr  5 23:16:28 2025.
 Gaussian 16:  ES64L-G16RevC.01  3-Jul-2019

 ----------------------------------------------------------------------
 #t hf aug-cc-pvdz iop(5/13=1,5/36=2,99/5=2) pseudo=read geom=check gue
 ss=(read,tcheck) scf=(maxcycle=1)
 ----------------------------------------------------------------------
 -----
 title
 -----
 Structure from the checkpoint file:  "thiocyanatoacetic_acid.chk"
 Charge =  0 Multiplicity = 1

                         Standard orientation:
 ---------------------------------------------------------------------
 Center     Atomic      Atomic             Coordinates (Angstroms)
 Number     Number       Type             X           Y           Z
 ---------------------------------------------------------------------
      1         16           0       -0.904941   -0.785080   -0.000054
      2          8           0        2.696807    0.929615    0.000054
      3          8           0        1.923496   -1.150439   -0.000102
      4          7           0       -3.304099    0.760189    0.000086
      5          6           0        0.294332    0.611111    0.000040
      6          6           0        1.693547    0.022896   -0.000011
      7          6           0       -2.320544    0.152967    0.000030
      8          1           0        0.138262    1.224382    0.886861
      9          1           0        0.138251    1.224511   -0.886690
     10          1           0        2.364788    1.835806    0.000127
 ---------------------------------------------------------------------

 SCF Done:  E(RHF) =  -717.460595821     A.U. after    2 cycles

 The electronic state is 1-A.
 Alpha  occ. eigenvalues --  -94.03163 -20.63764 -20.57325 -15.53696 -11.43755
 Alpha  occ. eigenvalues --  -11.34268 -11.31539  -8.31087  -6.28912  -6.28699
 Alpha  occ. eigenvalues --   -6.28449  -1.58145  -1.49515  -1.25710  -1.15379
 Alpha  occ. eigenvalues --   -1.01901  -0.87068  -0.77321  -0.72300  -0.71008
 Alpha  occ. eigenvalues --   -0.69082  -0.63079  -0.62615  -0.59984  -0.57355
 Alpha  occ. eigenvalues --   -0.55975  -0.50939  -0.50193  -0.48086  -0.41636
 Alpha virt. eigenvalues --    0.01426   0.03818   0.04586   0.06332   0.07147
 Alpha virt. eigenvalues --    0.09697   0.10029   0.10220   0.10792   0.12367
 Alpha virt. eigenvalues --    0.12419   0.13340   0.13588   0.14934   0.14978

 Mulliken charges:
               1
     1  S    0.888251
     2  O   -1.266176
     3  O   -1.125617
     4  N    0.721634
     5  C   -0.774124
     6  C    2.064437
     7  C   -1.491253
     8  H    0.279899
     9  H    0.279901
    10  H    0.423047
 Sum of Mulliken charges =  -0.00000

 Dipole moment (field-independent basis, Debye):
    X=              2.6843    Y=              2.8414    Z=              0.0002  Tot=              3.9088

 Test job not archived.
 1\1\GINC-SE183\SP\RHF\Aug-CC-pVDZ\C3H3N1O2S1\OHZDE\05-Apr-2025\0\\#t h
 f aug-cc-pvdz iop(5/13=1,5/36=2,99/5=2) pseudo=read geom=check guess=(
 read,tcheck) scf=(maxcycle=1)\\title\\0,1\S,0,-0.904941,-0.78508,-0.00
 0054\O,0,2.696807,0.929615,0.000054\O,0,1.923496,-1.150439,-0.000102\N
 ,0,-3.304099,0.760189,0.000086\C,0,0.294332,0.611111,0.00004\C,0,1.693
 547,0.022896,-0.000011\C,0,-2.320544,0.152967,0.00003\H,0,0.138262,1.2
 24382,0.886861\H,0,0.138251,1.224511,-0.88669\H,0,2.364788,1.835806,0.
 000127\\Version=ES64L-G16RevC.01\State=1-A\HF=-717.4605958\RMSD=1.215e

 Normal termination of Gaussian 16 at Sat Apr  5 23:16:33 2025.
