 Gaussian 16, Revision C.01,

 ----------------------------------------------------------------------
 #t hf aug-cc-pvdz symm=none int=(grid=ultrafine) guess=(read,tcheck) s
 table=(opt,rrhf)
 ----------------------------------------------------------------------
 -----
 title
 -----
 Symbolic Z-matrix:
 Charge =  0 Multiplicity = 1

 SCF Done:  E(RHF) =  -721.183348667     A.U. after   16 cycles
 Normal termination of Gaussian 16 at Sat Apr  5 23:17:23 2025.
 Gaussian 16:  ES64L-G16RevC.01  3-Jul-2019

 ----------------------------------------------------------------------
 #t hf aug-cc-pvdz iop(5/13=1,5/36=2,99/5=2) pseudo=read geom=check gue
 ss=(read,tcheck) scf=(maxcycle=1)
 ----------------------------------------------------------------------
 -----
 title
 -----
 Structure from the checkpoint file:  "thiobenzamide.chk"
 Charge =  0 Multiplicity = 1

                         Standard orientation:
 ---------------------------------------------------------------------
 Center     Atomic      Atomic             Coordinates (Angstroms)
 Number     Number       Type             X           Y           Z
 ---------------------------------------------------------------------
      1          7           0       -1.772399    1.554665    0.469600
      2          6           0       -1.366140    0.325170    0.092859
      3         16           0       -2.456819   -0.860510   -0.315837
      4          6           0        0.106704    0.129865    0.044612
      5          6           0        0.966492    1.187191   -0.276202
      6          6           0        2.340741    0.991999   -0.324842
      7          6           0        2.877285   -0.257721   -0.040450
      8          6           0        2.030458   -1.315064    0.278402
      9          6           0        0.657396   -1.126729    0.311776
     10          1           0       -2.760372    1.733207    0.530743
     11          1           0       -1.135771    2.217677    0.877192
     12          1           0        0.563130    2.157313   -0.533805
     13          1           0        2.990082    1.814218   -0.593305
     14          1           0        3.947644   -0.409333   -0.073904
     15          1           0        2.441819   -2.290833    0.498199
     16          1           0       -0.008244   -1.945015    0.544143
 ---------------------------------------------------------------------

 SCF Done:  E(RHF) =  -721.574146381     A.U. after    2 cycles

 The electronic state is 1-A.
 Alpha  occ. eigenvalues --  -93.89474 -15.55281 -11.36083 -11.26898 -11.26652
 Alpha  occ. eigenvalues --  -11.26210 -11.25837 -11.25799 -11.25511  -8.17752
 Alpha  occ. eigenvalues --   -6.15616  -6.15320  -6.15197  -1.27570  -1.17444
 Alpha  occ. eigenvalues --   -1.06654  -1.03725  -1.00575  -0.88868  -0.85419
 Alpha  occ. eigenvalues --   -0.81853  -0.78164  -0.72985  -0.68350  -0.66011
 Alpha  occ. eigenvalues --   -0.63057  -0.61769  -0.57616  -0.55331  -0.52742
 Alpha  occ. eigenvalues --   -0.52332  -0.50600  -0.38331  -0.36381  -0.34449
 Alpha  occ. eigenvalues --   -0.32834
 Alpha virt. eigenvalues --    0.02491   0.03089   0.03672   0.04320   0.04920
 Alpha virt. eigenvalues --    0.06210   0.06239   0.07316   0.09072   0.09573
 Alpha virt. eigenvalues --    0.10981   0.11097   0.11925   0.12484   0.13134

 Mulliken charges:
               1
     1  N    0.850240
     2  C   -2.014885
     3  S    0.017711
     4  C    2.119638
     5  C    0.029795
     6  C    0.094894
     7  C   -0.127190
     8  C    0.391567
     9  C   -0.280547
    10  H    0.084571
    11  H    0.033767
    12  H   -0.326919
    13  H   -0.239113
    14  H   -0.206345
    15  H   -0.219893
    16  H   -0.207291
 Sum of Mulliken charges =  -0.00000

 Dipole moment (field-independent basis, Debye):
    X=              3.2382    Y=              3.1512    Z=              1.3819  Tot=              4.7250

 Test job not archived.
 1\1\GINC-SE180\SP\RHF\Aug-CC-pVDZ\C7H7N1S1\OHZDE\05-Apr-2025\0\\#t hf
 aug-cc-pvdz iop(5/13=1,5/36=2,99/5=2) pseudo=read geom=check guess=(re
 ad,tcheck) scf=(maxcycle=1)\\title\\0,1\N,0,-1.772399,1.554665,0.4696\
 C,0,-1.36614,0.32517,0.092859\S,0,-2.456819,-0.86051,-0.315837\C,0,0.1
 06704,0.129865,0.044612\C,0,0.966492,1.187191,-0.276202\C,0,2.340741,0
 .991999,-0.324842\C,0,2.877285,-0.257721,-0.04045\C,0,2.030458,-1.3150
 64,0.278402\C,0,0.657396,-1.126729,0.311776\H,0,-2.760372,1.733207,0.5
 30743\H,0,-1.135771,2.217677,0.877192\H,0,0.56313,2.157313,-0.533805\H

 Normal termination of Gaussian 16 at Sat Apr  5 23:17:31 2025.
