 Gaussian 16, Revision C.01,

 ----------------------------------------------------------------------
 #t hf aug-cc-pvdz symm=none int=(grid=ultrafine) guess=(read,tcheck) s
 table=(opt,rrhf)
 ----------------------------------------------------------------------
 -----
 title
 -----
 Symbolic Z-matrix:
 Charge =  0 Multiplicity = 1

 SCF Done:  E(RHF) =  -626.108765979     A.U. after   14 cycles
 Normal termination of Gaussian 16 at Sat Apr  5 23:16:25 2025.
 Gaussian 16:  ES64L-G16RevC.01  3-Jul-2019

 ----------------------------------------------------------------------
 #t hf aug-cc-pvdz iop(5/13=1,5/36=2,99/5=2) pseudo=read geom=check gue
 ss=(read,tcheck) scf=(maxcycle=1)
 ----------------------------------------------------------------------
 -----
 title
 -----
 Structure from the checkpoint file:  "thiophene-1-oxide.chk"
 Charge =  0 Multiplicity = 1

                         Standard orientation:
 ---------------------------------------------------------------------
 Center     Atomic      Atomic             Coordinates (Angstroms)
 Number     Number       Type             X           Y           Z
 ---------------------------------------------------------------------
      1          6           0        0.034055    1.616595    0.729797
      2          6           0        0.034055    1.616595   -0.729797
      3          6           0        0.034055    0.388734    1.266356
      4          6           0        0.034055    0.388734   -1.266356
      5          8           0       -0.701492   -1.975378    0.000000
      6         16           0        0.285648   -0.844573    0.000000
      7          1           0        0.053237    2.529935    1.308036
      8          1           0        0.053237    2.529935   -1.308036
      9          1           0        0.058892    0.096185    2.302731
     10          1           0        0.058892    0.096185   -2.302731
 ---------------------------------------------------------------------

 SCF Done:  E(RHF) =  -626.400839483     A.U. after    2 cycles

 The electronic state is 1-A'.
 Alpha  occ. eigenvalues --  -94.08233 -20.50727 -11.28911 -11.28884 -11.28722
 Alpha  occ. eigenvalues --  -11.28684  -8.35086  -6.32974  -6.32821  -6.32610
 Alpha  occ. eigenvalues --   -1.43615  -1.19370  -1.02680  -0.99474  -0.80636
 Alpha  occ. eigenvalues --   -0.78900  -0.73908  -0.62776  -0.61088  -0.59419
 Alpha  occ. eigenvalues --   -0.58585  -0.57436  -0.48031  -0.43546  -0.36835
 Alpha  occ. eigenvalues --   -0.36772
 Alpha virt. eigenvalues --    0.02610   0.03389   0.03970   0.04725   0.05393
 Alpha virt. eigenvalues --    0.08194   0.10788   0.11928   0.12732   0.13010
 Alpha virt. eigenvalues --    0.13105   0.13209   0.14019   0.14882   0.15460

 Mulliken charges:
               1
     1  C    0.429317
     2  C    0.429317
     3  C   -0.456725
     4  C   -0.456725
     5  O   -1.462502
     6  S    1.976932
     7  H   -0.104716
     8  H   -0.104716
     9  H   -0.125092
    10  H   -0.125092
 Sum of Mulliken charges =  -0.00000

 Dipole moment (field-independent basis, Debye):
    X=              1.5508    Y=              4.7388    Z=              0.0000  Tot=              4.9861

 Test job not archived.
 1\1\GINC-SE052\SP\RHF\Aug-CC-pVDZ\C4H4O1S1\OHZDE\05-Apr-2025\0\\#t hf
 aug-cc-pvdz iop(5/13=1,5/36=2,99/5=2) pseudo=read geom=check guess=(re
 ad,tcheck) scf=(maxcycle=1)\\title\\0,1\C,0,1.612095,-0.729797,0.12525
 4\C,0,1.612095,0.729797,0.125254\C,0,0.390198,-1.266356,0.004379\C,0,0
 .390198,1.266356,0.004379\O,0,-2.03484,0.,0.503621\S,0,-0.81235,0.,-0.
 367403\H,0,2.522887,-1.308036,0.196077\H,0,2.522887,1.308036,0.196077\
 H,0,0.101515,-2.302731,-0.049137\H,0,0.101515,2.302731,-0.049137\\Vers
 ion=ES64L-G16RevC.01\State=1-A'\HF=-626.4008395\RMSD=1.958e-02\Dipole=

 Normal termination of Gaussian 16 at Sat Apr  5 23:16:29 2025.
