 Gaussian 16, Revision C.01,

 ----------------------------------------------------------------------
 #t hf aug-cc-pvdz symm=none int=(grid=ultrafine) guess=(read,tcheck) s
 table=(opt,rrhf)
 ----------------------------------------------------------------------
 -----
 title
 -----
 Symbolic Z-matrix:
 Charge =  0 Multiplicity = 1

 SCF Done:  E(RHF) =  -1354.37379971     A.U. after   13 cycles

 1\1\GINC-SE084\Stability\RHF\Aug-CC-pVDZ\C1Cl2S1\OHZDE\05-Apr-2025\0\\
 #t hf aug-cc-pvdz symm=none int=(grid=ultrafine) guess=(read,tcheck) s
 table=(opt,rrhf)\\title\\0,1\Cl,0,0.,1.435076,-0.846417\C,0,0.,0.,0.14
 2885\Cl,0,0.,-1.435076,-0.846417\S,0,0.,0.,1.745054\\Version=ES64L-G16
 RevC.01\HF=-1354.3737997\RMSD=4.841e-09\Dipole=0.,0.,-0.246575\Quadrup
 ole=-0.0715766,0.0661268,0.0054497,0.,0.,0.\PG=Unknown\\@
 The archive entry for this job was punched.

 Normal termination of Gaussian 16 at Sat Apr  5 23:16:18 2025.
 Gaussian 16:  ES64L-G16RevC.01  3-Jul-2019

 ----------------------------------------------------------------------
 #t hf aug-cc-pvdz iop(5/13=1,5/36=2,99/5=2) pseudo=read geom=check gue
 ss=(read,tcheck) scf=(maxcycle=1)
 ----------------------------------------------------------------------
 -----
 title
 -----
 Structure from the checkpoint file:  "thiophosgene.chk"
 Charge =  0 Multiplicity = 1

                         Standard orientation:
 ---------------------------------------------------------------------
 Center     Atomic      Atomic             Coordinates (Angstroms)
 Number     Number       Type             X           Y           Z
 ---------------------------------------------------------------------
      1         17           0        0.000000    1.435076   -0.846417
      2          6           0        0.000000   -0.000000    0.142885
      3         17           0       -0.000000   -1.435076   -0.846417
      4         16           0        0.000000   -0.000000    1.745054
 ---------------------------------------------------------------------

 SCF Done:  E(RHF) =  -1354.61605359     A.U. after    2 cycles

 The electronic state is 1-A1.
 Alpha  occ. eigenvalues -- -105.61868-105.61868 -93.97690 -11.45745 -10.66713
 Alpha  occ. eigenvalues --  -10.66701  -8.26011  -7.83662  -7.83654  -7.83221
 Alpha  occ. eigenvalues --   -7.83219  -7.83197  -7.83195  -6.23819  -6.23583
 Alpha  occ. eigenvalues --   -6.23358  -1.22477  -1.09163  -1.06161  -0.78044
 Alpha  occ. eigenvalues --   -0.65749  -0.62401  -0.59710  -0.51613  -0.50611
 Alpha  occ. eigenvalues --   -0.48796  -0.42086  -0.39211
 Alpha virt. eigenvalues --    0.00969   0.06041   0.07434   0.08223   0.10320
 Alpha virt. eigenvalues --    0.11475   0.12231   0.13987   0.14421   0.15326
 Alpha virt. eigenvalues --    0.17500   0.17510   0.18318   0.18597   0.18965

 Mulliken charges:
               1
     1  Cl   0.081165
     2  C   -0.791380
     3  Cl   0.081165
     4  S    0.629051
 Sum of Mulliken charges =  -0.00000

 Dipole moment (field-independent basis, Debye):
    X=             -0.0000    Y=              0.0000    Z=             -0.6229  Tot=              0.6229

 Test job not archived.
 1\1\GINC-SE084\SP\RHF\Aug-CC-pVDZ\C1Cl2S1\OHZDE\05-Apr-2025\0\\#t hf a
 ug-cc-pvdz iop(5/13=1,5/36=2,99/5=2) pseudo=read geom=check guess=(rea
 d,tcheck) scf=(maxcycle=1)\\title\\0,1\Cl,0,0.,1.435076,-0.846417\C,0,
 0.,0.,0.142885\Cl,0,0.,-1.435076,-0.846417\S,0,0.,0.,1.745054\\Version
 =ES64L-G16RevC.01\State=1-A1\HF=-1354.6160536\RMSD=4.596e-03\Dipole=0.
 ,0.,-0.2450644\Quadrupole=-0.1840353,0.0960029,0.0880324,0.,0.,0.\PG=C
 02V [C2(C1S1),SGV(Cl2)]\\@

 Normal termination of Gaussian 16 at Sat Apr  5 23:16:21 2025.
