 Gaussian 16, Revision C.01,

 ----------------------------------------------------------------------
 #t hf aug-cc-pvdz symm=none int=(grid=ultrafine) guess=(read,tcheck) s
 table=(opt,rrhf)
 ----------------------------------------------------------------------
 -----
 title
 -----
 Symbolic Z-matrix:
 Charge =  0 Multiplicity = 1

 SCF Done:  E(RHF) =  -628.496406938     A.U. after   14 cycles
 Normal termination of Gaussian 16 at Sat Apr  5 23:16:42 2025.
 Gaussian 16:  ES64L-G16RevC.01  3-Jul-2019

 ----------------------------------------------------------------------
 #t hf aug-cc-pvdz iop(5/13=1,5/36=2,99/5=2) pseudo=read geom=check gue
 ss=(read,tcheck) scf=(maxcycle=1)
 ----------------------------------------------------------------------
 -----
 title
 -----
 Structure from the checkpoint file:  "thiolane-1-oxide.chk"
 Charge =  0 Multiplicity = 1

                         Standard orientation:
 ---------------------------------------------------------------------
 Center     Atomic      Atomic             Coordinates (Angstroms)
 Number     Number       Type             X           Y           Z
 ---------------------------------------------------------------------
      1          6           0        1.387883   -0.811681    0.479852
      2          6           0        1.678206    0.633320    0.061765
      3          6           0        0.258573   -1.279223   -0.428050
      4          6           0        0.330813    1.347067   -0.089120
      5          8           0       -1.798582   -0.049524    0.835116
      6         16           0       -1.000813    0.079000   -0.439396
      7          1           0        2.269473   -1.447421    0.387147
      8          1           0        1.059693   -0.849628    1.519688
      9          1           0        2.312291    1.147646    0.784708
     10          1           0        2.210285    0.636735   -0.891921
     11          1           0        0.589748   -1.411400   -1.460234
     12          1           0       -0.266523   -2.172907   -0.098828
     13          1           0       -0.021164    1.794675    0.838932
     14          1           0        0.315011    2.097602   -0.876757
 ---------------------------------------------------------------------

 SCF Done:  E(RHF) =  -628.802683067     A.U. after    2 cycles

 The electronic state is 1-A.
 Alpha  occ. eigenvalues --  -94.05862 -20.48641 -11.27313 -11.27228 -11.25696
 Alpha  occ. eigenvalues --  -11.25310  -8.32702  -6.30533  -6.30400  -6.30219
 Alpha  occ. eigenvalues --   -1.41511  -1.14237  -1.00721  -0.98653  -0.82036
 Alpha  occ. eigenvalues --   -0.80870  -0.68325  -0.67383  -0.62940  -0.58593
 Alpha  occ. eigenvalues --   -0.55588  -0.54771  -0.53107  -0.51849  -0.50659
 Alpha  occ. eigenvalues --   -0.49753  -0.39645  -0.35822
 Alpha virt. eigenvalues --    0.02837   0.03545   0.03610   0.04849   0.06006
 Alpha virt. eigenvalues --    0.06646   0.06948   0.07356   0.08940   0.12493
 Alpha virt. eigenvalues --    0.13111   0.13873   0.13996   0.14613   0.14829

 Mulliken charges:
               1
     1  C   -0.219838
     2  C   -0.223010
     3  C   -0.622425
     4  C   -0.590731
     5  O   -1.545953
     6  S    1.861138
     7  H    0.160308
     8  H    0.115445
     9  H    0.131672
    10  H    0.101495
    11  H    0.237660
    12  H    0.176400
    13  H    0.207320
    14  H    0.210520
 Sum of Mulliken charges =  -0.00000

 Dipole moment (field-independent basis, Debye):
    X=              4.3759    Y=              0.1200    Z=             -2.0205  Tot=              4.8213

 Test job not archived.
 1\1\GINC-SE053\SP\RHF\Aug-CC-pVDZ\C4H8O1S1\OHZDE\05-Apr-2025\0\\#t hf
 aug-cc-pvdz iop(5/13=1,5/36=2,99/5=2) pseudo=read geom=check guess=(re
 ad,tcheck) scf=(maxcycle=1)\\title\\0,1\C,0,1.387883,-0.811682,0.47985
 2\C,0,1.678206,0.633319,0.061765\C,0,0.258572,-1.279223,-0.42805\C,0,0
 .330814,1.347067,-0.08912\O,0,-1.798582,-0.049523,0.835116\S,0,-1.0008
 13,0.079,-0.439396\H,0,2.269472,-1.447422,0.387147\H,0,1.059693,-0.849
 628,1.519688\H,0,2.312291,1.147645,0.784708\H,0,2.210285,0.636734,-0.8
 91921\H,0,0.589747,-1.4114,-1.460234\H,0,-0.266524,-2.172907,-0.098828

 Normal termination of Gaussian 16 at Sat Apr  5 23:16:47 2025.
