 Gaussian 16, Revision C.01,

 ----------------------------------------------------------------------
 #t hf aug-cc-pvdz symm=none int=(grid=ultrafine) guess=(read,tcheck) s
 table=(opt,rrhf)
 ----------------------------------------------------------------------
 -----
 title
 -----
 Symbolic Z-matrix:
 Charge =  0 Multiplicity = 1

 SCF Done:  E(RHF) =  -551.328392568     A.U. after   13 cycles
 Normal termination of Gaussian 16 at Sat Apr  5 23:16:23 2025.
 Gaussian 16:  ES64L-G16RevC.01  3-Jul-2019

 ----------------------------------------------------------------------
 #t hf aug-cc-pvdz iop(5/13=1,5/36=2,99/5=2) pseudo=read geom=check gue
 ss=(read,tcheck) scf=(maxcycle=1)
 ----------------------------------------------------------------------
 -----
 title
 -----
 Structure from the checkpoint file:  "thiophene.chk"
 Charge =  0 Multiplicity = 1

                         Standard orientation:
 ---------------------------------------------------------------------
 Center     Atomic      Atomic             Coordinates (Angstroms)
 Number     Number       Type             X           Y           Z
 ---------------------------------------------------------------------
      1          6           0        0.000000    0.711523   -1.267123
      2          6           0       -0.000000   -0.711523   -1.267123
      3          6           0        0.000000    1.238059   -0.009487
      4          6           0       -0.000000   -1.238059   -0.009487
      5         16           0        0.000000    0.000000    1.192594
      6          1           0        0.000000    1.314467   -2.162845
      7          1           0       -0.000000   -1.314467   -2.162845
      8          1           0        0.000000    2.274447    0.281757
      9          1           0       -0.000000   -2.274447    0.281757
 ---------------------------------------------------------------------

 SCF Done:  E(RHF) =  -551.546513947     A.U. after    2 cycles

 The electronic state is 1-A1.
 Alpha  occ. eigenvalues --  -93.97749 -11.27104 -11.27052 -11.24680 -11.24620
 Alpha  occ. eigenvalues --   -8.25959  -6.23729  -6.23635  -6.23427  -1.18873
 Alpha  occ. eigenvalues --   -1.00631  -0.99121  -0.78195  -0.76094  -0.71404
 Alpha  occ. eigenvalues --   -0.59081  -0.56674  -0.53974  -0.53351  -0.48494
 Alpha  occ. eigenvalues --   -0.35530  -0.33747
 Alpha virt. eigenvalues --    0.03663   0.03821   0.04415   0.05642   0.08201
 Alpha virt. eigenvalues --    0.09577   0.11807   0.11930   0.13897   0.14075
 Alpha virt. eigenvalues --    0.14208   0.14421   0.14492   0.14529   0.15784

 Mulliken charges:
               1
     1  C    0.510807
     2  C    0.510807
     3  C   -0.630917
     4  C   -0.630917
     5  S    0.762764
     6  H   -0.112145
     7  H   -0.112145
     8  H   -0.149128
     9  H   -0.149128
 Sum of Mulliken charges =  -0.00000

 Dipole moment (field-independent basis, Debye):
    X=              0.0000    Y=              0.0000    Z=             -0.8041  Tot=              0.8041

 Test job not archived.
 1\1\GINC-SE052\SP\RHF\Aug-CC-pVDZ\C4H4S1\OHZDE\05-Apr-2025\0\\#t hf au
 g-cc-pvdz iop(5/13=1,5/36=2,99/5=2) pseudo=read geom=check guess=(read
 ,tcheck) scf=(maxcycle=1)\\title\\0,1\C,0,0.,0.711523,-1.267123\C,0,0.
 ,-0.711523,-1.267123\C,0,0.,1.238059,-0.009487\C,0,0.,-1.238059,-0.009
 487\S,0,0.,0.,1.192594\H,0,0.,1.314467,-2.162845\H,0,0.,-1.314467,-2.1
 62845\H,0,0.,2.274447,0.281757\H,0,0.,-2.274447,0.281757\\Version=ES64
 L-G16RevC.01\State=1-A1\HF=-551.5465139\RMSD=2.240e-02\Dipole=0.,0.,-0
 .3163496\Quadrupole=-4.3093387,3.5688838,0.7404549,0.,0.,0.\PG=C02V [C

 Normal termination of Gaussian 16 at Sat Apr  5 23:16:25 2025.
