 Gaussian 16, Revision C.01,

 ----------------------------------------------------------------------
 #t hf aug-cc-pvdz symm=none int=(grid=ultrafine) guess=(read,tcheck) s
 table=(opt,rrhf)
 ----------------------------------------------------------------------
 -----
 title
 -----
 Symbolic Z-matrix:
 Charge =  0 Multiplicity = 1

 SCF Done:  E(RHF) =  -514.629403675     A.U. after   12 cycles
 Normal termination of Gaussian 16 at Sat Apr  5 23:16:21 2025.
 Gaussian 16:  ES64L-G16RevC.01  3-Jul-2019

 ----------------------------------------------------------------------
 #t hf aug-cc-pvdz iop(5/13=1,5/36=2,99/5=2) pseudo=read geom=check gue
 ss=(read,tcheck) scf=(maxcycle=1)
 ----------------------------------------------------------------------
 -----
 title
 -----
 Structure from the checkpoint file:  "thioacetone.chk"
 Charge =  0 Multiplicity = 1

                         Standard orientation:
 ---------------------------------------------------------------------
 Center     Atomic      Atomic             Coordinates (Angstroms)
 Number     Number       Type             X           Y           Z
 ---------------------------------------------------------------------
      1          6           0        0.000000    0.000000   -0.255900
      2         16           0        0.000000    0.000000    1.375571
      3          6           0        0.000000    1.266131   -1.062046
      4          6           0       -0.000000   -1.266131   -1.062046
      5          1           0        0.000000    2.147096   -0.427764
      6          1           0       -0.000000   -2.147096   -0.427764
      7          1           0        0.875313    1.291889   -1.718417
      8          1           0       -0.875313    1.291889   -1.718417
      9          1           0       -0.875313   -1.291889   -1.718417
     10          1           0        0.875313   -1.291889   -1.718417
 ---------------------------------------------------------------------

 SCF Done:  E(RHF) =  -514.815932078     A.U. after    2 cycles

 The electronic state is 1-A1.
 Alpha  occ. eigenvalues --  -93.92269 -11.33167 -11.25346 -11.25337  -8.20528
 Alpha  occ. eigenvalues --   -6.18340  -6.18159  -6.17926  -1.13135  -0.97324
 Alpha  occ. eigenvalues --   -0.97192  -0.73293  -0.62320  -0.62147  -0.62020
 Alpha  occ. eigenvalues --   -0.56706  -0.53947  -0.50520  -0.39164  -0.34179
 Alpha virt. eigenvalues --    0.03152   0.03818   0.04325   0.05728   0.06620
 Alpha virt. eigenvalues --    0.07294   0.07494   0.08604   0.10540   0.13411
 Alpha virt. eigenvalues --    0.14163   0.14460   0.16236   0.16888   0.16906

 Mulliken charges:
               1
     1  C   -0.495849
     2  S    0.085918
     3  C   -0.462031
     4  C   -0.462031
     5  H    0.170955
     6  H    0.170955
     7  H    0.248021
     8  H    0.248021
     9  H    0.248021
    10  H    0.248021
 Sum of Mulliken charges =  -0.00000

 Dipole moment (field-independent basis, Debye):
    X=              0.0000    Y=             -0.0000    Z=             -3.3960  Tot=              3.3960

 Test job not archived.
 1\1\GINC-SE180\SP\RHF\Aug-CC-pVDZ\C3H6S1\OHZDE\05-Apr-2025\0\\#t hf au
 g-cc-pvdz iop(5/13=1,5/36=2,99/5=2) pseudo=read geom=check guess=(read
 ,tcheck) scf=(maxcycle=1)\\title\\0,1\C,0,0.,0.,-0.2559\S,0,0.,0.,1.37
 5571\C,0,0.,1.266131,-1.062046\C,0,0.,-1.266131,-1.062046\H,0,0.,2.147
 096,-0.427764\H,0,0.,-2.147096,-0.427764\H,0,0.875313,1.291889,-1.7184
 17\H,0,-0.875313,1.291889,-1.718417\H,0,-0.875313,-1.291889,-1.718417\
 H,0,0.875313,-1.291889,-1.718417\\Version=ES64L-G16RevC.01\State=1-A1\
 HF=-514.8159321\RMSD=8.338e-03\Dipole=0.,0.,-1.336097\Quadrupole=0.053

 Normal termination of Gaussian 16 at Sat Apr  5 23:16:24 2025.
