 Gaussian 16, Revision C.01,

 ----------------------------------------------------------------------
 #t hf aug-cc-pvdz symm=none int=(grid=ultrafine) guess=(read,tcheck) s
 table=(opt,rrhf)
 ----------------------------------------------------------------------
 -----
 title
 -----
 Symbolic Z-matrix:
 Charge =  0 Multiplicity = 1

 SCF Done:  E(RHF) =  -1002.65333637     A.U. after   15 cycles
 Normal termination of Gaussian 16 at Sat Apr  5 23:16:29 2025.
 Gaussian 16:  ES64L-G16RevC.01  3-Jul-2019

 ----------------------------------------------------------------------
 #t hf aug-cc-pvdz iop(5/13=1,5/36=2,99/5=2) pseudo=read geom=check gue
 ss=(read,tcheck) scf=(maxcycle=1)
 ----------------------------------------------------------------------
 -----
 title
 -----
 Structure from the checkpoint file:  "thiocyanatomethylsulfanylacetylene.chk"
 Charge =  0 Multiplicity = 1

                         Standard orientation:
 ---------------------------------------------------------------------
 Center     Atomic      Atomic             Coordinates (Angstroms)
 Number     Number       Type             X           Y           Z
 ---------------------------------------------------------------------
      1         16           0       -1.101935    0.129883    0.766287
      2         16           0        1.586860   -1.013699    0.024402
      3          7           0       -3.556241    0.444182   -0.651748
      4          6           0       -0.110750   -0.717112   -0.552454
      5          6           0       -2.556688    0.312656   -0.085241
      6          6           0        2.264315    0.527879   -0.112470
      7          6           0        2.817305    1.593553   -0.189220
      8          1           0       -0.109558   -0.111181   -1.451631
      9          1           0       -0.538550   -1.696769   -0.745449
     10          1           0        3.297908    2.537882   -0.255392
 ---------------------------------------------------------------------

 SCF Done:  E(RHF) =  -1002.97415921     A.U. after    2 cycles

 The electronic state is 1-A.
 Alpha  occ. eigenvalues --  -94.02387 -94.01908 -15.53276 -11.35096 -11.31135
 Alpha  occ. eigenvalues --  -11.28742 -11.27229  -8.30367  -8.29851  -6.28206
 Alpha  occ. eigenvalues --   -6.27982  -6.27745  -6.27702  -6.27502  -6.27278
 Alpha  occ. eigenvalues --   -1.25215  -1.17302  -1.10280  -1.03240  -0.92452
 Alpha  occ. eigenvalues --   -0.75597  -0.71624  -0.69480  -0.63990  -0.62051
 Alpha  occ. eigenvalues --   -0.57207  -0.55720  -0.54481  -0.51181  -0.48567
 Alpha  occ. eigenvalues --   -0.43017  -0.41092  -0.37318
 Alpha virt. eigenvalues --    0.03047   0.03375   0.05014   0.05824   0.06771
 Alpha virt. eigenvalues --    0.07522   0.08895   0.09690   0.10213   0.10386
 Alpha virt. eigenvalues --    0.11323   0.11996   0.13117   0.13903   0.14283

 Mulliken charges:
               1
     1  S    0.840262
     2  S    0.523109
     3  N    0.691944
     4  C   -0.847143
     5  C   -1.487477
     6  C    0.034231
     7  C    0.077371
     8  H    0.239398
     9  H    0.216475
    10  H   -0.288170
 Sum of Mulliken charges =  -0.00000

 Dipole moment (field-independent basis, Debye):
    X=              3.9075    Y=             -0.4342    Z=              0.1800  Tot=              3.9357

 Test job not archived.
 1\1\GINC-SE190\SP\RHF\Aug-CC-pVDZ\C4H3N1S2\OHZDE\05-Apr-2025\0\\#t hf
 aug-cc-pvdz iop(5/13=1,5/36=2,99/5=2) pseudo=read geom=check guess=(re
 ad,tcheck) scf=(maxcycle=1)\\title\\0,1\S,0,-1.101935,0.129883,0.76628
 7\S,0,1.58686,-1.013699,0.024402\N,0,-3.556241,0.444182,-0.651748\C,0,
 -0.11075,-0.717112,-0.552454\C,0,-2.556688,0.312656,-0.085241\C,0,2.26
 4315,0.527879,-0.11247\C,0,2.817305,1.593553,-0.18922\H,0,-0.109558,-0
 .111181,-1.451631\H,0,-0.53855,-1.696769,-0.745449\H,0,3.297908,2.5378
 82,-0.255392\\Version=ES64L-G16RevC.01\State=1-A\HF=-1002.9741592\RMSD

 Normal termination of Gaussian 16 at Sat Apr  5 23:16:34 2025.
