 Gaussian 16, Revision C.01,

 ----------------------------------------------------------------------
 #t hf aug-cc-pvdz symm=none int=(grid=ultrafine) guess=(read,tcheck) s
 table=(opt,rrhf)
 ----------------------------------------------------------------------
 -----
 title
 -----
 Symbolic Z-matrix:
 Charge =  0 Multiplicity = 1

 SCF Done:  E(RHF) =  -435.835308164     A.U. after   14 cycles
 Normal termination of Gaussian 16 at Sat Apr  5 23:17:06 2025.
 Gaussian 16:  ES64L-G16RevC.01  3-Jul-2019

 ----------------------------------------------------------------------
 #t hf aug-cc-pvdz iop(5/13=1,5/36=2,99/5=2) pseudo=read geom=check gue
 ss=(read,tcheck) scf=(maxcycle=1)
 ----------------------------------------------------------------------
 -----
 title
 -----
 Structure from the checkpoint file:  "threonine.chk"
 Charge =  0 Multiplicity = 1

                         Standard orientation:
 ---------------------------------------------------------------------
 Center     Atomic      Atomic             Coordinates (Angstroms)
 Number     Number       Type             X           Y           Z
 ---------------------------------------------------------------------
      1          7           0       -0.051147    1.703848    0.244380
      2          6           0       -0.043314    0.431492   -0.483504
      3          6           0       -1.376086   -0.303235   -0.228367
      4          8           0       -1.530938   -1.479219   -0.435919
      5          8           0       -2.351637    0.487074    0.227525
      6          1           0       -1.928124    1.363089    0.369080
      7          6           0        1.141533   -0.499575   -0.166921
      8          8           0        1.167043   -0.778126    1.238261
      9          6           0        2.485110    0.099679   -0.539476
     10          1           0       -0.035888    0.649255   -1.555103
     11          1           0        0.984216   -1.425674   -0.722324
     12          1           0        0.509733   -1.457032    1.425652
     13          1           0        3.279834   -0.613026   -0.325853
     14          1           0        2.518013    0.345316   -1.601845
     15          1           0        2.686599    1.005623    0.033605
     16          1           0        0.347974    1.576034    1.168534
     17          1           0        0.476463    2.421484   -0.231731
 ---------------------------------------------------------------------

 SCF Done:  E(RHF) =  -436.280028256     A.U. after    2 cycles

 The electronic state is 1-A.
 Alpha  occ. eigenvalues --  -20.58937 -20.56175 -20.53236 -15.52591 -11.38999
 Alpha  occ. eigenvalues --  -11.30634 -11.30002 -11.24168  -1.54046  -1.46281
 Alpha  occ. eigenvalues --   -1.45179  -1.22421  -1.05656  -0.98013  -0.84900
 Alpha  occ. eigenvalues --   -0.81036  -0.76345  -0.73641  -0.71497  -0.68515
 Alpha  occ. eigenvalues --   -0.64833  -0.63760  -0.60524  -0.59251  -0.56584
 Alpha  occ. eigenvalues --   -0.55116  -0.54356  -0.50689  -0.50459  -0.46683
 Alpha  occ. eigenvalues --   -0.45880  -0.42692
 Alpha virt. eigenvalues --    0.02564   0.03777   0.04076   0.04689   0.06233
 Alpha virt. eigenvalues --    0.06371   0.06660   0.06909   0.07905   0.10920
 Alpha virt. eigenvalues --    0.12171   0.12689   0.13560   0.14326   0.15088

 Mulliken charges:
               1
     1  N    0.253203
     2  C   -1.794387
     3  C    2.542589
     4  O   -1.325864
     5  O   -1.329415
     6  H    0.473455
     7  C    0.950884
     8  O   -1.338331
     9  C   -0.229001
    10  H    0.245553
    11  H    0.092269
    12  H    0.307075
    13  H    0.156457
    14  H    0.208630
    15  H    0.192096
    16  H    0.307655
    17  H    0.287132
 Sum of Mulliken charges =  -0.00000

 Dipole moment (field-independent basis, Debye):
    X=              3.0861    Y=              3.0315    Z=             -0.8568  Tot=              4.4100

 Test job not archived.
 1\1\GINC-SE146\SP\RHF\Aug-CC-pVDZ\C4H9N1O3\OHZDE\05-Apr-2025\0\\#t hf
 aug-cc-pvdz iop(5/13=1,5/36=2,99/5=2) pseudo=read geom=check guess=(re
 ad,tcheck) scf=(maxcycle=1)\\title\\0,1\N,0,-0.051147,1.703848,0.24438
 \C,0,-0.043314,0.431492,-0.483504\C,0,-1.376086,-0.303235,-0.228367\O,
 0,-1.530938,-1.479219,-0.435919\O,0,-2.351637,0.487074,0.227525\H,0,-1
 .928124,1.363089,0.36908\C,0,1.141533,-0.499575,-0.166921\O,0,1.167043
 ,-0.778126,1.238261\C,0,2.48511,0.099679,-0.539476\H,0,-0.035888,0.649
 255,-1.555103\H,0,0.984216,-1.425674,-0.722324\H,0,0.509733,-1.457032,

 Normal termination of Gaussian 16 at Sat Apr  5 23:17:13 2025.
