 Gaussian 16, Revision C.01,

 ----------------------------------------------------------------------
 #t hf aug-cc-pvdz symm=none int=(grid=ultrafine) guess=(read,tcheck) s
 table=(opt,rrhf)
 ----------------------------------------------------------------------
 -----
 title
 -----
 Symbolic Z-matrix:
 Charge =  0 Multiplicity = 1

 SCF Done:  E(RHF) =  -451.573625131     A.U. after   15 cycles
 Normal termination of Gaussian 16 at Sat Apr  5 23:17:06 2025.
 Gaussian 16:  ES64L-G16RevC.01  3-Jul-2019

 ----------------------------------------------------------------------
 #t hf aug-cc-pvdz iop(5/13=1,5/36=2,99/5=2) pseudo=read geom=check gue
 ss=(read,tcheck) scf=(maxcycle=1)
 ----------------------------------------------------------------------
 -----
 title
 -----
 Structure from the checkpoint file:  "thymine.chk"
 Charge =  0 Multiplicity = 1

                         Standard orientation:
 ---------------------------------------------------------------------
 Center     Atomic      Atomic             Coordinates (Angstroms)
 Number     Number       Type             X           Y           Z
 ---------------------------------------------------------------------
      1          7           0       -0.726579    1.028726   -0.000001
      2          6           0        0.669751    0.895487    0.000064
      3          8           0        1.378069    1.884236    0.000131
      4          6           0        1.153712   -0.486497    0.000042
      5          6           0        2.632341   -0.716781    0.000106
      6          6           0        0.240400   -1.474972   -0.000038
      7          7           0       -1.115294   -1.239106   -0.000094
      8          6           0       -1.675291    0.026086   -0.000082
      9          8           0       -2.872270    0.222918   -0.000137
     10          1           0       -1.085233    1.972913    0.000012
     11          1           0        3.096734   -0.258658    0.874392
     12          1           0        2.863608   -1.781203    0.000091
     13          1           0        3.096819   -0.258616   -0.874114
     14          1           0        0.522304   -2.518618   -0.000059
     15          1           0       -1.773003   -2.000335   -0.000157
 ---------------------------------------------------------------------

 SCF Done:  E(RHF) =  -452.024374711     A.U. after    2 cycles

 The electronic state is 1-A.
 Alpha  occ. eigenvalues --  -20.53134 -20.53078 -15.57668 -15.56490 -11.41937
 Alpha  occ. eigenvalues --  -11.38429 -11.33351 -11.26512 -11.24832  -1.49558
 Alpha  occ. eigenvalues --   -1.47743  -1.32553  -1.25147  -1.11682  -0.98589
 Alpha  occ. eigenvalues --   -0.93945  -0.92808  -0.80583  -0.79798  -0.74019
 Alpha  occ. eigenvalues --   -0.69214  -0.69137  -0.65157  -0.62774  -0.60111
 Alpha  occ. eigenvalues --   -0.58450  -0.58061  -0.56122  -0.52709  -0.47852
 Alpha  occ. eigenvalues --   -0.45017  -0.44558  -0.36795
 Alpha virt. eigenvalues --    0.02070   0.03546   0.04532   0.05104   0.05465
 Alpha virt. eigenvalues --    0.07360   0.07528   0.08595   0.09290   0.10904
 Alpha virt. eigenvalues --    0.11191   0.11674   0.12281   0.13486   0.14342

 Mulliken charges:
               1
     1  N    0.580029
     2  C    0.558556
     3  O   -1.520340
     4  C    0.743093
     5  C   -0.746547
     6  C    0.058442
     7  N    0.509985
     8  C    0.212649
     9  O   -1.217722
    10  H    0.241289
    11  H    0.252240
    12  H    0.095025
    13  H    0.252244
    14  H   -0.240704
    15  H    0.221762
 Sum of Mulliken charges =  -0.00000

 Dipole moment (field-independent basis, Debye):
    X=              1.2612    Y=             -4.4320    Z=             -0.0001  Tot=              4.6080

 Test job not archived.
 1\1\GINC-SE145\SP\RHF\Aug-CC-pVDZ\C5H6N2O2\OHZDE\05-Apr-2025\0\\#t hf
 aug-cc-pvdz iop(5/13=1,5/36=2,99/5=2) pseudo=read geom=check guess=(re
 ad,tcheck) scf=(maxcycle=1)\\title\\0,1\N,0,-0.726579,1.028726,-0.0000
 01\C,0,0.669751,0.895487,0.000064\O,0,1.378069,1.884236,0.000131\C,0,1
 .153712,-0.486497,0.000042\C,0,2.632341,-0.716781,0.000106\C,0,0.2404,
 -1.474972,-0.000038\N,0,-1.115294,-1.239106,-0.000094\C,0,-1.675291,0.
 026086,-0.000082\O,0,-2.87227,0.222918,-0.000137\H,0,-1.085233,1.97291
 3,0.000012\H,0,3.096734,-0.258658,0.874392\H,0,2.863608,-1.781203,0.00

 Normal termination of Gaussian 16 at Sat Apr  5 23:17:13 2025.
