 Gaussian 16, Revision C.01,

 ----------------------------------------------------------------------
 #t hf aug-cc-pvdz symm=none int=(grid=ultrafine) guess=(read,tcheck) s
 table=(opt,rrhf)
 ----------------------------------------------------------------------
 -----
 title
 -----
 Symbolic Z-matrix:
 Charge =  0 Multiplicity = 1

 SCF Done:  E(RHF) =  -1056.55810322     A.U. after   14 cycles
 Normal termination of Gaussian 16 at Sat Apr  5 23:16:42 2025.
 Gaussian 16:  ES64L-G16RevC.01  3-Jul-2019

 ----------------------------------------------------------------------
 #t hf aug-cc-pvdz iop(5/13=1,5/36=2,99/5=2) pseudo=read geom=check gue
 ss=(read,tcheck) scf=(maxcycle=1)
 ----------------------------------------------------------------------
 -----
 title
 -----
 Structure from the checkpoint file:  "trans-dithiocyanatoethene.chk"
 Charge =  0 Multiplicity = 1

                         Standard orientation:
 ---------------------------------------------------------------------
 Center     Atomic      Atomic             Coordinates (Angstroms)
 Number     Number       Type             X           Y           Z
 ---------------------------------------------------------------------
      1         16           0        2.050341    0.742508   -0.499891
      2         16           0       -2.050342   -0.742503   -0.499907
      3          7           0        3.923970   -0.715598    1.081612
      4          7           0       -3.923966    0.715581    1.081626
      5          6           0        0.603325   -0.276815   -0.332055
      6          6           0       -0.603328    0.276827   -0.332072
      7          6           0        3.140682   -0.141456    0.456341
      8          6           0       -3.140681    0.141447    0.456343
      9          1           0        0.769347   -1.345261   -0.318590
     10          1           0       -0.769353    1.345273   -0.318638
 ---------------------------------------------------------------------

 SCF Done:  E(RHF) =  -1056.92299731     A.U. after    2 cycles

 The electronic state is 1-A.
 Alpha  occ. eigenvalues --  -94.04774 -94.04773 -15.54721 -15.54714 -11.34273
 Alpha  occ. eigenvalues --  -11.34146 -11.32461 -11.32460  -8.32768  -8.32768
 Alpha  occ. eigenvalues --   -6.30609  -6.30608  -6.30401  -6.30401  -6.30160
 Alpha  occ. eigenvalues --   -6.30160  -1.26725  -1.26613  -1.19756  -1.13933
 Alpha  occ. eigenvalues --   -1.03812  -0.84757  -0.77293  -0.71097  -0.69432
 Alpha  occ. eigenvalues --   -0.64261  -0.62670  -0.59852  -0.58979  -0.57577
 Alpha  occ. eigenvalues --   -0.57022  -0.52401  -0.50819  -0.50176  -0.44539
 Alpha  occ. eigenvalues --   -0.38646
 Alpha virt. eigenvalues --    0.02994   0.03412   0.04696   0.05615   0.06013
 Alpha virt. eigenvalues --    0.06844   0.07759   0.09121   0.09464   0.09789
 Alpha virt. eigenvalues --    0.10161   0.10191   0.11934   0.13085   0.13334

 Mulliken charges:
               1
     1  S    0.830514
     2  S    0.830506
     3  N    0.765647
     4  N    0.765645
     5  C    0.148677
     6  C    0.148666
     7  C   -1.636385
     8  C   -1.636378
     9  H   -0.108450
    10  H   -0.108441
 Sum of Mulliken charges =   0.00000

 Dipole moment (field-independent basis, Debye):
    X=              0.0000    Y=              0.0000    Z=             -3.9163  Tot=              3.9163

 Test job not archived.
 1\1\GINC-SE176\SP\RHF\Aug-CC-pVDZ\C4H2N2S2\OHZDE\05-Apr-2025\0\\#t hf
 aug-cc-pvdz iop(5/13=1,5/36=2,99/5=2) pseudo=read geom=check guess=(re
 ad,tcheck) scf=(maxcycle=1)\\title\\0,1\S,0,2.050341,0.742508,-0.49989
 1\S,0,-2.050342,-0.742503,-0.499907\N,0,3.92397,-0.715598,1.081612\N,0
 ,-3.923966,0.715581,1.081626\C,0,0.603325,-0.276815,-0.332055\C,0,-0.6
 03328,0.276827,-0.332072\C,0,3.140682,-0.141456,0.456341\C,0,-3.140681
 ,0.141447,0.456343\H,0,0.769347,-1.345261,-0.31859\H,0,-0.769353,1.345
 273,-0.318638\\Version=ES64L-G16RevC.01\State=1-A\HF=-1056.9229973\RMS

 Normal termination of Gaussian 16 at Sat Apr  5 23:16:48 2025.
