 Gaussian 16, Revision C.01,

 ----------------------------------------------------------------------
 #t hf aug-cc-pvdz symm=none int=(grid=ultrafine) guess=(read,tcheck) s
 table=(opt,rrhf)
 ----------------------------------------------------------------------
 -----
 title
 -----
 Symbolic Z-matrix:
 Charge =  0 Multiplicity = 1

 SCF Done:  E(RHF) =  -350.164330512     A.U. after   12 cycles
 Normal termination of Gaussian 16 at Sat Apr  5 23:18:46 2025.
 Gaussian 16:  ES64L-G16RevC.01  3-Jul-2019

 ----------------------------------------------------------------------
 #t hf aug-cc-pvdz iop(5/13=1,5/36=2,99/5=2) pseudo=read geom=check gue
 ss=(read,tcheck) scf=(maxcycle=1)
 ----------------------------------------------------------------------
 -----
 title
 -----
 Structure from the checkpoint file:  "trans-2-3-dimethylnorborane.chk"
 Charge =  0 Multiplicity = 1

                         Standard orientation:
 ---------------------------------------------------------------------
 Center     Atomic      Atomic             Coordinates (Angstroms)
 Number     Number       Type             X           Y           Z
 ---------------------------------------------------------------------
      1          6           0        0.707742   -0.940168    1.191925
      2          6           0        0.805573    0.571081    0.911672
      3          6           0        0.286298   -1.294617   -0.248550
      4          6           0        1.813009    0.594515   -0.256246
      5          6           0       -0.630377    0.862567    0.409362
      6          6           0       -0.961973   -0.400731   -0.457716
      7          6           0        1.455724   -0.696655   -1.057146
      8          1           0       -0.041153   -1.191218    1.943754
      9          1           0        1.658013   -1.391146    1.482484
     10          1           0        1.098896    1.197400    1.754117
     11          1           0        0.105962   -2.349691   -0.452928
     12          1           0        2.832978    0.547501    0.127018
     13          6           0       -2.278499   -1.071176   -0.071401
     14          1           0        2.300532   -1.386094   -1.086752
     15          1           0       -1.280255    0.846643    1.290316
     16          1           0        1.172461   -0.486382   -2.089154
     17          6           0       -0.854203    2.196159   -0.296344
     18          1           0        1.744295    1.498504   -0.859168
     19          1           0       -1.027284   -0.113838   -1.511063
     20          1           0       -3.112889   -0.370708   -0.150666
     21          1           0       -2.254833   -1.436327    0.957417
     22          1           0       -2.497120   -1.920640   -0.721600
     23          1           0       -0.581866    3.037107    0.345146
     24          1           0       -1.905142    2.317448   -0.566598
     25          1           0       -0.272369    2.275590   -1.215659
 ---------------------------------------------------------------------

 SCF Done:  E(RHF) =  -350.549525346     A.U. after    2 cycles

 The electronic state is 1-A.
 Alpha  occ. eigenvalues --  -11.22251 -11.22176 -11.22163 -11.22092 -11.21825
 Alpha  occ. eigenvalues --  -11.21760 -11.21709 -11.21700 -11.21601  -1.16806
 Alpha  occ. eigenvalues --   -1.03688  -1.00767  -0.95701  -0.93037  -0.86746
 Alpha  occ. eigenvalues --   -0.80004  -0.75587  -0.72207  -0.68048  -0.64922
 Alpha  occ. eigenvalues --   -0.62454  -0.58162  -0.57319  -0.55470  -0.55370
 Alpha  occ. eigenvalues --   -0.53101  -0.51219  -0.49757  -0.49258  -0.48227
 Alpha  occ. eigenvalues --   -0.46171  -0.45951  -0.43372  -0.42831  -0.41897
 Alpha virt. eigenvalues --    0.03163   0.03264   0.03557   0.04037   0.05223
 Alpha virt. eigenvalues --    0.05493   0.05640   0.05755   0.05842   0.08592
 Alpha virt. eigenvalues --    0.08752   0.08937   0.09319   0.09561   0.09628

 Mulliken charges:
               1
     1  C    0.287981
     2  C   -0.234698
     3  C   -0.023545
     4  C   -0.038634
     5  C   -0.179398
     6  C   -0.449023
     7  C   -0.062913
     8  H    0.043801
     9  H    0.011690
    10  H   -0.000286
    11  H   -0.034840
    12  H    0.077453
    13  C   -0.326982
    14  H    0.050982
    15  H    0.025627
    16  H    0.067314
    17  C   -0.346223
    18  H    0.077785
    19  H   -0.003837
    20  H    0.177868
    21  H    0.225790
    22  H    0.129172
    23  H    0.153190
    24  H    0.175184
    25  H    0.196542
 Sum of Mulliken charges =  -0.00000

 Dipole moment (field-independent basis, Debye):
    X=              0.0192    Y=             -0.0093    Z=              0.0554  Tot=              0.0594

 Test job not archived.
 1\1\GINC-SE115\SP\RHF\Aug-CC-pVDZ\C9H16\OHZDE\05-Apr-2025\0\\#t hf aug
 -cc-pvdz iop(5/13=1,5/36=2,99/5=2) pseudo=read geom=check guess=(read,
 tcheck) scf=(maxcycle=1)\\title\\0,1\C,0,0.707742,-0.940168,1.191925\C
 ,0,0.805573,0.571081,0.911672\C,0,0.286298,-1.294617,-0.24855\C,0,1.81
 3009,0.594515,-0.256246\C,0,-0.630377,0.862567,0.409362\C,0,-0.961973,
 -0.400731,-0.457716\C,0,1.455724,-0.696655,-1.057146\H,0,-0.041153,-1.
 191218,1.943754\H,0,1.658013,-1.391146,1.482484\H,0,1.098896,1.1974,1.
 754117\H,0,0.105962,-2.349691,-0.452928\H,0,2.832978,0.547501,0.127018

 Normal termination of Gaussian 16 at Sat Apr  5 23:19:03 2025.
