 Gaussian 16, Revision C.01,

 ----------------------------------------------------------------------
 #t hf aug-cc-pvdz symm=none int=(grid=ultrafine) guess=(read,tcheck) s
 table=(opt,rrhf)
 ----------------------------------------------------------------------
 -----
 title
 -----
 Symbolic Z-matrix:
 Charge =  0 Multiplicity = 1

 SCF Done:  E(RHF) =  -389.229299258     A.U. after   11 cycles
 Normal termination of Gaussian 16 at Sat Apr  5 23:21:08 2025.
 Gaussian 16:  ES64L-G16RevC.01  3-Jul-2019

 ----------------------------------------------------------------------
 #t hf aug-cc-pvdz iop(5/13=1,5/36=2,99/5=2) pseudo=read geom=check gue
 ss=(read,tcheck) scf=(maxcycle=1)
 ----------------------------------------------------------------------
 -----
 title
 -----
 Structure from the checkpoint file:  "trans-decalin.chk"
 Charge =  0 Multiplicity = 1

                         Standard orientation:
 ---------------------------------------------------------------------
 Center     Atomic      Atomic             Coordinates (Angstroms)
 Number     Number       Type             X           Y           Z
 ---------------------------------------------------------------------
      1          6           0       -0.225728    0.731655    2.543314
      2          6           0        0.225728   -0.731655    2.543314
      3          6           0        0.225728    1.456661    1.272775
      4          6           0       -0.225728   -1.456661    1.272775
      5          6           0       -0.231499    0.735086    0.000000
      6          6           0        0.231499   -0.735086    0.000000
      7          6           0        0.225728    1.456661   -1.272775
      8          6           0       -0.225728    0.731655   -2.543314
      9          6           0        0.225728   -0.731655   -2.543314
     10          6           0       -0.225728   -1.456661   -1.272775
     11          1           0        0.156998    1.245982   -3.427820
     12          1           0       -0.156998   -1.245982    3.427820
     13          1           0        0.150668   -2.483241   -1.270085
     14          1           0       -0.156998   -1.245982   -3.427820
     15          1           0        1.318123   -0.770907   -2.610688
     16          1           0       -0.150668    2.483241    1.270085
     17          1           0        0.156998    1.245982    3.427820
     18          1           0       -0.150668    2.483241   -1.270085
     19          1           0        0.150668   -2.483241    1.270085
     20          1           0       -1.318123    0.770907    2.610688
     21          1           0        1.319276    1.529769   -1.266570
     22          1           0        1.319276    1.529769    1.266570
     23          1           0        1.318123   -0.770907    2.610688
     24          1           0       -1.318123    0.770907   -2.610688
     25          1           0       -1.319276   -1.529769    1.266570
     26          1           0       -1.319276   -1.529769   -1.266570
     27          1           0       -1.330699    0.726592    0.000000
     28          1           0        1.330699   -0.726592    0.000000
 ---------------------------------------------------------------------

 SCF Done:  E(RHF) =  -389.657929740     A.U. after    2 cycles

 The electronic state is 1-AG.
 Alpha  occ. eigenvalues --  -11.21953 -11.21934 -11.21888 -11.21882 -11.21870
 Alpha  occ. eigenvalues --  -11.21861 -11.21721 -11.21718 -11.21697 -11.21681
 Alpha  occ. eigenvalues --   -1.13897  -1.07361  -1.02763  -0.99149  -0.96026
 Alpha  occ. eigenvalues --   -0.85585  -0.82575  -0.81053  -0.75991  -0.75573
 Alpha  occ. eigenvalues --   -0.64504  -0.63424  -0.62163  -0.60170  -0.60074
 Alpha  occ. eigenvalues --   -0.58840  -0.57318  -0.53178  -0.52228  -0.50551
 Alpha  occ. eigenvalues --   -0.50176  -0.49860  -0.48257  -0.47123  -0.46625
 Alpha  occ. eigenvalues --   -0.45683  -0.44690  -0.41424  -0.41063
 Alpha virt. eigenvalues --    0.02973   0.03097   0.03136   0.04166   0.04840
 Alpha virt. eigenvalues --    0.05164   0.05559   0.05721   0.06057   0.07804
 Alpha virt. eigenvalues --    0.08060   0.08551   0.08706   0.09083   0.09325

 Mulliken charges:
               1
     1  C   -0.253371
     2  C   -0.253371
     3  C   -0.037620
     4  C   -0.037620
     5  C   -0.584740
     6  C   -0.584740
     7  C   -0.037620
     8  C   -0.253371
     9  C   -0.253371
    10  C   -0.037620
    11  H    0.106242
    12  H    0.106242
    13  H    0.086171
    14  H    0.106242
    15  H    0.159571
    16  H    0.086171
    17  H    0.106242
    18  H    0.086171
    19  H    0.086171
    20  H    0.159571
    21  H    0.172165
    22  H    0.172165
    23  H    0.159571
    24  H    0.159571
    25  H    0.172165
    26  H    0.172165
    27  H    0.118422
    28  H    0.118422
 Sum of Mulliken charges =  -0.00000

 Dipole moment (field-independent basis, Debye):
    X=              0.0000    Y=              0.0000    Z=             -0.0000  Tot=              0.0000

 Test job not archived.
 1\1\GINC-SE175\SP\RHF\Aug-CC-pVDZ\C10H18\OHZDE\05-Apr-2025\0\\#t hf au
 g-cc-pvdz iop(5/13=1,5/36=2,99/5=2) pseudo=read geom=check guess=(read
 ,tcheck) scf=(maxcycle=1)\\title\\0,1\C,0,-0.225728,0.731655,2.543314\
 C,0,0.225728,-0.731655,2.543314\C,0,0.225728,1.456661,1.272775\C,0,-0.
 225728,-1.456661,1.272775\C,0,-0.231499,0.735086,0.\C,0,0.231499,-0.73
 5086,0.\C,0,0.225728,1.456661,-1.272775\C,0,-0.225728,0.731655,-2.5433
 14\C,0,0.225728,-0.731655,-2.543314\C,0,-0.225728,-1.456661,-1.272775\
 H,0,0.156998,1.245982,-3.42782\H,0,-0.156998,-1.245982,3.42782\H,0,0.1

 Normal termination of Gaussian 16 at Sat Apr  5 23:21:24 2025.
