 Gaussian 16, Revision C.01,

 ----------------------------------------------------------------------
 #t hf aug-cc-pvdz symm=none int=(grid=ultrafine) guess=(read,tcheck) s
 table=(opt,rrhf)
 ----------------------------------------------------------------------
 -----
 title
 -----
 Symbolic Z-matrix:
 Charge =  0 Multiplicity = 1

 SCF Done:  E(RHF) =  -234.194674659     A.U. after   11 cycles
 Normal termination of Gaussian 16 at Sat Apr  5 23:16:56 2025.
 Gaussian 16:  ES64L-G16RevC.01  3-Jul-2019

 ----------------------------------------------------------------------
 #t hf aug-cc-pvdz iop(5/13=1,5/36=2,99/5=2) pseudo=read geom=check gue
 ss=(read,tcheck) scf=(maxcycle=1)
 ----------------------------------------------------------------------
 -----
 title
 -----
 Structure from the checkpoint file:  "trans-1-3-dimethylcyclobutane.chk"
 Charge =  0 Multiplicity = 1

                         Standard orientation:
 ---------------------------------------------------------------------
 Center     Atomic      Atomic             Coordinates (Angstroms)
 Number     Number       Type             X           Y           Z
 ---------------------------------------------------------------------
      1          6           0        0.244705    0.078242    1.082742
      2          6           0        0.244705    0.078242   -1.082742
      3          6           0        0.834997   -0.869296    0.000000
      4          6           0       -0.656207    0.731128   -0.000000
      5          6           0        0.244705   -2.272702    0.000000
      6          6           0       -0.820584    2.239722   -0.000000
      7          1           0       -0.252168   -0.391852    1.932537
      8          1           0        0.988396    0.780747    1.462896
      9          1           0       -0.252168   -0.391852   -1.932537
     10          1           0        0.988396    0.780747   -1.462896
     11          1           0        1.923688   -0.935418    0.000000
     12          1           0       -1.640735    0.259122   -0.000000
     13          1           0       -0.847355   -2.246577   -0.000000
     14          1           0        0.151583    2.738338   -0.000000
     15          1           0        0.561618   -2.832501   -0.882519
     16          1           0        0.561618   -2.832501    0.882519
     17          1           0       -1.368402    2.579864   -0.881781
     18          1           0       -1.368402    2.579864    0.881781
 ---------------------------------------------------------------------

 SCF Done:  E(RHF) =  -234.457443931     A.U. after    2 cycles

 The electronic state is 1-A'.
 Alpha  occ. eigenvalues --  -11.22615 -11.22561 -11.21878 -11.21787 -11.21750
 Alpha  occ. eigenvalues --  -11.21748  -1.13600  -1.00404  -0.93416  -0.89512
 Alpha  occ. eigenvalues --   -0.81213  -0.72688  -0.64951  -0.64376  -0.59003
 Alpha  occ. eigenvalues --   -0.56145  -0.55803  -0.54080  -0.53337  -0.50413
 Alpha  occ. eigenvalues --   -0.45587  -0.45136  -0.42909  -0.42188
 Alpha virt. eigenvalues --    0.03518   0.03854   0.03897   0.04051   0.05901
 Alpha virt. eigenvalues --    0.06093   0.06298   0.06485   0.06905   0.09196
 Alpha virt. eigenvalues --    0.09458   0.09788   0.12324   0.13779   0.14225

 Mulliken charges:
               1
     1  C    0.259982
     2  C    0.259982
     3  C   -0.459780
     4  C   -0.410304
     5  C   -0.291242
     6  C   -0.469440
     7  H    0.012154
     8  H    0.050349
     9  H    0.012154
    10  H    0.050349
    11  H   -0.066074
    12  H   -0.022274
    13  H    0.185881
    14  H    0.163620
    15  H    0.162935
    16  H    0.162935
    17  H    0.199387
    18  H    0.199387
 Sum of Mulliken charges =  -0.00000

 Dipole moment (field-independent basis, Debye):
    X=             -0.0012    Y=             -0.0198    Z=              0.0000  Tot=              0.0199

 Test job not archived.
 1\1\GINC-SE194\SP\RHF\Aug-CC-pVDZ\C6H12\OHZDE\05-Apr-2025\0\\#t hf aug
 -cc-pvdz iop(5/13=1,5/36=2,99/5=2) pseudo=read geom=check guess=(read,
 tcheck) scf=(maxcycle=1)\\title\\0,1\C,0,0.244705,0.078242,1.082742\C,
 0,0.244705,0.078242,-1.082742\C,0,0.834997,-0.869296,0.\C,0,-0.656207,
 0.731128,0.\C,0,0.244705,-2.272702,0.\C,0,-0.820584,2.239722,0.\H,0,-0
 .252168,-0.391852,1.932537\H,0,0.988396,0.780747,1.462896\H,0,-0.25216
 8,-0.391852,-1.932537\H,0,0.988396,0.780747,-1.462896\H,0,1.923688,-0.
 935418,0.\H,0,-1.640735,0.259122,0.\H,0,-0.847355,-2.246577,0.\H,0,0.1

 Normal termination of Gaussian 16 at Sat Apr  5 23:17:10 2025.
