 Gaussian 16, Revision C.01,

 ----------------------------------------------------------------------
 #t hf aug-cc-pvdz symm=none int=(grid=ultrafine) guess=(read,tcheck) s
 table=(opt,rrhf)
 ----------------------------------------------------------------------
 -----
 title
 -----
 Symbolic Z-matrix:
 Charge =  0 Multiplicity = 1

 SCF Done:  E(RHF) =  -229.835251525     A.U. after   14 cycles
 Normal termination of Gaussian 16 at Sat Apr  5 23:16:30 2025.
 Gaussian 16:  ES64L-G16RevC.01  3-Jul-2019

 ----------------------------------------------------------------------
 #t hf aug-cc-pvdz iop(5/13=1,5/36=2,99/5=2) pseudo=read geom=check gue
 ss=(read,tcheck) scf=(maxcycle=1)
 ----------------------------------------------------------------------
 -----
 title
 -----
 Structure from the checkpoint file:  "trans-2-butenal.chk"
 Charge =  0 Multiplicity = 1

                         Standard orientation:
 ---------------------------------------------------------------------
 Center     Atomic      Atomic             Coordinates (Angstroms)
 Number     Number       Type             X           Y           Z
 ---------------------------------------------------------------------
      1          6           0        0.000000    0.336443    0.000000
      2          6           0       -0.894961   -0.655241    0.000000
      3          6           0        1.437530    0.059783    0.000000
      4          6           0       -2.376114   -0.496353    0.000000
      5          8           0        2.302239    0.907893    0.000000
      6          1           0       -0.296890    1.379137    0.000000
      7          1           0       -0.520454   -1.676347    0.000000
      8          1           0        1.704005   -1.017594    0.000000
      9          1           0       -2.814656   -0.983507    0.874815
     10          1           0       -2.814656   -0.983507   -0.874815
     11          1           0       -2.673991    0.550880    0.000000
 ---------------------------------------------------------------------

 SCF Done:  E(RHF) =  -230.072811248     A.U. after    2 cycles

 The electronic state is 1-A'.
 Alpha  occ. eigenvalues --  -20.53799 -11.33837 -11.28309 -11.25671 -11.25037
 Alpha  occ. eigenvalues --   -1.46653  -1.11256  -0.99377  -0.84691  -0.78956
 Alpha  occ. eigenvalues --   -0.68897  -0.65472  -0.60140  -0.59990  -0.57536
 Alpha  occ. eigenvalues --   -0.53999  -0.53664  -0.41859  -0.38940
 Alpha virt. eigenvalues --    0.02951   0.03627   0.04697   0.04714   0.06386
 Alpha virt. eigenvalues --    0.07232   0.08070   0.10237   0.11334   0.12447
 Alpha virt. eigenvalues --    0.12659   0.13293   0.14892   0.15838   0.16875

 Mulliken charges:
               1
     1  C    0.643443
     2  C    0.256307
     3  C    0.781598
     4  C   -0.760482
     5  O   -1.214689
     6  H   -0.213961
     7  H   -0.173445
     8  H    0.078573
     9  H    0.240439
    10  H    0.240439
    11  H    0.121777
 Sum of Mulliken charges =  -0.00000

 Dipole moment (field-independent basis, Debye):
    X=             -3.7323    Y=             -2.3310    Z=              0.0000  Tot=              4.4005

 Test job not archived.
 1\1\GINC-SE115\SP\RHF\Aug-CC-pVDZ\C4H6O1\OHZDE\05-Apr-2025\0\\#t hf au
 g-cc-pvdz iop(5/13=1,5/36=2,99/5=2) pseudo=read geom=check guess=(read
 ,tcheck) scf=(maxcycle=1)\\title\\0,1\C,0,0.,0.336443,0.\C,0,-0.894961
 ,-0.655241,0.\C,0,1.43753,0.059783,0.\C,0,-2.376114,-0.496353,0.\O,0,2
 .302239,0.907893,0.\H,0,-0.29689,1.379137,0.\H,0,-0.520454,-1.676347,0
 .\H,0,1.704005,-1.017594,0.\H,0,-2.814656,-0.983507,0.874815\H,0,-2.81
 4656,-0.983507,-0.874815\H,0,-2.673991,0.55088,0.\\Version=ES64L-G16Re
 vC.01\State=1-A'\HF=-230.0728112\RMSD=1.941e-02\Dipole=-1.4684155,-0.9

 Normal termination of Gaussian 16 at Sat Apr  5 23:16:34 2025.
