 Gaussian 16, Revision C.01,

 ----------------------------------------------------------------------
 #t hf aug-cc-pvdz symm=none int=(grid=ultrafine) guess=(read,tcheck) s
 table=(opt,rrhf)
 ----------------------------------------------------------------------
 -----
 title
 -----
 Symbolic Z-matrix:
 Charge =  0 Multiplicity = 1

 SCF Done:  E(RHF) =  -231.794339857     A.U. after   12 cycles
 Normal termination of Gaussian 16 at Sat Apr  5 23:16:40 2025.
 Gaussian 16:  ES64L-G16RevC.01  3-Jul-2019

 ----------------------------------------------------------------------
 #t hf aug-cc-pvdz iop(5/13=1,5/36=2,99/5=2) pseudo=read geom=check gue
 ss=(read,tcheck) scf=(maxcycle=1)
 ----------------------------------------------------------------------
 -----
 title
 -----
 Structure from the checkpoint file:  "trans-2-3-4-hexatriene.chk"
 Charge =  0 Multiplicity = 1

                         Standard orientation:
 ---------------------------------------------------------------------
 Center     Atomic      Atomic             Coordinates (Angstroms)
 Number     Number       Type             X           Y           Z
 ---------------------------------------------------------------------
      1          6           0        1.233554   -2.804366    0.000000
      2          1           0        1.251117   -3.456614    0.877469
      3          1           0        1.251117   -3.456614   -0.877469
      4          1           0        2.138991   -2.200941    0.000000
      5          6           0       -1.233554    2.804366    0.000000
      6          1           0       -1.251117    3.456614   -0.877469
      7          1           0       -1.251117    3.456614    0.877469
      8          1           0       -2.138991    2.200941    0.000000
      9          6           0        0.001866   -1.946573    0.000000
     10          1           0       -0.953142   -2.465454    0.000000
     11          6           0       -0.001866    1.946573    0.000000
     12          1           0        0.953142    2.465454    0.000000
     13          6           0        0.001866    0.631609    0.000000
     14          6           0       -0.001866   -0.631609    0.000000
 ---------------------------------------------------------------------

 SCF Done:  E(RHF) =  -232.042237337     A.U. after    2 cycles

 The electronic state is 1-AG.
 Alpha  occ. eigenvalues --  -11.25881 -11.25864 -11.24947 -11.24716 -11.23829
 Alpha  occ. eigenvalues --  -11.23822  -1.10015  -1.05880  -0.98213  -0.90906
 Alpha  occ. eigenvalues --   -0.84635  -0.69277  -0.66754  -0.59950  -0.58195
 Alpha  occ. eigenvalues --   -0.57930  -0.57718  -0.53919  -0.53356  -0.46205
 Alpha  occ. eigenvalues --   -0.37329  -0.31715
 Alpha virt. eigenvalues --    0.03605   0.03754   0.04175   0.05288   0.05403
 Alpha virt. eigenvalues --    0.05867   0.06009   0.08159   0.08429   0.10436
 Alpha virt. eigenvalues --    0.11781   0.12044   0.13150   0.14162   0.14599

 Mulliken charges:
               1
     1  C   -0.652719
     2  H    0.209563
     3  H    0.209563
     4  H    0.067605
     5  C   -0.652719
     6  H    0.209563
     7  H    0.209563
     8  H    0.067605
     9  C   -0.045635
    10  H   -0.147597
    11  C   -0.045635
    12  H   -0.147597
    13  C    0.359219
    14  C    0.359219
 Sum of Mulliken charges =   0.00000

 Dipole moment (field-independent basis, Debye):
    X=             -0.0000    Y=             -0.0000    Z=              0.0000  Tot=              0.0000

 Test job not archived.
 1\1\GINC-SE198\SP\RHF\Aug-CC-pVDZ\C6H8\OHZDE\05-Apr-2025\0\\#t hf aug-
 cc-pvdz iop(5/13=1,5/36=2,99/5=2) pseudo=read geom=check guess=(read,t
 check) scf=(maxcycle=1)\\title\\0,1\C,0,1.233554,-2.804366,0.\H,0,1.25
 1117,-3.456614,0.877469\H,0,1.251117,-3.456614,-0.877469\H,0,2.138991,
 -2.200941,0.\C,0,-1.233554,2.804366,0.\H,0,-1.251117,3.456614,-0.87746
 9\H,0,-1.251117,3.456614,0.877469\H,0,-2.138991,2.200941,0.\C,0,0.0018
 66,-1.946573,0.\H,0,-0.953142,-2.465454,0.\C,0,-0.001866,1.946573,0.\H
 ,0,0.953142,2.465454,0.\C,0,0.001866,0.631609,0.\C,0,-0.001866,-0.6316

 Normal termination of Gaussian 16 at Sat Apr  5 23:16:44 2025.
