 Gaussian 16, Revision C.01,

 ----------------------------------------------------------------------
 #t hf aug-cc-pvdz symm=none int=(grid=ultrafine) guess=(read,tcheck) s
 table=(opt,rrhf)
 ----------------------------------------------------------------------
 -----
 title
 -----
 Symbolic Z-matrix:
 Charge =  0 Multiplicity = 1

 SCF Done:  E(RHF) =  -1454.79832046     A.U. after   13 cycles

 1\1\GINC-SE025\Stability\RHF\Aug-CC-pVDZ\C2H1Cl3\OHZDE\05-Apr-2025\0\\
 #t hf aug-cc-pvdz symm=none int=(grid=ultrafine) guess=(read,tcheck) s
 table=(opt,rrhf)\\title\\0,1\C,0,-1.03458,-0.395303,0.\C,0,0.,0.438157
 ,0.\H,0,-2.045695,-0.022811,0.\Cl,0,-0.896263,-2.11395,0.\Cl,0,-0.2683
 66,2.154033,0.\Cl,0,1.650109,-0.053866,0.\\Version=ES64L-G16RevC.01\HF
 =-1454.7983205\RMSD=4.205e-09\Dipole=-0.3972821,0.1146717,0.\Quadrupol
 e=1.9815417,-0.8350094,-1.1465324,-0.8415904,0.,0.\PG=Unknown\\@
 The archive entry for this job was punched.

 Normal termination of Gaussian 16 at Sat Apr  5 23:16:49 2025.
 Gaussian 16:  ES64L-G16RevC.01  3-Jul-2019

 ----------------------------------------------------------------------
 #t hf aug-cc-pvdz iop(5/13=1,5/36=2,99/5=2) pseudo=read geom=check gue
 ss=(read,tcheck) scf=(maxcycle=1)
 ----------------------------------------------------------------------
 -----
 title
 -----
 Structure from the checkpoint file:  "trichloroethylene.chk"
 Charge =  0 Multiplicity = 1

                         Standard orientation:
 ---------------------------------------------------------------------
 Center     Atomic      Atomic             Coordinates (Angstroms)
 Number     Number       Type             X           Y           Z
 ---------------------------------------------------------------------
      1          6           0       -1.034580   -0.395304    0.000000
      2          6           0        0.000000    0.438157    0.000000
      3          1           0       -2.045695   -0.022812    0.000000
      4         17           0       -0.896262   -2.113951    0.000000
      5         17           0       -0.268367    2.154033    0.000000
      6         17           0        1.650109   -0.053865    0.000000
 ---------------------------------------------------------------------

 SCF Done:  E(RHF) =  -1455.10140867     A.U. after    2 cycles

 The electronic state is 1-A'.
 Alpha  occ. eigenvalues -- -105.60583-105.60499-105.59768 -11.38856 -11.33839
 Alpha  occ. eigenvalues --  -10.65387 -10.65329 -10.64578  -7.82356  -7.82301
 Alpha  occ. eigenvalues --   -7.81919  -7.81900  -7.81850  -7.81844  -7.81548
 Alpha  occ. eigenvalues --   -7.81114  -7.81112  -1.21865  -1.12600  -1.08295
 Alpha  occ. eigenvalues --   -0.98451  -0.78196  -0.69572  -0.66172  -0.60156
 Alpha  occ. eigenvalues --   -0.57985  -0.52133  -0.51423  -0.49845  -0.49193
 Alpha  occ. eigenvalues --   -0.47296  -0.37992
 Alpha virt. eigenvalues --    0.03905   0.07102   0.07210   0.08488   0.09182
 Alpha virt. eigenvalues --    0.10889   0.12817   0.13661   0.14304   0.14643
 Alpha virt. eigenvalues --    0.15373   0.15887   0.16651   0.17980   0.18425

 Mulliken charges:
               1
     1  C    0.178975
     2  C    0.071926
     3  H    0.030002
     4  Cl  -0.102464
     5  Cl  -0.130269
     6  Cl  -0.048171
 Sum of Mulliken charges =  -0.00000

 Dipole moment (field-independent basis, Debye):
    X=             -1.0058    Y=              0.2897    Z=              0.0000  Tot=              1.0467

 Test job not archived.
 1\1\GINC-SE025\SP\RHF\Aug-CC-pVDZ\C2H1Cl3\OHZDE\05-Apr-2025\0\\#t hf a
 ug-cc-pvdz iop(5/13=1,5/36=2,99/5=2) pseudo=read geom=check guess=(rea
 d,tcheck) scf=(maxcycle=1)\\title\\0,1\C,0,-1.03458,-0.395303,0.\C,0,0
 .,0.438157,0.\H,0,-2.045695,-0.022811,0.\Cl,0,-0.896263,-2.11395,0.\Cl
 ,0,-0.268366,2.154033,0.\Cl,0,1.650109,-0.053866,0.\\Version=ES64L-G16
 RevC.01\State=1-A'\HF=-1455.1014087\RMSD=8.762e-03\Dipole=-0.3957293,0
 .1139914,0.\Quadrupole=2.0213519,-0.7416119,-1.27974,-0.8354377,0.,0.\
 PG=CS [SG(C2H1Cl3)]\\@

 Normal termination of Gaussian 16 at Sat Apr  5 23:16:52 2025.
