 Gaussian 16, Revision C.01,

 ----------------------------------------------------------------------
 #t hf aug-cc-pvdz symm=none int=(grid=ultrafine) guess=(read,tcheck) s
 table=(opt,rrhf)
 ----------------------------------------------------------------------
 -----
 title
 -----
 Symbolic Z-matrix:
 Charge =  0 Multiplicity = 1

 SCF Done:  E(RHF) =  -1416.94942587     A.U. after   11 cycles

 1\1\GINC-SE042\Stability\RHF\Aug-CC-pVDZ\C1H1Cl3\OHZDE\05-Apr-2025\0\\
 #t hf aug-cc-pvdz symm=none int=(grid=ultrafine) guess=(read,tcheck) s
 table=(opt,rrhf)\\title\\0,1\C,0,0.,0.,0.456698\Cl,0,0.,1.6973,-0.0838
 52\Cl,0,-1.469905,-0.84865,-0.083852\Cl,0,1.469905,-0.84865,-0.083852\
 H,0,0.,0.,1.536281\\Version=ES64L-G16RevC.01\HF=-1416.9494259\RMSD=6.5
 46e-09\Dipole=0.,0.,0.4806629\Quadrupole=-0.5900804,-0.5900803,1.18016
 07,0.,0.,0.\PG=Unknown\\@
 The archive entry for this job was punched.

 Normal termination of Gaussian 16 at Sat Apr  5 23:16:49 2025.
 Gaussian 16:  ES64L-G16RevC.01  3-Jul-2019

 ----------------------------------------------------------------------
 #t hf aug-cc-pvdz iop(5/13=1,5/36=2,99/5=2) pseudo=read geom=check gue
 ss=(read,tcheck) scf=(maxcycle=1)
 ----------------------------------------------------------------------
 -----
 title
 -----
 Structure from the checkpoint file:  "trichloromethane.chk"
 Charge =  0 Multiplicity = 1

                         Standard orientation:
 ---------------------------------------------------------------------
 Center     Atomic      Atomic             Coordinates (Angstroms)
 Number     Number       Type             X           Y           Z
 ---------------------------------------------------------------------
      1          6           0        0.385195    0.245351    0.000000
      2         17           0       -0.982563    1.386517    0.000000
      3         17           0        0.385195   -0.760830    1.469905
      4         17           0        0.385195   -0.760830   -1.469905
      5          1           0        1.295755    0.825335    0.000000
 ---------------------------------------------------------------------

 SCF Done:  E(RHF) =  -1417.21536243     A.U. after    2 cycles

 The electronic state is 1-A'.
 Alpha  occ. eigenvalues -- -105.59993-105.59993-105.59992 -11.44720 -10.64836
 Alpha  occ. eigenvalues --  -10.64835 -10.64835  -7.81785  -7.81785  -7.81778
 Alpha  occ. eigenvalues --   -7.81351  -7.81347  -7.81347  -7.81342  -7.81342
 Alpha  occ. eigenvalues --   -7.81342  -1.21423  -1.07294  -1.07294  -0.87141
 Alpha  occ. eigenvalues --   -0.69198  -0.63810  -0.63810  -0.51590  -0.51590
 Alpha  occ. eigenvalues --   -0.48011  -0.48011  -0.47673  -0.46346
 Alpha virt. eigenvalues --    0.03878   0.06802   0.08098   0.08098   0.10509
 Alpha virt. eigenvalues --    0.13341   0.13341   0.14495   0.14495   0.15410
 Alpha virt. eigenvalues --    0.16672   0.18143   0.18143   0.18833   0.20850

 Mulliken charges:
               1
     1  C   -0.883348
     2  Cl   0.144290
     3  Cl   0.144290
     4  Cl   0.144290
     5  H    0.450479
 Sum of Mulliken charges =  -0.00000

 Dipole moment (field-independent basis, Debye):
    X=              1.0295    Y=              0.6557    Z=              0.0000  Tot=              1.2206

 Test job not archived.
 1\1\GINC-SE042\SP\RHF\Aug-CC-pVDZ\C1H1Cl3\OHZDE\05-Apr-2025\0\\#t hf a
 ug-cc-pvdz iop(5/13=1,5/36=2,99/5=2) pseudo=read geom=check guess=(rea
 d,tcheck) scf=(maxcycle=1)\\title\\0,1\C,0,0.,0.,0.456698\Cl,0,0.,1.69
 73,-0.083852\Cl,0,-1.469905,-0.84865,-0.083852\Cl,0,1.469905,-0.84865,
 -0.083852\H,0,0.,0.,1.536281\\Version=ES64L-G16RevC.01\State=1-A'\HF=-
 1417.2153624\RMSD=3.718e-03\Dipole=0.,0.,0.4802204\Quadrupole=-0.57633
 08,-0.5763307,1.1526615,0.,0.,0.\PG=CS [SG(C1H1Cl1),X(Cl2)]\\@

 Normal termination of Gaussian 16 at Sat Apr  5 23:16:51 2025.
