 Gaussian 16, Revision C.01,

 ----------------------------------------------------------------------
 #t hf aug-cc-pvdz symm=none int=(grid=ultrafine) guess=(read,tcheck) s
 table=(opt,rrhf)
 ----------------------------------------------------------------------
 -----
 title
 -----
 Symbolic Z-matrix:
 Charge =  0 Multiplicity = 1

 SCF Done:  E(RHF) =  -1529.67842838     A.U. after   14 cycles
 Normal termination of Gaussian 16 at Sat Apr  5 23:16:31 2025.
 Gaussian 16:  ES64L-G16RevC.01  3-Jul-2019

 ----------------------------------------------------------------------
 #t hf aug-cc-pvdz iop(5/13=1,5/36=2,99/5=2) pseudo=read geom=check gue
 ss=(read,tcheck) scf=(maxcycle=1)
 ----------------------------------------------------------------------
 -----
 title
 -----
 Structure from the checkpoint file:  "trichloroacetaldehyde.chk"
 Charge =  0 Multiplicity = 1

                         Standard orientation:
 ---------------------------------------------------------------------
 Center     Atomic      Atomic             Coordinates (Angstroms)
 Number     Number       Type             X           Y           Z
 ---------------------------------------------------------------------
      1          6           0        0.038452    0.035580    0.000000
      2          6           0        0.922994   -1.233024   -0.000000
      3          8           0        0.496614   -2.344783   -0.000000
      4         17           0       -1.683707   -0.338809    0.000000
      5         17           0        0.496614    0.961332    1.470611
      6         17           0        0.496614    0.961332   -1.470611
      7          1           0        1.996540   -0.982605   -0.000000
 ---------------------------------------------------------------------

 SCF Done:  E(RHF) =  -1530.04938740     A.U. after    2 cycles

 The electronic state is 1-A'.
 Alpha  occ. eigenvalues -- -105.61503-105.61503-105.60791 -20.59678 -11.46577
 Alpha  occ. eigenvalues --  -11.39502 -10.66308 -10.66298 -10.65623  -7.83250
 Alpha  occ. eigenvalues --   -7.83245  -7.82818  -7.82817  -7.82809  -7.82807
 Alpha  occ. eigenvalues --   -7.82583  -7.82129  -7.82121  -1.53279  -1.23464
 Alpha  occ. eigenvalues --   -1.08706  -1.08704  -0.96100  -0.81215  -0.72648
 Alpha  occ. eigenvalues --   -0.70106  -0.66523  -0.63667  -0.57092  -0.53178
 Alpha  occ. eigenvalues --   -0.52454  -0.52011  -0.48927  -0.48740  -0.47416
 Alpha  occ. eigenvalues --   -0.45623
 Alpha virt. eigenvalues --    0.03972   0.06493   0.06534   0.08142   0.08835
 Alpha virt. eigenvalues --    0.09809   0.09935   0.10885   0.13271   0.13601
 Alpha virt. eigenvalues --    0.14529   0.15927   0.16671   0.17818   0.17995

 Mulliken charges:
               1
     1  C   -1.143657
     2  C    1.422563
     3  O   -0.988388
     4  Cl   0.178746
     5  Cl   0.163936
     6  Cl   0.163936
     7  H    0.202865
 Sum of Mulliken charges =  -0.00000

 Dipole moment (field-independent basis, Debye):
    X=              1.2167    Y=              1.1724    Z=              0.0000  Tot=              1.6896

 Test job not archived.
 1\1\GINC-SE177\SP\RHF\Aug-CC-pVDZ\C2H1Cl3O1\OHZDE\05-Apr-2025\0\\#t hf
  aug-cc-pvdz iop(5/13=1,5/36=2,99/5=2) pseudo=read geom=check guess=(r
 ead,tcheck) scf=(maxcycle=1)\\title\\0,1\C,0,0.038452,0.03558,0.\C,0,0
 .922994,-1.233024,0.\O,0,0.496614,-2.344783,0.\Cl,0,-1.683707,-0.33880
 9,0.\Cl,0,0.496614,0.961332,1.470611\Cl,0,0.496614,0.961332,-1.470611\
 H,0,1.99654,-0.982605,0.\\Version=ES64L-G16RevC.01\State=1-A'\HF=-1530
 .0493874\RMSD=7.070e-03\Dipole=0.4786815,0.4612656,0.\Quadrupole=3.005
 0353,-4.1679085,1.1628732,-0.2899039,0.,0.\PG=CS [SG(C2H1Cl1O1),X(Cl2)

 Normal termination of Gaussian 16 at Sat Apr  5 23:16:36 2025.
