 Gaussian 16, Revision C.01,

 ----------------------------------------------------------------------
 #t hf aug-cc-pvdz symm=none int=(grid=ultrafine) guess=(read,tcheck) s
 table=(opt,rrhf)
 ----------------------------------------------------------------------
 -----
 title
 -----
 Symbolic Z-matrix:
 Charge =  0 Multiplicity = 1

 SCF Done:  E(RHF) =  -1515.80537792     A.U. after   11 cycles

 1\1\GINC-SE040\Stability\RHF\Aug-CC-pVDZ\C1Cl3F1\OHZDE\05-Apr-2025\0\\
 #t hf aug-cc-pvdz symm=none int=(grid=ultrafine) guess=(read,tcheck) s
 table=(opt,rrhf)\\title\\0,1\C,0,0.,0.,0.251893\F,0,0.,0.,1.591574\Cl,
 0,0.,1.691025,-0.3105\Cl,0,1.46447,-0.845512,-0.3105\Cl,0,-1.46447,-0.
 845512,-0.3105\\Version=ES64L-G16RevC.01\HF=-1515.8053779\RMSD=8.710e-
 09\Dipole=0.,-0.0000011,-0.1920318\Quadrupole=0.6630389,0.6630353,-1.3
 260741,0.,0.,0.0000006\PG=Unknown\\@
 The archive entry for this job was punched.

 Normal termination of Gaussian 16 at Sat Apr  5 23:16:50 2025.
 Gaussian 16:  ES64L-G16RevC.01  3-Jul-2019

 ----------------------------------------------------------------------
 #t hf aug-cc-pvdz iop(5/13=1,5/36=2,99/5=2) pseudo=read geom=check gue
 ss=(read,tcheck) scf=(maxcycle=1)
 ----------------------------------------------------------------------
 -----
 title
 -----
 Structure from the checkpoint file:  "trichlorofluoromethane.chk"
 Charge =  0 Multiplicity = 1

                         Standard orientation:
 ---------------------------------------------------------------------
 Center     Atomic      Atomic             Coordinates (Angstroms)
 Number     Number       Type             X           Y           Z
 ---------------------------------------------------------------------
      1          6           0       -0.251893   -0.000000    0.000000
      2          9           0       -1.591574   -0.000000    0.000000
      3         17           0        0.310500    1.691025   -0.000000
      4         17           0        0.310500   -0.845512    1.464470
      5         17           0        0.310500   -0.845512   -1.464470
 ---------------------------------------------------------------------

 SCF Done:  E(RHF) =  -1516.15617660     A.U. after    2 cycles

 The electronic state is 1-A'.
 Alpha  occ. eigenvalues -- -105.61301-105.61301-105.61300 -26.53445 -11.54029
 Alpha  occ. eigenvalues --  -10.66178 -10.66178 -10.66167  -7.83126  -7.83126
 Alpha  occ. eigenvalues --   -7.83112  -7.82667  -7.82667  -7.82667  -7.82665
 Alpha  occ. eigenvalues --   -7.82663  -7.82663  -1.67971  -1.20991  -1.09344
 Alpha  occ. eigenvalues --   -1.09344  -0.88603  -0.75387  -0.75387  -0.74286
 Alpha  occ. eigenvalues --   -0.60933  -0.60933  -0.53317  -0.52169  -0.52169
 Alpha  occ. eigenvalues --   -0.48956  -0.48956  -0.47559
 Alpha virt. eigenvalues --    0.05787   0.08256   0.08256   0.08424   0.11259
 Alpha virt. eigenvalues --    0.12284   0.12284   0.14323   0.14517   0.14517
 Alpha virt. eigenvalues --    0.18375   0.18538   0.18538   0.20749   0.20749

 Mulliken charges:
               1
     1  C    0.015543
     2  F   -0.532018
     3  Cl   0.172158
     4  Cl   0.172158
     5  Cl   0.172158
 Sum of Mulliken charges =  -0.00000

 Dipole moment (field-independent basis, Debye):
    X=              0.3130    Y=             -0.0000    Z=             -0.0000  Tot=              0.3130

 Test job not archived.
 1\1\GINC-SE040\SP\RHF\Aug-CC-pVDZ\C1Cl3F1\OHZDE\05-Apr-2025\0\\#t hf a
 ug-cc-pvdz iop(5/13=1,5/36=2,99/5=2) pseudo=read geom=check guess=(rea
 d,tcheck) scf=(maxcycle=1)\\title\\0,1\C,0,0.,0.,0.251893\F,0,0.,0.,1.
 591574\Cl,0,0.,1.691025,-0.3105\Cl,0,1.46447,-0.845512,-0.3105\Cl,0,-1
 .46447,-0.845512,-0.3105\\Version=ES64L-G16RevC.01\State=1-A'\HF=-1516
 .1561766\RMSD=3.395e-03\Dipole=0.,-0.0000011,-0.1231284\Quadrupole=0.5
 858169,0.585813,-1.17163,0.,0.,0.0000008\PG=CS [SG(C1Cl1F1),X(Cl2)]\\@

 Normal termination of Gaussian 16 at Sat Apr  5 23:16:54 2025.
