 Gaussian 16, Revision C.01,

 ----------------------------------------------------------------------
 #t hf aug-cc-pvdz symm=none int=(grid=ultrafine) guess=(read,tcheck) s
 table=(opt,rrhf)
 ----------------------------------------------------------------------
 -----
 title
 -----
 Symbolic Z-matrix:
 Charge =  0 Multiplicity = 1

 SCF Done:  E(RHF) =  -309.886114306     A.U. after   12 cycles
 Normal termination of Gaussian 16 at Sat Apr  5 23:18:07 2025.
 Gaussian 16:  ES64L-G16RevC.01  3-Jul-2019

 ----------------------------------------------------------------------
 #t hf aug-cc-pvdz iop(5/13=1,5/36=2,99/5=2) pseudo=read geom=check gue
 ss=(read,tcheck) scf=(maxcycle=1)
 ----------------------------------------------------------------------
 -----
 title
 -----
 Structure from the checkpoint file:  "tricyclo3-2-1-01-5octane.chk"
 Charge =  0 Multiplicity = 1

                         Standard orientation:
 ---------------------------------------------------------------------
 Center     Atomic      Atomic             Coordinates (Angstroms)
 Number     Number       Type             X           Y           Z
 ---------------------------------------------------------------------
      1          6           0       -0.091009    0.344069    0.762763
      2          6           0       -0.091009    0.344069   -0.762763
      3          6           0       -1.274798    0.863593    0.000000
      4          6           0        1.043254    1.383282    0.782434
      5          6           0       -0.091009   -1.088216    1.246819
      6          6           0        1.043254    1.383282   -0.782434
      7          6           0       -0.091009   -1.088216   -1.246819
      8          6           0       -0.542343   -1.905205   -0.000000
      9          1           0       -2.164538    0.249662   -0.000000
     10          1           0       -1.477867    1.927933    0.000000
     11          1           0        1.969402    0.987255    1.196949
     12          1           0        0.820737    2.329837    1.278331
     13          1           0       -0.731511   -1.283950    2.109647
     14          1           0        0.926511   -1.368063    1.532126
     15          1           0        0.820737    2.329837   -1.278331
     16          1           0        1.969402    0.987255   -1.196949
     17          1           0        0.926511   -1.368063   -1.532126
     18          1           0       -0.731511   -1.283950   -2.109647
     19          1           0       -1.627719   -2.012526   -0.000000
     20          1           0       -0.132150   -2.915184   -0.000000
 ---------------------------------------------------------------------

 SCF Done:  E(RHF) =  -310.222476587     A.U. after    2 cycles

 The electronic state is 1-A'.
 Alpha  occ. eigenvalues --  -11.22954 -11.22947 -11.22926 -11.22722 -11.22716
 Alpha  occ. eigenvalues --  -11.22614 -11.22134 -11.22092  -1.20827  -1.05242
 Alpha  occ. eigenvalues --   -0.97637  -0.96325  -0.85152  -0.84040  -0.77068
 Alpha  occ. eigenvalues --   -0.67910  -0.67580  -0.63914  -0.61316  -0.57579
 Alpha  occ. eigenvalues --   -0.57501  -0.55088  -0.54091  -0.51451  -0.48486
 Alpha  occ. eigenvalues --   -0.47674  -0.46178  -0.45156  -0.40161  -0.34114
 Alpha virt. eigenvalues --    0.03497   0.03794   0.03846   0.04106   0.05601
 Alpha virt. eigenvalues --    0.05649   0.05758   0.06417   0.06589   0.09239
 Alpha virt. eigenvalues --    0.09290   0.09419   0.11505   0.12346   0.13299

 Mulliken charges:
               1
     1  C   -0.288120
     2  C   -0.288120
     3  C    0.477087
     4  C    0.118748
     5  C   -0.188316
     6  C    0.118748
     7  C   -0.188316
     8  C   -0.148431
     9  H   -0.159666
    10  H   -0.253060
    11  H    0.047459
    12  H    0.000548
    13  H    0.132066
    14  H    0.146626
    15  H    0.000548
    16  H    0.047459
    17  H    0.146626
    18  H    0.132066
    19  H    0.107870
    20  H    0.038177
 Sum of Mulliken charges =  -0.00000

 Dipole moment (field-independent basis, Debye):
    X=              0.2405    Y=             -0.3707    Z=             -0.0000  Tot=              0.4418

 Test job not archived.
 1\1\GINC-SE108\SP\RHF\Aug-CC-pVDZ\C8H12\OHZDE\05-Apr-2025\0\\#t hf aug
 -cc-pvdz iop(5/13=1,5/36=2,99/5=2) pseudo=read geom=check guess=(read,
 tcheck) scf=(maxcycle=1)\\title\\0,1\C,0,-0.091009,0.344069,0.762763\C
 ,0,-0.091009,0.344069,-0.762763\C,0,-1.274798,0.863593,0.\C,0,1.043254
 ,1.383282,0.782434\C,0,-0.091009,-1.088216,1.246819\C,0,1.043254,1.383
 282,-0.782434\C,0,-0.091009,-1.088216,-1.246819\C,0,-0.542343,-1.90520
 5,0.\H,0,-2.164538,0.249662,0.\H,0,-1.477867,1.927933,0.\H,0,1.969402,
 0.987255,1.196949\H,0,0.820737,2.329837,1.278331\H,0,-0.731511,-1.2839

 Normal termination of Gaussian 16 at Sat Apr  5 23:18:14 2025.
