 Gaussian 16, Revision C.01,

 ----------------------------------------------------------------------
 #t hf aug-cc-pvdz symm=none int=(grid=ultrafine) guess=(read,tcheck) s
 table=(opt,rrhf)
 ----------------------------------------------------------------------
 -----
 title
 -----
 Symbolic Z-matrix:
 Charge =  0 Multiplicity = 1

 SCF Done:  E(RHF) =  -270.862970729     A.U. after   12 cycles
 Normal termination of Gaussian 16 at Sat Apr  5 23:17:25 2025.
 Gaussian 16:  ES64L-G16RevC.01  3-Jul-2019

 ----------------------------------------------------------------------
 #t hf aug-cc-pvdz iop(5/13=1,5/36=2,99/5=2) pseudo=read geom=check gue
 ss=(read,tcheck) scf=(maxcycle=1)
 ----------------------------------------------------------------------
 -----
 title
 -----
 Structure from the checkpoint file:  "tricyclo4-1-0-0heptane.chk"
 Charge =  0 Multiplicity = 1

                         Standard orientation:
 ---------------------------------------------------------------------
 Center     Atomic      Atomic             Coordinates (Angstroms)
 Number     Number       Type             X           Y           Z
 ---------------------------------------------------------------------
      1          6           0       -0.000000    1.212629    0.508884
      2          6           0        1.216393    1.420165   -0.356202
      3          6           0       -0.000000    0.000000    1.437632
      4          6           0       -0.001233    0.749275   -0.932390
      5          6           0        0.001233   -0.749275   -0.932390
      6          6           0       -1.216393   -1.420165   -0.356202
      7          1           0       -0.565029    2.087185    0.799175
      8          1           0        2.090716    0.811351   -0.162580
      9          1           0        1.434669    2.428532   -0.679316
     10          1           0       -0.877843    0.008372    2.088558
     11          1           0        0.877843   -0.008372    2.088558
     12          1           0       -0.578811    1.277641   -1.680483
     13          1           0        0.578811   -1.277641   -1.680483
     14          1           0       -1.434669   -2.428532   -0.679316
     15          1           0       -2.090716   -0.811351   -0.162580
     16          6           0        0.000000   -1.212629    0.508884
     17          1           0        0.565029   -2.087185    0.799175
 ---------------------------------------------------------------------

 SCF Done:  E(RHF) =  -271.157130995     A.U. after    2 cycles

 The electronic state is 1-A.
 Alpha  occ. eigenvalues --  -11.23051 -11.23044 -11.22984 -11.22979 -11.22800
 Alpha  occ. eigenvalues --  -11.22576 -11.22553  -1.19568  -1.09894  -0.97491
 Alpha  occ. eigenvalues --   -0.85649  -0.82007  -0.75950  -0.75294  -0.69846
 Alpha  occ. eigenvalues --   -0.66068  -0.60025  -0.57512  -0.56562  -0.53548
 Alpha  occ. eigenvalues --   -0.50433  -0.48036  -0.45680  -0.42875  -0.38456
 Alpha  occ. eigenvalues --   -0.38372
 Alpha virt. eigenvalues --    0.03438   0.03784   0.03787   0.03977   0.05739
 Alpha virt. eigenvalues --    0.06028   0.06236   0.06592   0.06716   0.09183
 Alpha virt. eigenvalues --    0.11841   0.12626   0.13483   0.14001   0.14566

 Mulliken charges:
               1
     1  C    0.379619
     2  C    0.166088
     3  C   -0.527324
     4  C    0.277155
     5  C    0.277155
     6  C    0.166088
     7  H   -0.165591
     8  H   -0.096998
     9  H   -0.168794
    10  H    0.088700
    11  H    0.088700
    12  H   -0.216517
    13  H   -0.216517
    14  H   -0.168794
    15  H   -0.096998
    16  C    0.379619
    17  H   -0.165591
 Sum of Mulliken charges =  -0.00000

 Dipole moment (field-independent basis, Debye):
    X=             -0.0000    Y=             -0.0000    Z=              0.0499  Tot=              0.0499

 Test job not archived.
 1\1\GINC-SE115\SP\RHF\Aug-CC-pVDZ\C7H10\OHZDE\05-Apr-2025\0\\#t hf aug
 -cc-pvdz iop(5/13=1,5/36=2,99/5=2) pseudo=read geom=check guess=(read,
 tcheck) scf=(maxcycle=1)\\title\\0,1\C,0,0.,1.212629,0.508884\C,0,1.21
 6393,1.420165,-0.356202\C,0,0.,0.,1.437632\C,0,-0.001233,0.749275,-0.9
 3239\C,0,0.001233,-0.749275,-0.93239\C,0,-1.216393,-1.420165,-0.356202
 \H,0,-0.565029,2.087185,0.799175\H,0,2.090716,0.811351,-0.16258\H,0,1.
 434669,2.428532,-0.679316\H,0,-0.877843,0.008372,2.088558\H,0,0.877843
 ,-0.008372,2.088558\H,0,-0.578811,1.277641,-1.680483\H,0,0.578811,-1.2

 Normal termination of Gaussian 16 at Sat Apr  5 23:17:30 2025.
