 Gaussian 16, Revision C.01,

 ----------------------------------------------------------------------
 #t hf aug-cc-pvdz symm=none int=(grid=ultrafine) guess=(read,tcheck) s
 table=(opt,rrhf)
 ----------------------------------------------------------------------
 -----
 title
 -----
 Symbolic Z-matrix:
 Charge =  0 Multiplicity = 1

 SCF Done:  E(RHF) =  -290.406148355     A.U. after   12 cycles

 1\1\GINC-SE129\Stability\RHF\Aug-CC-pVDZ\C6H15N1\OHZDE\05-Apr-2025\0\\
 #t hf aug-cc-pvdz symm=none int=(grid=ultrafine) guess=(read,tcheck) s
 table=(opt,rrhf)\\title\\0,1\C,0,0.303046,2.442712,-0.429029\C,0,-2.26
 6973,-0.95891,-0.429029\C,0,1.963927,-1.483802,-0.429029\C,0,-0.336477
 ,1.361557,0.436145\C,0,-1.010905,-0.972176,0.436145\C,0,1.347381,-0.38
 9381,0.436145\N,0,0.,0.,0.013396\H,0,1.392234,2.405845,-0.399061\H,0,-
 0.007763,2.331357,-1.46788\H,0,0.,3.431615,-0.080419\H,0,-2.77964,0.00
 2788,-0.399061\H,0,-2.015133,-1.172401,-1.46788\H,0,-2.971866,-1.71580

 Normal termination of Gaussian 16 at Sat Apr  5 23:18:07 2025.
 Gaussian 16:  ES64L-G16RevC.01  3-Jul-2019

 ----------------------------------------------------------------------
 #t hf aug-cc-pvdz iop(5/13=1,5/36=2,99/5=2) pseudo=read geom=check gue
 ss=(read,tcheck) scf=(maxcycle=1)
 ----------------------------------------------------------------------
 -----
 title
 -----
 Structure from the checkpoint file:  "triethylamine.chk"
 Charge =  0 Multiplicity = 1

                         Standard orientation:
 ---------------------------------------------------------------------
 Center     Atomic      Atomic             Coordinates (Angstroms)
 Number     Number       Type             X           Y           Z
 ---------------------------------------------------------------------
      1          6           0        2.270519   -0.950484   -0.429029
      2          6           0       -0.312116    2.441569   -0.429029
      3          6           0       -1.958403   -1.491085   -0.429029
      4          6           0        1.401854   -0.043122    0.436145
      5          6           0       -0.663582    1.235603    0.436145
      6          6           0       -0.738272   -1.192480    0.436145
      7          7           0       -0.000000   -0.000000    0.013396
      8          1           0        1.941325   -1.989388   -0.399061
      9          1           0        2.247097   -0.621161   -1.467880
     10          1           0        3.304508   -0.925315   -0.080419
     11          1           0        0.752198    2.675930   -0.399061
     12          1           0       -0.585607    2.256624   -1.467880
     13          1           0       -0.850907    3.324445   -0.080419
     14          1           0       -2.693523   -0.686543   -0.399061
     15          1           0       -1.661489   -1.635463   -1.467880
     16          1           0       -2.453600   -2.399131   -0.080419
     17          1           0        1.801335    0.968782    0.378135
     18          1           0        1.482601   -0.343497    1.495273
     19          1           0       -1.739658    1.075611    0.378135
     20          1           0       -0.443823    1.455718    1.495273
     21          1           0       -0.061677   -2.044393    0.378135
     22          1           0       -1.038777   -1.112222    1.495273
 ---------------------------------------------------------------------

 SCF Done:  E(RHF) =  -290.731704067     A.U. after    2 cycles

 The electronic state is 1-A.
 Alpha  occ. eigenvalues --  -15.47632 -11.24926 -11.24926 -11.24926 -11.21791
 Alpha  occ. eigenvalues --  -11.21791 -11.21790  -1.21880  -1.02460  -1.02460
 Alpha  occ. eigenvalues --   -0.96466  -0.85349  -0.85349  -0.77781  -0.66067
 Alpha  occ. eigenvalues --   -0.66067  -0.63589  -0.60219  -0.60219  -0.55589
 Alpha  occ. eigenvalues --   -0.54050  -0.53025  -0.53025  -0.50294  -0.50277
 Alpha  occ. eigenvalues --   -0.50276  -0.47417  -0.47417  -0.37973
 Alpha virt. eigenvalues --    0.03941   0.04013   0.04013   0.04264   0.05331
 Alpha virt. eigenvalues --    0.05331   0.05609   0.05964   0.05964   0.08714
 Alpha virt. eigenvalues --    0.09303   0.09760   0.09760   0.10994   0.10994

 Mulliken charges:
               1
     1  C   -0.383071
     2  C   -0.383073
     3  C   -0.383073
     4  C   -0.359105
     5  C   -0.359104
     6  C   -0.359107
     7  N    0.725317
     8  H    0.095322
     9  H    0.180179
    10  H    0.121253
    11  H    0.095323
    12  H    0.180178
    13  H    0.121254
    14  H    0.095321
    15  H    0.180180
    16  H    0.121254
    17  H   -0.022381
    18  H    0.126031
    19  H   -0.022379
    20  H    0.126030
    21  H   -0.022379
    22  H    0.126030
 Sum of Mulliken charges =  -0.00000

 Dipole moment (field-independent basis, Debye):
    X=              0.0000    Y=              0.0000    Z=              0.7649  Tot=              0.7649

 Test job not archived.
 1\1\GINC-SE129\SP\RHF\Aug-CC-pVDZ\C6H15N1\OHZDE\05-Apr-2025\0\\#t hf a
 ug-cc-pvdz iop(5/13=1,5/36=2,99/5=2) pseudo=read geom=check guess=(rea
 d,tcheck) scf=(maxcycle=1)\\title\\0,1\C,0,0.303046,2.442712,-0.429029
 \C,0,-2.266973,-0.95891,-0.429029\C,0,1.963927,-1.483802,-0.429029\C,0
 ,-0.336477,1.361557,0.436145\C,0,-1.010905,-0.972176,0.436145\C,0,1.34
 7381,-0.389381,0.436145\N,0,0.,0.,0.013396\H,0,1.392234,2.405845,-0.39
 9061\H,0,-0.007763,2.331357,-1.46788\H,0,0.,3.431615,-0.080419\H,0,-2.
 77964,0.002788,-0.399061\H,0,-2.015133,-1.172401,-1.46788\H,0,-2.97186

 Normal termination of Gaussian 16 at Sat Apr  5 23:18:17 2025.
