 Gaussian 16, Revision C.01,

 ----------------------------------------------------------------------
 #t hf aug-cc-pvdz symm=none int=(grid=ultrafine) guess=(read,tcheck) s
 table=(opt,rrhf)
 ----------------------------------------------------------------------
 -----
 title
 -----
 Symbolic Z-matrix:
 Charge =  0 Multiplicity = 1

 SCF Done:  E(RHF) =  -510.414028677     A.U. after   14 cycles
 Normal termination of Gaussian 16 at Sat Apr  5 23:16:50 2025.
 Gaussian 16:  ES64L-G16RevC.01  3-Jul-2019

 ----------------------------------------------------------------------
 #t hf aug-cc-pvdz iop(5/13=1,5/36=2,99/5=2) pseudo=read geom=check gue
 ss=(read,tcheck) scf=(maxcycle=1)
 ----------------------------------------------------------------------
 -----
 title
 -----
 Structure from the checkpoint file:  "trifluoromethylhypofluorite.chk"
 Charge =  0 Multiplicity = 1

                         Standard orientation:
 ---------------------------------------------------------------------
 Center     Atomic      Atomic             Coordinates (Angstroms)
 Number     Number       Type             X           Y           Z
 ---------------------------------------------------------------------
      1          6           0        0.328492    0.194175    0.000000
      2          8           0       -1.058695    0.337244    0.000000
      3          9           0        0.765646    1.447109    0.000000
      4          9           0        0.765646   -0.443615    1.077970
      5          9           0        0.765646   -0.443615   -1.077970
      6          9           0       -1.574869   -0.989103    0.000000
 ---------------------------------------------------------------------

 SCF Done:  E(RHF) =  -510.878895912     A.U. after    2 cycles

 The electronic state is 1-A'.
 Alpha  occ. eigenvalues --  -26.56588 -26.55375 -26.54737 -26.54733 -20.73722
 Alpha  occ. eigenvalues --  -11.61434  -1.78874  -1.71254  -1.66851  -1.66167
 Alpha  occ. eigenvalues --   -1.42747  -0.98724  -0.87362  -0.87294  -0.87158
 Alpha  occ. eigenvalues --   -0.76084  -0.74747  -0.71571  -0.71273  -0.69031
 Alpha  occ. eigenvalues --   -0.67559  -0.67188  -0.66083  -0.62125  -0.57364
 Alpha virt. eigenvalues --    0.07958   0.08721   0.09024   0.09501   0.12895
 Alpha virt. eigenvalues --    0.19488   0.21383   0.21878   0.22302   0.23119
 Alpha virt. eigenvalues --    0.28879   0.30058   0.30144   0.31581   0.32911

 Mulliken charges:
               1
     1  C    2.800909
     2  O   -0.498655
     3  F   -0.649528
     4  F   -0.632605
     5  F   -0.632605
     6  F   -0.387517
 Sum of Mulliken charges =   0.00000

 Dipole moment (field-independent basis, Debye):
    X=              0.3311    Y=              0.2091    Z=             -0.0000  Tot=              0.3916

 Test job not archived.
 1\1\GINC-SE100\SP\RHF\Aug-CC-pVDZ\C1F4O1\OHZDE\05-Apr-2025\0\\#t hf au
 g-cc-pvdz iop(5/13=1,5/36=2,99/5=2) pseudo=read geom=check guess=(read
 ,tcheck) scf=(maxcycle=1)\\title\\0,1\C,0,0.328492,0.194175,0.\O,0,-1.
 058695,0.337244,0.\F,0,0.765646,1.447109,0.\F,0,0.765646,-0.443615,1.0
 7797\F,0,0.765646,-0.443615,-1.07797\F,0,-1.574869,-0.989103,0.\\Versi
 on=ES64L-G16RevC.01\State=1-A'\HF=-510.8788959\RMSD=4.368e-03\Dipole=0
 .1302716,0.0822491,0.\Quadrupole=-0.1616385,0.1525239,0.0091146,0.0030
 666,0.,0.\PG=CS [SG(C1F2O1),X(F2)]\\@

 Normal termination of Gaussian 16 at Sat Apr  5 23:16:54 2025.
