 Gaussian 16, Revision C.01,

 ----------------------------------------------------------------------
 #t hf aug-cc-pvdz symm=none int=(grid=ultrafine) guess=(read,tcheck) s
 table=(opt,rrhf)
 ----------------------------------------------------------------------
 -----
 title
 -----
 Symbolic Z-matrix:
 Charge =  0 Multiplicity = 1

 SCF Done:  E(RHF) =  -566.388597755     A.U. after   14 cycles
 Normal termination of Gaussian 16 at Sat Apr  5 23:17:44 2025.
 Gaussian 16:  ES64L-G16RevC.01  3-Jul-2019

 ----------------------------------------------------------------------
 #t hf aug-cc-pvdz iop(5/13=1,5/36=2,99/5=2) pseudo=read geom=check gue
 ss=(read,tcheck) scf=(maxcycle=1)
 ----------------------------------------------------------------------
 -----
 title
 -----
 Structure from the checkpoint file:  "trifluoromethylbenzene.chk"
 Charge =  0 Multiplicity = 1

                         Standard orientation:
 ---------------------------------------------------------------------
 Center     Atomic      Atomic             Coordinates (Angstroms)
 Number     Number       Type             X           Y           Z
 ---------------------------------------------------------------------
      1          6           0       -2.830605   -0.004894    0.011148
      2          6           0       -2.141181    1.201669    0.001644
      3          6           0       -2.130097   -1.206446    0.001574
      4          6           0       -0.751864    1.211198   -0.016805
      5          6           0       -0.742127   -1.203364   -0.017162
      6          6           0       -0.054399    0.007588   -0.027137
      7          6           0        1.449778    0.003678   -0.003578
      8          9           0        1.974663    1.157149   -0.464769
      9          9           0        1.932309   -0.167372    1.251571
     10          9           0        1.967606   -0.995256   -0.750684
     11          1           0       -3.912035   -0.009776    0.023540
     12          1           0       -2.683315    2.137140    0.005948
     13          1           0       -2.664442   -2.146382    0.005924
     14          1           0       -0.213065    2.147199   -0.028956
     15          1           0       -0.195372   -2.135445   -0.029626
 ---------------------------------------------------------------------

 SCF Done:  E(RHF) =  -566.932510955     A.U. after    2 cycles

 The electronic state is 1-A.
 Alpha  occ. eigenvalues --  -26.50279 -26.50103 -26.49664 -11.51972 -11.27517
 Alpha  occ. eigenvalues --  -11.26830 -11.26816 -11.26516 -11.26175 -11.26152
 Alpha  occ. eigenvalues --   -1.70761  -1.60848  -1.60243  -1.18563  -1.07194
 Alpha  occ. eigenvalues --   -1.04289  -0.95648  -0.86634  -0.86612  -0.80139
 Alpha  occ. eigenvalues --   -0.79776  -0.79390  -0.71733  -0.68762  -0.68150
 Alpha  occ. eigenvalues --   -0.65841  -0.65641  -0.63522  -0.62855  -0.61645
 Alpha  occ. eigenvalues --   -0.61241  -0.59223  -0.53565  -0.53102  -0.52955
 Alpha  occ. eigenvalues --   -0.37398  -0.36809
 Alpha virt. eigenvalues --    0.02944   0.03470   0.04224   0.05436   0.06210
 Alpha virt. eigenvalues --    0.07927   0.08936   0.09093   0.09397   0.11227
 Alpha virt. eigenvalues --    0.12496   0.12600   0.13308   0.13749   0.13802

 Mulliken charges:
               1
     1  C   -0.195388
     2  C    0.472589
     3  C    0.460487
     4  C   -0.225071
     5  C   -0.411022
     6  C    0.966259
     7  C    2.480995
     8  F   -0.838253
     9  F   -0.751555
    10  F   -0.809912
    11  H   -0.215678
    12  H   -0.214315
    13  H   -0.215101
    14  H   -0.241775
    15  H   -0.262260
 Sum of Mulliken charges =  -0.00000

 Dipole moment (field-independent basis, Debye):
    X=             -3.0301    Y=              0.0214    Z=             -0.0580  Tot=              3.0308

 Test job not archived.
 1\1\GINC-SE052\SP\RHF\Aug-CC-pVDZ\C7H5F3\OHZDE\05-Apr-2025\0\\#t hf au
 g-cc-pvdz iop(5/13=1,5/36=2,99/5=2) pseudo=read geom=check guess=(read
 ,tcheck) scf=(maxcycle=1)\\title\\0,1\C,0,-2.830605,-0.004894,0.011148
 \C,0,-2.141181,1.201669,0.001644\C,0,-2.130097,-1.206446,0.001574\C,0,
 -0.751864,1.211198,-0.016805\C,0,-0.742127,-1.203364,-0.017162\C,0,-0.
 054399,0.007588,-0.027137\C,0,1.449778,0.003678,-0.003578\F,0,1.974663
 ,1.157149,-0.464769\F,0,1.932309,-0.167372,1.251571\F,0,1.967606,-0.99
 5256,-0.750684\H,0,-3.912035,-0.009776,0.02354\H,0,-2.683315,2.13714,0

 Normal termination of Gaussian 16 at Sat Apr  5 23:18:08 2025.
