 Gaussian 16, Revision C.01,

 ----------------------------------------------------------------------
 #t hf aug-cc-pvdz symm=none int=(grid=ultrafine) guess=(read,tcheck) s
 table=(opt,rrhf)
 ----------------------------------------------------------------------
 -----
 title
 -----
 Symbolic Z-matrix:
 Charge =  0 Multiplicity = 1

 SCF Done:  E(RHF) =  -449.542685537     A.U. after   13 cycles
 Normal termination of Gaussian 16 at Sat Apr  5 23:16:53 2025.
 Gaussian 16:  ES64L-G16RevC.01  3-Jul-2019

 ----------------------------------------------------------------------
 #t hf aug-cc-pvdz iop(5/13=1,5/36=2,99/5=2) pseudo=read geom=check gue
 ss=(read,tcheck) scf=(maxcycle=1)
 ----------------------------------------------------------------------
 -----
 title
 -----
 Structure from the checkpoint file:  "trifluoroacetaldehyde.chk"
 Charge =  0 Multiplicity = 1

                         Standard orientation:
 ---------------------------------------------------------------------
 Center     Atomic      Atomic             Coordinates (Angstroms)
 Number     Number       Type             X           Y           Z
 ---------------------------------------------------------------------
      1          6           0        0.015025    0.360286    0.000000
      2          6           0        0.501815   -1.106329    0.000000
      3          8           0       -0.245494   -2.035813    0.000000
      4          9           0       -1.307957    0.464386    0.000000
      5          9           0        0.501815    0.987853    1.088479
      6          9           0        0.501815    0.987853   -1.088479
      7          1           0        1.601854   -1.198064    0.000000
 ---------------------------------------------------------------------

 SCF Done:  E(RHF) =  -449.957599455     A.U. after    2 cycles

 The electronic state is 1-A'.
 Alpha  occ. eigenvalues --  -26.53179 -26.53176 -26.52931 -20.60906 -11.54594
 Alpha  occ. eigenvalues --  -11.39788  -1.73993  -1.64053  -1.63789  -1.53951
 Alpha  occ. eigenvalues --   -1.04100  -0.91064  -0.83931  -0.83471  -0.79979
 Alpha  occ. eigenvalues --   -0.72066  -0.70945  -0.69702  -0.66143  -0.65873
 Alpha  occ. eigenvalues --   -0.64324  -0.64149  -0.57819  -0.47607
 Alpha virt. eigenvalues --    0.03441   0.06666   0.07599   0.08797   0.10861
 Alpha virt. eigenvalues --    0.11667   0.11716   0.11738   0.15283   0.20461
 Alpha virt. eigenvalues --    0.21090   0.22785   0.24740   0.26940   0.27991

 Mulliken charges:
               1
     1  C    2.384085
     2  C    0.494734
     3  O   -0.955090
     4  F   -0.720170
     5  F   -0.688633
     6  F   -0.688633
     7  H    0.173706
 Sum of Mulliken charges =   0.00000

 Dipole moment (field-independent basis, Debye):
    X=              1.8882    Y=              0.1605    Z=             -0.0000  Tot=              1.8950

 Test job not archived.
 1\1\GINC-SE177\SP\RHF\Aug-CC-pVDZ\C2H1F3O1\OHZDE\05-Apr-2025\0\\#t hf
 aug-cc-pvdz iop(5/13=1,5/36=2,99/5=2) pseudo=read geom=check guess=(re
 ad,tcheck) scf=(maxcycle=1)\\title\\0,1\C,0,0.015025,0.360286,0.\C,0,0
 .501815,-1.106329,0.\O,0,-0.245494,-2.035813,0.\F,0,-1.307957,0.464386
 ,0.\F,0,0.501815,0.987853,1.088479\F,0,0.501815,0.987853,-1.088479\H,0
 ,1.601854,-1.198064,0.\\Version=ES64L-G16RevC.01\State=1-A'\HF=-449.95
 75995\RMSD=6.818e-03\Dipole=0.7428573,0.0631579,0.\Quadrupole=1.735913
 2,-2.4808426,0.7449294,-2.24292,0.,0.\PG=CS [SG(C2H1F1O1),X(F2)]\\@

 Normal termination of Gaussian 16 at Sat Apr  5 23:16:57 2025.
