 Gaussian 16, Revision C.01,

 ----------------------------------------------------------------------
 #t hf aug-cc-pvdz symm=none int=(grid=ultrafine) guess=(read,tcheck) s
 table=(opt,rrhf)
 ----------------------------------------------------------------------
 -----
 title
 -----
 Symbolic Z-matrix:
 Charge =  0 Multiplicity = 1

 SCF Done:  E(RHF) =  -428.530096294     A.U. after   12 cycles
 Normal termination of Gaussian 16 at Sat Apr  5 23:16:49 2025.
 Gaussian 16:  ES64L-G16RevC.01  3-Jul-2019

 ----------------------------------------------------------------------
 #t hf aug-cc-pvdz iop(5/13=1,5/36=2,99/5=2) pseudo=read geom=check gue
 ss=(read,tcheck) scf=(maxcycle=1)
 ----------------------------------------------------------------------
 -----
 title
 -----
 Structure from the checkpoint file:  "trifluoroacetonitrile.chk"
 Charge =  0 Multiplicity = 1

                         Standard orientation:
 ---------------------------------------------------------------------
 Center     Atomic      Atomic             Coordinates (Angstroms)
 Number     Number       Type             X           Y           Z
 ---------------------------------------------------------------------
      1          6           0        0.000000   -0.320697    0.000000
      2          6           0        0.000000    1.160968    0.000000
      3          7           0        0.000000    2.307595    0.000000
      4          9           0        1.253146   -0.784992    0.000000
      5          9           0       -0.626573   -0.784992    1.085256
      6          9           0       -0.626573   -0.784992   -1.085256
 ---------------------------------------------------------------------

 SCF Done:  E(RHF) =  -428.921260960     A.U. after    2 cycles

 The electronic state is 1-A'.
 Alpha  occ. eigenvalues --  -26.55360 -26.55360 -26.55356 -15.58133 -11.59969
 Alpha  occ. eigenvalues --  -11.33528  -1.76712  -1.66361  -1.66361  -1.29388
 Alpha  occ. eigenvalues --   -1.06243  -0.91375  -0.86139  -0.86139  -0.73205
 Alpha  occ. eigenvalues --   -0.73205  -0.69204  -0.68326  -0.68326  -0.66424
 Alpha  occ. eigenvalues --   -0.64389  -0.56638  -0.56638
 Alpha virt. eigenvalues --    0.06164   0.07216   0.08093   0.08093   0.11967
 Alpha virt. eigenvalues --    0.11967   0.12842   0.12842   0.13197   0.19377
 Alpha virt. eigenvalues --    0.22273   0.22273   0.23326   0.24158   0.24158

 Mulliken charges:
               1
     1  C    2.887059
     2  C   -1.576219
     3  N    0.679759
     4  F   -0.663533
     5  F   -0.663533
     6  F   -0.663533
 Sum of Mulliken charges =  -0.00000

 Dipole moment (field-independent basis, Debye):
    X=             -0.0000    Y=             -2.0211    Z=             -0.0000  Tot=              2.0211

 Test job not archived.
 1\1\GINC-SE185\SP\RHF\Aug-CC-pVDZ\C2F3N1\OHZDE\05-Apr-2025\0\\#t hf au
 g-cc-pvdz iop(5/13=1,5/36=2,99/5=2) pseudo=read geom=check guess=(read
 ,tcheck) scf=(maxcycle=1)\\title\\0,1\C,0,0.,0.,-0.320697\C,0,0.,0.,1.
 160968\N,0,0.,0.,2.307595\F,0,0.,1.253146,-0.784992\F,0,1.085256,-0.62
 6573,-0.784992\F,0,-1.085256,-0.626573,-0.784992\\Version=ES64L-G16Rev
 C.01\State=1-A'\HF=-428.921261\RMSD=1.369e-02\Dipole=0.,-0.0000002,-0.
 7951579\Quadrupole=1.9583704,1.9583694,-3.9167398,0.,0.,0.0000004\PG=C
 S [SG(C2F1N1),X(F2)]\\@

 Normal termination of Gaussian 16 at Sat Apr  5 23:16:52 2025.
