 Gaussian 16, Revision C.01,

 ----------------------------------------------------------------------
 #t hf aug-cc-pvdz symm=none int=(grid=ultrafine) guess=(read,tcheck) s
 table=(opt,rrhf)
 ----------------------------------------------------------------------
 -----
 title
 -----
 Symbolic Z-matrix:
 Charge =  0 Multiplicity = 1

 SCF Done:  E(RHF) =  -411.704647489     A.U. after   11 cycles
 Normal termination of Gaussian 16 at Sat Apr  5 23:16:51 2025.
 Gaussian 16:  ES64L-G16RevC.01  3-Jul-2019

 ----------------------------------------------------------------------
 #t hf aug-cc-pvdz iop(5/13=1,5/36=2,99/5=2) pseudo=read geom=check gue
 ss=(read,tcheck) scf=(maxcycle=1)
 ----------------------------------------------------------------------
 -----
 title
 -----
 Structure from the checkpoint file:  "trifluoromethanol.chk"
 Charge =  0 Multiplicity = 1

                         Standard orientation:
 ---------------------------------------------------------------------
 Center     Atomic      Atomic             Coordinates (Angstroms)
 Number     Number       Type             X           Y           Z
 ---------------------------------------------------------------------
      1          6           0        0.001401    0.023882    0.000000
      2          8           0       -1.039480    0.879467    0.000000
      3          9           0        1.127698    0.728595    0.000000
      4          9           0        0.001401   -0.784388    1.081319
      5          9           0        0.001401   -0.784388   -1.081319
      6          1           0       -1.867070    0.382602    0.000000
 ---------------------------------------------------------------------

 SCF Done:  E(RHF) =  -412.085333455     A.U. after    2 cycles

 The electronic state is 1-A'.
 Alpha  occ. eigenvalues --  -26.52086 -26.51734 -26.51730 -20.62875 -11.58269
 Alpha  occ. eigenvalues --   -1.74345  -1.63367  -1.62533  -1.54435  -0.96814
 Alpha  occ. eigenvalues --   -0.86363  -0.83692  -0.83079  -0.71749  -0.70406
 Alpha  occ. eigenvalues --   -0.67656  -0.64866  -0.64838  -0.63205  -0.61294
 Alpha  occ. eigenvalues --   -0.56141
 Alpha virt. eigenvalues --    0.03205   0.09246   0.09355   0.09501   0.13480
 Alpha virt. eigenvalues --    0.17746   0.19470   0.21386   0.23213   0.24042
 Alpha virt. eigenvalues --    0.29617   0.30551   0.31064   0.33828   0.34267

 Mulliken charges:
               1
     1  C    2.792628
     2  O   -1.080296
     3  F   -0.662982
     4  F   -0.674609
     5  F   -0.674609
     6  H    0.299868
 Sum of Mulliken charges =  -0.00000

 Dipole moment (field-independent basis, Debye):
    X=             -1.9788    Y=             -0.3255    Z=             -0.0000  Tot=              2.0054

 Test job not archived.
 1\1\GINC-SE052\SP\RHF\Aug-CC-pVDZ\C1H1F3O1\OHZDE\05-Apr-2025\0\\#t hf
 aug-cc-pvdz iop(5/13=1,5/36=2,99/5=2) pseudo=read geom=check guess=(re
 ad,tcheck) scf=(maxcycle=1)\\title\\0,1\C,0,0.001401,0.023882,0.\O,0,-
 1.03948,0.879467,0.\F,0,1.127698,0.728595,0.\F,0,0.001401,-0.784388,1.
 081319\F,0,0.001401,-0.784388,-1.081319\H,0,-1.86707,0.382602,0.\\Vers
 ion=ES64L-G16RevC.01\State=1-A'\HF=-412.0853335\RMSD=4.954e-03\Dipole=
 -0.7785271,-0.1280423,0.\Quadrupole=3.1844469,-1.8797801,-1.3046667,0.
 2383968,0.,0.\PG=CS [SG(C1H1F1O1),X(F2)]\\@

 Normal termination of Gaussian 16 at Sat Apr  5 23:16:54 2025.
