 Gaussian 16, Revision C.01,

 ----------------------------------------------------------------------
 #t hf aug-cc-pvdz symm=none int=(grid=ultrafine) guess=(read,tcheck) s
 table=(opt,rrhf)
 ----------------------------------------------------------------------
 -----
 title
 -----
 Symbolic Z-matrix:
 Charge =  0 Multiplicity = 1

 SCF Done:  E(RHF) =  -336.814121303     A.U. after   10 cycles
 Normal termination of Gaussian 16 at Sat Apr  5 23:16:49 2025.
 Gaussian 16:  ES64L-G16RevC.01  3-Jul-2019

 ----------------------------------------------------------------------
 #t hf aug-cc-pvdz iop(5/13=1,5/36=2,99/5=2) pseudo=read geom=check gue
 ss=(read,tcheck) scf=(maxcycle=1)
 ----------------------------------------------------------------------
 -----
 title
 -----
 Structure from the checkpoint file:  "trifluoromethane.chk"
 Charge =  0 Multiplicity = 1

                         Standard orientation:
 ---------------------------------------------------------------------
 Center     Atomic      Atomic             Coordinates (Angstroms)
 Number     Number       Type             X           Y           Z
 ---------------------------------------------------------------------
      1          6           0        0.272800    0.203667    0.000000
      2          9           0       -0.854717    0.929897    0.000000
      3          9           0        0.272800   -0.580339    1.088134
      4          9           0        0.272800   -0.580339   -1.088134
      5          1           0        1.145257    0.855030    0.000000
 ---------------------------------------------------------------------

 SCF Done:  E(RHF) =  -337.123574682     A.U. after    2 cycles

 The electronic state is 1-A'.
 Alpha  occ. eigenvalues --  -26.51237 -26.51237 -26.51234 -11.52490  -1.72030
 Alpha  occ. eigenvalues --   -1.61952  -1.61952  -0.97911  -0.84159  -0.81278
 Alpha  occ. eigenvalues --   -0.81278  -0.68928  -0.68928  -0.64334  -0.64334
 Alpha  occ. eigenvalues --   -0.62581  -0.58625
 Alpha virt. eigenvalues --    0.03499   0.08809   0.08809   0.09111   0.16047
 Alpha virt. eigenvalues --    0.23886   0.23886   0.24904   0.24904   0.25657
 Alpha virt. eigenvalues --    0.30889   0.30889   0.31845   0.33732   0.35243

 Mulliken charges:
               1
     1  C    1.844771
     2  F   -0.624114
     3  F   -0.624114
     4  F   -0.624114
     5  H    0.027571
 Sum of Mulliken charges =  -0.00000

 Dipole moment (field-independent basis, Debye):
    X=              1.3784    Y=              1.0291    Z=              0.0000  Tot=              1.7202

 Test job not archived.
 1\1\GINC-SE196\SP\RHF\Aug-CC-pVDZ\C1H1F3\OHZDE\05-Apr-2025\0\\#t hf au
 g-cc-pvdz iop(5/13=1,5/36=2,99/5=2) pseudo=read geom=check guess=(read
 ,tcheck) scf=(maxcycle=1)\\title\\0,1\C,0,0.,0.,0.340441\F,0,0.,1.2564
 69,-0.128588\F,0,-1.088134,-0.628234,-0.128588\F,0,1.088134,-0.628234,
 -0.128588\H,0,0.,0.,1.429227\\Version=ES64L-G16RevC.01\State=1-A'\HF=-
 337.1235747\RMSD=3.844e-03\Dipole=0.,-0.0000009,0.6767842\Quadrupole=-
 0.9512636,-0.9512646,1.9025282,0.,0.,-0.0000002\PG=CS [SG(C1H1F1),X(F2
 )]\\@

 Normal termination of Gaussian 16 at Sat Apr  5 23:16:51 2025.
