 Gaussian 16, Revision C.01,

 ----------------------------------------------------------------------
 #t hf aug-cc-pvdz symm=none int=(grid=ultrafine) guess=(read,tcheck) s
 table=(opt,rrhf)
 ----------------------------------------------------------------------
 -----
 title
 -----
 Symbolic Z-matrix:
 Charge =  0 Multiplicity = 1

 SCF Done:  E(RHF) =  -524.447135685     A.U. after   13 cycles
 Normal termination of Gaussian 16 at Sat Apr  5 23:16:55 2025.
 Gaussian 16:  ES64L-G16RevC.01  3-Jul-2019

 ----------------------------------------------------------------------
 #t hf aug-cc-pvdz iop(5/13=1,5/36=2,99/5=2) pseudo=read geom=check gue
 ss=(read,tcheck) scf=(maxcycle=1)
 ----------------------------------------------------------------------
 -----
 title
 -----
 Structure from the checkpoint file:  "trifluoroacetic_acid.chk"
 Charge =  0 Multiplicity = 1

                         Standard orientation:
 ---------------------------------------------------------------------
 Center     Atomic      Atomic             Coordinates (Angstroms)
 Number     Number       Type             X           Y           Z
 ---------------------------------------------------------------------
      1          6           0        0.085896    0.594059    0.000000
      2          6           0       -0.294386   -0.910548    0.000000
      3          8           0        0.812941   -1.659252    0.000000
      4          8           0       -1.420191   -1.307503    0.000000
      5          9           0       -1.007987    1.348927    0.000000
      6          9           0        0.812941    0.893583    1.087792
      7          9           0        0.812941    0.893583   -1.087792
      8          1           0        0.547878   -2.591865    0.000000
 ---------------------------------------------------------------------

 SCF Done:  E(RHF) =  -524.933471576     A.U. after    2 cycles

 The electronic state is 1-A'.
 Alpha  occ. eigenvalues --  -26.53040 -26.53037 -26.52792 -20.64635 -20.59217
 Alpha  occ. eigenvalues --  -11.55328 -11.44961  -1.74130  -1.63950  -1.63830
 Alpha  occ. eigenvalues --   -1.59687  -1.50889  -1.04477  -0.91476  -0.84207
 Alpha  occ. eigenvalues --   -0.83600  -0.81539  -0.75014  -0.71430  -0.70926
 Alpha  occ. eigenvalues --   -0.68443  -0.67150  -0.65907  -0.65054  -0.64080
 Alpha  occ. eigenvalues --   -0.60902  -0.52166  -0.49556
 Alpha virt. eigenvalues --    0.02966   0.07829   0.08950   0.09177   0.10671
 Alpha virt. eigenvalues --    0.11337   0.11862   0.12945   0.13493   0.18682
 Alpha virt. eigenvalues --    0.19889   0.20232   0.21503   0.24982   0.26689

 Mulliken charges:
               1
     1  C    2.481345
     2  C    1.330966
     3  O   -1.092353
     4  O   -1.015183
     5  F   -0.719506
     6  F   -0.676753
     7  F   -0.676753
     8  H    0.368238
 Sum of Mulliken charges =  -0.00000

 Dipole moment (field-independent basis, Debye):
    X=              1.1418    Y=             -1.9110    Z=              0.0000  Tot=              2.2261

 Test job not archived.
 1\1\GINC-SE180\SP\RHF\Aug-CC-pVDZ\C2H1F3O2\OHZDE\05-Apr-2025\0\\#t hf
 aug-cc-pvdz iop(5/13=1,5/36=2,99/5=2) pseudo=read geom=check guess=(re
 ad,tcheck) scf=(maxcycle=1)\\title\\0,1\C,0,0.085896,0.594059,0.\C,0,-
 0.294386,-0.910548,0.\O,0,0.812941,-1.659252,0.\O,0,-1.420191,-1.30750
 3,0.\F,0,-1.007987,1.348927,0.\F,0,0.812941,0.893583,1.087792\F,0,0.81
 2941,0.893583,-1.087792\H,0,0.547878,-2.591865,0.\\Version=ES64L-G16Re
 vC.01\State=1-A'\HF=-524.9334716\RMSD=7.166e-03\Dipole=0.4492335,-0.75
 18296,0.\Quadrupole=-4.1303166,4.2737946,-0.143478,-2.105899,0.,0.\PG=

 Normal termination of Gaussian 16 at Sat Apr  5 23:16:58 2025.
