 Gaussian 16, Revision C.01,

 ----------------------------------------------------------------------
 #t hf aug-cc-pvdz symm=none int=(grid=ultrafine) guess=(read,tcheck) s
 table=(opt,rrhf)
 ----------------------------------------------------------------------
 -----
 title
 -----
 Symbolic Z-matrix:
 Charge =  0 Multiplicity = 1

 SCF Done:  E(RHF) =  -908.470910580     A.U. after   13 cycles
 Normal termination of Gaussian 16 at Sat Apr  5 23:16:53 2025.
 Gaussian 16:  ES64L-G16RevC.01  3-Jul-2019

 ----------------------------------------------------------------------
 #t hf aug-cc-pvdz iop(5/13=1,5/36=2,99/5=2) pseudo=read geom=check gue
 ss=(read,tcheck) scf=(maxcycle=1)
 ----------------------------------------------------------------------
 -----
 title
 -----
 Structure from the checkpoint file:  "trifluoroacetylchloride.chk"
 Charge =  0 Multiplicity = 1

                         Standard orientation:
 ---------------------------------------------------------------------
 Center     Atomic      Atomic             Coordinates (Angstroms)
 Number     Number       Type             X           Y           Z
 ---------------------------------------------------------------------
      1          6           0        0.542207   -0.688625    0.000000
      2          6           0        0.081178    0.798349    0.000000
      3          8           0        0.821365    1.714338    0.000000
      4          9           0        1.870099   -0.749751    0.000000
      5          9           0        0.081178   -1.316809    1.087399
      6          9           0        0.081178   -1.316809   -1.087399
      7         17           0       -1.682548    0.945722    0.000000
 ---------------------------------------------------------------------

 SCF Done:  E(RHF) =  -908.956743888     A.U. after    2 cycles

 The electronic state is 1-A'.
 Alpha  occ. eigenvalues -- -105.62082 -26.54399 -26.54396 -26.54112 -20.63182
 Alpha  occ. eigenvalues --  -11.57003 -11.46380 -10.66949  -7.83884  -7.83470
 Alpha  occ. eigenvalues --   -7.83455  -1.75582  -1.65356  -1.65321  -1.57793
 Alpha  occ. eigenvalues --   -1.14887  -1.03375  -0.90818  -0.85025  -0.84926
 Alpha  occ. eigenvalues --   -0.78772  -0.72995  -0.72353  -0.69767  -0.67621
 Alpha  occ. eigenvalues --   -0.67108  -0.66613  -0.65462  -0.63133  -0.51728
 Alpha  occ. eigenvalues --   -0.50933  -0.49650
 Alpha virt. eigenvalues --    0.06620   0.06828   0.07761   0.08694   0.09644
 Alpha virt. eigenvalues --    0.10575   0.12259   0.12469   0.12965   0.15138
 Alpha virt. eigenvalues --    0.16824   0.18885   0.20661   0.24428   0.25071

 Mulliken charges:
               1
     1  C    2.583324
     2  C    0.296164
     3  O   -0.916308
     4  F   -0.693683
     5  F   -0.644748
     6  F   -0.644748
     7  Cl   0.019999
 Sum of Mulliken charges =  -0.00000

 Dipole moment (field-independent basis, Debye):
    X=             -0.6910    Y=             -0.4274    Z=             -0.0000  Tot=              0.8125

 Test job not archived.
 1\1\GINC-SE194\SP\RHF\Aug-CC-pVDZ\C2Cl1F3O1\OHZDE\05-Apr-2025\0\\#t hf
  aug-cc-pvdz iop(5/13=1,5/36=2,99/5=2) pseudo=read geom=check guess=(r
 ead,tcheck) scf=(maxcycle=1)\\title\\0,1\C,0,0.542207,-0.688625,0.\C,0
 ,0.081178,0.798349,0.\O,0,0.821365,1.714338,0.\F,0,1.870099,-0.749751,
 0.\F,0,0.081178,-1.316809,1.087399\F,0,0.081178,-1.316809,-1.087399\Cl
 ,0,-1.682548,0.945722,0.\\Version=ES64L-G16RevC.01\State=1-A'\HF=-908.
 9567439\RMSD=6.239e-03\Dipole=-0.2718527,-0.1681404,0.\Quadrupole=0.45
 5591,-1.5774051,1.1218141,-1.1652812,0.,0.\PG=CS [SG(C2Cl1F1O1),X(F2)]

 Normal termination of Gaussian 16 at Sat Apr  5 23:16:56 2025.
