 Gaussian 16, Revision C.01,

 ----------------------------------------------------------------------
 #t hf aug-cc-pvdz symm=none int=(grid=ultrafine) guess=(read,tcheck) s
 table=(opt,rrhf)
 ----------------------------------------------------------------------
 -----
 title
 -----
 Symbolic Z-matrix:
 Charge =  0 Multiplicity = 1

 SCF Done:  E(RHF) =  -230.580552645     A.U. after   11 cycles
 Normal termination of Gaussian 16 at Sat Apr  5 23:16:55 2025.
 Gaussian 16:  ES64L-G16RevC.01  3-Jul-2019

 ----------------------------------------------------------------------
 #t hf aug-cc-pvdz iop(5/13=1,5/36=2,99/5=2) pseudo=read geom=check gue
 ss=(read,tcheck) scf=(maxcycle=1)
 ----------------------------------------------------------------------
 -----
 title
 -----
 Structure from the checkpoint file:  "trimethylenecyclopropane.chk"
 Charge =  0 Multiplicity = 1

                         Standard orientation:
 ---------------------------------------------------------------------
 Center     Atomic      Atomic             Coordinates (Angstroms)
 Number     Number       Type             X           Y           Z
 ---------------------------------------------------------------------
      1          6           0        0.000000    0.000000    0.830500
      2          6           0        0.000000    0.719234   -0.415250
      3          6           0       -0.000000   -0.719234   -0.415250
      4          6           0        0.000000    0.000000    2.159401
      5          6           0        0.000000    1.870096   -1.079700
      6          6           0       -0.000000   -1.870096   -1.079700
      7          1           0        0.000000   -0.925056    2.719957
      8          1           0        0.000000    0.925056    2.719957
      9          1           0        0.000000    2.818080   -0.558856
     10          1           0        0.000000    1.893024   -2.161100
     11          1           0       -0.000000   -1.893024   -2.161100
     12          1           0       -0.000000   -2.818080   -0.558856
 ---------------------------------------------------------------------

 SCF Done:  E(RHF) =  -230.821337900     A.U. after    2 cycles

 The electronic state is 1-A1.
 Alpha  occ. eigenvalues --  -11.26467 -11.26348 -11.26348 -11.25249 -11.25249
 Alpha  occ. eigenvalues --  -11.25231  -1.19166  -1.00993  -1.00993  -0.95235
 Alpha  occ. eigenvalues --   -0.71991  -0.71991  -0.66893  -0.63013  -0.63013
 Alpha  occ. eigenvalues --   -0.59984  -0.52937  -0.46323  -0.46323  -0.34628
 Alpha  occ. eigenvalues --   -0.34628
 Alpha virt. eigenvalues --    0.02710   0.03690   0.03810   0.03810   0.05535
 Alpha virt. eigenvalues --    0.05535   0.07911   0.09967   0.12034   0.12329
 Alpha virt. eigenvalues --    0.12329   0.13005   0.13005   0.14539   0.14539

 Mulliken charges:
               1
     1  C    0.272656
     2  C    0.272658
     3  C    0.272658
     4  C   -0.053320
     5  C   -0.053321
     6  C   -0.053321
     7  H   -0.109668
     8  H   -0.109668
     9  H   -0.109668
    10  H   -0.109668
    11  H   -0.109668
    12  H   -0.109668
 Sum of Mulliken charges =  -0.00000

 Dipole moment (field-independent basis, Debye):
    X=              0.0000    Y=             -0.0000    Z=             -0.0000  Tot=              0.0000

 Test job not archived.
 1\1\GINC-SE106\SP\RHF\Aug-CC-pVDZ\C6H6\OHZDE\05-Apr-2025\0\\#t hf aug-
 cc-pvdz iop(5/13=1,5/36=2,99/5=2) pseudo=read geom=check guess=(read,t
 check) scf=(maxcycle=1)\\title\\0,1\C,0,0.,0.8305,0.\C,0,0.719234,-0.4
 1525,0.\C,0,-0.719234,-0.41525,0.\C,0,0.,2.159401,0.\C,0,1.870096,-1.0
 797,0.\C,0,-1.870096,-1.0797,0.\H,0,-0.925056,2.719957,0.\H,0,0.925056
 ,2.719957,0.\H,0,2.81808,-0.558856,0.\H,0,1.893024,-2.1611,0.\H,0,-1.8
 93024,-2.1611,0.\H,0,-2.81808,-0.558856,0.\\Version=ES64L-G16RevC.01\S
 tate=1-A1\HF=-230.8213379\RMSD=2.277e-02\Dipole=0.,-0.0000003,0.\Quadr

 Normal termination of Gaussian 16 at Sat Apr  5 23:17:09 2025.
