 Gaussian 16, Revision C.01,

 ----------------------------------------------------------------------
 #t hf aug-cc-pvdz symm=none int=(grid=ultrafine) guess=(read,tcheck) s
 table=(opt,rrhf)
 ----------------------------------------------------------------------
 -----
 title
 -----
 Symbolic Z-matrix:
 Charge =  0 Multiplicity = 1

 SCF Done:  E(RHF) =  -381.899539883     A.U. after   12 cycles

 1\1\GINC-SE160\Stability\RHF\Aug-CC-pVDZ\C4H10O3\OHZDE\05-Apr-2025\0\\
 #t hf aug-cc-pvdz symm=none int=(grid=ultrafine) guess=(read,tcheck) s
 table=(opt,rrhf)\\title\\0,1\C,0,0.000002,-0.367307,0.256085\O,0,-0.00
 0002,0.965131,0.702169\C,0,-0.000007,1.95647,-0.327711\O,0,-1.098087,-
 0.677695,-0.536994\C,0,-2.334659,-0.671033,0.163443\O,0,1.098092,-0.67
 7688,-0.536995\C,0,2.334663,-0.671026,0.163443\H,0,0.000003,-0.955286,
 1.185152\H,0,-0.000019,2.916553,0.181998\H,0,0.887101,1.876333,-0.9574
 16\H,0,-0.887109,1.876316,-0.957423\H,0,-2.319311,-1.383477,0.994703\H

 Normal termination of Gaussian 16 at Sat Apr  5 23:17:26 2025.
 Gaussian 16:  ES64L-G16RevC.01  3-Jul-2019

 ----------------------------------------------------------------------
 #t hf aug-cc-pvdz iop(5/13=1,5/36=2,99/5=2) pseudo=read geom=check gue
 ss=(read,tcheck) scf=(maxcycle=1)
 ----------------------------------------------------------------------
 -----
 title
 -----
 Structure from the checkpoint file:  "trimethylorthoformate.chk"
 Charge =  0 Multiplicity = 1

                         Standard orientation:
 ---------------------------------------------------------------------
 Center     Atomic      Atomic             Coordinates (Angstroms)
 Number     Number       Type             X           Y           Z
 ---------------------------------------------------------------------
      1          6           0        0.000002   -0.367307    0.256085
      2          8           0       -0.000002    0.965131    0.702169
      3          6           0       -0.000007    1.956470   -0.327711
      4          8           0       -1.098087   -0.677695   -0.536994
      5          6           0       -2.334659   -0.671033    0.163443
      6          8           0        1.098092   -0.677688   -0.536995
      7          6           0        2.334663   -0.671026    0.163443
      8          1           0        0.000003   -0.955286    1.185152
      9          1           0       -0.000019    2.916553    0.181998
     10          1           0        0.887101    1.876333   -0.957416
     11          1           0       -0.887109    1.876316   -0.957423
     12          1           0       -2.319311   -1.383477    0.994703
     13          1           0       -2.574558    0.320771    0.552376
     14          1           0       -3.094725   -0.974563   -0.551733
     15          1           0        2.574558    0.320777    0.552383
     16          1           0        2.319318   -1.383476    0.994698
     17          1           0        3.094731   -0.974549   -0.551734
 ---------------------------------------------------------------------

 SCF Done:  E(RHF) =  -382.293365283     A.U. after    2 cycles

 The electronic state is 1-A.
 Alpha  occ. eigenvalues --  -20.55263 -20.55260 -20.55077 -11.38954 -11.28534
 Alpha  occ. eigenvalues --  -11.28533 -11.27778  -1.53923  -1.44484  -1.44007
 Alpha  occ. eigenvalues --   -0.99527  -0.95095  -0.92067  -0.83061  -0.72571
 Alpha  occ. eigenvalues --   -0.71064  -0.70423  -0.64350  -0.61843  -0.60598
 Alpha  occ. eigenvalues --   -0.59752  -0.57178  -0.56242  -0.53546  -0.51821
 Alpha  occ. eigenvalues --   -0.46506  -0.44767  -0.43737  -0.43568
 Alpha virt. eigenvalues --    0.03755   0.04069   0.04181   0.04650   0.06260
 Alpha virt. eigenvalues --    0.06349   0.06463   0.07655   0.08564   0.09561
 Alpha virt. eigenvalues --    0.11479   0.13244   0.13913   0.14874   0.15352

 Mulliken charges:
               1
     1  C    2.672961
     2  O   -1.371479
     3  C    0.139334
     4  O   -1.302722
     5  C    0.083507
     6  O   -1.302720
     7  C    0.083506
     8  H   -0.027346
     9  H   -0.001965
    10  H    0.168066
    11  H    0.168068
    12  H    0.173076
    13  H    0.201419
    14  H   -0.029100
    15  H    0.201421
    16  H    0.173075
    17  H   -0.029101
 Sum of Mulliken charges =   0.00000

 Dipole moment (field-independent basis, Debye):
    X=             -0.0000    Y=              0.3929    Z=              1.1242  Tot=              1.1909

 Test job not archived.
 1\1\GINC-SE160\SP\RHF\Aug-CC-pVDZ\C4H10O3\OHZDE\05-Apr-2025\0\\#t hf a
 ug-cc-pvdz iop(5/13=1,5/36=2,99/5=2) pseudo=read geom=check guess=(rea
 d,tcheck) scf=(maxcycle=1)\\title\\0,1\C,0,0.000002,-0.367307,0.256085
 \O,0,-0.000002,0.965131,0.702169\C,0,-0.000007,1.95647,-0.327711\O,0,-
 1.098087,-0.677695,-0.536994\C,0,-2.334659,-0.671033,0.163443\O,0,1.09
 8092,-0.677688,-0.536995\C,0,2.334663,-0.671026,0.163443\H,0,0.000003,
 -0.955286,1.185152\H,0,-0.000019,2.916553,0.181998\H,0,0.887101,1.8763
 33,-0.957416\H,0,-0.887109,1.876316,-0.957423\H,0,-2.319311,-1.383477,

 Normal termination of Gaussian 16 at Sat Apr  5 23:17:33 2025.
