 Gaussian 16, Revision C.01,

 ----------------------------------------------------------------------
 #t hf aug-cc-pvdz symm=none int=(grid=ultrafine) guess=(read,tcheck) s
 table=(opt,rrhf)
 ----------------------------------------------------------------------
 -----
 title
 -----
 Symbolic Z-matrix:
 Charge =  0 Multiplicity = 1

 SCF Done:  E(RHF) =  -611.467292641     A.U. after   15 cycles
 Normal termination of Gaussian 16 at Sat Apr  5 23:22:59 2025.
 Gaussian 16:  ES64L-G16RevC.01  3-Jul-2019

 ----------------------------------------------------------------------
 #t hf aug-cc-pvdz iop(5/13=1,5/36=2,99/5=2) pseudo=read geom=check gue
 ss=(read,tcheck) scf=(maxcycle=1)
 ----------------------------------------------------------------------
 -----
 title
 -----
 Structure from the checkpoint file:  "trimethoxymethylbenzene.chk"
 Charge =  0 Multiplicity = 1

                         Standard orientation:
 ---------------------------------------------------------------------
 Center     Atomic      Atomic             Coordinates (Angstroms)
 Number     Number       Type             X           Y           Z
 ---------------------------------------------------------------------
      1          6           0       -3.388472   -0.000044    0.286846
      2          6           0       -2.807439    0.000148   -0.978192
      3          6           0       -2.578343   -0.000206    1.414731
      4          6           0       -1.425809    0.000177   -1.109541
      5          6           0       -1.192222   -0.000179    1.283865
      6          6           0       -0.608039    0.000014    0.021203
      7          6           0        1.023124    2.379898   -0.470319
      8          6           0        1.023043   -2.379763   -0.470812
      9          6           0        2.948244   -0.000221    1.058956
     10          6           0        0.905320    0.000039   -0.194792
     11          8           0        1.326351    1.086368   -0.980293
     12          8           0        1.326380   -1.086139   -0.980478
     13          8           0        1.520552   -0.000056    1.068131
     14          1           0       -4.465338   -0.000067    0.390194
     15          1           0       -3.431913    0.000275   -1.861615
     16          1           0       -3.022627   -0.000356    2.401202
     17          1           0       -0.970398    0.000327   -2.090355
     18          1           0       -0.562616   -0.000306    2.160548
     19          1           0        1.487995    3.084722   -1.155242
     20          1           0        1.431223    2.525679    0.531882
     21          1           0       -0.053609    2.559742   -0.444154
     22          1           0        1.430937   -2.525742    0.531445
     23          1           0        1.488048   -3.084462   -1.155774
     24          1           0       -0.053696   -2.559606   -0.444897
     25          1           0        3.344275    0.885053    0.560867
     26          1           0        3.344088   -0.886340    0.562212
     27          1           0        3.250946    0.000524    2.103146
 ---------------------------------------------------------------------

 SCF Done:  E(RHF) =  -612.094123410     A.U. after    2 cycles

 The electronic state is 1-A.
 Alpha  occ. eigenvalues --  -20.55402 -20.54933 -20.54932 -11.40013 -11.28042
 Alpha  occ. eigenvalues --  -11.27808 -11.27802 -11.24392 -11.24369 -11.24212
 Alpha  occ. eigenvalues --  -11.24177 -11.24042 -11.24024  -1.53857  -1.44229
 Alpha  occ. eigenvalues --   -1.43671  -1.15916  -1.04396  -1.01818  -0.98463
 Alpha  occ. eigenvalues --   -0.94719  -0.91517  -0.86192  -0.83504  -0.78993
 Alpha  occ. eigenvalues --   -0.73788  -0.71182  -0.70686  -0.67970  -0.64727
 Alpha  occ. eigenvalues --   -0.64117  -0.63134  -0.61419  -0.60718  -0.59537
 Alpha  occ. eigenvalues --   -0.59247  -0.57157  -0.56369  -0.54185  -0.52047
 Alpha  occ. eigenvalues --   -0.51678  -0.50796  -0.50451  -0.45874  -0.44767
 Alpha  occ. eigenvalues --   -0.43705  -0.43190  -0.34772  -0.34562
 Alpha virt. eigenvalues --    0.03232   0.03396   0.03827   0.04133   0.04868
 Alpha virt. eigenvalues --    0.04917   0.05768   0.06170   0.06357   0.07411
 Alpha virt. eigenvalues --    0.07797   0.08637   0.09079   0.09863   0.10250

 Mulliken charges:
               1
     1  C    0.256194
     2  C    0.325916
     3  C    0.191958
     4  C   -0.439712
     5  C   -0.164162
     6  C    1.638764
     7  C    0.014741
     8  C    0.014664
     9  C   -0.032977
    10  C    3.790398
    11  O   -1.628455
    12  O   -1.628162
    13  O   -1.926804
    14  H   -0.242545
    15  H   -0.257938
    16  H   -0.262974
    17  H   -0.403554
    18  H   -0.384395
    19  H   -0.044918
    20  H    0.165923
    21  H    0.217804
    22  H    0.165819
    23  H   -0.044938
    24  H    0.217797
    25  H    0.229540
    26  H    0.229431
    27  H    0.002586
 Sum of Mulliken charges =   0.00000

 Dipole moment (field-independent basis, Debye):
    X=             -0.4063    Y=             -0.0002    Z=              1.2109  Tot=              1.2773

 Test job not archived.
 1\1\GINC-SE100\SP\RHF\Aug-CC-pVDZ\C10H14O3\OHZDE\05-Apr-2025\0\\#t hf
 aug-cc-pvdz iop(5/13=1,5/36=2,99/5=2) pseudo=read geom=check guess=(re
 ad,tcheck) scf=(maxcycle=1)\\title\\0,1\C,0,-3.388472,-0.000044,0.2868
 46\C,0,-2.807439,0.000148,-0.978192\C,0,-2.578343,-0.000206,1.414731\C
 ,0,-1.425809,0.000177,-1.109541\C,0,-1.192222,-0.000179,1.283865\C,0,-
 0.608039,0.000014,0.021203\C,0,1.023124,2.379898,-0.470319\C,0,1.02304
 3,-2.379763,-0.470812\C,0,2.948244,-0.000221,1.058956\C,0,0.90532,0.00
 0039,-0.194792\O,0,1.326351,1.086368,-0.980293\O,0,1.32638,-1.086139,-

 Normal termination of Gaussian 16 at Sat Apr  5 23:23:28 2025.
