 Gaussian 16, Revision C.01,

 ----------------------------------------------------------------------
 #t hf aug-cc-pvdz symm=none int=(grid=ultrafine) guess=(read,tcheck) s
 table=(opt,rrhf)
 ----------------------------------------------------------------------
 -----
 title
 -----
 Symbolic Z-matrix:
 Charge =  0 Multiplicity = 1

 SCF Done:  E(RHF) =  -264.609222603     A.U. after   14 cycles
 Normal termination of Gaussian 16 at Sat Apr  5 23:16:50 2025.
 Gaussian 16:  ES64L-G16RevC.01  3-Jul-2019

 ----------------------------------------------------------------------
 #t hf aug-cc-pvdz iop(5/13=1,5/36=2,99/5=2) pseudo=read geom=check gue
 ss=(read,tcheck) scf=(maxcycle=1)
 ----------------------------------------------------------------------
 -----
 title
 -----
 Structure from the checkpoint file:  "trioxidanylmethane.chk"
 Charge =  0 Multiplicity = 1

                         Standard orientation:
 ---------------------------------------------------------------------
 Center     Atomic      Atomic             Coordinates (Angstroms)
 Number     Number       Type             X           Y           Z
 ---------------------------------------------------------------------
      1          8           0        0.614839   -0.531311    0.412981
      2          8           0       -0.558693   -0.562512   -0.398497
      3          8           0        1.453969    0.529309   -0.061717
      4          6           0       -1.474009    0.413749    0.097467
      5          1           0        1.911049    0.100315   -0.801444
      6          1           0       -1.737810    0.202807    1.133973
      7          1           0       -2.351255    0.313601   -0.540435
      8          1           0       -1.058850    1.416901    0.000969
 ---------------------------------------------------------------------

 SCF Done:  E(RHF) =  -264.870858241     A.U. after    2 cycles

 The electronic state is 1-A.
 Alpha  occ. eigenvalues --  -20.67991 -20.63115 -20.62586 -11.29575  -1.66026
 Alpha  occ. eigenvalues --   -1.45854  -1.20942  -0.93458  -0.73942  -0.69745
 Alpha  occ. eigenvalues --   -0.69065  -0.63057  -0.59888  -0.56937  -0.49280
 Alpha  occ. eigenvalues --   -0.47976  -0.46387
 Alpha virt. eigenvalues --    0.03878   0.04711   0.05734   0.06192   0.10584
 Alpha virt. eigenvalues --    0.14039   0.14680   0.15327   0.16786   0.17471
 Alpha virt. eigenvalues --    0.20214   0.22380   0.24041   0.24474   0.25622

 Mulliken charges:
               1
     1  O    0.001331
     2  O   -0.709978
     3  O   -0.469187
     4  C    0.381986
     5  H    0.444309
     6  H    0.140503
     7  H    0.054428
     8  H    0.156606
 Sum of Mulliken charges =   0.00000

 Dipole moment (field-independent basis, Debye):
    X=             -0.6284    Y=              0.7111    Z=             -0.8916  Tot=              1.3021

 Test job not archived.
 1\1\GINC-SE160\SP\RHF\Aug-CC-pVDZ\C1H4O3\OHZDE\05-Apr-2025\0\\#t hf au
 g-cc-pvdz iop(5/13=1,5/36=2,99/5=2) pseudo=read geom=check guess=(read
 ,tcheck) scf=(maxcycle=1)\\title\\0,1\O,0,0.614839,-0.531311,0.412981\
 O,0,-0.558693,-0.562512,-0.398497\O,0,1.453969,0.529309,-0.061717\C,0,
 -1.474009,0.413749,0.097467\H,0,1.911049,0.100315,-0.801444\H,0,-1.737
 81,0.202807,1.133973\H,0,-2.351255,0.313601,-0.540435\H,0,-1.05885,1.4
 16901,0.000969\\Version=ES64L-G16RevC.01\State=1-A\HF=-264.8708582\RMS
 D=8.265e-03\Dipole=-0.2472477,0.2797717,-0.3507672\Quadrupole=2.769969

 Normal termination of Gaussian 16 at Sat Apr  5 23:16:53 2025.
