 Gaussian 16, Revision C.01,

 ----------------------------------------------------------------------
 #t hf aug-cc-pvdz symm=none int=(grid=ultrafine) guess=(read,tcheck) s
 table=(opt,rrhf)
 ----------------------------------------------------------------------
 -----
 title
 -----
 Symbolic Z-matrix:
 Charge =  0 Multiplicity = 1

 SCF Done:  E(RHF) =  -347.667266665     A.U. after   12 cycles
 Normal termination of Gaussian 16 at Sat Apr  5 23:18:21 2025.
 Gaussian 16:  ES64L-G16RevC.01  3-Jul-2019

 ----------------------------------------------------------------------
 #t hf aug-cc-pvdz iop(5/13=1,5/36=2,99/5=2) pseudo=read geom=check gue
 ss=(read,tcheck) scf=(maxcycle=1)
 ----------------------------------------------------------------------
 -----
 title
 -----
 Structure from the checkpoint file:  "trispiro2-0-0-2-1-1nonane.chk"
 Charge =  0 Multiplicity = 1

                         Standard orientation:
 ---------------------------------------------------------------------
 Center     Atomic      Atomic             Coordinates (Angstroms)
 Number     Number       Type             X           Y           Z
 ---------------------------------------------------------------------
      1          6           0        0.000000    2.646312   -0.153625
      2          6           0       -0.783823    1.911812   -1.237462
      3          6           0       -0.502659    1.272733    0.068369
      4          6           0        0.000000    0.000000    0.571930
      5          6           0       -1.280621    0.550204    1.125888
      6          6           0        0.502659   -1.272733    0.068369
      7          6           0        1.280621   -0.550204    1.125888
      8          6           0        0.783823   -1.911812   -1.237462
      9          6           0       -0.000000   -2.646312   -0.153625
     10          1           0        1.061695    2.787753   -0.310710
     11          1           0       -0.492162    3.465471    0.354450
     12          1           0       -1.792102    2.247544   -1.442544
     13          1           0       -0.237243    1.571736   -2.107218
     14          1           0       -1.270911    0.951885    2.132470
     15          1           0       -2.207587    0.066955    0.838743
     16          1           0        1.270911   -0.951885    2.132470
     17          1           0        2.207587   -0.066955    0.838743
     18          1           0        0.237243   -1.571736   -2.107218
     19          1           0        1.792102   -2.247544   -1.442544
     20          1           0        0.492162   -3.465471    0.354450
     21          1           0       -1.061695   -2.787753   -0.310710
 ---------------------------------------------------------------------

 SCF Done:  E(RHF) =  -348.042411043     A.U. after    2 cycles

 The electronic state is 1-A.
 Alpha  occ. eigenvalues --  -11.24074 -11.23959 -11.23955 -11.23212 -11.23205
 Alpha  occ. eigenvalues --  -11.23193 -11.23190 -11.23163 -11.23160  -1.19756
 Alpha  occ. eigenvalues --   -1.14781  -1.07961  -1.01779  -0.82808  -0.82611
 Alpha  occ. eigenvalues --   -0.79658  -0.77205  -0.71493  -0.68508  -0.65005
 Alpha  occ. eigenvalues --   -0.64689  -0.61682  -0.61095  -0.53646  -0.52026
 Alpha  occ. eigenvalues --   -0.51971  -0.49062  -0.46570  -0.43812  -0.43632
 Alpha  occ. eigenvalues --   -0.39160  -0.38459  -0.38001
 Alpha virt. eigenvalues --    0.03519   0.03596   0.03669   0.04009   0.05242
 Alpha virt. eigenvalues --    0.05642   0.05643   0.05964   0.06792   0.08547
 Alpha virt. eigenvalues --    0.08890   0.08963   0.11311   0.11783   0.11918

 Mulliken charges:
               1
     1  C    0.134859
     2  C    0.163258
     3  C    0.349996
     4  C    0.257998
     5  C   -0.318092
     6  C    0.349996
     7  C   -0.318092
     8  C    0.163258
     9  C    0.134859
    10  H   -0.099190
    11  H   -0.081962
    12  H   -0.090184
    13  H   -0.111252
    14  H   -0.034332
    15  H   -0.042099
    16  H   -0.034332
    17  H   -0.042099
    18  H   -0.111252
    19  H   -0.090184
    20  H   -0.081962
    21  H   -0.099190
 Sum of Mulliken charges =  -0.00000

 Dipole moment (field-independent basis, Debye):
    X=              0.0000    Y=              0.0000    Z=             -0.0023  Tot=              0.0023

 Test job not archived.
 1\1\GINC-SE190\SP\RHF\Aug-CC-pVDZ\C9H12\OHZDE\05-Apr-2025\0\\#t hf aug
 -cc-pvdz iop(5/13=1,5/36=2,99/5=2) pseudo=read geom=check guess=(read,
 tcheck) scf=(maxcycle=1)\\title\\0,1\C,0,0.,2.646312,-0.153625\C,0,-0.
 783823,1.911812,-1.237462\C,0,-0.502659,1.272733,0.068369\C,0,0.,0.,0.
 57193\C,0,-1.280621,0.550204,1.125888\C,0,0.502659,-1.272733,0.068369\
 C,0,1.280621,-0.550204,1.125888\C,0,0.783823,-1.911812,-1.237462\C,0,0
 .,-2.646312,-0.153625\H,0,1.061695,2.787753,-0.31071\H,0,-0.492162,3.4
 65471,0.35445\H,0,-1.792102,2.247544,-1.442544\H,0,-0.237243,1.571736,

 Normal termination of Gaussian 16 at Sat Apr  5 23:18:28 2025.
