 Gaussian 16, Revision C.01,

 ----------------------------------------------------------------------
 #t hf aug-cc-pvdz symm=none int=(grid=ultrafine) guess=(read,tcheck) s
 table=(opt,rrhf)
 ----------------------------------------------------------------------
 -----
 title
 -----
 Symbolic Z-matrix:
 Charge =  0 Multiplicity = 1

 SCF Done:  E(RHF) =  -1349.89181644     A.U. after   13 cycles

 1\1\GINC-SE190\Stability\RHF\Aug-CC-pVDZ\C4H10S3\OHZDE\05-Apr-2025\0\\
 #t hf aug-cc-pvdz symm=none int=(grid=ultrafine) guess=(read,tcheck) s
 table=(opt,rrhf)\\title\\0,1\C,0,-0.299347,2.755142,0.647638\C,0,2.535
 697,-1.118329,0.647638\C,0,-2.23635,-1.636813,0.647638\C,0,0.,0.,0.150
 368\S,0,0.610957,1.615429,-0.447444\S,0,1.093524,-1.336819,-0.447444\S
 ,0,-1.704481,-0.27861,-0.447444\H,0,0.,3.759716,0.355248\H,0,-0.029337
 ,2.594355,1.690157\H,0,-1.372452,2.645233,0.513627\H,0,2.261446,-1.271
 771,1.690157\H,0,2.977065,-0.134038,0.513627\H,0,3.25601,-1.879858,0.3

 Normal termination of Gaussian 16 at Sat Apr  5 23:18:00 2025.
 Gaussian 16:  ES64L-G16RevC.01  3-Jul-2019

 ----------------------------------------------------------------------
 #t hf aug-cc-pvdz iop(5/13=1,5/36=2,99/5=2) pseudo=read geom=check gue
 ss=(read,tcheck) scf=(maxcycle=1)
 ----------------------------------------------------------------------
 -----
 title
 -----
 Structure from the checkpoint file:  "tris-methylsulfanylmethane.chk"
 Charge =  0 Multiplicity = 1

                         Standard orientation:
 ---------------------------------------------------------------------
 Center     Atomic      Atomic             Coordinates (Angstroms)
 Number     Number       Type             X           Y           Z
 ---------------------------------------------------------------------
      1          6           0       -1.061280    2.560098    0.647638
      2          6           0        2.747750   -0.360953    0.647638
      3          6           0       -1.686470   -2.199144    0.647638
      4          6           0        0.000000    0.000000    0.150368
      5         16           0        0.132539    1.722008   -0.447444
      6         16           0        1.425033   -0.975787   -0.447444
      7         16           0       -1.557573   -0.746221   -0.447444
      8          1           0       -1.056198    3.608311    0.355248
      9          1           0       -0.756974    2.481638    1.690157
     10          1           0       -2.060295    2.153153    0.513627
     11          1           0        2.527649   -0.585260    1.690157
     12          1           0        2.894833    0.707691    0.513627
     13          1           0        3.652989   -0.889462    0.355248
     14          1           0       -2.596791   -2.718850    0.355248
     15          1           0       -1.770674   -1.896379    1.690157
     16          1           0       -0.834538   -2.860844    0.513627
     17          1           0        0.000000    0.000000    1.240520
 ---------------------------------------------------------------------

 SCF Done:  E(RHF) =  -1350.24778201     A.U. after    2 cycles

 The electronic state is 1-A.
 Alpha  occ. eigenvalues --  -93.95213 -93.95213 -93.95204 -11.32930 -11.26638
 Alpha  occ. eigenvalues --  -11.26636 -11.26636  -8.23259  -8.23235  -8.23235
 Alpha  occ. eigenvalues --   -6.21066  -6.21061  -6.21061  -6.20903  -6.20900
 Alpha  occ. eigenvalues --   -6.20900  -6.20676  -6.20676  -6.20676  -1.14269
 Alpha  occ. eigenvalues --   -1.05396  -1.05396  -0.96132  -0.87382  -0.87382
 Alpha  occ. eigenvalues --   -0.78009  -0.62624  -0.61620  -0.61620  -0.59908
 Alpha  occ. eigenvalues --   -0.59908  -0.58794  -0.58299  -0.52926  -0.52926
 Alpha  occ. eigenvalues --   -0.45216  -0.45216  -0.44616  -0.35810  -0.35810
 Alpha  occ. eigenvalues --   -0.34795
 Alpha virt. eigenvalues --    0.02952   0.03682   0.03682   0.04512   0.06019
 Alpha virt. eigenvalues --    0.06019   0.06840   0.06840   0.07991   0.08882
 Alpha virt. eigenvalues --    0.10249   0.11469   0.11469   0.12354   0.13218

 Mulliken charges:
               1
     1  C   -0.712820
     2  C   -0.712820
     3  C   -0.712820
     4  C   -1.319437
     5  S    0.518855
     6  S    0.518855
     7  S    0.518855
     8  H    0.143091
     9  H    0.163253
    10  H    0.231767
    11  H    0.163253
    12  H    0.231767
    13  H    0.143090
    14  H    0.143091
    15  H    0.163252
    16  H    0.231768
    17  H    0.287000
 Sum of Mulliken charges =  -0.00000

 Dipole moment (field-independent basis, Debye):
    X=              0.0000    Y=              0.0000    Z=              3.6153  Tot=              3.6153

 Test job not archived.
 1\1\GINC-SE190\SP\RHF\Aug-CC-pVDZ\C4H10S3\OHZDE\05-Apr-2025\0\\#t hf a
 ug-cc-pvdz iop(5/13=1,5/36=2,99/5=2) pseudo=read geom=check guess=(rea
 d,tcheck) scf=(maxcycle=1)\\title\\0,1\C,0,-0.299347,2.755142,0.647638
 \C,0,2.535697,-1.118329,0.647638\C,0,-2.23635,-1.636813,0.647638\C,0,0
 .,0.,0.150368\S,0,0.610957,1.615429,-0.447444\S,0,1.093524,-1.336819,-
 0.447444\S,0,-1.704481,-0.27861,-0.447444\H,0,0.,3.759716,0.355248\H,0
 ,-0.029337,2.594355,1.690157\H,0,-1.372452,2.645233,0.513627\H,0,2.261
 446,-1.271771,1.690157\H,0,2.977065,-0.134038,0.513627\H,0,3.25601,-1.

 Normal termination of Gaussian 16 at Sat Apr  5 23:18:09 2025.
