 Gaussian 16, Revision C.01,

 ----------------------------------------------------------------------
 #t hf aug-cc-pvdz symm=none int=(grid=ultrafine) guess=(read,tcheck) s
 table=(opt,rrhf)
 ----------------------------------------------------------------------
 -----
 title
 -----
 Symbolic Z-matrix:
 Charge =  0 Multiplicity = 1

 SCF Done:  E(RHF) =  -347.667436243     A.U. after   11 cycles
 Normal termination of Gaussian 16 at Sat Apr  5 23:18:18 2025.
 Gaussian 16:  ES64L-G16RevC.01  3-Jul-2019

 ----------------------------------------------------------------------
 #t hf aug-cc-pvdz iop(5/13=1,5/36=2,99/5=2) pseudo=read geom=check gue
 ss=(read,tcheck) scf=(maxcycle=1)
 ----------------------------------------------------------------------
 -----
 title
 -----
 Structure from the checkpoint file:  "trispiro2-0-2-0-2-0nonane.chk"
 Charge =  0 Multiplicity = 1

                         Standard orientation:
 ---------------------------------------------------------------------
 Center     Atomic      Atomic             Coordinates (Angstroms)
 Number     Number       Type             X           Y           Z
 ---------------------------------------------------------------------
      1          6           0        0.000000   -0.000000    0.851770
      2          6           0        0.000000    0.737655   -0.425885
      3          6           0       -0.000000   -0.737655   -0.425885
      4          6           0        0.763078    1.836386   -1.060238
      5          6           0       -0.763078    1.836386   -1.060238
      6          6           0       -0.763078    0.000000    2.120476
      7          6           0        0.763078   -0.000000    2.120476
      8          6           0       -0.763078   -1.836386   -1.060238
      9          6           0        0.763078   -1.836386   -1.060238
     10          1           0        1.266347    2.551440   -0.422252
     11          1           0        1.266347    1.641401   -1.998486
     12          1           0       -1.266347    1.641401   -1.998486
     13          1           0       -1.266347    2.551440   -0.422252
     14          1           0       -1.266347   -0.910039    2.420738
     15          1           0       -1.266347    0.910039    2.420738
     16          1           0        1.266347    0.910039    2.420738
     17          1           0        1.266347   -0.910039    2.420738
     18          1           0       -1.266347   -2.551440   -0.422252
     19          1           0       -1.266347   -1.641401   -1.998486
     20          1           0        1.266347   -1.641401   -1.998486
     21          1           0        1.266347   -2.551440   -0.422252
 ---------------------------------------------------------------------

 SCF Done:  E(RHF) =  -348.041857700     A.U. after    2 cycles

 The electronic state is 1-A1.
 Alpha  occ. eigenvalues --  -11.24076 -11.23992 -11.23992 -11.23214 -11.23214
 Alpha  occ. eigenvalues --  -11.23209 -11.23209 -11.23197 -11.23167  -1.20100
 Alpha  occ. eigenvalues --   -1.11877  -1.11877  -0.99966  -0.83801  -0.81934
 Alpha  occ. eigenvalues --   -0.81934  -0.73196  -0.73196  -0.68469  -0.66254
 Alpha  occ. eigenvalues --   -0.66254  -0.62941  -0.54559  -0.52310  -0.52310
 Alpha  occ. eigenvalues --   -0.51561  -0.51212  -0.51212  -0.44534  -0.39703
 Alpha  occ. eigenvalues --   -0.39703  -0.38584  -0.38584
 Alpha virt. eigenvalues --    0.03551   0.03551   0.03768   0.03935   0.05552
 Alpha virt. eigenvalues --    0.05552   0.05578   0.05578   0.08287   0.08593
 Alpha virt. eigenvalues --    0.08593   0.10375   0.10776   0.11679   0.11972

 Mulliken charges:
               1
     1  C    0.062087
     2  C    0.062087
     3  C    0.062087
     4  C    0.123751
     5  C    0.123751
     6  C    0.123753
     7  C    0.123753
     8  C    0.123751
     9  C    0.123751
    10  H   -0.077397
    11  H   -0.077397
    12  H   -0.077397
    13  H   -0.077397
    14  H   -0.077398
    15  H   -0.077398
    16  H   -0.077398
    17  H   -0.077398
    18  H   -0.077397
    19  H   -0.077397
    20  H   -0.077397
    21  H   -0.077397
 Sum of Mulliken charges =  -0.00000

 Dipole moment (field-independent basis, Debye):
    X=              0.0000    Y=             -0.0000    Z=              0.0000  Tot=              0.0000

 Test job not archived.
 1\1\GINC-SE183\SP\RHF\Aug-CC-pVDZ\C9H12\OHZDE\05-Apr-2025\0\\#t hf aug
 -cc-pvdz iop(5/13=1,5/36=2,99/5=2) pseudo=read geom=check guess=(read,
 tcheck) scf=(maxcycle=1)\\title\\0,1\C,0,0.,0.85177,0.\C,0,0.737655,-0
 .425885,0.\C,0,-0.737655,-0.425885,0.\C,0,1.836386,-1.060238,0.763078\
 C,0,1.836386,-1.060238,-0.763078\C,0,0.,2.120476,-0.763078\C,0,0.,2.12
 0476,0.763078\C,0,-1.836386,-1.060238,-0.763078\C,0,-1.836386,-1.06023
 8,0.763078\H,0,2.55144,-0.422252,1.266347\H,0,1.641401,-1.998486,1.266
 347\H,0,1.641401,-1.998486,-1.266347\H,0,2.55144,-0.422252,-1.266347\H

 Normal termination of Gaussian 16 at Sat Apr  5 23:18:26 2025.
