 Gaussian 16, Revision C.01,

 ----------------------------------------------------------------------
 #t hf aug-cc-pvdz symm=none int=(grid=ultrafine) guess=(read,tcheck) s
 table=(opt,rrhf)
 ----------------------------------------------------------------------
 -----
 title
 -----
 Symbolic Z-matrix:
 Charge =  0 Multiplicity = 1

 SCF Done:  E(RHF) =  -682.275027963     A.U. after   17 cycles
 Normal termination of Gaussian 16 at Sat Apr  5 23:25:28 2025.
 Gaussian 16:  ES64L-G16RevC.01  3-Jul-2019

 ----------------------------------------------------------------------
 #t hf aug-cc-pvdz iop(5/13=1,5/36=2,99/5=2) pseudo=read geom=check gue
 ss=(read,tcheck) scf=(maxcycle=1)
 ----------------------------------------------------------------------
 -----
 title
 -----
 Structure from the checkpoint file:  "tryptophan.chk"
 Charge =  0 Multiplicity = 1

                         Standard orientation:
 ---------------------------------------------------------------------
 Center     Atomic      Atomic             Coordinates (Angstroms)
 Number     Number       Type             X           Y           Z
 ---------------------------------------------------------------------
      1          7           0        2.144383    0.943689    1.387392
      2          6           0        1.971739   -0.048913    0.317057
      3          6           0        3.347538   -0.585408   -0.126533
      4          8           0        3.499669   -1.288634   -1.089817
      5          8           0        4.357944   -0.224123    0.675223
      6          1           0        3.948061    0.342244    1.365987
      7          6           0        1.161509    0.438981   -0.901876
      8          6           0       -0.257433    0.783250   -0.580119
      9          6           0       -0.805706    2.035533   -0.532908
     10          7           0       -2.138822    1.958860   -0.185729
     11          6           0       -2.481917    0.638427   -0.006198
     12          6           0       -1.318044   -0.133672   -0.246754
     13          6           0       -1.401983   -1.529651   -0.146912
     14          6           0       -2.612554   -2.107991    0.190616
     15          6           0       -3.751206   -1.320897    0.431315
     16          6           0       -3.702578    0.059180    0.334532
     17          1           0        1.461495   -0.911416    0.750748
     18          1           0        1.667652    1.311632   -1.324861
     19          1           0        1.212237   -0.340971   -1.662152
     20          1           0       -0.349483    2.989906   -0.737807
     21          1           0       -2.764965    2.739256   -0.115895
     22          1           0       -0.538307   -2.151734   -0.341881
     23          1           0       -2.688793   -3.183992    0.266850
     24          1           0       -4.683614   -1.802505    0.692328
     25          1           0       -4.582950    0.662376    0.513597
     26          1           0        2.105789    1.887369    1.020285
     27          1           0        1.416855    0.869019    2.084595
 ---------------------------------------------------------------------

 SCF Done:  E(RHF) =  -682.967901295     A.U. after    2 cycles

 The electronic state is 1-A.
 Alpha  occ. eigenvalues --  -20.58059 -20.52125 -15.55338 -15.52242 -11.37963
 Alpha  occ. eigenvalues --  -11.29621 -11.28589 -11.28083 -11.25374 -11.24806
 Alpha  occ. eigenvalues --  -11.24748 -11.24588 -11.24135 -11.24032 -11.23752
 Alpha  occ. eigenvalues --   -1.53010  -1.44210  -1.30745  -1.22160  -1.14571
 Alpha  occ. eigenvalues --   -1.09633  -1.02950  -1.01413  -0.99353  -0.91880
 Alpha  occ. eigenvalues --   -0.87056  -0.83428  -0.80764  -0.79166  -0.76019
 Alpha  occ. eigenvalues --   -0.75400  -0.71429  -0.69708  -0.68121  -0.67027
 Alpha  occ. eigenvalues --   -0.64552  -0.63029  -0.62534  -0.62190  -0.61594
 Alpha  occ. eigenvalues --   -0.60301  -0.58258  -0.56740  -0.54242  -0.54128
 Alpha  occ. eigenvalues --   -0.52072  -0.49912  -0.49213  -0.48802  -0.45545
 Alpha  occ. eigenvalues --   -0.42625  -0.40005  -0.32651  -0.30650
 Alpha virt. eigenvalues --    0.01835   0.02912   0.03319   0.03854   0.04103
 Alpha virt. eigenvalues --    0.05036   0.05835   0.06124   0.06705   0.07275
 Alpha virt. eigenvalues --    0.08015   0.08845   0.09439   0.10283   0.10597

 Mulliken charges:
               1
     1  N    0.368561
     2  C   -1.799150
     3  C    2.561811
     4  O   -1.358290
     5  O   -1.387351
     6  H    0.497321
     7  C   -0.252292
     8  C    1.373753
     9  C   -1.096988
    10  N    1.132945
    11  C   -2.211920
    12  C    0.755388
    13  C    1.168878
    14  C   -0.222144
    15  C    0.149816
    16  C    0.853827
    17  H    0.244554
    18  H    0.108230
    19  H    0.145682
    20  H   -0.368950
    21  H   -0.053443
    22  H   -0.342925
    23  H   -0.276265
    24  H   -0.256244
    25  H   -0.289123
    26  H    0.274602
    27  H    0.279716
 Sum of Mulliken charges =  -0.00000

 Dipole moment (field-independent basis, Debye):
    X=             -4.6699    Y=              4.4957    Z=              2.3360  Tot=              6.8903

 Test job not archived.
 1\1\GINC-SE182\SP\RHF\Aug-CC-pVDZ\C11H12N2O2\OHZDE\05-Apr-2025\0\\#t h
 f aug-cc-pvdz iop(5/13=1,5/36=2,99/5=2) pseudo=read geom=check guess=(
 read,tcheck) scf=(maxcycle=1)\\title\\0,1\N,0,2.144383,0.943689,1.3873
 92\C,0,1.971739,-0.048913,0.317057\C,0,3.347538,-0.585408,-0.126533\O,
 0,3.499669,-1.288634,-1.089817\O,0,4.357944,-0.224123,0.675223\H,0,3.9
 48061,0.342244,1.365987\C,0,1.161509,0.438981,-0.901876\C,0,-0.257433,
 0.78325,-0.580119\C,0,-0.805706,2.035533,-0.532908\N,0,-2.138822,1.958
 86,-0.185729\C,0,-2.481917,0.638427,-0.006198\C,0,-1.318044,-0.133672,

 Normal termination of Gaussian 16 at Sat Apr  5 23:25:59 2025.
