 Gaussian 16, Revision C.01,

 ----------------------------------------------------------------------
 #t hf aug-cc-pvdz symm=none int=(grid=ultrafine) guess=(read,tcheck) s
 table=(opt,rrhf)
 ----------------------------------------------------------------------
 -----
 title
 -----
 Symbolic Z-matrix:
 Charge =  0 Multiplicity = 1

 SCF Done:  E(RHF) =  -626.364421262     A.U. after   16 cycles
 Normal termination of Gaussian 16 at Sat Apr  5 23:21:58 2025.
 Gaussian 16:  ES64L-G16RevC.01  3-Jul-2019

 ----------------------------------------------------------------------
 #t hf aug-cc-pvdz iop(5/13=1,5/36=2,99/5=2) pseudo=read geom=check gue
 ss=(read,tcheck) scf=(maxcycle=1)
 ----------------------------------------------------------------------
 -----
 title
 -----
 Structure from the checkpoint file:  "tyrosine.chk"
 Charge =  0 Multiplicity = 1

                         Standard orientation:
 ---------------------------------------------------------------------
 Center     Atomic      Atomic             Coordinates (Angstroms)
 Number     Number       Type             X           Y           Z
 ---------------------------------------------------------------------
      1          6           0        0.892185    0.423300   -1.115386
      2          6           0        1.127635   -1.387733    0.424444
      3          6           0        2.194801    0.827052   -0.845555
      4          6           0        2.427792   -0.998183    0.705423
      5          6           0        0.332695   -0.688148   -0.487319
      6          6           0        2.965844    0.116591    0.068362
      7          6           0       -2.186401    0.883216    0.310248
      8          6           0       -1.089329   -1.109749   -0.762062
      9          6           0       -2.127374   -0.636628    0.291467
     10          7           0       -3.490056   -1.105655    0.051276
     11          8           0       -2.617114    1.551395   -0.596087
     12          8           0        4.254274    0.460267    0.375386
     13          8           0       -1.697499    1.415760    1.446528
     14          1           0        0.304511    0.985498   -1.829904
     15          1           0        0.725773   -2.261652    0.922750
     16          1           0        2.610134    1.691457   -1.350405
     17          1           0        3.037227   -1.547870    1.408931
     18          1           0       -1.411636   -0.739805   -1.736775
     19          1           0       -1.153616   -2.200087   -0.793954
     20          1           0       -1.814661   -0.977674    1.277619
     21          1           0       -3.514304   -2.114400   -0.027753
     22          1           0       -3.850384   -0.712728   -0.810813
     23          1           0        4.512609    1.239394   -0.126667
     24          1           0       -1.759650    2.379779    1.363694
 ---------------------------------------------------------------------

 SCF Done:  E(RHF) =  -626.997736199     A.U. after    2 cycles

 The electronic state is 1-A.
 Alpha  occ. eigenvalues --  -20.60325 -20.58305 -20.53991 -15.49787 -11.39418
 Alpha  occ. eigenvalues --  -11.31150 -11.28722 -11.25034 -11.25022 -11.24936
 Alpha  occ. eigenvalues --  -11.24479 -11.24465 -11.24017  -1.55099  -1.49560
 Alpha  occ. eigenvalues --   -1.45505  -1.20476  -1.16232  -1.06211  -1.02775
 Alpha  occ. eigenvalues --   -0.99113  -0.92073  -0.86241  -0.82780  -0.79769
 Alpha  occ. eigenvalues --   -0.74934  -0.74233  -0.70964  -0.69094  -0.66988
 Alpha  occ. eigenvalues --   -0.66642  -0.64288  -0.62897  -0.60978  -0.60329
 Alpha  occ. eigenvalues --   -0.59496  -0.59177  -0.57801  -0.56508  -0.53603
 Alpha  occ. eigenvalues --   -0.52641  -0.50289  -0.48942  -0.47554  -0.45017
 Alpha  occ. eigenvalues --   -0.43548  -0.35677  -0.32129
 Alpha virt. eigenvalues --    0.02806   0.03227   0.03727   0.04170   0.04790
 Alpha virt. eigenvalues --    0.05274   0.05621   0.06785   0.07690   0.08226
 Alpha virt. eigenvalues --    0.09143   0.10148   0.10370   0.10495   0.11647

 Mulliken charges:
               1
     1  C    0.136706
     2  C    0.363236
     3  C   -0.244222
     4  C    0.119854
     5  C    1.759804
     6  C    1.371382
     7  C    2.627632
     8  C   -0.640568
     9  C   -1.558604
    10  N    0.589425
    11  O   -1.364607
    12  O   -1.751833
    13  O   -1.352572
    14  H   -0.377813
    15  H   -0.395359
    16  H   -0.337423
    17  H   -0.259416
    18  H    0.094798
    19  H    0.093499
    20  H   -0.017213
    21  H    0.163796
    22  H    0.225389
    23  H    0.404733
    24  H    0.349375
 Sum of Mulliken charges =   0.00000

 Dipole moment (field-independent basis, Debye):
    X=              1.3205    Y=             -0.3198    Z=             -0.6872  Tot=              1.5226

 Test job not archived.
 1\1\GINC-SE182\SP\RHF\Aug-CC-pVDZ\C9H11N1O3\OHZDE\05-Apr-2025\0\\#t hf
  aug-cc-pvdz iop(5/13=1,5/36=2,99/5=2) pseudo=read geom=check guess=(r
 ead,tcheck) scf=(maxcycle=1)\\title\\0,1\C,0,0.892185,0.4233,-1.115386
 \C,0,1.127635,-1.387733,0.424444\C,0,2.194801,0.827052,-0.845555\C,0,2
 .427792,-0.998183,0.705423\C,0,0.332695,-0.688148,-0.487319\C,0,2.9658
 44,0.116591,0.068362\C,0,-2.186401,0.883216,0.310248\C,0,-1.089329,-1.
 109749,-0.762062\C,0,-2.127374,-0.636628,0.291467\N,0,-3.490056,-1.105
 655,0.051276\O,0,-2.617114,1.551395,-0.596087\O,0,4.254274,0.460267,0.

 Normal termination of Gaussian 16 at Sat Apr  5 23:22:18 2025.
