 Gaussian 16, Revision C.01,

 ----------------------------------------------------------------------
 #t hf aug-cc-pvdz symm=none int=(grid=ultrafine) guess=(read,tcheck) s
 table=(opt,rrhf)
 ----------------------------------------------------------------------
 -----
 title
 -----
 Symbolic Z-matrix:
 Charge =  0 Multiplicity = 1

 SCF Done:  E(RHF) =  -504.299603313     A.U. after   13 cycles
 Normal termination of Gaussian 16 at Sat Apr  5 23:23:28 2025.
 Gaussian 16:  ES64L-G16RevC.01  3-Jul-2019

 ----------------------------------------------------------------------
 #t hf aug-cc-pvdz iop(5/13=1,5/36=2,99/5=2) pseudo=read geom=check gue
 ss=(read,tcheck) scf=(maxcycle=1)
 ----------------------------------------------------------------------
 -----
 title
 -----
 Structure from the checkpoint file:  "undecan-2-one.chk"
 Charge =  0 Multiplicity = 1

                         Standard orientation:
 ---------------------------------------------------------------------
 Center     Atomic      Atomic             Coordinates (Angstroms)
 Number     Number       Type             X           Y           Z
 ---------------------------------------------------------------------
      1          6           0       -4.806157    0.164946   -0.005623
      2          6           0       -6.062810   -0.680870    0.015204
      3          6           0        6.725592   -0.280291   -0.006395
      4          6           0       -3.487345   -0.589442   -0.010665
      5          6           0        5.426775    0.524067    0.007880
      6          6           0       -2.245230    0.293358    0.007034
      7          6           0        4.172804   -0.350971   -0.004536
      8          6           0       -0.944153   -0.509724   -0.005659
      9          6           0        2.867501    0.444990    0.008804
     10          6           0        0.309146    0.366142    0.008951
     11          6           0        1.614054   -0.430731   -0.003842
     12          8           0       -4.857865    1.374419   -0.015761
     13          1           0       -6.066233   -1.383636   -0.820306
     14          1           0       -6.941478   -0.043492   -0.036220
     15          1           0       -6.097895   -1.276478    0.930151
     16          1           0        6.792162   -0.936999    0.863557
     17          1           0        6.790716   -0.908018   -0.897593
     18          1           0        7.599872    0.372101    0.003614
     19          1           0       -3.487195   -1.243242   -0.890607
     20          1           0       -3.492921   -1.273880    0.845326
     21          1           0        5.404779    1.195795   -0.855539
     22          1           0        5.406736    1.168164    0.892173
     23          1           0       -2.273858    0.968070   -0.851145
     24          1           0       -2.275701    0.936898    0.889030
     25          1           0        4.193680   -0.996496   -0.889181
     26          1           0        4.195186   -1.023399    0.859786
     27          1           0       -0.922432   -1.183317    0.857933
     28          1           0       -0.922105   -1.154301   -0.891131
     29          1           0        2.847599    1.090299    0.893334
     30          1           0        2.846263    1.117212   -0.855399
     31          1           0        0.287614    1.010598    0.893780
     32          1           0        0.287855    1.038888   -0.854540
     33          1           0        1.635068   -1.102846    0.860594
     34          1           0        1.634146   -1.076122   -0.888446
 ---------------------------------------------------------------------

 SCF Done:  E(RHF) =  -504.850035682     A.U. after    2 cycles

 The electronic state is 1-A.
 Alpha  occ. eigenvalues --  -20.53101 -11.33562 -11.24345 -11.24274 -11.22639
 Alpha  occ. eigenvalues --  -11.22613 -11.22288 -11.22254 -11.22201 -11.22102
 Alpha  occ. eigenvalues --  -11.22068 -11.21928  -1.46583  -1.10333  -1.08189
 Alpha  occ. eigenvalues --   -1.04925  -1.01682  -0.98006  -0.92699  -0.86640
 Alpha  occ. eigenvalues --   -0.81344  -0.79275  -0.78862  -0.73980  -0.67018
 Alpha  occ. eigenvalues --   -0.65780  -0.65323  -0.63133  -0.62683  -0.59913
 Alpha  occ. eigenvalues --   -0.59852  -0.58399  -0.57188  -0.56547  -0.55634
 Alpha  occ. eigenvalues --   -0.53735  -0.53247  -0.50458  -0.50336  -0.49781
 Alpha  occ. eigenvalues --   -0.48522  -0.47665  -0.47597  -0.46662  -0.46537
 Alpha  occ. eigenvalues --   -0.46340  -0.44510  -0.40378
 Alpha virt. eigenvalues --    0.02739   0.03178   0.03323   0.03750   0.04194
 Alpha virt. eigenvalues --    0.04414   0.04856   0.05556   0.06049   0.06309
 Alpha virt. eigenvalues --    0.06401   0.07803   0.08029   0.08095   0.08375

 Mulliken charges:
               1
     1  C    1.418200
     2  C   -0.608007
     3  C   -0.386183
     4  C   -0.705970
     5  C   -0.157974
     6  C   -0.020214
     7  C   -0.285516
     8  C   -0.241119
     9  C   -0.217765
    10  C   -0.236868
    11  C   -0.168274
    12  O   -1.410684
    13  H    0.248109
    14  H    0.138306
    15  H    0.254930
    16  H    0.158474
    17  H    0.158445
    18  H    0.109661
    19  H    0.227902
    20  H    0.224717
    21  H    0.111990
    22  H    0.111767
    23  H    0.122166
    24  H    0.116880
    25  H    0.103689
    26  H    0.103412
    27  H    0.101196
    28  H    0.102771
    29  H    0.105686
    30  H    0.105575
    31  H    0.100740
    32  H    0.100618
    33  H    0.106970
    34  H    0.106369
 Sum of Mulliken charges =  -0.00000

 Dipole moment (field-independent basis, Debye):
    X=              0.3285    Y=             -2.9044    Z=              0.0307  Tot=              2.9231

 Test job not archived.
 1\1\GINC-SE188\SP\RHF\Aug-CC-pVDZ\C11H22O1\OHZDE\05-Apr-2025\0\\#t hf
 aug-cc-pvdz iop(5/13=1,5/36=2,99/5=2) pseudo=read geom=check guess=(re
 ad,tcheck) scf=(maxcycle=1)\\title\\0,1\C,0,-4.806157,0.164946,-0.0056
 23\C,0,-6.06281,-0.68087,0.015204\C,0,6.725592,-0.280291,-0.006395\C,0
 ,-3.487345,-0.589442,-0.010665\C,0,5.426775,0.524067,0.00788\C,0,-2.24
 523,0.293358,0.007034\C,0,4.172804,-0.350971,-0.004536\C,0,-0.944153,-
 0.509724,-0.005659\C,0,2.867501,0.44499,0.008804\C,0,0.309146,0.366142
 ,0.008951\C,0,1.614054,-0.430731,-0.003842\O,0,-4.857865,1.374419,-0.0

 Normal termination of Gaussian 16 at Sat Apr  5 23:24:12 2025.
