 Gaussian 16, Revision C.01,

 ----------------------------------------------------------------------
 #t hf aug-cc-pvdz symm=none int=(grid=ultrafine) guess=(read,tcheck) s
 table=(opt,rrhf)
 ----------------------------------------------------------------------
 -----
 title
 -----
 Symbolic Z-matrix:
 Charge =  0 Multiplicity = 1

 SCF Done:  E(RHF) =  -412.513384412     A.U. after   14 cycles
 Normal termination of Gaussian 16 at Sat Apr  5 23:17:04 2025.
 Gaussian 16:  ES64L-G16RevC.01  3-Jul-2019

 ----------------------------------------------------------------------
 #t hf aug-cc-pvdz iop(5/13=1,5/36=2,99/5=2) pseudo=read geom=check gue
 ss=(read,tcheck) scf=(maxcycle=1)
 ----------------------------------------------------------------------
 -----
 title
 -----
 Structure from the checkpoint file:  "uracil.chk"
 Charge =  0 Multiplicity = 1

                         Standard orientation:
 ---------------------------------------------------------------------
 Center     Atomic      Atomic             Coordinates (Angstroms)
 Number     Number       Type             X           Y           Z
 ---------------------------------------------------------------------
      1          6           0       -1.137324    0.318072    0.000000
      2          8           0       -2.279401    1.022074    0.000000
      3          6           0       -1.190713   -1.078014    0.000000
      4          6           0        0.031924   -1.715471    0.000000
      5          7           0        1.199468   -1.061094    0.000000
      6          6           0        1.110451    0.264069    0.000000
      7          8           0        2.256714    0.960746    0.000000
      8          7           0        0.000000    0.995036    0.000000
      9          1           0       -2.038605    1.959714    0.000000
     10          1           0       -2.128722   -1.608922    0.000000
     11          1           0        0.091249   -2.797105    0.000000
     12          1           0        2.975267    0.314212    0.000000
 ---------------------------------------------------------------------

 SCF Done:  E(RHF) =  -412.924079340     A.U. after    2 cycles

 The electronic state is 1-A'.
 Alpha  occ. eigenvalues --  -20.60668 -20.59704 -15.51122 -15.50700 -11.39152
 Alpha  occ. eigenvalues --  -11.37747 -11.31520 -11.24675  -1.53654  -1.52695
 Alpha  occ. eigenvalues --   -1.31137  -1.21396  -1.07861  -0.93297  -0.92485
 Alpha  occ. eigenvalues --   -0.81558  -0.77047  -0.71964  -0.67931  -0.66950
 Alpha  occ. eigenvalues --   -0.64827  -0.60438  -0.60093  -0.59484  -0.53628
 Alpha  occ. eigenvalues --   -0.52391  -0.47295  -0.45728  -0.37264
 Alpha virt. eigenvalues --    0.03337   0.04268   0.04694   0.04961   0.07815
 Alpha virt. eigenvalues --    0.09720   0.10052   0.10255   0.10782   0.12436
 Alpha virt. eigenvalues --    0.12581   0.12741   0.13520   0.13995   0.14771

 Mulliken charges:
               1
     1  C    0.519039
     2  O   -1.519020
     3  C    0.908358
     4  C   -0.649925
     5  N    0.626293
     6  C    0.166485
     7  O   -1.400363
     8  N    0.892098
     9  H    0.402049
    10  H   -0.170320
    11  H   -0.133940
    12  H    0.359246
 Sum of Mulliken charges =  -0.00000

 Dipole moment (field-independent basis, Debye):
    X=             -0.8723    Y=             -1.2796    Z=              0.0000  Tot=              1.5486

 Test job not archived.
 1\1\GINC-SE187\SP\RHF\Aug-CC-pVDZ\C4H4N2O2\OHZDE\05-Apr-2025\0\\#t hf
 aug-cc-pvdz iop(5/13=1,5/36=2,99/5=2) pseudo=read geom=check guess=(re
 ad,tcheck) scf=(maxcycle=1)\\title\\0,1\C,0,-1.137324,0.318072,0.\O,0,
 -2.279401,1.022074,0.\C,0,-1.190713,-1.078014,0.\C,0,0.031924,-1.71547
 1,0.\N,0,1.199468,-1.061094,0.\C,0,1.110451,0.264069,0.\O,0,2.256714,0
 .960746,0.\N,0,0.,0.995036,0.\H,0,-2.038605,1.959714,0.\H,0,-2.128722,
 -1.608922,0.\H,0,0.091249,-2.797105,0.\H,0,2.975267,0.314212,0.\\Versi
 on=ES64L-G16RevC.01\State=1-A'\HF=-412.9240793\RMSD=2.785e-02\Dipole=-

 Normal termination of Gaussian 16 at Sat Apr  5 23:17:12 2025.
