 Gaussian 16, Revision C.01,

 ----------------------------------------------------------------------
 #t hf aug-cc-pvdz symm=none int=(grid=ultrafine) guess=(read,tcheck) s
 table=(opt,rrhf)
 ----------------------------------------------------------------------
 -----
 title
 -----
 Symbolic Z-matrix:
 Charge =  0 Multiplicity = 1

 SCF Done:  E(RHF) =  -224.031156099     A.U. after   12 cycles
 Normal termination of Gaussian 16 at Sat Apr  5 23:16:49 2025.
 Gaussian 16:  ES64L-G16RevC.01  3-Jul-2019

 ----------------------------------------------------------------------
 #t hf aug-cc-pvdz iop(5/13=1,5/36=2,99/5=2) pseudo=read geom=check gue
 ss=(read,tcheck) scf=(maxcycle=1)
 ----------------------------------------------------------------------
 -----
 title
 -----
 Structure from the checkpoint file:  "urea.chk"
 Charge =  0 Multiplicity = 1

                         Standard orientation:
 ---------------------------------------------------------------------
 Center     Atomic      Atomic             Coordinates (Angstroms)
 Number     Number       Type             X           Y           Z
 ---------------------------------------------------------------------
      1          6           0       -0.000000   -0.000000    0.141895
      2          8           0       -0.000000   -0.000000    1.357923
      3          7           0        0.000000    1.161700   -0.607409
      4          7           0       -0.000000   -1.161700   -0.607409
      5          1           0        0.198783    1.990644   -0.072919
      6          1           0        0.395193    1.143037   -1.532593
      7          1           0       -0.198783   -1.990644   -0.072919
      8          1           0       -0.395193   -1.143037   -1.532593
 ---------------------------------------------------------------------

 SCF Done:  E(RHF) =  -224.258619073     A.U. after    2 cycles

 The electronic state is 1-A.
 Alpha  occ. eigenvalues --  -20.50291 -15.52705 -15.52593 -11.38718  -1.46290
 Alpha  occ. eigenvalues --   -1.25009  -1.18637  -0.86290  -0.77974  -0.76292
 Alpha  occ. eigenvalues --   -0.68140  -0.62553  -0.62001  -0.48340  -0.44736
 Alpha  occ. eigenvalues --   -0.43245
 Alpha virt. eigenvalues --    0.02415   0.04513   0.05696   0.06439   0.10902
 Alpha virt. eigenvalues --    0.11691   0.12753   0.14381   0.15723   0.16751
 Alpha virt. eigenvalues --    0.16775   0.18489   0.19901   0.20027   0.22229

 Mulliken charges:
               1
     1  C    0.034130
     2  O   -1.121228
     3  N    0.313231
     4  N    0.313231
     5  H    0.183337
     6  H    0.046981
     7  H    0.183337
     8  H    0.046981
 Sum of Mulliken charges =   0.00000

 Dipole moment (field-independent basis, Debye):
    X=             -0.0000    Y=              0.0000    Z=             -3.8761  Tot=              3.8761

 Test job not archived.
 1\1\GINC-SE187\SP\RHF\Aug-CC-pVDZ\C1H4N2O1\OHZDE\05-Apr-2025\0\\#t hf
 aug-cc-pvdz iop(5/13=1,5/36=2,99/5=2) pseudo=read geom=check guess=(re
 ad,tcheck) scf=(maxcycle=1)\\title\\0,1\C,0,0.,0.,0.141895\O,0,0.,0.,1
 .357923\N,0,0.,1.1617,-0.607409\N,0,0.,-1.1617,-0.607409\H,0,0.198783,
 1.990644,-0.072919\H,0,0.395193,1.143037,-1.532593\H,0,-0.198783,-1.99
 0644,-0.072919\H,0,-0.395193,-1.143037,-1.532593\\Version=ES64L-G16Rev
 C.01\State=1-A\HF=-224.2586191\RMSD=1.655e-02\Dipole=0.,0.,-1.5249722\
 Quadrupole=-2.0585279,3.8520452,-1.7935173,2.3873571,0.,0.\PG=C02 [C2(

 Normal termination of Gaussian 16 at Sat Apr  5 23:16:52 2025.
