 Gaussian 16, Revision C.01,

 ----------------------------------------------------------------------
 #t hf aug-cc-pvdz symm=none int=(grid=ultrafine) guess=(read,tcheck) s
 table=(opt,rrhf)
 ----------------------------------------------------------------------
 -----
 title
 -----
 Symbolic Z-matrix:
 Charge =  0 Multiplicity = 1

 SCF Done:  E(RHF) =  -321.922520356     A.U. after   13 cycles
 Normal termination of Gaussian 16 at Sat Apr  5 23:17:06 2025.
 Gaussian 16:  ES64L-G16RevC.01  3-Jul-2019

 ----------------------------------------------------------------------
 #t hf aug-cc-pvdz iop(5/13=1,5/36=2,99/5=2) pseudo=read geom=check gue
 ss=(read,tcheck) scf=(maxcycle=1)
 ----------------------------------------------------------------------
 -----
 title
 -----
 Structure from the checkpoint file:  "urethane.chk"
 Charge =  0 Multiplicity = 1

                         Standard orientation:
 ---------------------------------------------------------------------
 Center     Atomic      Atomic             Coordinates (Angstroms)
 Number     Number       Type             X           Y           Z
 ---------------------------------------------------------------------
      1          6           0        2.562959   -0.246263    0.024431
      2          1           0        2.684739   -0.856591   -0.869433
      3          1           0        3.378057    0.477039    0.064926
      4          1           0        2.630633   -0.894805    0.896772
      5          6           0        1.233789    0.476855    0.001020
      6          1           0        1.104781    1.083961    0.900241
      7          1           0        1.171235    1.127632   -0.877417
      8          8           0        0.198136   -0.516463   -0.060443
      9          7           0       -1.408351    1.154815    0.055718
     10          1           0       -0.750537    1.856650   -0.229457
     11          1           0       -2.382975    1.377652   -0.044925
     12          6           0       -1.116122   -0.185256   -0.006501
     13          8           0       -1.955791   -1.049445    0.017389
 ---------------------------------------------------------------------

 SCF Done:  E(RHF) =  -322.251437644     A.U. after    2 cycles

 The electronic state is 1-A.
 Alpha  occ. eigenvalues --  -20.58674 -20.50743 -15.53743 -11.41160 -11.31638
 Alpha  occ. eigenvalues --  -11.24428  -1.53758  -1.44269  -1.22880  -1.05499
 Alpha  occ. eigenvalues --   -0.89070  -0.84746  -0.79207  -0.72821  -0.69994
 Alpha  occ. eigenvalues --   -0.64054  -0.61670  -0.58812  -0.56839  -0.54087
 Alpha  occ. eigenvalues --   -0.51977  -0.48521  -0.44541  -0.43354
 Alpha virt. eigenvalues --    0.02405   0.03602   0.04197   0.04788   0.06363
 Alpha virt. eigenvalues --    0.07160   0.07576   0.10957   0.11487   0.12068
 Alpha virt. eigenvalues --    0.12833   0.12964   0.15656   0.15796   0.16091

 Mulliken charges:
               1
     1  C   -0.655072
     2  H    0.183676
     3  H    0.166037
     4  H    0.189601
     5  C    0.537452
     6  H    0.105295
     7  H    0.041006
     8  O   -1.299425
     9  N    0.504377
    10  H    0.070822
    11  H    0.102569
    12  C    1.210642
    13  O   -1.156980
 Sum of Mulliken charges =  -0.00000

 Dipole moment (field-independent basis, Debye):
    X=              2.8112    Y=              4.5286    Z=             -0.5433  Tot=              5.3578

 Test job not archived.
 1\1\GINC-SE232\SP\RHF\Aug-CC-pVDZ\C3H7N1O2\OHZDE\05-Apr-2025\0\\#t hf
 aug-cc-pvdz iop(5/13=1,5/36=2,99/5=2) pseudo=read geom=check guess=(re
 ad,tcheck) scf=(maxcycle=1)\\title\\0,1\C,0,2.562959,-0.246263,0.02443
 1\H,0,2.684739,-0.856591,-0.869433\H,0,3.378057,0.477039,0.064926\H,0,
 2.630633,-0.894805,0.896772\C,0,1.233789,0.476855,0.00102\H,0,1.104781
 ,1.083961,0.900241\H,0,1.171235,1.127632,-0.877417\O,0,0.198136,-0.516
 463,-0.060443\N,0,-1.408351,1.154815,0.055718\H,0,-0.750537,1.85665,-0
 .229457\H,0,-2.382975,1.377652,-0.044925\C,0,-1.116122,-0.185256,-0.00

 Normal termination of Gaussian 16 at Sat Apr  5 23:17:11 2025.
