 Gaussian 16, Revision C.01,

 ----------------------------------------------------------------------
 #t hf aug-cc-pvdz symm=none int=(grid=ultrafine) guess=(read,tcheck) s
 table=(opt,rrhf)
 ----------------------------------------------------------------------
 -----
 title
 -----
 Symbolic Z-matrix:
 Charge =  0 Multiplicity = 1

 SCF Done:  E(RHF) =  -399.994186036     A.U. after   14 cycles
 Normal termination of Gaussian 16 at Sat Apr  5 23:18:04 2025.
 Gaussian 16:  ES64L-G16RevC.01  3-Jul-2019

 ----------------------------------------------------------------------
 #t hf aug-cc-pvdz iop(5/13=1,5/36=2,99/5=2) pseudo=read geom=check gue
 ss=(read,tcheck) scf=(maxcycle=1)
 ----------------------------------------------------------------------
 -----
 title
 -----
 Structure from the checkpoint file:  "valine.chk"
 Charge =  0 Multiplicity = 1

                         Standard orientation:
 ---------------------------------------------------------------------
 Center     Atomic      Atomic             Coordinates (Angstroms)
 Number     Number       Type             X           Y           Z
 ---------------------------------------------------------------------
      1          7           0       -0.204180    1.865921   -0.165122
      2          6           0       -0.044385    0.433011   -0.462275
      3          6           0       -1.370928   -0.271392   -0.129443
      4          8           0       -1.723843   -1.301180   -0.637826
      5          8           0       -2.103030    0.357938    0.804964
      6          1           0       -1.646282    1.209604    0.969437
      7          6           0        1.128185   -0.162775    0.360267
      8          6           0        2.465222    0.464609   -0.056758
      9          6           0        1.217327   -1.687377    0.244479
     10          1           0        0.147500    0.235377   -1.520887
     11          1           0        0.941461    0.092091    1.408810
     12          1           0        3.277525    0.032580    0.528053
     13          1           0        2.673618    0.266976   -1.110595
     14          1           0        2.508562    1.543790    0.096919
     15          1           0        0.318428   -2.184121    0.600700
     16          1           0        1.371984   -1.994000   -0.791577
     17          1           0        2.062337   -2.049689    0.830873
     18          1           0        0.683380    2.321499   -0.008696
     19          1           0       -0.666802    2.353922   -0.921910
 ---------------------------------------------------------------------

 SCF Done:  E(RHF) =  -400.410218375     A.U. after    2 cycles

 The electronic state is 1-A.
 Alpha  occ. eigenvalues --  -20.58319 -20.52359 -15.52369 -11.38068 -11.29451
 Alpha  occ. eigenvalues --  -11.26057 -11.24409 -11.22739  -1.53169  -1.44408
 Alpha  occ. eigenvalues --   -1.22362  -1.09175  -0.97296  -0.94255  -0.82899
 Alpha  occ. eigenvalues --   -0.80343  -0.73970  -0.72051  -0.70015  -0.64441
 Alpha  occ. eigenvalues --   -0.63336  -0.61785  -0.59916  -0.57286  -0.55698
 Alpha  occ. eigenvalues --   -0.54505  -0.51230  -0.50472  -0.49780  -0.47784
 Alpha  occ. eigenvalues --   -0.45476  -0.42320
 Alpha virt. eigenvalues --    0.02435   0.03364   0.03787   0.04588   0.05738
 Alpha virt. eigenvalues --    0.05994   0.06382   0.07206   0.07398   0.09060
 Alpha virt. eigenvalues --    0.09657   0.11472   0.12060   0.13062   0.13676

 Mulliken charges:
               1
     1  N    0.446425
     2  C   -1.541329
     3  C    2.698049
     4  O   -1.351849
     5  O   -1.382321
     6  H    0.529706
     7  C   -1.179055
     8  C    0.017870
     9  C    0.036415
    10  H    0.087911
    11  H    0.141105
    12  H    0.171369
    13  H    0.223599
    14  H    0.085574
    15  H    0.175466
    16  H    0.237231
    17  H    0.144884
    18  H    0.192205
    19  H    0.266748
 Sum of Mulliken charges =  -0.00000

 Dipole moment (field-independent basis, Debye):
    X=              3.9612    Y=              3.5450    Z=             -0.2545  Tot=              5.3220

 Test job not archived.
 1\1\GINC-SE231\SP\RHF\Aug-CC-pVDZ\C5H11N1O2\OHZDE\05-Apr-2025\0\\#t hf
  aug-cc-pvdz iop(5/13=1,5/36=2,99/5=2) pseudo=read geom=check guess=(r
 ead,tcheck) scf=(maxcycle=1)\\title\\0,1\N,0,-0.20418,1.865921,-0.1651
 22\C,0,-0.044385,0.433011,-0.462275\C,0,-1.370928,-0.271392,-0.129443\
 O,0,-1.723843,-1.30118,-0.637826\O,0,-2.10303,0.357938,0.804964\H,0,-1
 .646282,1.209604,0.969437\C,0,1.128185,-0.162775,0.360267\C,0,2.465222
 ,0.464609,-0.056758\C,0,1.217327,-1.687377,0.244479\H,0,0.1475,0.23537
 7,-1.520887\H,0,0.941461,0.092091,1.40881\H,0,3.277525,0.03258,0.52805

 Normal termination of Gaussian 16 at Sat Apr  5 23:18:13 2025.
