 Gaussian 16, Revision C.01,

 ----------------------------------------------------------------------
 #t hf aug-cc-pvdz symm=none int=(grid=ultrafine) guess=(read,tcheck) s
 table=(opt,rrhf)
 ----------------------------------------------------------------------
 -----
 title
 -----
 Symbolic Z-matrix:
 Charge =  0 Multiplicity = 1

 SCF Done:  E(RHF) =  -854.805087485     A.U. after   16 cycles
 Normal termination of Gaussian 16 at Sat Apr  5 23:19:29 2025.
 Gaussian 16:  ES64L-G16RevC.01  3-Jul-2019

 ----------------------------------------------------------------------
 #t hf aug-cc-pvdz iop(5/13=1,5/36=2,99/5=2) pseudo=read geom=check gue
 ss=(read,tcheck) scf=(maxcycle=1)
 ----------------------------------------------------------------------
 -----
 title
 -----
 Structure from the checkpoint file:  "vinylsulfonylbenzene.chk"
 Charge =  0 Multiplicity = 1

                         Standard orientation:
 ---------------------------------------------------------------------
 Center     Atomic      Atomic             Coordinates (Angstroms)
 Number     Number       Type             X           Y           Z
 ---------------------------------------------------------------------
      1          6           0       -2.760426   -1.207325    1.207306
      2          6           0       -1.942526   -0.170313    1.165936
      3         16           0       -1.209568    0.357864   -0.377660
      4          8           0       -1.661482   -0.546197   -1.429486
      5          8           0       -1.432644    1.796435   -0.478409
      6          6           0        0.549958    0.093229   -0.128571
      7          6           0        1.327317    1.134136    0.365938
      8          6           0        2.688495    0.926492    0.555460
      9          6           0        3.254893   -0.306208    0.249360
     10          6           0        2.466154   -1.336958   -0.253252
     11          6           0        1.104750   -1.142081   -0.445145
     12          1           0       -2.971203   -1.781796    0.315349
     13          1           0       -3.245923   -1.496562    2.129835
     14          1           0       -1.694653    0.461090    2.008205
     15          1           0        0.872163    2.091493    0.574475
     16          1           0        3.306169    1.729235    0.933931
     17          1           0        4.315074   -0.462595    0.395508
     18          1           0        2.912325   -2.289975   -0.502003
     19          1           0        0.480456   -1.924459   -0.851784
 ---------------------------------------------------------------------

 SCF Done:  E(RHF) =  -855.330661433     A.U. after    2 cycles

 The electronic state is 1-A.
 Alpha  occ. eigenvalues --  -94.19261 -20.53333 -20.53116 -11.28789 -11.28534
 Alpha  occ. eigenvalues --  -11.28222 -11.27328 -11.27312 -11.27046 -11.26470
 Alpha  occ. eigenvalues --  -11.26451  -8.44484  -6.42609  -6.42401  -6.42324
 Alpha  occ. eigenvalues --   -1.54478  -1.42823  -1.18871  -1.10786  -1.06190
 Alpha  occ. eigenvalues --   -1.04588  -0.95208  -0.86507  -0.85722  -0.79676
 Alpha  occ. eigenvalues --   -0.74998  -0.71171  -0.68069  -0.67752  -0.66708
 Alpha  occ. eigenvalues --   -0.64960  -0.62831  -0.62423  -0.58254  -0.55658
 Alpha  occ. eigenvalues --   -0.54253  -0.53341  -0.49052  -0.48797  -0.46150
 Alpha  occ. eigenvalues --   -0.43999  -0.42989  -0.37575  -0.37042
 Alpha virt. eigenvalues --    0.02804   0.03098   0.03305   0.04462   0.04821
 Alpha virt. eigenvalues --    0.05799   0.06543   0.06895   0.07647   0.08707
 Alpha virt. eigenvalues --    0.09483   0.09598   0.11048   0.11558   0.12729

 Mulliken charges:
               1
     1  C   -0.020409
     2  C   -0.123069
     3  S    4.358602
     4  O   -1.736986
     5  O   -1.704763
     6  C    0.703162
     7  C   -0.514541
     8  C    0.485283
     9  C   -0.018012
    10  C    0.415514
    11  C   -0.393321
    12  H   -0.042506
    13  H   -0.035327
    14  H   -0.185884
    15  H   -0.271808
    16  H   -0.216597
    17  H   -0.211464
    18  H   -0.217617
    19  H   -0.270259
 Sum of Mulliken charges =  -0.00000

 Dipole moment (field-independent basis, Debye):
    X=              2.8154    Y=             -2.4743    Z=              3.9933  Tot=              5.4768

 Test job not archived.
 1\1\GINC-SE042\SP\RHF\Aug-CC-pVDZ\C8H8O2S1\OHZDE\05-Apr-2025\0\\#t hf
 aug-cc-pvdz iop(5/13=1,5/36=2,99/5=2) pseudo=read geom=check guess=(re
 ad,tcheck) scf=(maxcycle=1)\\title\\0,1\C,0,-2.760426,-1.207325,1.2073
 06\C,0,-1.942526,-0.170313,1.165936\S,0,-1.209568,0.357864,-0.37766\O,
 0,-1.661482,-0.546197,-1.429486\O,0,-1.432644,1.796435,-0.478409\C,0,0
 .549958,0.093229,-0.128571\C,0,1.327317,1.134136,0.365938\C,0,2.688495
 ,0.926492,0.55546\C,0,3.254893,-0.306208,0.24936\C,0,2.466154,-1.33695
 8,-0.253252\C,0,1.10475,-1.142081,-0.445145\H,0,-2.971203,-1.781796,0.

 Normal termination of Gaussian 16 at Sat Apr  5 23:19:43 2025.
