 Gaussian 16, Revision C.01,

 ----------------------------------------------------------------------
 #t hf aug-cc-pvdz symm=none int=(grid=ultrafine) guess=(read,tcheck) s
 table=(opt,rrhf)
 ----------------------------------------------------------------------
 -----
 title
 -----
 Symbolic Z-matrix:
 Charge =  0 Multiplicity = 1

 SCF Done:  E(RHF) =  -229.794607548     A.U. after   13 cycles
 Normal termination of Gaussian 16 at Sat Apr  5 23:17:25 2025.
 Gaussian 16:  ES64L-G16RevC.01  3-Jul-2019

 ----------------------------------------------------------------------
 #t hf aug-cc-pvdz iop(5/13=1,5/36=2,99/5=2) pseudo=read geom=check gue
 ss=(read,tcheck) scf=(maxcycle=1)
 ----------------------------------------------------------------------
 -----
 title
 -----
 Structure from the checkpoint file:  "vinyl_ether.chk"
 Charge =  0 Multiplicity = 1

                         Standard orientation:
 ---------------------------------------------------------------------
 Center     Atomic      Atomic             Coordinates (Angstroms)
 Number     Number       Type             X           Y           Z
 ---------------------------------------------------------------------
      1          8           0        0.000000   -0.000000    0.327847
      2          6           0        0.000000    1.173022   -0.371331
      3          6           0       -0.000000   -1.173022   -0.371331
      4          6           0        0.000000    2.350479    0.235228
      5          6           0       -0.000000   -2.350479    0.235228
      6          1           0        0.000000    1.065115   -1.450457
      7          1           0       -0.000000   -1.065115   -1.450457
      8          1           0        0.000000    3.252035   -0.356369
      9          1           0        0.000000    2.435055    1.312056
     10          1           0       -0.000000   -3.252035   -0.356369
     11          1           0       -0.000000   -2.435055    1.312056
 ---------------------------------------------------------------------

 SCF Done:  E(RHF) =  -230.032697934     A.U. after    2 cycles

 The electronic state is 1-A1.
 Alpha  occ. eigenvalues --  -20.59196 -11.31247 -11.31197 -11.23071 -11.23061
 Alpha  occ. eigenvalues --   -1.52588  -1.07605  -1.01038  -0.83037  -0.81852
 Alpha  occ. eigenvalues --   -0.71596  -0.66936  -0.61930  -0.60259  -0.59433
 Alpha  occ. eigenvalues --   -0.55092  -0.51684  -0.40580  -0.33286
 Alpha virt. eigenvalues --    0.03584   0.04080   0.04433   0.05872   0.06113
 Alpha virt. eigenvalues --    0.08482   0.09933   0.10731   0.11149   0.11569
 Alpha virt. eigenvalues --    0.13889   0.14913   0.15434   0.16279   0.17459

 Mulliken charges:
               1
     1  O   -1.508771
     2  C    1.041163
     3  C    1.041163
     4  C    0.018880
     5  C    0.018880
     6  H   -0.118746
     7  H   -0.118746
     8  H   -0.060504
     9  H   -0.126407
    10  H   -0.060504
    11  H   -0.126407
 Sum of Mulliken charges =  -0.00000

 Dipole moment (field-independent basis, Debye):
    X=             -0.0000    Y=             -0.0000    Z=             -1.3196  Tot=              1.3196

 Test job not archived.
 1\1\GINC-SE036\SP\RHF\Aug-CC-pVDZ\C4H6O1\OHZDE\05-Apr-2025\0\\#t hf au
 g-cc-pvdz iop(5/13=1,5/36=2,99/5=2) pseudo=read geom=check guess=(read
 ,tcheck) scf=(maxcycle=1)\\title\\0,1\O,0,0.,0.,0.327847\C,0,0.,1.1730
 22,-0.371331\C,0,0.,-1.173022,-0.371331\C,0,0.,2.350479,0.235228\C,0,0
 .,-2.350479,0.235228\H,0,0.,1.065115,-1.450457\H,0,0.,-1.065115,-1.450
 457\H,0,0.,3.252035,-0.356369\H,0,0.,2.435055,1.312056\H,0,0.,-3.25203
 5,-0.356369\H,0,0.,-2.435055,1.312056\\Version=ES64L-G16RevC.01\State=
 1-A1\HF=-230.0326979\RMSD=1.607e-02\Dipole=0.,0.,-0.5191652\Quadrupole

 Normal termination of Gaussian 16 at Sat Apr  5 23:17:29 2025.
