 Gaussian 16, Revision C.01,

 ----------------------------------------------------------------------
 #t hf aug-cc-pvdz symm=none int=(grid=ultrafine) guess=(read,tcheck) s
 table=(opt,rrhf)
 ----------------------------------------------------------------------
 -----
 title
 -----
 Symbolic Z-matrix:
 Charge =  0 Multiplicity = 1

 SCF Done:  E(RHF) =  -304.710222036     A.U. after   14 cycles
 Normal termination of Gaussian 16 at Sat Apr  5 23:17:27 2025.
 Gaussian 16:  ES64L-G16RevC.01  3-Jul-2019

 ----------------------------------------------------------------------
 #t hf aug-cc-pvdz iop(5/13=1,5/36=2,99/5=2) pseudo=read geom=check gue
 ss=(read,tcheck) scf=(maxcycle=1)
 ----------------------------------------------------------------------
 -----
 title
 -----
 Structure from the checkpoint file:  "vinyl_acetate.chk"
 Charge =  0 Multiplicity = 1

                         Standard orientation:
 ---------------------------------------------------------------------
 Center     Atomic      Atomic             Coordinates (Angstroms)
 Number     Number       Type             X           Y           Z
 ---------------------------------------------------------------------
      1          6           0       -1.357401    1.261636   -0.000015
      2          6           0       -1.021256   -0.208745    0.000007
      3          8           0        0.300018   -0.575884   -0.000304
      4          6           0        1.343345    0.319637    0.000014
      5          6           0        2.594789   -0.109974    0.000104
      6          8           0       -1.841186   -1.081285    0.000173
      7          1           0       -0.954127    1.760057    0.881924
      8          1           0       -0.953586    1.760128   -0.881661
      9          1           0       -2.438358    1.353144   -0.000324
     10          1           0        1.083879    1.367562    0.000051
     11          1           0        2.832057   -1.163725    0.000004
     12          1           0        3.402610    0.604869    0.000394
 ---------------------------------------------------------------------

 SCF Done:  E(RHF) =  -305.018572461     A.U. after    2 cycles

 The electronic state is 1-A.
 Alpha  occ. eigenvalues --  -20.60724 -20.54109 -11.40471 -11.32285 -11.27055
 Alpha  occ. eigenvalues --  -11.24506  -1.55913  -1.46740  -1.06620  -1.03798
 Alpha  occ. eigenvalues --   -0.86903  -0.79463  -0.72513  -0.68454  -0.66977
 Alpha  occ. eigenvalues --   -0.62884  -0.61330  -0.59080  -0.57456  -0.53267
 Alpha  occ. eigenvalues --   -0.50388  -0.45109  -0.37295
 Alpha virt. eigenvalues --    0.02858   0.03737   0.04652   0.04861   0.05978
 Alpha virt. eigenvalues --    0.08384   0.08997   0.09574   0.12065   0.12129
 Alpha virt. eigenvalues --    0.12547   0.13600   0.13955   0.15035   0.15790

 Mulliken charges:
               1
     1  C   -0.488791
     2  C    1.766231
     3  O   -1.481230
     4  C    1.211223
     5  C   -0.132504
     6  O   -1.220528
     7  H    0.314708
     8  H    0.314585
     9  H   -0.004004
    10  H   -0.114299
    11  H   -0.117739
    12  H   -0.047652
 Sum of Mulliken charges =  -0.00000

 Dipole moment (field-independent basis, Debye):
    X=              1.6290    Y=              3.8728    Z=              0.0001  Tot=              4.2015

 Test job not archived.
 1\1\GINC-SE025\SP\RHF\Aug-CC-pVDZ\C4H6O2\OHZDE\05-Apr-2025\0\\#t hf au
 g-cc-pvdz iop(5/13=1,5/36=2,99/5=2) pseudo=read geom=check guess=(read
 ,tcheck) scf=(maxcycle=1)\\title\\0,1\C,0,-1.357401,1.261636,-0.000015
 \C,0,-1.021256,-0.208745,0.000007\O,0,0.300018,-0.575884,-0.000304\C,0
 ,1.343345,0.319637,0.000014\C,0,2.594789,-0.109974,0.000104\O,0,-1.841
 186,-1.081285,0.000173\H,0,-0.954127,1.760057,0.881924\H,0,-0.953586,1
 .760128,-0.881661\H,0,-2.438358,1.353144,-0.000324\H,0,1.083879,1.3675
 62,0.000051\H,0,2.832057,-1.163725,0.000004\H,0,3.40261,0.604869,0.000

 Normal termination of Gaussian 16 at Sat Apr  5 23:17:31 2025.
