 Gaussian 16, Revision C.01,

 ----------------------------------------------------------------------
 #t hf aug-cc-pvdz symm=none int=(grid=ultrafine) guess=(read,tcheck) s
 table=(opt,rrhf)
 ----------------------------------------------------------------------
 -----
 title
 -----
 Symbolic Z-matrix:
 Charge =  0 Multiplicity = 1

 SCF Done:  E(RHF) =  -413.686810378     A.U. after   13 cycles
 Normal termination of Gaussian 16 at Sat Apr  5 22:54:44 2025.
 Gaussian 16:  ES64L-G16RevC.01  3-Jul-2019

 ----------------------------------------------------------------------
 #t hf aug-cc-pvdz iop(5/13=1,5/36=2,99/5=2) pseudo=read geom=check gue
 ss=(read,tcheck) scf=(maxcycle=1)
 ----------------------------------------------------------------------
 -----
 title
 -----
 Structure from the checkpoint file:  "Z-1-3-3-trifluoropropene.chk"
 Charge =  0 Multiplicity = 1

                         Standard orientation:
 ---------------------------------------------------------------------
 Center     Atomic      Atomic             Coordinates (Angstroms)
 Number     Number       Type             X           Y           Z
 ---------------------------------------------------------------------
      1          6           0       -0.795540   -1.498083    0.000000
      2          9           0        0.356729   -2.191946    0.000000
      3          1           0       -1.660114   -2.146002    0.000000
      4          6           0       -0.829762   -0.177917   -0.000000
      5          1           0       -1.791395    0.315467   -0.000000
      6          6           0        0.375366    0.693448   -0.000000
      7          1           0        1.319452    0.152643    0.000000
      8          9           0        0.356729    1.516706    1.098964
      9          9           0        0.356729    1.516706   -1.098964
 ---------------------------------------------------------------------

 SCF Done:  E(RHF) =  -414.076819615     A.U. after    2 cycles

 The electronic state is 1-A'.
 Alpha  occ. eigenvalues --  -26.50254 -26.47752 -26.47750 -11.43015 -11.36819
 Alpha  occ. eigenvalues --  -11.27304  -1.64139  -1.63244  -1.57263  -1.10923
 Alpha  occ. eigenvalues --   -0.96210  -0.85019  -0.79037  -0.76002  -0.74047
 Alpha  occ. eigenvalues --   -0.73638  -0.69364  -0.64963  -0.63962  -0.61575
 Alpha  occ. eigenvalues --   -0.60084  -0.59152  -0.52928  -0.41932
 Alpha virt. eigenvalues --    0.03081   0.04634   0.04914   0.09417   0.09657
 Alpha virt. eigenvalues --    0.09796   0.10524   0.13190   0.13853   0.14660
 Alpha virt. eigenvalues --    0.15404   0.15934   0.16410   0.16455   0.21819

 Mulliken charges:
               1
     1  C    1.005804
     2  F   -0.772169
     3  H    0.015303
     4  C   -0.027153
     5  H   -0.140984
     6  C    1.356049
     7  H   -0.014831
     8  F   -0.711010
     9  F   -0.711010
 Sum of Mulliken charges =  -0.00000

 Dipole moment (field-independent basis, Debye):
    X=             -1.4548    Y=             -1.8752    Z=             -0.0000  Tot=              2.3734

 Test job not archived.
 1\1\GINC-SE165\SP\RHF\Aug-CC-pVDZ\C3H3F3\OHZDE\05-Apr-2025\0\\#t hf au
 g-cc-pvdz iop(5/13=1,5/36=2,99/5=2) pseudo=read geom=check guess=(read
 ,tcheck) scf=(maxcycle=1)\\title\\0,1\C,0,-0.79554,-1.498083,0.\F,0,0.
 356729,-2.191946,0.\H,0,-1.660114,-2.146002,0.\C,0,-0.829762,-0.177917
 ,0.\H,0,-1.791395,0.315467,0.\C,0,0.375366,0.693448,0.\H,0,1.319452,0.
 152643,0.\F,0,0.356729,1.516706,1.098964\F,0,0.356729,1.516706,-1.0989
 64\\Version=ES64L-G16RevC.01\State=1-A'\HF=-414.0768196\RMSD=1.295e-02
 \Dipole=-0.5723472,-0.737771,0.\Quadrupole=3.8621167,-1.7860171,-2.076

 Normal termination of Gaussian 16 at Sat Apr  5 22:54:47 2025.
