 Gaussian 16, Revision C.01,

 ----------------------------------------------------------------------
 #t hf aug-cc-pvdz symm=none int=(grid=ultrafine) guess=(read,tcheck) s
 table=(opt,rrhf)
 ----------------------------------------------------------------------
 -----
 title
 -----
 Symbolic Z-matrix:
 Charge =  0 Multiplicity = 1

 SCF Done:  E(RHF) =  -413.667789967     A.U. after   13 cycles
 Normal termination of Gaussian 16 at Sat Apr  5 22:54:41 2025.
 Gaussian 16:  ES64L-G16RevC.01  3-Jul-2019

 ----------------------------------------------------------------------
 #t hf aug-cc-pvdz iop(5/13=1,5/36=2,99/5=2) pseudo=read geom=check gue
 ss=(read,tcheck) scf=(maxcycle=1)
 ----------------------------------------------------------------------
 -----
 title
 -----
 Structure from the checkpoint file:  "Z-1-2-3-trifluoropropene.chk"
 Charge =  0 Multiplicity = 1

                         Standard orientation:
 ---------------------------------------------------------------------
 Center     Atomic      Atomic             Coordinates (Angstroms)
 Number     Number       Type             X           Y           Z
 ---------------------------------------------------------------------
      1          6           0       -0.894816   -0.631696    0.000000
      2          1           0       -0.633553   -1.676755    0.000000
      3          9           0       -2.212388   -0.376299    0.000000
      4          6           0        0.000000    0.341550    0.000000
      5          9           0       -0.371902    1.637064    0.000000
      6          6           0        1.486201    0.188572    0.000000
      7          9           0        1.834576   -1.152835    0.000000
      8          1           0        1.916333    0.657416    0.888334
      9          1           0        1.916333    0.657416   -0.888334
 ---------------------------------------------------------------------

 SCF Done:  E(RHF) =  -414.058679023     A.U. after    2 cycles

 The electronic state is 1-A'.
 Alpha  occ. eigenvalues --  -26.49903 -26.48903 -26.47751 -11.35908 -11.35475
 Alpha  occ. eigenvalues --  -11.34569  -1.63298  -1.61354  -1.59943  -1.09633
 Alpha  occ. eigenvalues --   -0.98733  -0.83577  -0.77303  -0.76233  -0.73563
 Alpha  occ. eigenvalues --   -0.69265  -0.69264  -0.69057  -0.66829  -0.64116
 Alpha  occ. eigenvalues --   -0.59633  -0.55866  -0.54970  -0.39316
 Alpha virt. eigenvalues --    0.03564   0.04435   0.04833   0.07709   0.10085
 Alpha virt. eigenvalues --    0.10937   0.11018   0.12914   0.13437   0.15318
 Alpha virt. eigenvalues --    0.15583   0.16004   0.16806   0.17422   0.19920

 Mulliken charges:
               1
     1  C    0.941108
     2  H    0.016674
     3  F   -0.756252
     4  C    0.434663
     5  F   -0.906233
     6  C    0.617373
     7  F   -0.711280
     8  H    0.181973
     9  H    0.181973
 Sum of Mulliken charges =  -0.00000

 Dipole moment (field-independent basis, Debye):
    X=              1.6146    Y=              0.0119    Z=              0.0000  Tot=              1.6146

 Test job not archived.
 1\1\GINC-SE028\SP\RHF\Aug-CC-pVDZ\C3H3F3\OHZDE\05-Apr-2025\0\\#t hf au
 g-cc-pvdz iop(5/13=1,5/36=2,99/5=2) pseudo=read geom=check guess=(read
 ,tcheck) scf=(maxcycle=1)\\title\\0,1\C,0,-0.894816,-0.631696,0.\H,0,-
 0.633553,-1.676755,0.\F,0,-2.212388,-0.376299,0.\C,0,0.,0.34155,0.\F,0
 ,-0.371902,1.637064,0.\C,0,1.486201,0.188572,0.\F,0,1.834576,-1.152835
 ,0.\H,0,1.916333,0.657416,0.888334\H,0,1.916333,0.657416,-0.888334\\Ve
 rsion=ES64L-G16RevC.01\State=1-A'\HF=-414.058679\RMSD=1.116e-02\Dipole
 =0.6352238,0.0046875,0.\Quadrupole=-1.1296075,-0.0643737,1.1939811,3.3

 Normal termination of Gaussian 16 at Sat Apr  5 22:54:45 2025.
