 Gaussian 16, Revision C.01,

 ----------------------------------------------------------------------
 #t hf aug-cc-pvdz symm=none int=(grid=ultrafine) guess=(read,tcheck) s
 table=(opt,rrhf)
 ----------------------------------------------------------------------
 -----
 title
 -----
 Symbolic Z-matrix:
 Charge =  0 Multiplicity = 1

 SCF Done:  E(RHF) =  -275.762537542     A.U. after   11 cycles
 Normal termination of Gaussian 16 at Sat Apr  5 22:53:59 2025.
 Gaussian 16:  ES64L-G16RevC.01  3-Jul-2019

 ----------------------------------------------------------------------
 #t hf aug-cc-pvdz iop(5/13=1,5/36=2,99/5=2) pseudo=read geom=check gue
 ss=(read,tcheck) scf=(maxcycle=1)
 ----------------------------------------------------------------------
 -----
 title
 -----
 Structure from the checkpoint file:  "Z-1-2-difluoroethene.chk"
 Charge =  0 Multiplicity = 1

                         Standard orientation:
 ---------------------------------------------------------------------
 Center     Atomic      Atomic             Coordinates (Angstroms)
 Number     Number       Type             X           Y           Z
 ---------------------------------------------------------------------
      1          6           0        0.000000    0.660572    0.578468
      2          6           0       -0.000000   -0.660572    0.578468
      3          9           0        0.000000    1.383039   -0.550638
      4          9           0       -0.000000   -1.383039   -0.550638
      5          1           0        0.000000    1.245818    1.484934
      6          1           0       -0.000000   -1.245818    1.484934
 ---------------------------------------------------------------------

 SCF Done:  E(RHF) =  -276.022443162     A.U. after    2 cycles

 The electronic state is 1-A1.
 Alpha  occ. eigenvalues --  -26.48930 -26.48929 -11.34797 -11.34668  -1.62638
 Alpha  occ. eigenvalues --   -1.61122  -1.06707  -0.85256  -0.77763  -0.74644
 Alpha  occ. eigenvalues --   -0.69660  -0.68475  -0.66492  -0.60611  -0.57323
 Alpha  occ. eigenvalues --   -0.39571
 Alpha virt. eigenvalues --    0.03273   0.04575   0.09076   0.10399   0.10721
 Alpha virt. eigenvalues --    0.10820   0.12334   0.15488   0.15753   0.18644
 Alpha virt. eigenvalues --    0.22302   0.24399   0.26115   0.27827   0.29555

 Mulliken charges:
               1
     1  C    0.705613
     2  C    0.705613
     3  F   -0.721736
     4  F   -0.721736
     5  H    0.016122
     6  H    0.016122
 Sum of Mulliken charges =  -0.00000

 Dipole moment (field-independent basis, Debye):
    X=              0.0000    Y=              0.0000    Z=              2.4600  Tot=              2.4600

 Test job not archived.
 1\1\GINC-SE115\SP\RHF\Aug-CC-pVDZ\C2H2F2\OHZDE\05-Apr-2025\0\\#t hf au
 g-cc-pvdz iop(5/13=1,5/36=2,99/5=2) pseudo=read geom=check guess=(read
 ,tcheck) scf=(maxcycle=1)\\title\\0,1\C,0,0.,0.660572,0.578468\C,0,0.,
 -0.660572,0.578468\F,0,0.,1.383039,-0.550638\F,0,0.,-1.383039,-0.55063
 8\H,0,0.,1.245818,1.484934\H,0,0.,-1.245818,1.484934\\Version=ES64L-G1
 6RevC.01\State=1-A1\HF=-276.0224432\RMSD=1.144e-02\Dipole=0.,0.,0.9678
 524\Quadrupole=-0.8736767,-0.3188196,1.1924963,0.,0.,0.\PG=C02V [SGV(C
 2H2F2)]\\@

 Normal termination of Gaussian 16 at Sat Apr  5 22:54:34 2025.
