 Gaussian 16, Revision C.01,

 ----------------------------------------------------------------------
 #t hf aug-cc-pvdz symm=none int=(grid=ultrafine) guess=(read,tcheck) s
 table=(opt,rrhf)
 ----------------------------------------------------------------------
 -----
 title
 -----
 Symbolic Z-matrix:
 Charge =  0 Multiplicity = 1

 SCF Done:  E(RHF) =  -233.013004451     A.U. after   14 cycles
 Normal termination of Gaussian 16 at Sat Apr  5 22:55:06 2025.
 Gaussian 16:  ES64L-G16RevC.01  3-Jul-2019

 ----------------------------------------------------------------------
 #t hf aug-cc-pvdz iop(5/13=1,5/36=2,99/5=2) pseudo=read geom=check gue
 ss=(read,tcheck) scf=(maxcycle=1)
 ----------------------------------------------------------------------
 -----
 title
 -----
 Structure from the checkpoint file:  "Z-1-3-hexadiene.chk"
 Charge =  0 Multiplicity = 1

                         Standard orientation:
 ---------------------------------------------------------------------
 Center     Atomic      Atomic             Coordinates (Angstroms)
 Number     Number       Type             X           Y           Z
 ---------------------------------------------------------------------
      1          1           0       -2.046077    1.260629    0.000000
      2          6           0       -1.219389    0.555593    0.000000
      3          1           0        0.021554    2.201006    0.000000
      4          6           0        0.000000    1.114678    0.000000
      5          1           0        1.392911   -0.573551    0.000000
      6          6           0        1.319865    0.504047    0.000000
      7          1           0        3.420124    0.739387    0.000000
      8          1           0        2.436778    2.299849    0.000000
      9          6           0        2.450226    1.216544    0.000000
     10          1           0       -2.367696   -0.977943    0.864681
     11          1           0       -2.367696   -0.977943   -0.864681
     12          6           0       -1.702301   -0.867901    0.000000
     13          1           0       -1.238007   -2.971360    0.000000
     14          1           0       -0.064100   -2.005323   -0.883366
     15          1           0       -0.064100   -2.005323    0.883366
     16          6           0       -0.702350   -2.021198    0.000000
 ---------------------------------------------------------------------

 SCF Done:  E(RHF) =  -233.267419601     A.U. after    2 cycles

 The electronic state is 1-A'.
 Alpha  occ. eigenvalues --  -11.24192 -11.24046 -11.24013 -11.23435 -11.23249
 Alpha  occ. eigenvalues --  -11.22804  -1.10179  -1.04813  -0.98242  -0.88317
 Alpha  occ. eigenvalues --   -0.80001  -0.73564  -0.65830  -0.63114  -0.62145
 Alpha  occ. eigenvalues --   -0.58307  -0.57203  -0.53134  -0.51088  -0.50151
 Alpha  occ. eigenvalues --   -0.47262  -0.44002  -0.31866
 Alpha virt. eigenvalues --    0.03423   0.03738   0.03948   0.04654   0.05443
 Alpha virt. eigenvalues --    0.05683   0.07400   0.07554   0.08591   0.09302
 Alpha virt. eigenvalues --    0.10318   0.12162   0.13082   0.13857   0.14616

 Mulliken charges:
               1
     1  H   -0.268131
     2  C   -0.231176
     3  H   -0.286865
     4  C    0.728976
     5  H   -0.409990
     6  C    0.752862
     7  H   -0.162608
     8  H   -0.120468
     9  C   -0.083951
    10  H    0.246725
    11  H    0.246725
    12  C   -0.767705
    13  H   -0.015257
    14  H    0.267357
    15  H    0.267357
    16  C   -0.163852
 Sum of Mulliken charges =   0.00000

 Dipole moment (field-independent basis, Debye):
    X=             -0.5646    Y=             -0.4955    Z=             -0.0000  Tot=              0.7512

 Test job not archived.
 1\1\GINC-SE180\SP\RHF\Aug-CC-pVDZ\C6H10\OHZDE\05-Apr-2025\0\\#t hf aug
 -cc-pvdz iop(5/13=1,5/36=2,99/5=2) pseudo=read geom=check guess=(read,
 tcheck) scf=(maxcycle=1)\\title\\0,1\H,0,-2.046077,1.260629,0.\C,0,-1.
 219389,0.555593,0.\H,0,0.021554,2.201006,0.\C,0,0.,1.114678,0.\H,0,1.3
 92911,-0.573551,0.\C,0,1.319865,0.504047,0.\H,0,3.420124,0.739387,0.\H
 ,0,2.436778,2.299849,0.\C,0,2.450226,1.216544,0.\H,0,-2.367696,-0.9779
 43,0.864681\H,0,-2.367696,-0.977943,-0.864681\C,0,-1.702301,-0.867901,
 0.\H,0,-1.238007,-2.97136,0.\H,0,-0.0641,-2.005323,-0.883366\H,0,-0.06

 Normal termination of Gaussian 16 at Sat Apr  5 22:55:49 2025.
