 Gaussian 16, Revision C.01,

 ----------------------------------------------------------------------
 #t hf aug-cc-pvdz symm=none int=(grid=ultrafine) guess=(read,tcheck) s
 table=(opt,rrhf)
 ----------------------------------------------------------------------
 -----
 title
 -----
 Symbolic Z-matrix:
 Charge =  0 Multiplicity = 1

 SCF Done:  E(RHF) =  -233.012290654     A.U. after   13 cycles
 Normal termination of Gaussian 16 at Sat Apr  5 22:55:02 2025.
 Gaussian 16:  ES64L-G16RevC.01  3-Jul-2019

 ----------------------------------------------------------------------
 #t hf aug-cc-pvdz iop(5/13=1,5/36=2,99/5=2) pseudo=read geom=check gue
 ss=(read,tcheck) scf=(maxcycle=1)
 ----------------------------------------------------------------------
 -----
 title
 -----
 Structure from the checkpoint file:  "Z-1-4-hexadiene.chk"
 Charge =  0 Multiplicity = 1

                         Standard orientation:
 ---------------------------------------------------------------------
 Center     Atomic      Atomic             Coordinates (Angstroms)
 Number     Number       Type             X           Y           Z
 ---------------------------------------------------------------------
      1          6           0       -2.336058    0.040054   -0.754448
      2          1           0       -3.277485    0.507889   -0.453946
      3          1           0       -1.772566    0.765717   -1.337617
      4          1           0       -2.599402   -0.788479   -1.416868
      5          6           0       -1.586968   -0.461683    0.442081
      6          1           0       -2.107557   -1.217663    1.022372
      7          6           0       -0.380120   -0.094692    0.868817
      8          1           0        0.005574   -0.582736    1.758463
      9          6           0        0.533363    0.933703    0.270646
     10          1           0        0.042346    1.473818   -0.542976
     11          1           0        0.746217    1.697623    1.028760
     12          6           0        1.855390    0.410014   -0.232532
     13          1           0        2.574553    1.177611   -0.503227
     14          6           0        2.197298   -0.864315   -0.374253
     15          1           0        3.172382   -1.142407   -0.750747
     16          1           0        1.518518   -1.669861   -0.126075
 ---------------------------------------------------------------------

 SCF Done:  E(RHF) =  -233.267449407     A.U. after    2 cycles

 The electronic state is 1-A.
 Alpha  occ. eigenvalues --  -11.24052 -11.23865 -11.23462 -11.23043 -11.22992
 Alpha  occ. eigenvalues --  -11.22481  -1.10116  -1.04588  -0.96598  -0.90707
 Alpha  occ. eigenvalues --   -0.77686  -0.71562  -0.66831  -0.64720  -0.60174
 Alpha  occ. eigenvalues --   -0.57207  -0.56800  -0.55215  -0.52831  -0.50434
 Alpha  occ. eigenvalues --   -0.47643  -0.36942  -0.35470
 Alpha virt. eigenvalues --    0.03655   0.03837   0.04076   0.04257   0.05727
 Alpha virt. eigenvalues --    0.05916   0.06487   0.07042   0.08194   0.09852
 Alpha virt. eigenvalues --    0.11294   0.12814   0.13254   0.13935   0.14374

 Mulliken charges:
               1
     1  C   -0.622261
     2  H    0.244171
     3  H    0.070878
     4  H    0.251809
     5  C   -0.041575
     6  H   -0.190162
     7  C    0.966358
     8  H   -0.202876
     9  C   -0.885670
    10  H    0.205664
    11  H    0.270621
    12  C    0.567008
    13  H   -0.193965
    14  C   -0.260522
    15  H   -0.114899
    16  H   -0.064577
 Sum of Mulliken charges =  -0.00000

 Dipole moment (field-independent basis, Debye):
    X=             -0.3612    Y=              0.3666    Z=             -0.1609  Tot=              0.5392

 Test job not archived.
 1\1\GINC-SE183\SP\RHF\Aug-CC-pVDZ\C6H10\OHZDE\05-Apr-2025\0\\#t hf aug
 -cc-pvdz iop(5/13=1,5/36=2,99/5=2) pseudo=read geom=check guess=(read,
 tcheck) scf=(maxcycle=1)\\title\\0,1\C,0,-2.336058,0.040054,-0.754448\
 H,0,-3.277485,0.507889,-0.453946\H,0,-1.772566,0.765717,-1.337617\H,0,
 -2.599402,-0.788479,-1.416868\C,0,-1.586968,-0.461683,0.442081\H,0,-2.
 107557,-1.217663,1.022372\C,0,-0.38012,-0.094692,0.868817\H,0,0.005574
 ,-0.582736,1.758463\C,0,0.533363,0.933703,0.270646\H,0,0.042346,1.4738
 18,-0.542976\H,0,0.746217,1.697623,1.02876\C,0,1.85539,0.410014,-0.232

 Normal termination of Gaussian 16 at Sat Apr  5 22:55:49 2025.
