 Gaussian 16, Revision C.01,

 ----------------------------------------------------------------------
 #t hf aug-cc-pvdz symm=none int=(grid=ultrafine) guess=(read,tcheck) s
 table=(opt,rrhf)
 ----------------------------------------------------------------------
 -----
 title
 -----
 Symbolic Z-matrix:
 Charge =  0 Multiplicity = 1

 SCF Done:  E(RHF) =  -995.886330505     A.U. after   12 cycles

 1\1\GINC-SE052\Stability\RHF\Aug-CC-pVDZ\C2H2Cl2\OHZDE\05-Apr-2025\0\\
 #t hf aug-cc-pvdz symm=none int=(grid=ultrafine) guess=(read,tcheck) s
 table=(opt,rrhf)\\title\\0,1\C,0,0.,0.661946,0.959662\C,0,0.,-0.661946
 ,0.959662\Cl,0,0.,1.660082,-0.449807\Cl,0,0.,-1.660082,-0.449807\H,0,0
 .,1.210752,1.888744\H,0,0.,-1.210752,1.888744\\Version=ES64L-G16RevC.0
 1\HF=-995.8863305\RMSD=2.676e-09\Dipole=0.,0.,0.8701898\Quadrupole=-1.
 9216419,-1.0964816,3.0181235,0.,0.,0.\PG=Unknown\\@
 The archive entry for this job was punched.

 Normal termination of Gaussian 16 at Sat Apr  5 22:54:42 2025.
 Gaussian 16:  ES64L-G16RevC.01  3-Jul-2019

 ----------------------------------------------------------------------
 #t hf aug-cc-pvdz iop(5/13=1,5/36=2,99/5=2) pseudo=read geom=check gue
 ss=(read,tcheck) scf=(maxcycle=1)
 ----------------------------------------------------------------------
 -----
 title
 -----
 Structure from the checkpoint file:  "Z-1-2-dichloroethene.chk"
 Charge =  0 Multiplicity = 1

                         Standard orientation:
 ---------------------------------------------------------------------
 Center     Atomic      Atomic             Coordinates (Angstroms)
 Number     Number       Type             X           Y           Z
 ---------------------------------------------------------------------
      1          6           0        0.000000    0.661946    0.959662
      2          6           0       -0.000000   -0.661946    0.959662
      3         17           0        0.000000    1.660082   -0.449807
      4         17           0       -0.000000   -1.660082   -0.449807
      5          1           0        0.000000    1.210752    1.888744
      6          1           0       -0.000000   -1.210752    1.888744
 ---------------------------------------------------------------------

 SCF Done:  E(RHF) =  -996.117528875     A.U. after    2 cycles

 The electronic state is 1-A1.
 Alpha  occ. eigenvalues -- -105.58673-105.58672 -11.32742 -11.32609 -10.63497
 Alpha  occ. eigenvalues --  -10.63497  -7.80468  -7.80458  -7.80040  -7.80039
 Alpha  occ. eigenvalues --   -7.80038  -7.80034  -1.17563  -1.09756  -0.98996
 Alpha  occ. eigenvalues --   -0.78729  -0.71521  -0.63216  -0.56452  -0.55931
 Alpha  occ. eigenvalues --   -0.50045  -0.48268  -0.46950  -0.38004
 Alpha virt. eigenvalues --    0.03305   0.04594   0.07213   0.09213   0.09999
 Alpha virt. eigenvalues --    0.11642   0.13702   0.14284   0.14410   0.15343
 Alpha virt. eigenvalues --    0.15675   0.15900   0.17087   0.17407   0.19666

 Mulliken charges:
               1
     1  C    0.180773
     2  C    0.180773
     3  Cl  -0.127041
     4  Cl  -0.127041
     5  H   -0.053732
     6  H   -0.053732
 Sum of Mulliken charges =   0.00000

 Dipole moment (field-independent basis, Debye):
    X=              0.0000    Y=             -0.0000    Z=              2.2089  Tot=              2.2089

 Test job not archived.
 1\1\GINC-SE052\SP\RHF\Aug-CC-pVDZ\C2H2Cl2\OHZDE\05-Apr-2025\0\\#t hf a
 ug-cc-pvdz iop(5/13=1,5/36=2,99/5=2) pseudo=read geom=check guess=(rea
 d,tcheck) scf=(maxcycle=1)\\title\\0,1\C,0,0.,0.661946,0.959662\C,0,0.
 ,-0.661946,0.959662\Cl,0,0.,1.660082,-0.449807\Cl,0,0.,-1.660082,-0.44
 9807\H,0,0.,1.210752,1.888744\H,0,0.,-1.210752,1.888744\\Version=ES64L
 -G16RevC.01\State=1-A1\HF=-996.1175289\RMSD=1.078e-02\Dipole=0.,0.,0.8
 690515\Quadrupole=-2.0297993,-1.0309787,3.060778,0.,0.,0.\PG=C02V [SGV
 (C2H2Cl2)]\\@

 Normal termination of Gaussian 16 at Sat Apr  5 22:54:44 2025.
