 Gaussian 16, Revision C.01,

 ----------------------------------------------------------------------
 #t hf aug-cc-pvdz symm=none int=(grid=ultrafine) guess=(read,tcheck) s
 table=(opt,rrhf)
 ----------------------------------------------------------------------
 -----
 title
 -----
 Symbolic Z-matrix:
 Charge =  0 Multiplicity = 1

 SCF Done:  E(RHF) =  -231.834679926     A.U. after   13 cycles
 Normal termination of Gaussian 16 at Sat Apr  5 22:54:59 2025.
 Gaussian 16:  ES64L-G16RevC.01  3-Jul-2019

 ----------------------------------------------------------------------
 #t hf aug-cc-pvdz iop(5/13=1,5/36=2,99/5=2) pseudo=read geom=check gue
 ss=(read,tcheck) scf=(maxcycle=1)
 ----------------------------------------------------------------------
 -----
 title
 -----
 Structure from the checkpoint file:  "Z-1-3-5-hexatriene.chk"
 Charge =  0 Multiplicity = 1

                         Standard orientation:
 ---------------------------------------------------------------------
 Center     Atomic      Atomic             Coordinates (Angstroms)
 Number     Number       Type             X           Y           Z
 ---------------------------------------------------------------------
      1          6           0        0.000000    0.674455    0.756935
      2          6           0       -0.000000   -0.674455    0.756935
      3          6           0        0.000000    1.546499   -0.398566
      4          6           0       -0.000000   -1.546499   -0.398566
      5          6           0        0.000000    2.881171   -0.319932
      6          6           0       -0.000000   -2.881171   -0.319932
      7          1           0        0.000000    1.175747    1.719147
      8          1           0       -0.000000   -1.175747    1.719147
      9          1           0        0.000000    1.087294   -1.380064
     10          1           0       -0.000000   -1.087294   -1.380064
     11          1           0        0.000000    3.391009    0.635734
     12          1           0       -0.000000   -3.391009    0.635734
     13          1           0        0.000000    3.500756   -1.205438
     14          1           0       -0.000000   -3.500756   -1.205438
 ---------------------------------------------------------------------

 SCF Done:  E(RHF) =  -232.081369501     A.U. after    2 cycles

 The electronic state is 1-A1.
 Alpha  occ. eigenvalues --  -11.24833 -11.24811 -11.24692 -11.24589 -11.24116
 Alpha  occ. eigenvalues --  -11.24113  -1.11505  -1.06076  -0.98956  -0.85208
 Alpha  occ. eigenvalues --   -0.80268  -0.73643  -0.68887  -0.64906  -0.61257
 Alpha  occ. eigenvalues --   -0.57798  -0.56093  -0.53628  -0.49120  -0.47694
 Alpha  occ. eigenvalues --   -0.40516  -0.30486
 Alpha virt. eigenvalues --    0.03503   0.03672   0.03977   0.05266   0.05498
 Alpha virt. eigenvalues --    0.06850   0.07610   0.08420   0.09960   0.10334
 Alpha virt. eigenvalues --    0.11908   0.11969   0.12236   0.12751   0.14679

 Mulliken charges:
               1
     1  C    0.243513
     2  C    0.243513
     3  C    0.675673
     4  C    0.675673
     5  C   -0.108032
     6  C   -0.108032
     7  H   -0.286854
     8  H   -0.286854
     9  H   -0.236503
    10  H   -0.236503
    11  H   -0.114257
    12  H   -0.114257
    13  H   -0.173540
    14  H   -0.173540
 Sum of Mulliken charges =  -0.00000

 Dipole moment (field-independent basis, Debye):
    X=              0.0000    Y=              0.0000    Z=             -0.0254  Tot=              0.0254

 Test job not archived.
 1\1\GINC-SE176\SP\RHF\Aug-CC-pVDZ\C6H8\OHZDE\05-Apr-2025\0\\#t hf aug-
 cc-pvdz iop(5/13=1,5/36=2,99/5=2) pseudo=read geom=check guess=(read,t
 check) scf=(maxcycle=1)\\title\\0,1\C,0,0.,0.674455,0.756935\C,0,0.,-0
 .674455,0.756935\C,0,0.,1.546499,-0.398566\C,0,0.,-1.546499,-0.398566\
 C,0,0.,2.881171,-0.319932\C,0,0.,-2.881171,-0.319932\H,0,0.,1.175747,1
 .719147\H,0,0.,-1.175747,1.719147\H,0,0.,1.087294,-1.380064\H,0,0.,-1.
 087294,-1.380064\H,0,0.,3.391009,0.635734\H,0,0.,-3.391009,0.635734\H,
 0,0.,3.500756,-1.205438\H,0,0.,-3.500756,-1.205438\\Version=ES64L-G16R

 Normal termination of Gaussian 16 at Sat Apr  5 22:55:47 2025.
