 Gaussian 16, Revision C.01,

 ----------------------------------------------------------------------
 #t hf aug-cc-pvdz symm=none int=(grid=ultrafine) guess=(read,tcheck) s
 table=(opt,rrhf)
 ----------------------------------------------------------------------
 -----
 title
 -----
 Symbolic Z-matrix:
 Charge =  0 Multiplicity = 1

 SCF Done:  E(RHF) =  -382.805913548     A.U. after   14 cycles

 1\1\GINC-SE194\Stability\RHF\Aug-CC-pVDZ\C6H10O2\OHZDE\05-Apr-2025\0\\
 #t hf aug-cc-pvdz symm=none int=(grid=ultrafine) guess=(read,tcheck) s
 table=(opt,rrhf)\\title\\0,1\C,0,-1.951735,-0.180434,0.100405\C,0,-0.8
 83932,0.542857,-0.210248\C,0,1.381983,-0.09468,0.182826\C,0,-2.041959,
 -1.672002,0.148175\C,0,-0.803865,2.031933,-0.270242\C,0,2.547078,-0.77
 727,-0.480474\O,0,1.391725,0.406289,1.275264\O,0,0.290604,-0.118487,-0
 .630137\H,0,-2.849211,0.374513,0.346595\H,0,-2.835495,-2.034166,-0.509
 96\H,0,-1.110051,-2.145591,-0.151752\H,0,-2.289315,-2.012966,1.156589\

 Normal termination of Gaussian 16 at Sat Apr  5 22:54:52 2025.
 Gaussian 16:  ES64L-G16RevC.01  3-Jul-2019

 ----------------------------------------------------------------------
 #t hf aug-cc-pvdz iop(5/13=1,5/36=2,99/5=2) pseudo=read geom=check gue
 ss=(read,tcheck) scf=(maxcycle=1)
 ----------------------------------------------------------------------
 -----
 title
 -----
 Structure from the checkpoint file:  "Z-1-methylprop-1-enyl_acetate.chk"
 Charge =  0 Multiplicity = 1

                         Standard orientation:
 ---------------------------------------------------------------------
 Center     Atomic      Atomic             Coordinates (Angstroms)
 Number     Number       Type             X           Y           Z
 ---------------------------------------------------------------------
      1          6           0       -1.951735   -0.180434    0.100405
      2          6           0       -0.883932    0.542857   -0.210248
      3          6           0        1.381983   -0.094680    0.182826
      4          6           0       -2.041959   -1.672002    0.148175
      5          6           0       -0.803865    2.031933   -0.270242
      6          6           0        2.547078   -0.777270   -0.480474
      7          8           0        1.391725    0.406289    1.275264
      8          8           0        0.290604   -0.118487   -0.630137
      9          1           0       -2.849211    0.374513    0.346595
     10          1           0       -2.835495   -2.034166   -0.509960
     11          1           0       -1.110051   -2.145591   -0.151752
     12          1           0       -2.289315   -2.012966    1.156589
     13          1           0       -1.765809    2.473463   -0.017477
     14          1           0       -0.524541    2.360081   -1.274356
     15          1           0       -0.054472    2.408994    0.426265
     16          1           0        2.828171   -0.232808   -1.382252
     17          1           0        2.270172   -1.786382   -0.783928
     18          1           0        3.386497   -0.809977    0.206602
 ---------------------------------------------------------------------

 SCF Done:  E(RHF) =  -383.201154475     A.U. after    2 cycles

 The electronic state is 1-A.
 Alpha  occ. eigenvalues --  -20.59172 -20.53610 -11.39389 -11.29919 -11.25354
 Alpha  occ. eigenvalues --  -11.23527 -11.23414 -11.23207  -1.54578  -1.45624
 Alpha  occ. eigenvalues --   -1.09533  -1.02502  -0.99662  -0.90402  -0.83609
 Alpha  occ. eigenvalues --   -0.72253  -0.69430  -0.68258  -0.65973  -0.62177
 Alpha  occ. eigenvalues --   -0.60032  -0.58973  -0.57437  -0.56703  -0.55502
 Alpha  occ. eigenvalues --   -0.53713  -0.53170  -0.51167  -0.46247  -0.44509
 Alpha  occ. eigenvalues --   -0.35651
 Alpha virt. eigenvalues --    0.03484   0.03760   0.03907   0.04779   0.05712
 Alpha virt. eigenvalues --    0.05828   0.06356   0.07009   0.08553   0.08801
 Alpha virt. eigenvalues --    0.10812   0.11967   0.13193   0.13392   0.13957

 Mulliken charges:
               1
     1  C    0.361537
     2  C    1.392321
     3  C    1.665795
     4  C   -0.732938
     5  C   -0.715546
     6  C   -0.689938
     7  O   -1.207330
     8  O   -1.709156
     9  H   -0.205703
    10  H    0.221264
    11  H    0.085441
    12  H    0.269840
    13  H    0.106353
    14  H    0.258965
    15  H    0.263030
    16  H    0.227641
    17  H    0.215813
    18  H    0.192611
 Sum of Mulliken charges =  -0.00000

 Dipole moment (field-independent basis, Debye):
    X=             -0.2417    Y=             -0.6717    Z=             -1.7911  Tot=              1.9281

 Test job not archived.
 1\1\GINC-SE194\SP\RHF\Aug-CC-pVDZ\C6H10O2\OHZDE\05-Apr-2025\0\\#t hf a
 ug-cc-pvdz iop(5/13=1,5/36=2,99/5=2) pseudo=read geom=check guess=(rea
 d,tcheck) scf=(maxcycle=1)\\title\\0,1\C,0,-1.951735,-0.180434,0.10040
 5\C,0,-0.883932,0.542857,-0.210248\C,0,1.381983,-0.09468,0.182826\C,0,
 -2.041959,-1.672002,0.148175\C,0,-0.803865,2.031933,-0.270242\C,0,2.54
 7078,-0.77727,-0.480474\O,0,1.391725,0.406289,1.275264\O,0,0.290604,-0
 .118487,-0.630137\H,0,-2.849211,0.374513,0.346595\H,0,-2.835495,-2.034
 166,-0.50996\H,0,-1.110051,-2.145591,-0.151752\H,0,-2.289315,-2.012966

 Normal termination of Gaussian 16 at Sat Apr  5 22:55:00 2025.
