 Gaussian 16, Revision C.01,

 ----------------------------------------------------------------------
 #t hf aug-cc-pvdz symm=none int=(grid=ultrafine) guess=(read,tcheck) s
 table=(opt,rrhf)
 ----------------------------------------------------------------------
 -----
 title
 -----
 Symbolic Z-matrix:
 Charge =  0 Multiplicity = 1

 SCF Done:  E(RHF) =  -615.054824022     A.U. after   13 cycles

 1\1\GINC-SE084\Stability\RHF\Aug-CC-pVDZ\C4H7Cl1\OHZDE\05-Apr-2025\0\\
 #t hf aug-cc-pvdz symm=none int=(grid=ultrafine) guess=(read,tcheck) s
 table=(opt,rrhf)\\title\\0,1\H,0,0.296999,2.638501,0.\Cl,0,-1.282302,-
 0.692895,0.\C,0,1.865985,-1.198419,0.\C,0,-0.5273,1.925834,0.\H,0,-1.1
 48337,2.109135,0.878732\H,0,-1.148337,2.109135,-0.878732\C,0,0.,0.5283
 12,0.\C,0,1.27958,0.174679,0.\H,0,1.985598,0.999563,0.\H,0,1.099594,-1
 .969354,0.\H,0,2.502012,-1.345103,-0.876739\H,0,2.502012,-1.345103,0.8
 76739\\Version=ES64L-G16RevC.01\HF=-615.054824\RMSD=4.468e-09\Dipole=0

 Normal termination of Gaussian 16 at Sat Apr  5 22:54:47 2025.
 Gaussian 16:  ES64L-G16RevC.01  3-Jul-2019

 ----------------------------------------------------------------------
 #t hf aug-cc-pvdz iop(5/13=1,5/36=2,99/5=2) pseudo=read geom=check gue
 ss=(read,tcheck) scf=(maxcycle=1)
 ----------------------------------------------------------------------
 -----
 title
 -----
 Structure from the checkpoint file:  "Z-2-chloro-2-butene.chk"
 Charge =  0 Multiplicity = 1

                         Standard orientation:
 ---------------------------------------------------------------------
 Center     Atomic      Atomic             Coordinates (Angstroms)
 Number     Number       Type             X           Y           Z
 ---------------------------------------------------------------------
      1          1           0        0.296999    2.638501    0.000000
      2         17           0       -1.282302   -0.692895    0.000000
      3          6           0        1.865985   -1.198419    0.000000
      4          6           0       -0.527300    1.925834    0.000000
      5          1           0       -1.148337    2.109135    0.878732
      6          1           0       -1.148337    2.109135   -0.878732
      7          6           0        0.000000    0.528312    0.000000
      8          6           0        1.279580    0.174679    0.000000
      9          1           0        1.985598    0.999563    0.000000
     10          1           0        1.099594   -1.969354    0.000000
     11          1           0        2.502012   -1.345103   -0.876739
     12          1           0        2.502012   -1.345103    0.876739
 ---------------------------------------------------------------------

 SCF Done:  E(RHF) =  -615.301834072     A.U. after    2 cycles

 The electronic state is 1-A'.
 Alpha  occ. eigenvalues -- -105.56102 -11.30241 -11.25005 -11.24627 -11.23663
 Alpha  occ. eigenvalues --  -10.60927  -7.77876  -7.77507  -7.77489  -1.14285
 Alpha  occ. eigenvalues --   -1.02987  -0.99417  -0.90292  -0.72953  -0.65244
 Alpha  occ. eigenvalues --   -0.62597  -0.60322  -0.57378  -0.54829  -0.54215
 Alpha  occ. eigenvalues --   -0.50895  -0.48794  -0.45376  -0.35758
 Alpha virt. eigenvalues --    0.03499   0.03919   0.04778   0.04984   0.06501
 Alpha virt. eigenvalues --    0.06726   0.07390   0.11043   0.11269   0.12185
 Alpha virt. eigenvalues --    0.12886   0.14606   0.15289   0.15729   0.16209

 Mulliken charges:
               1
     1  H    0.129832
     2  Cl  -0.333337
     3  C   -0.700539
     4  C   -0.583429
     5  H    0.248872
     6  H    0.248872
     7  C   -0.200620
     8  C    0.696546
     9  H   -0.202483
    10  H    0.195851
    11  H    0.250217
    12  H    0.250217
 Sum of Mulliken charges =  -0.00000

 Dipole moment (field-independent basis, Debye):
    X=              1.5710    Y=              1.2136    Z=              0.0000  Tot=              1.9852

 Test job not archived.
 1\1\GINC-SE084\SP\RHF\Aug-CC-pVDZ\C4H7Cl1\OHZDE\05-Apr-2025\0\\#t hf a
 ug-cc-pvdz iop(5/13=1,5/36=2,99/5=2) pseudo=read geom=check guess=(rea
 d,tcheck) scf=(maxcycle=1)\\title\\0,1\H,0,0.296999,2.638501,0.\Cl,0,-
 1.282302,-0.692895,0.\C,0,1.865985,-1.198419,0.\C,0,-0.5273,1.925834,0
 .\H,0,-1.148337,2.109135,0.878732\H,0,-1.148337,2.109135,-0.878732\C,0
 ,0.,0.528312,0.\C,0,1.27958,0.174679,0.\H,0,1.985598,0.999563,0.\H,0,1
 .099594,-1.969354,0.\H,0,2.502012,-1.345103,-0.876739\H,0,2.502012,-1.
 345103,0.876739\\Version=ES64L-G16RevC.01\State=1-A'\HF=-615.3018341\R

 Normal termination of Gaussian 16 at Sat Apr  5 22:54:51 2025.
