 Gaussian 16, Revision C.01,

 ----------------------------------------------------------------------
 #t hf aug-cc-pvdz symm=none int=(grid=ultrafine) guess=(read,tcheck) s
 table=(opt,rrhf)
 ----------------------------------------------------------------------
 -----
 title
 -----
 Symbolic Z-matrix:
 Charge =  0 Multiplicity = 1

 SCF Done:  E(RHF) =  -195.164476386     A.U. after   12 cycles
 Normal termination of Gaussian 16 at Sat Apr  5 22:54:51 2025.
 Gaussian 16:  ES64L-G16RevC.01  3-Jul-2019

 ----------------------------------------------------------------------
 #t hf aug-cc-pvdz iop(5/13=1,5/36=2,99/5=2) pseudo=read geom=check gue
 ss=(read,tcheck) scf=(maxcycle=1)
 ----------------------------------------------------------------------
 -----
 title
 -----
 Structure from the checkpoint file:  "Z-2-pentene.chk"
 Charge =  0 Multiplicity = 1

                         Standard orientation:
 ---------------------------------------------------------------------
 Center     Atomic      Atomic             Coordinates (Angstroms)
 Number     Number       Type             X           Y           Z
 ---------------------------------------------------------------------
      1          6           0        1.302290    0.615163   -0.139445
      2          6           0        0.013355    0.809181    0.136131
      3          6           0        2.074570   -0.668347   -0.088094
      4          6           0       -2.202655   -0.271676   -0.404781
      5          6           0       -1.010350   -0.203515    0.558717
      6          1           0        1.881490    1.484329   -0.436504
      7          1           0       -0.366648    1.822918    0.039577
      8          1           0        2.535067   -0.880542   -1.056528
      9          1           0        1.460917   -1.524351    0.185335
     10          1           0        2.891800   -0.598641    0.634949
     11          1           0       -2.954741   -0.977143   -0.048720
     12          1           0       -1.884282   -0.587950   -1.398923
     13          1           0       -2.681767    0.703861   -0.505963
     14          1           0       -1.381230    0.065717    1.553563
     15          1           0       -0.563862   -1.193034    0.658048
 ---------------------------------------------------------------------

 SCF Done:  E(RHF) =  -195.383524060     A.U. after    2 cycles

 The electronic state is 1-A.
 Alpha  occ. eigenvalues --  -11.23045 -11.22999 -11.22758 -11.22685 -11.22301
 Alpha  occ. eigenvalues --   -1.08810  -1.01701  -0.93100  -0.84748  -0.72583
 Alpha  occ. eigenvalues --   -0.66431  -0.60590  -0.59513  -0.56897  -0.53979
 Alpha  occ. eigenvalues --   -0.52732  -0.52123  -0.49141  -0.46900  -0.35041
 Alpha virt. eigenvalues --    0.03822   0.03958   0.04022   0.04320   0.05880
 Alpha virt. eigenvalues --    0.06283   0.06567   0.07618   0.08775   0.09769
 Alpha virt. eigenvalues --    0.12508   0.13266   0.13786   0.14115   0.15317

 Mulliken charges:
               1
     1  C    0.114890
     2  C    0.622781
     3  C   -0.679590
     4  C   -0.405598
     5  C   -0.631305
     6  H   -0.187215
     7  H   -0.221302
     8  H    0.258510
     9  H    0.070823
    10  H    0.245965
    11  H    0.104958
    12  H    0.143714
    13  H    0.163614
    14  H    0.246243
    15  H    0.153512
 Sum of Mulliken charges =   0.00000

 Dipole moment (field-independent basis, Debye):
    X=              0.0056    Y=             -0.2780    Z=              0.0689  Tot=              0.2865

 Test job not archived.
 1\1\GINC-SE146\SP\RHF\Aug-CC-pVDZ\C5H10\OHZDE\05-Apr-2025\0\\#t hf aug
 -cc-pvdz iop(5/13=1,5/36=2,99/5=2) pseudo=read geom=check guess=(read,
 tcheck) scf=(maxcycle=1)\\title\\0,1\C,0,1.30229,0.615163,-0.139445\C,
 0,0.013355,0.809181,0.136131\C,0,2.07457,-0.668347,-0.088094\C,0,-2.20
 2655,-0.271676,-0.404781\C,0,-1.01035,-0.203515,0.558717\H,0,1.88149,1
 .484329,-0.436504\H,0,-0.366648,1.822918,0.039577\H,0,2.535067,-0.8805
 41,-1.056528\H,0,1.460917,-1.524351,0.185335\H,0,2.8918,-0.59864,0.634
 949\H,0,-2.954741,-0.977144,-0.04872\H,0,-1.884282,-0.58795,-1.398923\

 Normal termination of Gaussian 16 at Sat Apr  5 22:54:55 2025.
