 Gaussian 16, Revision C.01,

 ----------------------------------------------------------------------
 #t hf aug-cc-pvdz symm=none int=(grid=ultrafine) guess=(read,tcheck) s
 table=(opt,rrhf)
 ----------------------------------------------------------------------
 -----
 title
 -----
 Symbolic Z-matrix:
 Charge =  0 Multiplicity = 1

 SCF Done:  E(RHF) =  -720.433861626     A.U. after   16 cycles
 Normal termination of Gaussian 16 at Sat Apr  5 22:54:47 2025.
 Gaussian 16:  ES64L-G16RevC.01  3-Jul-2019

 ----------------------------------------------------------------------
 #t hf aug-cc-pvdz iop(5/13=1,5/36=2,99/5=2) pseudo=read geom=check gue
 ss=(read,tcheck) scf=(maxcycle=1)
 ----------------------------------------------------------------------
 -----
 title
 -----
 Structure from the checkpoint file:  "Z-2-chloro-2-butenedinitrile.chk"
 Charge =  0 Multiplicity = 1

                         Standard orientation:
 ---------------------------------------------------------------------
 Center     Atomic      Atomic             Coordinates (Angstroms)
 Number     Number       Type             X           Y           Z
 ---------------------------------------------------------------------
      1         17           0       -0.219933    1.550529   -0.000002
      2          7           0       -2.880130   -0.962984    0.000001
      3          7           0        3.077266   -0.391223    0.000000
      4          6           0       -0.432054   -0.165225    0.000000
      5          6           0        0.591544   -1.033696    0.000001
      6          6           0       -1.783875   -0.609615    0.000001
      7          6           0        1.955445   -0.655823    0.000001
      8          1           0        0.372561   -2.093385    0.000003
 ---------------------------------------------------------------------

 SCF Done:  E(RHF) =  -720.758476025     A.U. after    2 cycles

 The electronic state is 1-A.
 Alpha  occ. eigenvalues -- -105.63277 -15.56630 -15.55736 -11.40976 -11.35512
 Alpha  occ. eigenvalues --  -11.32875 -11.32024 -10.68062  -7.85038  -7.84582
 Alpha  occ. eigenvalues --   -7.84577  -1.28692  -1.27370  -1.21663  -1.09607
 Alpha  occ. eigenvalues --   -0.97797  -0.80771  -0.76756  -0.66744  -0.64991
 Alpha  occ. eigenvalues --   -0.63383  -0.62962  -0.56471  -0.55582  -0.54088
 Alpha  occ. eigenvalues --   -0.53791  -0.51840  -0.43243
 Alpha virt. eigenvalues --   -0.01101   0.02666   0.05899   0.06091   0.07869
 Alpha virt. eigenvalues --    0.08607   0.10018   0.10485   0.11374   0.12026
 Alpha virt. eigenvalues --    0.12132   0.13110   0.13212   0.14509   0.15549

 Mulliken charges:
               1
     1  Cl  -0.167184
     2  N    0.843154
     3  N    0.977451
     4  C    0.620696
     5  C    2.077851
     6  C   -1.782365
     7  C   -2.438182
     8  H   -0.131421
 Sum of Mulliken charges =  -0.00000

 Dipole moment (field-independent basis, Debye):
    X=             -0.2469    Y=             -0.6067    Z=              0.0000  Tot=              0.6550

 Test job not archived.
 1\1\GINC-SE145\SP\RHF\Aug-CC-pVDZ\C4H1Cl1N2\OHZDE\05-Apr-2025\0\\#t hf
  aug-cc-pvdz iop(5/13=1,5/36=2,99/5=2) pseudo=read geom=check guess=(r
 ead,tcheck) scf=(maxcycle=1)\\title\\0,1\Cl,0,-0.219933,1.550529,-0.00
 0002\N,0,-2.88013,-0.962984,0.000001\N,0,3.077266,-0.391223,0.\C,0,-0.
 432054,-0.165225,0.\C,0,0.591544,-1.033696,0.000001\C,0,-1.783875,-0.6
 09615,0.000001\C,0,1.955445,-0.655823,0.000001\H,0,0.372561,-2.093385,
 0.000003\\Version=ES64L-G16RevC.01\State=1-A\HF=-720.758476\RMSD=4.350
 e-02\Dipole=-0.0971298,-0.2386803,0.0000012\Quadrupole=-14.1996828,8.8

 Normal termination of Gaussian 16 at Sat Apr  5 22:54:51 2025.
