 Gaussian 16, Revision C.01,

 ----------------------------------------------------------------------
 #t hf aug-cc-pvdz symm=none int=(grid=ultrafine) guess=(read,tcheck) s
 table=(opt,rrhf)
 ----------------------------------------------------------------------
 -----
 title
 -----
 Symbolic Z-matrix:
 Charge =  0 Multiplicity = 1

 SCF Done:  E(RHF) =  -247.872397343     A.U. after   14 cycles
 Normal termination of Gaussian 16 at Sat Apr  5 22:54:56 2025.
 Gaussian 16:  ES64L-G16RevC.01  3-Jul-2019

 ----------------------------------------------------------------------
 #t hf aug-cc-pvdz iop(5/13=1,5/36=2,99/5=2) pseudo=read geom=check gue
 ss=(read,tcheck) scf=(maxcycle=1)
 ----------------------------------------------------------------------
 -----
 title
 -----
 Structure from the checkpoint file:  "Z-2-pentenenitrile.chk"
 Charge =  0 Multiplicity = 1

                         Standard orientation:
 ---------------------------------------------------------------------
 Center     Atomic      Atomic             Coordinates (Angstroms)
 Number     Number       Type             X           Y           Z
 ---------------------------------------------------------------------
      1          6           0       -1.766341   -0.115464   -0.079800
      2          7           0       -2.492129   -1.010435   -0.031960
      3          6           0       -0.894931    1.009998   -0.149808
      4          1           0       -1.357106    1.941241   -0.450071
      5          6           0        0.411013    0.955887    0.131841
      6          1           0        0.972979    1.879716    0.039002
      7          6           0        1.185347   -0.249154    0.551313
      8          1           0        0.526822   -1.114981    0.622590
      9          1           0        1.581474   -0.068108    1.556020
     10          6           0        2.357367   -0.548639   -0.394504
     11          1           0        2.000836   -0.775983   -1.399184
     12          1           0        3.038423    0.301062   -0.463225
     13          1           0        2.926753   -1.405678   -0.035660
 ---------------------------------------------------------------------

 SCF Done:  E(RHF) =  -248.130425193     A.U. after    2 cycles

 The electronic state is 1-A.
 Alpha  occ. eigenvalues --  -15.51120 -11.28944 -11.28340 -11.28089 -11.25798
 Alpha  occ. eigenvalues --  -11.24510  -1.23285  -1.12703  -1.03729  -0.90798
 Alpha  occ. eigenvalues --   -0.83822  -0.70471  -0.69372  -0.62718  -0.61011
 Alpha  occ. eigenvalues --   -0.58213  -0.55905  -0.53359  -0.52624  -0.51701
 Alpha  occ. eigenvalues --   -0.49569  -0.39677
 Alpha virt. eigenvalues --    0.02817   0.03304   0.03942   0.04153   0.06460
 Alpha virt. eigenvalues --    0.06829   0.07428   0.07819   0.10084   0.11409
 Alpha virt. eigenvalues --    0.11811   0.12892   0.14000   0.14433   0.15309

 Mulliken charges:
               1
     1  C   -2.273795
     2  N    0.925601
     3  C    1.114295
     4  H   -0.145472
     5  C    0.636657
     6  H   -0.193574
     7  C   -0.575035
     8  H    0.221270
     9  H    0.231242
    10  C   -0.378292
    11  H    0.152969
    12  H    0.165838
    13  H    0.118297
 Sum of Mulliken charges =  -0.00000

 Dipole moment (field-independent basis, Debye):
    X=              4.2551    Y=              3.1450    Z=              0.0867  Tot=              5.2919

 Test job not archived.
 1\1\GINC-SE190\SP\RHF\Aug-CC-pVDZ\C5H7N1\OHZDE\05-Apr-2025\0\\#t hf au
 g-cc-pvdz iop(5/13=1,5/36=2,99/5=2) pseudo=read geom=check guess=(read
 ,tcheck) scf=(maxcycle=1)\\title\\0,1\C,0,-1.766341,-0.115464,-0.0798\
 N,0,-2.492129,-1.010435,-0.03196\C,0,-0.894931,1.009998,-0.149808\H,0,
 -1.357106,1.941241,-0.450071\C,0,0.411013,0.955887,0.131841\H,0,0.9729
 79,1.879716,0.039002\C,0,1.185347,-0.249154,0.551313\H,0,0.526822,-1.1
 14981,0.62259\H,0,1.581474,-0.068108,1.55602\C,0,2.357367,-0.548639,-0
 .394504\H,0,2.000836,-0.775983,-1.399184\H,0,3.038423,0.301062,-0.4632

 Normal termination of Gaussian 16 at Sat Apr  5 22:54:59 2025.
