 Gaussian 16, Revision C.01,

 ----------------------------------------------------------------------
 #t hf aug-cc-pvdz symm=none int=(grid=ultrafine) guess=(read,tcheck) s
 table=(opt,rrhf)
 ----------------------------------------------------------------------
 -----
 title
 -----
 Symbolic Z-matrix:
 Charge =  0 Multiplicity = 1

 SCF Done:  E(RHF) =  -208.833737472     A.U. after   14 cycles
 Normal termination of Gaussian 16 at Sat Apr  5 22:54:45 2025.
 Gaussian 16:  ES64L-G16RevC.01  3-Jul-2019

 ----------------------------------------------------------------------
 #t hf aug-cc-pvdz iop(5/13=1,5/36=2,99/5=2) pseudo=read geom=check gue
 ss=(read,tcheck) scf=(maxcycle=1)
 ----------------------------------------------------------------------
 -----
 title
 -----
 Structure from the checkpoint file:  "Z-2-butenenitrile.chk"
 Charge =  0 Multiplicity = 1

                         Standard orientation:
 ---------------------------------------------------------------------
 Center     Atomic      Atomic             Coordinates (Angstroms)
 Number     Number       Type             X           Y           Z
 ---------------------------------------------------------------------
      1          6           0       -1.222725    0.248264    0.000000
      2          7           0       -2.224302   -0.323411    0.000000
      3          6           0        0.000000    0.979779    0.000000
      4          1           0       -0.097533    2.057310    0.000000
      5          6           0        1.206868    0.404586    0.000000
      6          1           0        2.065769    1.066361    0.000000
      7          6           0        1.490613   -1.057531    0.000000
      8          1           0        0.580711   -1.654271    0.000000
      9          1           0        2.086316   -1.328056    0.875372
     10          1           0        2.086316   -1.328056   -0.875372
 ---------------------------------------------------------------------

 SCF Done:  E(RHF) =  -209.048202023     A.U. after    2 cycles

 The electronic state is 1-A'.
 Alpha  occ. eigenvalues --  -15.51214 -11.29376 -11.28439 -11.28167 -11.25741
 Alpha  occ. eigenvalues --   -1.23369  -1.12084  -0.99261  -0.85554  -0.70981
 Alpha  occ. eigenvalues --   -0.68488  -0.60654  -0.60343  -0.57173  -0.55166
 Alpha  occ. eigenvalues --   -0.53673  -0.49937  -0.39827
 Alpha virt. eigenvalues --    0.02704   0.03713   0.04434   0.04718   0.07289
 Alpha virt. eigenvalues --    0.07463   0.08944   0.11159   0.12436   0.13177
 Alpha virt. eigenvalues --    0.13619   0.13711   0.14766   0.15549   0.16502

 Mulliken charges:
               1
     1  C   -2.198967
     2  N    0.886725
     3  C    1.159120
     4  H   -0.127504
     5  C    0.263331
     6  H   -0.159554
     7  C   -0.494518
     8  H    0.199530
     9  H    0.235918
    10  H    0.235918
 Sum of Mulliken charges =  -0.00000

 Dipole moment (field-independent basis, Debye):
    X=              5.0733    Y=              1.4706    Z=              0.0000  Tot=              5.2822

 Test job not archived.
 1\1\GINC-SE012\SP\RHF\Aug-CC-pVDZ\C4H5N1\OHZDE\05-Apr-2025\0\\#t hf au
 g-cc-pvdz iop(5/13=1,5/36=2,99/5=2) pseudo=read geom=check guess=(read
 ,tcheck) scf=(maxcycle=1)\\title\\0,1\C,0,-1.222725,0.248264,0.\N,0,-2
 .224302,-0.323411,0.\C,0,0.,0.979779,0.\H,0,-0.097533,2.05731,0.\C,0,1
 .206868,0.404586,0.\H,0,2.065769,1.066361,0.\C,0,1.490613,-1.057531,0.
 \H,0,0.580711,-1.654271,0.\H,0,2.086316,-1.328056,0.875372\H,0,2.08631
 6,-1.328056,-0.875372\\Version=ES64L-G16RevC.01\State=1-A'\HF=-209.048
 202\RMSD=2.927e-02\Dipole=1.9959975,0.5785968,0.\Quadrupole=-3.851068,

 Normal termination of Gaussian 16 at Sat Apr  5 22:54:48 2025.
