 Gaussian 16, Revision C.01,

 ----------------------------------------------------------------------
 #t hf aug-cc-pvdz symm=none int=(grid=ultrafine) guess=(read,tcheck) s
 table=(opt,rrhf)
 ----------------------------------------------------------------------
 -----
 title
 -----
 Symbolic Z-matrix:
 Charge =  0 Multiplicity = 1

 SCF Done:  E(RHF) =  -156.125980711     A.U. after   11 cycles
 Normal termination of Gaussian 16 at Sat Apr  5 22:54:44 2025.
 Gaussian 16:  ES64L-G16RevC.01  3-Jul-2019

 ----------------------------------------------------------------------
 #t hf aug-cc-pvdz iop(5/13=1,5/36=2,99/5=2) pseudo=read geom=check gue
 ss=(read,tcheck) scf=(maxcycle=1)
 ----------------------------------------------------------------------
 -----
 title
 -----
 Structure from the checkpoint file:  "Z-2-butene.chk"
 Charge =  0 Multiplicity = 1

                         Standard orientation:
 ---------------------------------------------------------------------
 Center     Atomic      Atomic             Coordinates (Angstroms)
 Number     Number       Type             X           Y           Z
 ---------------------------------------------------------------------
      1          6           0        0.000000    0.665985    0.661718
      2          6           0       -0.000000   -0.665985    0.661718
      3          6           0        0.000000    1.586665   -0.520621
      4          6           0       -0.000000   -1.586665   -0.520621
      5          1           0        0.000000    1.161212    1.627911
      6          1           0       -0.000000   -1.161212    1.627911
      7          1           0        0.000000    1.057812   -1.471692
      8          1           0       -0.000000   -1.057812   -1.471692
      9          1           0       -0.875737    2.240903   -0.501401
     10          1           0        0.875737    2.240903   -0.501401
     11          1           0        0.875737   -2.240903   -0.501401
     12          1           0       -0.875737   -2.240903   -0.501401
 ---------------------------------------------------------------------

 SCF Done:  E(RHF) =  -156.301375985     A.U. after    2 cycles

 The electronic state is 1-A1.
 Alpha  occ. eigenvalues --  -11.23059 -11.22938 -11.22768 -11.22748  -1.07916
 Alpha  occ. eigenvalues --   -0.98056  -0.89879  -0.72563  -0.66253  -0.58272
 Alpha  occ. eigenvalues --   -0.57801  -0.55899  -0.54359  -0.52089  -0.48072
 Alpha  occ. eigenvalues --   -0.35052
 Alpha virt. eigenvalues --    0.03874   0.04183   0.04323   0.05181   0.06184
 Alpha virt. eigenvalues --    0.06636   0.06920   0.09837   0.11857   0.13516
 Alpha virt. eigenvalues --    0.13956   0.15020   0.15062   0.15568   0.16263

 Mulliken charges:
               1
     1  C    0.248105
     2  C    0.248105
     3  C   -0.654458
     4  C   -0.654458
     5  H   -0.180237
     6  H   -0.180237
     7  H    0.094883
     8  H    0.094883
     9  H    0.245854
    10  H    0.245854
    11  H    0.245854
    12  H    0.245854
 Sum of Mulliken charges =  -0.00000

 Dipole moment (field-independent basis, Debye):
    X=             -0.0000    Y=             -0.0000    Z=             -0.2484  Tot=              0.2484

 Test job not archived.
 1\1\GINC-SE232\SP\RHF\Aug-CC-pVDZ\C4H8\OHZDE\05-Apr-2025\0\\#t hf aug-
 cc-pvdz iop(5/13=1,5/36=2,99/5=2) pseudo=read geom=check guess=(read,t
 check) scf=(maxcycle=1)\\title\\0,1\C,0,0.,0.665985,0.661718\C,0,0.,-0
 .665985,0.661718\C,0,0.,1.586665,-0.520621\C,0,0.,-1.586665,-0.520621\
 H,0,0.,1.161212,1.627911\H,0,0.,-1.161212,1.627911\H,0,0.,1.057812,-1.
 471692\H,0,0.,-1.057812,-1.471692\H,0,-0.875737,2.240903,-0.501401\H,0
 ,0.875737,2.240903,-0.501401\H,0,0.875737,-2.240903,-0.501401\H,0,-0.8
 75737,-2.240903,-0.501401\\Version=ES64L-G16RevC.01\State=1-A1\HF=-156

 Normal termination of Gaussian 16 at Sat Apr  5 22:54:47 2025.
