 Gaussian 16, Revision C.01,

 ----------------------------------------------------------------------
 #t hf aug-cc-pvdz symm=none int=(grid=ultrafine) guess=(read,tcheck) s
 table=(opt,rrhf)
 ----------------------------------------------------------------------
 -----
 title
 -----
 Symbolic Z-matrix:
 Charge =  0 Multiplicity = 1

 SCF Done:  E(RHF) =  -192.769988134     A.U. after   14 cycles
 Normal termination of Gaussian 16 at Sat Apr  5 22:54:42 2025.
 Gaussian 16:  ES64L-G16RevC.01  3-Jul-2019

 ----------------------------------------------------------------------
 #t hf aug-cc-pvdz iop(5/13=1,5/36=2,99/5=2) pseudo=read geom=check gue
 ss=(read,tcheck) scf=(maxcycle=1)
 ----------------------------------------------------------------------
 -----
 title
 -----
 Structure from the checkpoint file:  "Z-3-penten-1-yne.chk"
 Charge =  0 Multiplicity = 1

                         Standard orientation:
 ---------------------------------------------------------------------
 Center     Atomic      Atomic             Coordinates (Angstroms)
 Number     Number       Type             X           Y           Z
 ---------------------------------------------------------------------
      1          1           0        3.165275   -0.906366    0.000000
      2          6           0        2.248373   -0.372188    0.000000
      3          6           0        1.205752    0.228394    0.000000
      4          1           0        0.114647    2.056770    0.000000
      5          6           0        0.000000    0.978779    0.000000
      6          1           0       -2.064969    1.154769    0.000000
      7          6           0       -1.233830    0.458318    0.000000
      8          1           0       -0.691320   -1.620929    0.000000
      9          1           0       -2.183701   -1.244462    0.875775
     10          1           0       -2.183701   -1.244462   -0.875775
     11          6           0       -1.579666   -0.992523    0.000000
 ---------------------------------------------------------------------

 SCF Done:  E(RHF) =  -192.975018580     A.U. after    2 cycles

 The electronic state is 1-A'.
 Alpha  occ. eigenvalues --  -11.26094 -11.25658 -11.24529 -11.23718 -11.23629
 Alpha  occ. eigenvalues --   -1.10512  -1.02501  -0.95348  -0.81797  -0.71806
 Alpha  occ. eigenvalues --   -0.67641  -0.64350  -0.58168  -0.54661  -0.52637
 Alpha  occ. eigenvalues --   -0.46391  -0.40286  -0.34160
 Alpha virt. eigenvalues --    0.03505   0.03829   0.04225   0.05447   0.05596
 Alpha virt. eigenvalues --    0.07388   0.09379   0.10590   0.11404   0.11612
 Alpha virt. eigenvalues --    0.12878   0.13839   0.14543   0.14804   0.15623

 Mulliken charges:
               1
     1  H   -0.349862
     2  C    0.033289
     3  C    0.216673
     4  H   -0.214689
     5  C    0.420613
     6  H   -0.173066
     7  C    0.151087
     8  H    0.153422
     9  H    0.224115
    10  H    0.224115
    11  C   -0.685696
 Sum of Mulliken charges =  -0.00000

 Dipole moment (field-independent basis, Debye):
    X=             -0.9647    Y=             -0.2377    Z=              0.0000  Tot=              0.9936

 Test job not archived.
 1\1\GINC-SE226\SP\RHF\Aug-CC-pVDZ\C5H6\OHZDE\05-Apr-2025\0\\#t hf aug-
 cc-pvdz iop(5/13=1,5/36=2,99/5=2) pseudo=read geom=check guess=(read,t
 check) scf=(maxcycle=1)\\title\\0,1\H,0,3.165275,-0.906366,0.\C,0,2.24
 8373,-0.372188,0.\C,0,1.205752,0.228394,0.\H,0,0.114647,2.05677,0.\C,0
 ,0.,0.978779,0.\H,0,-2.064969,1.154769,0.\C,0,-1.23383,0.458318,0.\H,0
 ,-0.69132,-1.620929,0.\H,0,-2.183701,-1.244462,0.875775\H,0,-2.183701,
 -1.244462,-0.875775\C,0,-1.579666,-0.992523,0.\\Version=ES64L-G16RevC.
 01\State=1-A'\HF=-192.9750186\RMSD=2.241e-02\Dipole=-0.3795472,-0.0935

 Normal termination of Gaussian 16 at Sat Apr  5 22:54:46 2025.
