 Gaussian 16, Revision C.01,

 ----------------------------------------------------------------------
 #t hf aug-cc-pvdz symm=none int=(grid=ultrafine) guess=(read,tcheck) s
 table=(opt,rrhf)
 ----------------------------------------------------------------------
 -----
 title
 -----
 Symbolic Z-matrix:
 Charge =  0 Multiplicity = 1

 SCF Done:  E(RHF) =  -461.592765502     A.U. after   15 cycles
 Normal termination of Gaussian 16 at Sat Apr  5 22:54:57 2025.
 Gaussian 16:  ES64L-G16RevC.01  3-Jul-2019

 ----------------------------------------------------------------------
 #t hf aug-cc-pvdz iop(5/13=1,5/36=2,99/5=2) pseudo=read geom=check gue
 ss=(read,tcheck) scf=(maxcycle=1)
 ----------------------------------------------------------------------
 -----
 title
 -----
 Structure from the checkpoint file:  "Z-3-amino-2-4-difluorobut-2-enenitrile.chk"
 Charge =  0 Multiplicity = 1

                         Standard orientation:
 ---------------------------------------------------------------------
 Center     Atomic      Atomic             Coordinates (Angstroms)
 Number     Number       Type             X           Y           Z
 ---------------------------------------------------------------------
      1          9           0        2.712836   -0.183297   -0.382192
      2          9           0       -0.780636    1.809141   -0.002362
      3          7           0        0.499090   -1.575311    0.231574
      4          7           0       -3.035226   -0.748871   -0.138204
      5          6           0        0.398551   -0.217436    0.121358
      6          6           0        1.691625    0.542189    0.236949
      7          6           0       -0.771372    0.445989    0.008802
      8          6           0       -2.034053   -0.175673   -0.069809
      9          1           0        1.624059    1.515903   -0.239488
     10          1           0        1.970850    0.661136    1.285812
     11          1           0        1.376086   -1.979329   -0.052815
     12          1           0       -0.316350   -2.131455    0.030091
 ---------------------------------------------------------------------

 SCF Done:  E(RHF) =  -462.036734939     A.U. after    2 cycles

 The electronic state is 1-A.
 Alpha  occ. eigenvalues --  -26.49752 -26.48558 -15.55323 -15.53188 -11.36611
 Alpha  occ. eigenvalues --  -11.35838 -11.34961 -11.29883  -1.62264  -1.60582
 Alpha  occ. eigenvalues --   -1.27814  -1.24632  -1.09188  -1.01448  -0.88218
 Alpha  occ. eigenvalues --   -0.82016  -0.79618  -0.73691  -0.72453  -0.70048
 Alpha  occ. eigenvalues --   -0.69569  -0.68703  -0.64222  -0.61680  -0.59184
 Alpha  occ. eigenvalues --   -0.57142  -0.55769  -0.53711  -0.52200  -0.37310
 Alpha virt. eigenvalues --    0.02807   0.03829   0.04692   0.06112   0.07280
 Alpha virt. eigenvalues --    0.07791   0.09157   0.09777   0.11786   0.11879
 Alpha virt. eigenvalues --    0.13106   0.13343   0.13741   0.15042   0.15709

 Mulliken charges:
               1
     1  F   -0.763088
     2  F   -0.955705
     3  N    0.670743
     4  N    0.963823
     5  C   -1.573959
     6  C    0.911110
     7  C    2.603541
     8  C   -2.406134
     9  H    0.126755
    10  H    0.207214
    11  H    0.078358
    12  H    0.137342
 Sum of Mulliken charges =  -0.00000

 Dipole moment (field-independent basis, Debye):
    X=              4.3282    Y=              0.0501    Z=              0.5132  Tot=              4.3588

 Test job not archived.
 1\1\GINC-SE190\SP\RHF\Aug-CC-pVDZ\C4H4F2N2\OHZDE\05-Apr-2025\0\\#t hf
 aug-cc-pvdz iop(5/13=1,5/36=2,99/5=2) pseudo=read geom=check guess=(re
 ad,tcheck) scf=(maxcycle=1)\\title\\0,1\F,0,2.712836,-0.183297,-0.3821
 92\F,0,-0.780636,1.809141,-0.002362\N,0,0.49909,-1.575311,0.231574\N,0
 ,-3.035226,-0.748871,-0.138204\C,0,0.398551,-0.217436,0.121358\C,0,1.6
 91625,0.542189,0.236949\C,0,-0.771372,0.445989,0.008802\C,0,-2.034053,
 -0.175673,-0.069809\H,0,1.624059,1.515903,-0.239488\H,0,1.97085,0.6611
 36,1.285812\H,0,1.376086,-1.979329,-0.052815\H,0,-0.31635,-2.131455,0.

 Normal termination of Gaussian 16 at Sat Apr  5 22:55:02 2025.
