 Gaussian 16, Revision C.01,

 ----------------------------------------------------------------------
 #t hf aug-cc-pvdz symm=none int=(grid=ultrafine) guess=(read,tcheck) s
 table=(opt,rrhf)
 ----------------------------------------------------------------------
 -----
 title
 -----
 Symbolic Z-matrix:
 Charge =  0 Multiplicity = 1

 SCF Done:  E(RHF) =  -337.684491499     A.U. after   13 cycles
 Normal termination of Gaussian 16 at Sat Apr  5 22:54:47 2025.
 Gaussian 16:  ES64L-G16RevC.01  3-Jul-2019

 ----------------------------------------------------------------------
 #t hf aug-cc-pvdz iop(5/13=1,5/36=2,99/5=2) pseudo=read geom=check gue
 ss=(read,tcheck) scf=(maxcycle=1)
 ----------------------------------------------------------------------
 -----
 title
 -----
 Structure from the checkpoint file:  "Z-azodioxymethane.chk"
 Charge =  0 Multiplicity = 1

                         Standard orientation:
 ---------------------------------------------------------------------
 Center     Atomic      Atomic             Coordinates (Angstroms)
 Number     Number       Type             X           Y           Z
 ---------------------------------------------------------------------
      1          7           0       -0.000879    0.657327   -0.156908
      2          7           0        0.000879   -0.657327   -0.156908
      3          8           0        0.011007    1.297461   -1.232955
      4          8           0       -0.011007   -1.297461   -1.232955
      5          6           0        0.000879    1.397974    1.121153
      6          6           0       -0.000879   -1.397974    1.121153
      7          1           0       -0.261515    2.413654    0.851840
      8          1           0       -0.729762    0.994639    1.816917
      9          1           0        0.995166    1.380452    1.566321
     10          1           0        0.261515   -2.413654    0.851840
     11          1           0        0.729762   -0.994639    1.816917
     12          1           0       -0.995166   -1.380452    1.566321
 ---------------------------------------------------------------------

 SCF Done:  E(RHF) =  -338.023770600     A.U. after    2 cycles

 The electronic state is 1-A.
 Alpha  occ. eigenvalues --  -20.53239 -20.53224 -15.71621 -15.70593 -11.32311
 Alpha  occ. eigenvalues --  -11.32290  -1.58562  -1.50584  -1.28718  -1.09690
 Alpha  occ. eigenvalues --   -1.06345  -0.84096  -0.80653  -0.77852  -0.73276
 Alpha  occ. eigenvalues --   -0.65489  -0.65031  -0.63470  -0.62224  -0.61500
 Alpha  occ. eigenvalues --   -0.52467  -0.45031  -0.45014  -0.32863
 Alpha virt. eigenvalues --    0.02021   0.03531   0.03715   0.04392   0.04777
 Alpha virt. eigenvalues --    0.06509   0.07491   0.07563   0.11716   0.12651
 Alpha virt. eigenvalues --    0.14762   0.14771   0.15392   0.15681   0.16857

 Mulliken charges:
               1
     1  N    1.125208
     2  N    1.125208
     3  O   -1.422440
     4  O   -1.422440
     5  C   -0.222319
     6  C   -0.222319
     7  H    0.080772
     8  H    0.195809
     9  H    0.242970
    10  H    0.080772
    11  H    0.195809
    12  H    0.242970
 Sum of Mulliken charges =  -0.00000

 Dipole moment (field-independent basis, Debye):
    X=             -0.0000    Y=              0.0000    Z=              7.2894  Tot=              7.2894

 Test job not archived.
 1\1\GINC-SE106\SP\RHF\Aug-CC-pVDZ\C2H6N2O2\OHZDE\05-Apr-2025\0\\#t hf
 aug-cc-pvdz iop(5/13=1,5/36=2,99/5=2) pseudo=read geom=check guess=(re
 ad,tcheck) scf=(maxcycle=1)\\title\\0,1\N,0,-0.000879,0.657327,-0.1569
 08\N,0,0.000879,-0.657327,-0.156908\O,0,0.011007,1.297461,-1.232955\O,
 0,-0.011007,-1.297461,-1.232955\C,0,0.000879,1.397974,1.121153\C,0,-0.
 000879,-1.397974,1.121153\H,0,-0.261515,2.413654,0.85184\H,0,-0.729762
 ,0.994639,1.816917\H,0,0.995166,1.380452,1.566321\H,0,0.261515,-2.4136
 54,0.85184\H,0,0.729762,-0.994639,1.816917\H,0,-0.995166,-1.380452,1.5

 Normal termination of Gaussian 16 at Sat Apr  5 22:54:51 2025.
