 Gaussian 16, Revision C.01,

 ----------------------------------------------------------------------
 #t hf aug-cc-pvdz symm=none int=(grid=ultrafine) guess=(read,tcheck) s
 table=(opt,rrhf)
 ----------------------------------------------------------------------
 -----
 title
 -----
 Symbolic Z-matrix:
 Charge =  0 Multiplicity = 1

 SCF Done:  E(RHF) =  -188.077583983     A.U. after   11 cycles
 Normal termination of Gaussian 16 at Sat Apr  5 22:54:41 2025.
 Gaussian 16:  ES64L-G16RevC.01  3-Jul-2019

 ----------------------------------------------------------------------
 #t hf aug-cc-pvdz iop(5/13=1,5/36=2,99/5=2) pseudo=read geom=check gue
 ss=(read,tcheck) scf=(maxcycle=1)
 ----------------------------------------------------------------------
 -----
 title
 -----
 Structure from the checkpoint file:  "Z-dimethyldiazine.chk"
 Charge =  0 Multiplicity = 1

                         Standard orientation:
 ---------------------------------------------------------------------
 Center     Atomic      Atomic             Coordinates (Angstroms)
 Number     Number       Type             X           Y           Z
 ---------------------------------------------------------------------
      1          6           0        0.000000    1.361719    0.498953
      2          7           0        0.000000    0.616634   -0.777570
      3          7           0       -0.000000   -0.616634   -0.777570
      4          6           0       -0.000000   -1.361719    0.498953
      5          1           0        0.885227    1.126165    1.094742
      6          1           0       -0.885227    1.126165    1.094742
      7          1           0        0.000000    2.420611    0.259791
      8          1           0        0.885227   -1.126165    1.094742
      9          1           0       -0.885227   -1.126165    1.094742
     10          1           0       -0.000000   -2.420611    0.259791
 ---------------------------------------------------------------------

 SCF Done:  E(RHF) =  -188.275779429     A.U. after    2 cycles

 The electronic state is 1-A1.
 Alpha  occ. eigenvalues --  -15.56094 -15.55529 -11.26835 -11.26824  -1.35899
 Alpha  occ. eigenvalues --   -1.05841  -0.99678  -0.79855  -0.70490  -0.68311
 Alpha  occ. eigenvalues --   -0.66016  -0.58164  -0.57189  -0.53741  -0.49792
 Alpha  occ. eigenvalues --   -0.41186
 Alpha virt. eigenvalues --    0.03367   0.04609   0.05052   0.05172   0.06797
 Alpha virt. eigenvalues --    0.07332   0.08428   0.08601   0.12806   0.14996
 Alpha virt. eigenvalues --    0.15955   0.16335   0.16832   0.16861   0.19145

 Mulliken charges:
               1
     1  C   -0.352824
     2  N   -0.119759
     3  N   -0.119759
     4  C   -0.352824
     5  H    0.233484
     6  H    0.233484
     7  H    0.005614
     8  H    0.233484
     9  H    0.233484
    10  H    0.005614
 Sum of Mulliken charges =  -0.00000

 Dipole moment (field-independent basis, Debye):
    X=              0.0000    Y=              0.0000    Z=              3.6121  Tot=              3.6121

 Test job not archived.
 1\1\GINC-SE108\SP\RHF\Aug-CC-pVDZ\C2H6N2\OHZDE\05-Apr-2025\0\\#t hf au
 g-cc-pvdz iop(5/13=1,5/36=2,99/5=2) pseudo=read geom=check guess=(read
 ,tcheck) scf=(maxcycle=1)\\title\\0,1\C,0,0.,1.361719,0.498953\N,0,0.,
 0.616634,-0.77757\N,0,0.,-0.616634,-0.77757\C,0,0.,-1.361719,0.498953\
 H,0,0.885227,1.126165,1.094742\H,0,-0.885227,1.126165,1.094742\H,0,0.,
 2.420611,0.259791\H,0,0.885227,-1.126165,1.094742\H,0,-0.885227,-1.126
 165,1.094742\H,0,0.,-2.420611,0.259791\\Version=ES64L-G16RevC.01\State
 =1-A1\HF=-188.2757794\RMSD=3.747e-02\Dipole=0.,0.,1.4211026\Quadrupole

 Normal termination of Gaussian 16 at Sat Apr  5 22:54:44 2025.
