 Gaussian 16, Revision C.01,

 ----------------------------------------------------------------------
 #t hf aug-cc-pvdz symm=none int=(grid=ultrafine) guess=(read,tcheck) s
 table=(opt,rrhf)
 ----------------------------------------------------------------------
 -----
 title
 -----
 Symbolic Z-matrix:
 Charge =  0 Multiplicity = 1

 SCF Done:  E(RHF) =  -234.203448611     A.U. after   13 cycles
 Normal termination of Gaussian 16 at Sat Apr  5 22:55:11 2025.
 Gaussian 16:  ES64L-G16RevC.01  3-Jul-2019

 ----------------------------------------------------------------------
 #t hf aug-cc-pvdz iop(5/13=1,5/36=2,99/5=2) pseudo=read geom=check gue
 ss=(read,tcheck) scf=(maxcycle=1)
 ----------------------------------------------------------------------
 -----
 title
 -----
 Structure from the checkpoint file:  "Z-hex-2-ene.chk"
 Charge =  0 Multiplicity = 1

                         Standard orientation:
 ---------------------------------------------------------------------
 Center     Atomic      Atomic             Coordinates (Angstroms)
 Number     Number       Type             X           Y           Z
 ---------------------------------------------------------------------
      1          6           0        2.504241    0.931319   -0.085192
      2          6           0        1.998142   -0.478800   -0.128417
      3          6           0        0.769296   -0.918216    0.140008
      4          6           0       -0.434805   -0.119302    0.542445
      5          6           0       -1.601727   -0.257472   -0.447654
      6          6           0       -2.851525    0.501404   -0.006889
      7          1           0        1.734783    1.651980    0.184380
      8          1           0        3.319775    1.027195    0.636764
      9          1           0        2.913879    1.224357   -1.055460
     10          1           0        2.738677   -1.220567   -0.412233
     11          1           0        0.595713   -1.987355    0.051531
     12          1           0       -0.185051    0.936381    0.659414
     13          1           0       -0.776153   -0.463279    1.525879
     14          1           0       -1.278423    0.098753   -1.429077
     15          1           0       -1.840844   -1.317309   -0.573189
     16          1           0       -3.661297    0.386912   -0.728721
     17          1           0       -3.213611    0.139892    0.957916
     18          1           0       -2.649176    1.569437    0.096993
 ---------------------------------------------------------------------

 SCF Done:  E(RHF) =  -234.466081184     A.U. after    2 cycles

 The electronic state is 1-A.
 Alpha  occ. eigenvalues --  -11.23020 -11.22742 -11.22712 -11.22653 -11.22622
 Alpha  occ. eigenvalues --  -11.22111  -1.09361  -1.04049  -0.96166  -0.89882
 Alpha  occ. eigenvalues --   -0.81080  -0.72716  -0.66761  -0.61890  -0.60246
 Alpha  occ. eigenvalues --   -0.57475  -0.56511  -0.54319  -0.53055  -0.51051
 Alpha  occ. eigenvalues --   -0.48768  -0.47535  -0.46740  -0.34957
 Alpha virt. eigenvalues --    0.03631   0.03720   0.03972   0.04070   0.05602
 Alpha virt. eigenvalues --    0.05800   0.06133   0.06888   0.08029   0.08691
 Alpha virt. eigenvalues --    0.09342   0.10279   0.12668   0.12849   0.13815

 Mulliken charges:
               1
     1  C   -0.679130
     2  C    0.062806
     3  C    0.848132
     4  C   -0.576811
     5  C   -0.421033
     6  C   -0.374054
     7  H    0.065664
     8  H    0.245511
     9  H    0.262821
    10  H   -0.193704
    11  H   -0.242030
    12  H    0.093959
    13  H    0.226793
    14  H    0.137755
    15  H    0.115923
    16  H    0.113889
    17  H    0.162244
    18  H    0.151267
 Sum of Mulliken charges =  -0.00000

 Dipole moment (field-independent basis, Debye):
    X=             -0.0712    Y=              0.2332    Z=             -0.0157  Tot=              0.2443

 Test job not archived.
 1\1\GINC-SE170\SP\RHF\Aug-CC-pVDZ\C6H12\OHZDE\05-Apr-2025\0\\#t hf aug
 -cc-pvdz iop(5/13=1,5/36=2,99/5=2) pseudo=read geom=check guess=(read,
 tcheck) scf=(maxcycle=1)\\title\\0,1\C,0,2.504241,0.931319,-0.085192\C
 ,0,1.998142,-0.4788,-0.128417\C,0,0.769296,-0.918216,0.140008\C,0,-0.4
 34805,-0.119302,0.542445\C,0,-1.601727,-0.257472,-0.447654\C,0,-2.8515
 25,0.501404,-0.006889\H,0,1.734783,1.65198,0.18438\H,0,3.319775,1.0271
 95,0.636764\H,0,2.913879,1.224357,-1.05546\H,0,2.738677,-1.220567,-0.4
 12233\H,0,0.595713,-1.987355,0.051531\H,0,-0.185051,0.936381,0.659414\

 Normal termination of Gaussian 16 at Sat Apr  5 22:55:50 2025.
