 Gaussian 16, Revision C.01,

 ----------------------------------------------------------------------
 #t hf aug-cc-pvdz symm=none int=(grid=ultrafine) guess=(read,tcheck) s
 table=(opt,rrhf)
 ----------------------------------------------------------------------
 -----
 title
 -----
 Symbolic Z-matrix:
 Charge =  0 Multiplicity = 1

 SCF Done:  E(RHF) =  -229.407254613     A.U. after   13 cycles
 Normal termination of Gaussian 16 at Sat Apr  5 22:54:45 2025.
 Gaussian 16:  ES64L-G16RevC.01  3-Jul-2019

 ----------------------------------------------------------------------
 #t hf aug-cc-pvdz iop(5/13=1,5/36=2,99/5=2) pseudo=read geom=check gue
 ss=(read,tcheck) scf=(maxcycle=1)
 ----------------------------------------------------------------------
 -----
 title
 -----
 Structure from the checkpoint file:  "Z-hexa-1-5-diyne-3-ene.chk"
 Charge =  0 Multiplicity = 1

                         Standard orientation:
 ---------------------------------------------------------------------
 Center     Atomic      Atomic             Coordinates (Angstroms)
 Number     Number       Type             X           Y           Z
 ---------------------------------------------------------------------
      1          6           0        0.000000    0.673836    1.076580
      2          6           0       -0.000000   -0.673836    1.076580
      3          6           0        0.000000    1.493940   -0.073575
      4          6           0       -0.000000   -1.493940   -0.073575
      5          1           0        0.000000    1.184203    2.032282
      6          1           0       -0.000000   -1.184203    2.032282
      7          6           0        0.000000    2.225403   -1.028515
      8          6           0       -0.000000   -2.225403   -1.028515
      9          1           0        0.000000    2.859977   -1.879220
     10          1           0       -0.000000   -2.859977   -1.879220
 ---------------------------------------------------------------------

 SCF Done:  E(RHF) =  -229.641635679     A.U. after    2 cycles

 The electronic state is 1-A1.
 Alpha  occ. eigenvalues --  -11.28489 -11.28375 -11.25390 -11.25375 -11.24904
 Alpha  occ. eigenvalues --  -11.24897  -1.12519  -1.04890  -1.00767  -0.88866
 Alpha  occ. eigenvalues --   -0.76940  -0.72574  -0.70526  -0.66938  -0.59396
 Alpha  occ. eigenvalues --   -0.50739  -0.43442  -0.41482  -0.41044  -0.33819
 Alpha virt. eigenvalues --    0.03465   0.03664   0.03785   0.05127   0.05609
 Alpha virt. eigenvalues --    0.09593   0.09922   0.10062   0.11224   0.11637
 Alpha virt. eigenvalues --    0.11769   0.13725   0.13883   0.14417   0.15241

 Mulliken charges:
               1
     1  C    0.308020
     2  C    0.308020
     3  C    0.247101
     4  C    0.247101
     5  H   -0.195474
     6  H   -0.195474
     7  C    0.034888
     8  C    0.034888
     9  H   -0.394535
    10  H   -0.394535
 Sum of Mulliken charges =  -0.00000

 Dipole moment (field-independent basis, Debye):
    X=              0.0000    Y=             -0.0000    Z=              0.1664  Tot=              0.1664

 Test job not archived.
 1\1\GINC-SE168\SP\RHF\Aug-CC-pVDZ\C6H4\OHZDE\05-Apr-2025\0\\#t hf aug-
 cc-pvdz iop(5/13=1,5/36=2,99/5=2) pseudo=read geom=check guess=(read,t
 check) scf=(maxcycle=1)\\title\\0,1\C,0,0.,0.673836,1.07658\C,0,0.,-0.
 673836,1.07658\C,0,0.,1.49394,-0.073575\C,0,0.,-1.49394,-0.073575\H,0,
 0.,1.184203,2.032282\H,0,0.,-1.184203,2.032282\C,0,0.,2.225403,-1.0285
 15\C,0,0.,-2.225403,-1.028515\H,0,0.,2.859977,-1.87922\H,0,0.,-2.85997
 7,-1.87922\\Version=ES64L-G16RevC.01\State=1-A1\HF=-229.6416357\RMSD=4
 .137e-02\Dipole=0.,0.,0.0654758\Quadrupole=-5.0673476,0.9883309,4.0790

 Normal termination of Gaussian 16 at Sat Apr  5 22:54:48 2025.
