                         Program Version 5.0.3 -  RELEASE  -
|  1> !ri-mp2 aug-cc-pvdz aug-cc-pvdz/c tightscf
|  2> %pal nprocs 16 end
|  3> %maxcore 3800
|  4>
|  5> * xyz 0 1
|  6> C     -2.143446   -2.929295    0.000000
|  7> C      1.157418    2.955149    0.000000
|  8> C     -0.838198   -2.133417    0.000000
|  9> C     -0.055932    2.033897    0.000000
| 10> C     -1.094835   -0.628266    0.000000
| 11> O      1.157418    0.026179    1.262499
| 12> O      1.157418    0.026179   -1.262499
| 13> S      0.468746    0.293929    0.000000
| 14> H     -1.938473   -3.999896    0.000000
| 15> H     -2.746355   -2.706824    0.882228
| 16> H     -2.746355   -2.706824   -0.882228
| 17> H      0.824711    3.992976    0.000000
| 18> H      1.770380    2.790531    0.884210
| 19> H      1.770380    2.790531   -0.884210
| 20> H     -0.242657   -2.391528   -0.876212
| 21> H     -0.242657   -2.391528    0.876212
| 22> H     -0.670671    2.165871   -0.889878
| 23> H     -0.670671    2.165871    0.889878
| 24> H     -1.638152   -0.309656   -0.890168
| 25> H     -1.638152   -0.309656    0.890168
| 26> *
| 27>
| 28>                          ****END OF INPUT****

CARTESIAN COORDINATES (ANGSTROEM)
---------------------------------
  C     -2.143446   -2.929295    0.000000
  C      1.157418    2.955149    0.000000
  C     -0.838198   -2.133417    0.000000
  C     -0.055932    2.033897    0.000000
  C     -1.094835   -0.628266    0.000000
  O      1.157418    0.026179    1.262499
  O      1.157418    0.026179   -1.262499
  S      0.468746    0.293929    0.000000
  H     -1.938473   -3.999896    0.000000
  H     -2.746355   -2.706824    0.882228
  H     -2.746355   -2.706824   -0.882228
  H      0.824711    3.992976    0.000000
  H      1.770380    2.790531    0.884210
  H      1.770380    2.790531   -0.884210
  H     -0.242657   -2.391528   -0.876212
  H     -0.242657   -2.391528    0.876212
  H     -0.670671    2.165871   -0.889878
  H     -0.670671    2.165871    0.889878
  H     -1.638152   -0.309656   -0.890168
  H     -1.638152   -0.309656    0.890168

 Total Charge           Charge          ....    0
 Multiplicity           Mult            ....    1
 Number of Electrons    NEL             ....   74
 Basis Dimension        Dim             ....  296

ORBITAL ENERGIES
----------------

  NO   OCC          E(Eh)            E(eV)
   0   2.0000     -92.185553     -2508.4964
   1   2.0000     -20.544269      -559.0380
   2   2.0000     -20.544250      -559.0375
   3   2.0000     -11.285495      -307.0939
   4   2.0000     -11.282329      -307.0078
   5   2.0000     -11.248175      -306.0784
   6   2.0000     -11.245050      -305.9934
   7   2.0000     -11.236861      -305.7705
   8   2.0000      -9.159437      -249.2410
   9   2.0000      -6.844606      -186.2512
  10   2.0000      -6.843234      -186.2139
  11   2.0000      -6.842974      -186.2068
  12   2.0000      -1.440298       -39.1925
  13   2.0000      -1.326184       -36.0873
  14   2.0000      -1.102658       -30.0048
  15   2.0000      -1.077172       -29.3113
  16   2.0000      -0.990067       -26.9411
  17   2.0000      -0.909792       -24.7567
  18   2.0000      -0.837186       -22.7810
  19   2.0000      -0.795026       -21.6338
  20   2.0000      -0.692751       -18.8507
  21   2.0000      -0.677167       -18.4266
  22   2.0000      -0.654332       -17.8053
  23   2.0000      -0.652505       -17.7556
  24   2.0000      -0.614038       -16.7088
  25   2.0000      -0.594080       -16.1657
  26   2.0000      -0.573486       -15.6053
  27   2.0000      -0.570193       -15.5157
  28   2.0000      -0.550066       -14.9681
  29   2.0000      -0.528186       -14.3727
  30   2.0000      -0.527411       -14.3516
  31   2.0000      -0.507087       -13.7985
  32   2.0000      -0.497496       -13.5376
  33   2.0000      -0.482122       -13.1192
  34   2.0000      -0.471002       -12.8166
  35   2.0000      -0.454837       -12.3767
  36   2.0000      -0.416878       -11.3438
  37   0.0000       0.028240         0.7685
  38   0.0000       0.035805         0.9743
  39   0.0000       0.043827         1.1926
  40   0.0000       0.046028         1.2525
  41   0.0000       0.058879         1.6022

MULLIKEN ATOMIC CHARGES
-----------------------
   0 C :    0.505167
   1 C :    0.433466
   2 C :    0.371775
   3 C :   -0.020221
   4 C :   -0.241237
   5 O :   -1.273123
   6 O :   -1.273123
   7 S :    2.713509
   8 H :   -0.068676
   9 H :   -0.080685
  10 H :   -0.080685
  11 H :   -0.034213
  12 H :   -0.038678
  13 H :   -0.038678
  14 H :   -0.134208
  15 H :   -0.134208
  16 H :   -0.132619
  17 H :   -0.132619
  18 H :   -0.170472
  19 H :   -0.170472
Sum of atomic charges:    0.0000000

LOEWDIN ATOMIC CHARGES
----------------------
   0 C :    0.138858
   1 C :    0.117968
   2 C :   -0.091286
   3 C :   -0.119854
   4 C :   -0.089605
   5 O :   -0.404166
   6 O :   -0.404166
   7 S :    0.939542
   8 H :   -0.016109
   9 H :   -0.018228
  10 H :   -0.018228
  11 H :   -0.015594
  12 H :   -0.015263
  13 H :   -0.015263
  14 H :    0.012846
  15 H :    0.012846
  16 H :   -0.006232
  17 H :   -0.006232
  18 H :   -0.000918
  19 H :   -0.000918

  Mayer bond orders larger than 0.100000
B(  0-C ,  2-C ) :   1.1410 B(  0-C ,  8-H ) :   0.9156 B(  0-C ,  9-H ) :   0.9242
B(  0-C , 10-H ) :   0.9242 B(  1-C ,  3-C ) :   1.2081 B(  1-C , 11-H ) :   0.9267
B(  1-C , 12-H ) :   0.9419 B(  1-C , 13-H ) :   0.9419 B(  2-C ,  4-C ) :   1.3147
B(  2-C , 14-H ) :   0.7687 B(  2-C , 15-H ) :   0.7687 B(  3-C ,  7-S ) :   0.9812
B(  3-C , 16-H ) :   0.8685 B(  3-C , 17-H ) :   0.8685 B(  4-C ,  5-O ) :   0.1288
B(  4-C ,  6-O ) :   0.1288 B(  4-C ,  7-S ) :   1.0095 B(  4-C , 18-H ) :   0.9061
B(  4-C , 19-H ) :   0.9061 B(  5-O ,  6-O ) :   0.1722 B(  5-O ,  7-S ) :   0.6697
B(  6-O ,  7-S ) :   0.6697

MP2 TOTAL ENERGY:     -744.863938145 Eh
FINAL SINGLE POINT ENERGY      -744.863938145133

DIPOLE MOMENT
-------------
                                X             Y             Z
Electronic contribution:      6.45820       1.58821       0.00000
Nuclear contribution   :     -8.31222      -0.93704       0.00000
                        -----------------------------------------
Total Dipole Moment    :     -1.85402       0.65116       0.00000
                        -----------------------------------------
Magnitude (a.u.)       :      1.96505
Magnitude (Debye)      :      4.99476

Rotational constants in cm-1:     0.128637     0.029762     0.029080
Rotational constants in MHz :  3856.433105   892.233464   871.807322

                             ****ORCA TERMINATED NORMALLY****
TOTAL RUN TIME: 0 days 0 hours 1 minutes 24 seconds 808 msec
