                         Program Version 5.0.3 -  RELEASE  -
|  1> !ri-mp2 aug-cc-pvdz aug-cc-pvdz/c tightscf
|  2> %pal nprocs 16 end
|  3> %maxcore 3800
|  4>
|  5> * xyz 0 1
|  6> C     -2.758791   -0.172612    0.000000
|  7> C     -2.313124    1.163832    0.000000
|  8> C      1.829384   -1.714992    0.000000
|  9> C     -1.848501   -1.196478    0.000000
| 10> C     -0.971197    1.448460    0.000000
| 11> C      0.490238   -1.990790    0.000000
| 12> C      2.279504   -0.378590    0.000000
| 13> C     -0.456728   -0.938145    0.000000
| 14> C      0.000000    0.416294    0.000000
| 15> C      1.404403    0.681449    0.000000
| 16> C      1.923415    2.094613    0.000000
| 17> H     -3.819371   -0.385993    0.000000
| 18> H     -3.035349    1.969463    0.000000
| 19> H      2.552742   -2.519609    0.000000
| 20> H     -2.183645   -2.226203    0.000000
| 21> H     -0.648971    2.479854    0.000000
| 22> H      0.135898   -3.013788    0.000000
| 23> H      3.344718   -0.184205    0.000000
| 24> H      1.585124    2.649218    0.878154
| 25> H      3.012098    2.103795    0.000000
| 26> H      1.585124    2.649218   -0.878154
| 27> *
| 28>
| 29>                          ****END OF INPUT****

CARTESIAN COORDINATES (ANGSTROEM)
---------------------------------
  C     -2.758791   -0.172612    0.000000
  C     -2.313124    1.163832    0.000000
  C      1.829384   -1.714992    0.000000
  C     -1.848501   -1.196478    0.000000
  C     -0.971197    1.448460    0.000000
  C      0.490238   -1.990790    0.000000
  C      2.279504   -0.378590    0.000000
  C     -0.456728   -0.938145    0.000000
  C      0.000000    0.416294    0.000000
  C      1.404403    0.681449    0.000000
  C      1.923415    2.094613    0.000000
  H     -3.819371   -0.385993    0.000000
  H     -3.035349    1.969463    0.000000
  H      2.552742   -2.519609    0.000000
  H     -2.183645   -2.226203    0.000000
  H     -0.648971    2.479854    0.000000
  H      0.135898   -3.013788    0.000000
  H      3.344718   -0.184205    0.000000
  H      1.585124    2.649218    0.878154
  H      3.012098    2.103795    0.000000
  H      1.585124    2.649218   -0.878154

 Total Charge           Charge          ....    0
 Multiplicity           Mult            ....    1
 Number of Electrons    NEL             ....   76
 Basis Dimension        Dim             ....  343

ORBITAL ENERGIES
----------------

  NO   OCC          E(Eh)            E(eV)
   0   2.0000     -11.248441      -306.0856
   1   2.0000     -11.246587      -306.0352
   2   2.0000     -11.244920      -305.9898
   3   2.0000     -11.240996      -305.8831
   4   2.0000     -11.240417      -305.8673
   5   2.0000     -11.239406      -305.8398
   6   2.0000     -11.238863      -305.8250
   7   2.0000     -11.238836      -305.8243
   8   2.0000     -11.236276      -305.7546
   9   2.0000     -11.234271      -305.7000
  10   2.0000     -11.231653      -305.6288
  11   2.0000      -1.181019       -32.1372
  12   2.0000      -1.115665       -30.3588
  13   2.0000      -1.068161       -29.0662
  14   2.0000      -1.010301       -27.4917
  15   2.0000      -1.002126       -27.2692
  16   2.0000      -0.934789       -25.4369
  17   2.0000      -0.850167       -23.1342
  18   2.0000      -0.839986       -22.8572
  19   2.0000      -0.789955       -21.4958
  20   2.0000      -0.707484       -19.2516
  21   2.0000      -0.694762       -18.9054
  22   2.0000      -0.677010       -18.4224
  23   2.0000      -0.621899       -16.9227
  24   2.0000      -0.608927       -16.5697
  25   2.0000      -0.587210       -15.9788
  26   2.0000      -0.580120       -15.7859
  27   2.0000      -0.575353       -15.6562
  28   2.0000      -0.561104       -15.2684
  29   2.0000      -0.537325       -14.6214
  30   2.0000      -0.521680       -14.1956
  31   2.0000      -0.521258       -14.1842
  32   2.0000      -0.483265       -13.1503
  33   2.0000      -0.470582       -12.8052
  34   2.0000      -0.445655       -12.1269
  35   2.0000      -0.376694       -10.2504
  36   2.0000      -0.318573        -8.6688
  37   2.0000      -0.285075        -7.7573
  38   0.0000       0.035028         0.9532
  39   0.0000       0.037614         1.0235
  40   0.0000       0.038473         1.0469
  41   0.0000       0.049933         1.3588
  42   0.0000       0.051906         1.4124

MULLIKEN ATOMIC CHARGES
-----------------------
   0 C :    0.020567
   1 C :   -0.231101
   2 C :   -0.091791
   3 C :    0.728030
   4 C :    0.169727
   5 C :    0.477971
   6 C :    0.907988
   7 C :    0.315219
   8 C :    1.241890
   9 C :   -0.038935
  10 C :    0.459983
  11 H :   -0.481381
  12 H :   -0.495928
  13 H :   -0.487244
  14 H :   -0.597386
  15 H :   -0.785652
  16 H :   -0.599285
  17 H :   -0.621487
  18 H :    0.193134
  19 H :   -0.277450
  20 H :    0.193134
Sum of atomic charges:    0.0000000

LOEWDIN ATOMIC CHARGES
----------------------
   0 C :    0.011624
   1 C :    0.014117
   2 C :    0.014912
   3 C :    0.051184
   4 C :    0.054619
   5 C :    0.046818
   6 C :    0.041326
   7 C :   -0.134453
   8 C :   -0.093079
   9 C :   -0.167718
  10 C :    0.171968
  11 H :    0.000292
  12 H :    0.000396
  13 H :    0.001136
  14 H :    0.007376
  15 H :   -0.003982
  16 H :    0.006022
  17 H :    0.002582
  18 H :   -0.004827
  19 H :   -0.015486
  20 H :   -0.004827

  Mayer bond orders larger than 0.100000
B(  0-C ,  1-C ) :   2.0540 B(  0-C ,  2-C ) :   0.4071 B(  0-C ,  3-C ) :   1.5413
B(  0-C ,  4-C ) :   0.1643 B(  0-C ,  5-C ) :   0.2500 B(  0-C ,  6-C ) :   0.3637
B(  0-C ,  7-C ) :  -0.5630 B(  0-C ,  8-C ) :  -0.3301 B(  0-C , 10-C ) :  -0.1373
B(  0-C , 14-H ) :   0.3312 B(  0-C , 15-H ) :  -0.1199 B(  1-C ,  2-C ) :   0.4034
B(  1-C ,  3-C ) :   0.4149 B(  1-C ,  4-C ) :   1.4667 B(  1-C ,  5-C ) :  -0.3100
B(  1-C ,  6-C ) :   0.5864 B(  1-C ,  7-C ) :  -0.7917 B(  1-C ,  8-C ) :  -1.1167
B(  1-C ,  9-C ) :   0.4790 B(  1-C , 10-C ) :   0.4730 B(  1-C , 11-H ) :   0.1692
B(  1-C , 14-H ) :  -0.1158 B(  1-C , 15-H ) :   0.7732 B(  2-C ,  3-C ) :   0.2485
B(  2-C ,  4-C ) :  -0.2185 B(  2-C ,  5-C ) :   1.4923 B(  2-C ,  6-C ) :   1.2807
B(  2-C ,  7-C ) :  -0.7258 B(  2-C ,  8-C ) :   0.5382 B(  2-C , 10-C ) :   0.4757
B(  2-C , 13-H ) :   0.1214 B(  2-C , 16-H ) :   0.2857 B(  3-C ,  4-C ) :   0.2915
B(  3-C ,  5-C ) :  -1.6908 B(  3-C ,  6-C ) :  -0.2204 B(  3-C ,  7-C ) :   1.4243
B(  3-C ,  8-C ) :  -1.4882 B(  3-C ,  9-C ) :   0.1111 B(  3-C , 10-C ) :   0.2288
B(  3-C , 11-H ) :   0.4397 B(  3-C , 12-H ) :  -0.1109 B(  3-C , 14-H ) :  -0.5607
B(  3-C , 15-H ) :   0.1282 B(  3-C , 16-H ) :  -0.1953 B(  4-C ,  5-C ) :   0.1229
B(  4-C ,  6-C ) :   0.4040 B(  4-C ,  7-C ) :  -2.0531 B(  4-C ,  8-C ) :   1.4109
B(  4-C ,  9-C ) :  -2.5587 B(  4-C , 10-C ) :  -0.6387 B(  4-C , 12-H ) :   0.7051
B(  4-C , 15-H ) :  -1.0836 B(  4-C , 17-H ) :   0.1138 B(  5-C ,  6-C ) :   0.5023
B(  5-C ,  7-C ) :   1.9876 B(  5-C ,  8-C ) :  -1.4206 B(  5-C ,  9-C ) :  -0.1058
B(  5-C , 10-C ) :   0.1210 B(  5-C , 13-H ) :   0.3822 B(  5-C , 14-H ) :  -0.2668
B(  5-C , 16-H ) :  -0.4191 B(  5-C , 17-H ) :  -0.1905 B(  6-C ,  7-C ) :  -0.8141
B(  6-C ,  8-C ) :  -0.8103 B(  6-C ,  9-C ) :   1.2581 B(  6-C , 10-C ) :  -0.4245
B(  6-C , 13-H ) :   0.1294 B(  6-C , 17-H ) :  -0.7091 B(  7-C ,  8-C ) :   3.3164
B(  7-C ,  9-C ) :  -0.8350 B(  7-C , 11-H ) :   0.1568 B(  7-C , 14-H ) :   1.1251
B(  7-C , 15-H ) :  -0.1022 B(  7-C , 16-H ) :   0.9608 B(  8-C ,  9-C ) :   3.1295
B(  8-C , 10-C ) :   0.2977 B(  8-C , 12-H ) :   0.1985 B(  8-C , 15-H ) :   1.1748
B(  8-C , 17-H ) :   0.1174 B(  8-C , 18-H ) :  -0.1456 B(  8-C , 20-H ) :  -0.1456
B(  9-C , 10-C ) :   0.9355 B(  9-C , 15-H ) :  -0.3582 B(  9-C , 17-H ) :   1.1528
B(  9-C , 18-H ) :   0.2466 B(  9-C , 19-H ) :   0.3608 B(  9-C , 20-H ) :   0.2466
B( 10-C , 15-H ) :   0.2028 B( 10-C , 17-H ) :   0.1257 B( 10-C , 18-H ) :   0.7795
B( 10-C , 19-H ) :   0.5738 B( 10-C , 20-H ) :   0.7795

MP2 TOTAL ENERGY:     -423.928911249 Eh
FINAL SINGLE POINT ENERGY      -423.928911248986

DIPOLE MOMENT
-------------
                                X             Y             Z
Electronic contribution:     -2.47929      -3.40371      -0.00000
Nuclear contribution   :      2.53784       3.53494       0.00000
                        -----------------------------------------
Total Dipole Moment    :      0.05854       0.13123      -0.00000
                        -----------------------------------------
Magnitude (a.u.)       :      0.14369
Magnitude (Debye)      :      0.36524

Rotational constants in cm-1:     0.063531     0.037699     0.023763
Rotational constants in MHz :  1904.619887  1130.200426   712.410260

                             ****ORCA TERMINATED NORMALLY****
TOTAL RUN TIME: 0 days 0 hours 2 minutes 21 seconds 261 msec
