                         Program Version 5.0.3 -  RELEASE  -
|  1> !ri-mp2 aug-cc-pvdz aug-cc-pvdz/c tightscf
|  2> %pal nprocs 16 end
|  3>
|  4> * xyz 0 1
|  5> C     0.225402     0.725379    1.173820
|  6> C    -0.225402    -0.725379    1.173820
|  7> C     0.225402     0.725379   -1.173820
|  8> C    -0.225402    -0.725379   -1.173820
|  9> O    -0.225402     1.393629    0.000000
| 10> O     0.225402    -1.393629    0.000000
| 11> H    -0.194991     1.264433    2.022632
| 12> H     1.320586     0.773781    1.230887
| 13> H     0.194991    -1.264433    2.022632
| 14> H    -1.320586    -0.773781    1.230887
| 15> H     1.320586     0.773781   -1.230887
| 16> H    -0.194991     1.264433   -2.022632
| 17> H    -1.320586    -0.773781   -1.230887
| 18> H     0.194991    -1.264433   -2.022632
| 19> *
| 20>
| 21>                          ****END OF INPUT****

CARTESIAN COORDINATES (ANGSTROEM)
---------------------------------
  C      0.225402    0.725379    1.173820
  C     -0.225402   -0.725379    1.173820
  C      0.225402    0.725379   -1.173820
  C     -0.225402   -0.725379   -1.173820
  O     -0.225402    1.393629    0.000000
  O      0.225402   -1.393629    0.000000
  H     -0.194991    1.264433    2.022632
  H      1.320586    0.773781    1.230887
  H      0.194991   -1.264433    2.022632
  H     -1.320586   -0.773781    1.230887
  H      1.320586    0.773781   -1.230887
  H     -0.194991    1.264433   -2.022632
  H     -1.320586   -0.773781   -1.230887
  H      0.194991   -1.264433   -2.022632

 Total Charge           Charge          ....    0
 Multiplicity           Mult            ....    1
 Number of Electrons    NEL             ....   48
 Basis Dimension        Dim             ....  210

ORBITAL ENERGIES
----------------

  NO   OCC          E(Eh)            E(eV)
   0   2.0000     -20.569851      -559.7341
   1   2.0000     -20.569850      -559.7341
   2   2.0000     -11.283700      -307.0451
   3   2.0000     -11.283676      -307.0444
   4   2.0000     -11.283060      -307.0277
   5   2.0000     -11.283045      -307.0273
   6   2.0000      -1.400699       -38.1150
   7   2.0000      -1.359264       -36.9874
   8   2.0000      -1.049763       -28.5655
   9   2.0000      -0.952843       -25.9282
  10   2.0000      -0.894332       -24.3360
  11   2.0000      -0.795999       -21.6602
  12   2.0000      -0.697496       -18.9798
  13   2.0000      -0.654263       -17.8034
  14   2.0000      -0.648918       -17.6580
  15   2.0000      -0.642075       -17.4717
  16   2.0000      -0.633123       -17.2282
  17   2.0000      -0.553871       -15.0716
  18   2.0000      -0.553758       -15.0685
  19   2.0000      -0.516821       -14.0634
  20   2.0000      -0.512599       -13.9485
  21   2.0000      -0.457937       -12.4611
  22   2.0000      -0.454404       -12.3650
  23   2.0000      -0.396341       -10.7850
  24   0.0000       0.037663         1.0249
  25   0.0000       0.043360         1.1799
  26   0.0000       0.046674         1.2701
  27   0.0000       0.054051         1.4708
  28   0.0000       0.064020         1.7421

MULLIKEN ATOMIC CHARGES
-----------------------
   0 C :    0.758026
   1 C :    0.758026
   2 C :    0.758026
   3 C :    0.758026
   4 O :   -0.912360
   5 O :   -0.912360
   6 H :   -0.215227
   7 H :   -0.086619
   8 H :   -0.215227
   9 H :   -0.086619
  10 H :   -0.086619
  11 H :   -0.215227
  12 H :   -0.086619
  13 H :   -0.215227
Sum of atomic charges:   -0.0000000

LOEWDIN ATOMIC CHARGES
----------------------
   0 C :   -0.023583
   1 C :   -0.023583
   2 C :   -0.023583
   3 C :   -0.023583
   4 O :   -0.002775
   5 O :   -0.002775
   6 H :    0.009932
   7 H :    0.015040
   8 H :    0.009932
   9 H :    0.015040
  10 H :    0.015040
  11 H :    0.009932
  12 H :    0.015040
  13 H :    0.009932

  Mayer bond orders larger than 0.100000
B(  0-C ,  1-C ) :   1.2133 B(  0-C ,  4-O ) :   0.6338 B(  0-C ,  6-H ) :   0.9879
B(  0-C ,  7-H ) :   0.8813 B(  1-C ,  5-O ) :   0.6338 B(  1-C ,  8-H ) :   0.9879
B(  1-C ,  9-H ) :   0.8813 B(  2-C ,  3-C ) :   1.2133 B(  2-C ,  4-O ) :   0.6338
B(  2-C , 10-H ) :   0.8813 B(  2-C , 11-H ) :   0.9879 B(  3-C ,  5-O ) :   0.6338
B(  3-C , 12-H ) :   0.8813 B(  3-C , 13-H ) :   0.9879 B(  6-H ,  7-H ) :  -0.1313
B(  8-H ,  9-H ) :  -0.1313 B( 10-H , 11-H ) :  -0.1313 B( 12-H , 13-H ) :  -0.1313

MP2 TOTAL ENERGY:     -306.837543707 Eh
FINAL SINGLE POINT ENERGY      -306.837543706675

DIPOLE MOMENT
-------------
                                X             Y             Z
Electronic contribution:     -0.00000      -0.00000       0.00000
Nuclear contribution   :      0.00000       0.00000      -0.00000
                        -----------------------------------------
Total Dipole Moment    :     -0.00000      -0.00000       0.00000
                        -----------------------------------------
Magnitude (a.u.)       :      0.00000
Magnitude (Debye)      :      0.00000

Rotational constants in cm-1:     0.168504     0.156760     0.091074
Rotational constants in MHz :  5051.631311  4699.540632  2730.331908

                             ****ORCA TERMINATED NORMALLY****
TOTAL RUN TIME: 0 days 0 hours 0 minutes 40 seconds 312 msec
