                         Program Version 5.0.3 -  RELEASE  -
|  1> !ri-mp2 aug-cc-pvdz aug-cc-pvdz/c tightscf
|  2> %pal nprocs 16 end
|  3>
|  4> * xyz 0 1
|  5> N      0.000000    1.144299   -0.704266
|  6> N      0.000000    0.000000   -1.359116
|  7> N      0.000000   -1.144299   -0.704266
|  8> C      0.000000   -1.104612    0.629854
|  9> N      0.000000    0.000000    1.362678
| 10> C      0.000000    1.104612    0.629854
| 11> H      0.000000   -2.061100    1.138272
| 12> H      0.000000    2.061100    1.138272
| 13> *
| 14>
| 15>                          ****END OF INPUT****

CARTESIAN COORDINATES (ANGSTROEM)
---------------------------------
  N      0.000000    1.144299   -0.704266
  N      0.000000    0.000000   -1.359116
  N      0.000000   -1.144299   -0.704266
  C      0.000000   -1.104612    0.629854
  N      0.000000    0.000000    1.362678
  C      0.000000    1.104612    0.629854
  H      0.000000   -2.061100    1.138272
  H      0.000000    2.061100    1.138272

 Total Charge           Charge          ....    0
 Multiplicity           Mult            ....    1
 Number of Electrons    NEL             ....   42
 Basis Dimension        Dim             ....  156

ORBITAL ENERGIES
----------------

  NO   OCC          E(Eh)            E(eV)
   0   2.0000     -15.709337      -427.4728
   1   2.0000     -15.647106      -425.7794
   2   2.0000     -15.647057      -425.7781
   3   2.0000     -15.630606      -425.3304
   4   2.0000     -11.365895      -309.2817
   5   2.0000     -11.365890      -309.2816
   6   2.0000      -1.456894       -39.6441
   7   2.0000      -1.294132       -35.2151
   8   2.0000      -1.249856       -34.0103
   9   2.0000      -1.010925       -27.5087
  10   2.0000      -0.970169       -26.3996
  11   2.0000      -0.794788       -21.6273
  12   2.0000      -0.770762       -20.9735
  13   2.0000      -0.651131       -17.7182
  14   2.0000      -0.641502       -17.4562
  15   2.0000      -0.625353       -17.0167
  16   2.0000      -0.554077       -15.0772
  17   2.0000      -0.485555       -13.2126
  18   2.0000      -0.466129       -12.6840
  19   2.0000      -0.455652       -12.3989
  20   2.0000      -0.433465       -11.7952
  21   0.0000       0.031478         0.8566
  22   0.0000       0.040773         1.1095
  23   0.0000       0.040967         1.1148
  24   0.0000       0.062435         1.6989
  25   0.0000       0.078673         2.1408

MULLIKEN ATOMIC CHARGES
-----------------------
   0 N :   -0.389796
   1 N :   -0.150548
   2 N :   -0.389796
   3 C :    0.881136
   4 N :   -0.576048
   5 C :    0.881136
   6 H :   -0.128042
   7 H :   -0.128042
Sum of atomic charges:    0.0000000

LOEWDIN ATOMIC CHARGES
----------------------
   0 N :    0.003950
   1 N :    0.004288
   2 N :    0.003950
   3 C :   -0.044992
   4 N :    0.055043
   5 C :   -0.044992
   6 H :    0.011376
   7 H :    0.011376

  Mayer bond orders larger than 0.100000
B(  0-N ,  1-N ) :   1.0122 B(  0-N ,  5-C ) :   1.1541 B(  1-N ,  2-N ) :   1.0122
B(  2-N ,  3-C ) :   1.1541 B(  3-C ,  4-N ) :   1.3180 B(  3-C ,  6-H ) :   0.9964
B(  4-N ,  5-C ) :   1.3180 B(  5-C ,  7-H ) :   0.9964

MP2 TOTAL ENERGY:     -295.576243216 Eh
FINAL SINGLE POINT ENERGY      -295.576243215994

DIPOLE MOMENT
-------------
                                X             Y             Z
Electronic contribution:     -0.00000      -0.00000      -1.11757
Nuclear contribution   :      0.00000       0.00000       2.18021
                        -----------------------------------------
Total Dipole Moment    :     -0.00000      -0.00000       1.06264
                        -----------------------------------------
Magnitude (a.u.)       :      1.06264
Magnitude (Debye)      :      2.70101

Rotational constants in cm-1:     0.226104     0.216518     0.110604
Rotational constants in MHz :  6778.412643  6491.050980  3315.810140

                             ****ORCA TERMINATED NORMALLY****
TOTAL RUN TIME: 0 days 0 hours 0 minutes 36 seconds 573 msec
