                         Program Version 5.0.3 -  RELEASE  -
|  1> !ri-mp2 aug-cc-pvdz aug-cc-pvdz/c tightscf
|  2> %pal nprocs 16 end
|  3>
|  4> * xyz 0 1
|  5> C      2.533757   -0.306220   -0.014186
|  6> C      1.251222    0.522342    0.039823
|  7> C     -0.016716   -0.327791   -0.039403
|  8> C     -1.300133    0.493422    0.015850
|  9> N     -2.480785   -0.370083   -0.090337
| 10> H      3.420315    0.326593    0.045198
| 11> H      2.578190   -1.017755    0.812928
| 12> H      2.594900   -0.877280   -0.942685
| 13> H      1.237543    1.111057    0.961985
| 14> H      1.251521    1.245452   -0.781337
| 15> H     -0.017096   -0.915524   -0.961024
| 16> H     -0.018900   -1.049862    0.785140
| 17> H     -1.293033    1.109193    0.926922
| 18> H     -1.321845    1.185998   -0.829220
| 19> H     -3.332664    0.176428   -0.103509
| 20> H     -2.542214   -0.994236    0.705456
| 21> *
| 22>
| 23>                          ****END OF INPUT****

CARTESIAN COORDINATES (ANGSTROEM)
---------------------------------
  C      2.533757   -0.306220   -0.014186
  C      1.251222    0.522342    0.039823
  C     -0.016716   -0.327791   -0.039403
  C     -1.300133    0.493422    0.015850
  N     -2.480785   -0.370083   -0.090337
  H      3.420315    0.326593    0.045198
  H      2.578190   -1.017755    0.812928
  H      2.594900   -0.877280   -0.942685
  H      1.237543    1.111057    0.961985
  H      1.251521    1.245452   -0.781337
  H     -0.017096   -0.915524   -0.961024
  H     -0.018900   -1.049862    0.785140
  H     -1.293033    1.109193    0.926922
  H     -1.321845    1.185998   -0.829220
  H     -3.332664    0.176428   -0.103509
  H     -2.542214   -0.994236    0.705456

 Total Charge           Charge          ....    0
 Multiplicity           Mult            ....    1
 Number of Electrons    NEL             ....   42
 Basis Dimension        Dim             ....  214

ORBITAL ENERGIES
----------------

  NO   OCC          E(Eh)            E(eV)
   0   2.0000     -15.544646      -422.9913
   1   2.0000     -11.249454      -306.1132
   2   2.0000     -11.222448      -305.3783
   3   2.0000     -11.217765      -305.2509
   4   2.0000     -11.216716      -305.2224
   5   2.0000      -1.175795       -31.9950
   6   2.0000      -1.060687       -28.8628
   7   2.0000      -0.959691       -26.1145
   8   2.0000      -0.843711       -22.9585
   9   2.0000      -0.790913       -21.5218
  10   2.0000      -0.662050       -18.0153
  11   2.0000      -0.636174       -17.3112
  12   2.0000      -0.604599       -16.4520
  13   2.0000      -0.575261       -15.6536
  14   2.0000      -0.563501       -15.3336
  15   2.0000      -0.524388       -14.2693
  16   2.0000      -0.498905       -13.5759
  17   2.0000      -0.469489       -12.7754
  18   2.0000      -0.464787       -12.6475
  19   2.0000      -0.462037       -12.5727
  20   2.0000      -0.385317       -10.4850
  21   0.0000       0.036307         0.9880
  22   0.0000       0.042468         1.1556
  23   0.0000       0.046569         1.2672
  24   0.0000       0.050928         1.3858
  25   0.0000       0.063469         1.7271

MULLIKEN ATOMIC CHARGES
-----------------------
   0 C :    0.396505
   1 C :    0.260324
   2 C :    0.108537
   3 C :    0.881102
   4 N :   -0.379783
   5 H :   -0.074761
   6 H :   -0.083236
   7 H :   -0.079529
   8 H :   -0.163510
   9 H :   -0.161824
  10 H :   -0.127247
  11 H :   -0.182474
  12 H :   -0.154334
  13 H :   -0.203401
  14 H :   -0.041747
  15 H :    0.005377
Sum of atomic charges:   -0.0000000

LOEWDIN ATOMIC CHARGES
----------------------
   0 C :    0.129764
   1 C :   -0.075164
   2 C :   -0.043882
   3 C :   -0.079686
   4 N :    0.176784
   5 H :   -0.022469
   6 H :   -0.020599
   7 H :   -0.019793
   8 H :    0.009230
   9 H :    0.010633
  10 H :    0.017933
  11 H :    0.013945
  12 H :    0.005782
  13 H :    0.009598
  14 H :   -0.055969
  15 H :   -0.056106

  Mayer bond orders larger than 0.100000
B(  0-C ,  1-C ) :   1.1776 B(  0-C ,  5-H ) :   0.9058 B(  0-C ,  6-H ) :   0.9345
B(  0-C ,  7-H ) :   0.9348 B(  1-C ,  2-C ) :   1.2122 B(  1-C ,  8-H ) :   0.7803
B(  1-C ,  9-H ) :   0.7719 B(  2-C ,  3-C ) :   1.1857 B(  2-C , 10-H ) :   0.8363
B(  2-C , 11-H ) :   0.8051 B(  3-C ,  4-N ) :   0.8684 B(  3-C , 12-H ) :   0.8500
B(  3-C , 13-H ) :   0.8139 B(  4-N , 14-H ) :   1.0836 B(  4-N , 15-H ) :   1.0578

MP2 TOTAL ENERGY:     -213.137727811 Eh
FINAL SINGLE POINT ENERGY      -213.137727810734

DIPOLE MOMENT
-------------
                                X             Y             Z
Electronic contribution:     -2.77494      -0.03450      -0.24402
Nuclear contribution   :      2.74167       0.32127       0.66793
                        -----------------------------------------
Total Dipole Moment    :     -0.03327       0.28677       0.42391
                        -----------------------------------------
Magnitude (a.u.)       :      0.51288
Magnitude (Debye)      :      1.30363

Rotational constants in cm-1:     0.606899     0.065142     0.061787
Rotational constants in MHz : 18194.362300  1952.921737  1852.332494

                             ****ORCA TERMINATED NORMALLY****
TOTAL RUN TIME: 0 days 0 hours 0 minutes 41 seconds 125 msec
