                         Program Version 5.0.3 -  RELEASE  -
|  1> !ri-mp2 aug-cc-pvdz aug-cc-pvdz/c tightscf
|  2> %pal nprocs 16 end
|  3>
|  4> * xyz 0 1
|  5> Cl     0.551587    1.629115    0.087511
|  6> Cl    -2.244644   -0.339481   -0.083117
|  7> N      2.790232   -1.254867    0.059102
|  8> C      0.482758   -0.120609   -0.375006
|  9> C     -0.599970   -0.872040    0.395411
| 10> C      1.784559   -0.732929   -0.133991
| 11> H      0.269104   -0.138557   -1.441420
| 12> H     -0.528062   -1.933131    0.170399
| 13> H     -0.494775   -0.714549    1.464113
| 14> *
| 15>
| 16>                          ****END OF INPUT****

CARTESIAN COORDINATES (ANGSTROEM)
---------------------------------
  Cl     0.551587    1.629115    0.087511
  Cl    -2.244644   -0.339481   -0.083117
  N      2.790232   -1.254867    0.059102
  C      0.482758   -0.120609   -0.375006
  C     -0.599970   -0.872040    0.395411
  C      1.784559   -0.732929   -0.133991
  H      0.269104   -0.138557   -1.441420
  H     -0.528062   -1.933131    0.170399
  H     -0.494775   -0.714549    1.464113

 Total Charge           Charge          ....    0
 Multiplicity           Mult            ....    1
 Number of Electrons    NEL             ....   62
 Basis Dimension        Dim             ....  173

ORBITAL ENERGIES
----------------

  NO   OCC          E(Eh)            E(eV)
   0   2.0000    -104.864991     -2853.5215
   1   2.0000    -104.855039     -2853.2507
   2   2.0000     -15.616152      -424.9371
   3   2.0000     -11.385500      -309.8152
   4   2.0000     -11.349262      -308.8291
   5   2.0000     -11.314179      -307.8745
   6   2.0000     -10.590535      -288.1831
   7   2.0000     -10.580913      -287.9213
   8   2.0000      -8.058202      -219.2748
   9   2.0000      -8.054727      -219.1803
  10   2.0000      -8.054685      -219.1791
  11   2.0000      -8.048611      -219.0138
  12   2.0000      -8.045313      -218.9241
  13   2.0000      -8.045189      -218.9207
  14   2.0000      -1.264412       -34.4064
  15   2.0000      -1.206626       -32.8340
  16   2.0000      -1.143066       -31.1044
  17   2.0000      -1.035420       -28.1752
  18   2.0000      -0.908430       -24.7196
  19   2.0000      -0.757103       -20.6018
  20   2.0000      -0.697733       -18.9863
  21   2.0000      -0.648206       -17.6386
  22   2.0000      -0.597738       -16.2653
  23   2.0000      -0.591769       -16.1029
  24   2.0000      -0.568199       -15.4615
  25   2.0000      -0.502774       -13.6812
  26   2.0000      -0.499331       -13.5875
  27   2.0000      -0.482064       -13.1176
  28   2.0000      -0.475055       -12.9269
  29   2.0000      -0.464572       -12.6416
  30   2.0000      -0.460949       -12.5431
  31   0.0000       0.032499         0.8843
  32   0.0000       0.043381         1.1805
  33   0.0000       0.052903         1.4396
  34   0.0000       0.068462         1.8629
  35   0.0000       0.076240         2.0746

MULLIKEN ATOMIC CHARGES
-----------------------
   0 Cl:   -0.037238
   1 Cl:   -0.058254
   2 N :   -0.266411
   3 C :    0.254107
   4 C :    0.023215
   5 C :   -0.122856
   6 H :    0.087617
   7 H :    0.036435
   8 H :    0.083386
Sum of atomic charges:    0.0000000

LOEWDIN ATOMIC CHARGES
----------------------
   0 Cl:    0.550961
   1 Cl:    0.491818
   2 N :    0.097731
   3 C :   -0.570283
   4 C :   -0.350778
   5 C :   -0.179498
   6 H :    0.001723
   7 H :   -0.019909
   8 H :   -0.021766

  Mayer bond orders larger than 0.100000
B(  0-Cl,  3-C ) :   1.1244 B(  1-Cl,  3-C ) :  -0.2840 B(  1-Cl,  4-C ) :   1.2653
B(  2-N ,  3-C ) :  -0.1006 B(  2-N ,  5-C ) :   2.7041 B(  3-C ,  4-C ) :   1.0827
B(  3-C ,  5-C ) :   0.3902 B(  3-C ,  6-H ) :   0.8174 B(  4-C ,  5-C ) :   0.1649
B(  4-C ,  7-H ) :   0.8726 B(  4-C ,  8-H ) :   0.8966

MP2 TOTAL ENERGY:    -1089.685563140 Eh
FINAL SINGLE POINT ENERGY     -1089.685563139829

DIPOLE MOMENT
-------------
                                X             Y             Z
Electronic contribution:     -2.30386       4.13050      -0.33833
Nuclear contribution   :      1.58250      -4.35689       0.17579
                        -----------------------------------------
Total Dipole Moment    :     -0.72136      -0.22639      -0.16254
                        -----------------------------------------
Magnitude (a.u.)       :      0.77333
Magnitude (Debye)      :      1.96564

Rotational constants in cm-1:     0.113333     0.047750     0.034789
Rotational constants in MHz :  3397.634151  1431.512787  1042.958568

                             ****ORCA TERMINATED NORMALLY****
TOTAL RUN TIME: 0 days 0 hours 0 minutes 51 seconds 297 msec
