                         Program Version 5.0.3 -  RELEASE  -
|  1> !ri-mp2 aug-cc-pvdz aug-cc-pvdz/c tightscf
|  2> %pal nprocs 16 end
|  3>
|  4> * xyz 0 1
|  5> C      0.448354   -0.545579    0.000000
|  6> C     -0.285414   -0.171763    1.270135
|  7> C     -0.285414   -0.171763   -1.270135
|  8> F      0.361469   -0.731547    2.340045
|  9> F     -0.285414    1.179129    1.461730
| 10> F     -0.285414    1.179129   -1.461730
| 11> F      0.361469   -0.731547   -2.340045
| 12> H      0.581940   -1.627632    0.000000
| 13> H      1.431669   -0.074796    0.000000
| 14> H     -1.323885   -0.509706    1.300971
| 15> H     -1.323885   -0.509706   -1.300971
| 16> *
| 17>
| 18>                          ****END OF INPUT****

CARTESIAN COORDINATES (ANGSTROEM)
---------------------------------
  C      0.448354   -0.545579    0.000000
  C     -0.285414   -0.171763    1.270135
  C     -0.285414   -0.171763   -1.270135
  F      0.361469   -0.731547    2.340045
  F     -0.285414    1.179129    1.461730
  F     -0.285414    1.179129   -1.461730
  F      0.361469   -0.731547   -2.340045
  H      0.581940   -1.627632    0.000000
  H      1.431669   -0.074796    0.000000
  H     -1.323885   -0.509706    1.300971
  H     -1.323885   -0.509706   -1.300971

 Total Charge           Charge          ....    0
 Multiplicity           Mult            ....    1
 Number of Electrons    NEL             ....   58
 Basis Dimension        Dim             ....  197

ORBITAL ENERGIES
----------------

  NO   OCC          E(Eh)            E(eV)
   0   2.0000     -26.334861      -716.6080
   1   2.0000     -26.334861      -716.6080
   2   2.0000     -26.332732      -716.5501
   3   2.0000     -26.332728      -716.5499
   4   2.0000     -11.436862      -311.2128
   5   2.0000     -11.436855      -311.2126
   6   2.0000     -11.280769      -306.9653
   7   2.0000      -1.675968       -45.6054
   8   2.0000      -1.673128       -45.5281
   9   2.0000      -1.614472       -43.9320
  10   2.0000      -1.612519       -43.8789
  11   2.0000      -1.113735       -30.3063
  12   2.0000      -0.972832       -26.4721
  13   2.0000      -0.899687       -24.4817
  14   2.0000      -0.800989       -21.7960
  15   2.0000      -0.789055       -21.4713
  16   2.0000      -0.780439       -21.2368
  17   2.0000      -0.770178       -20.9576
  18   2.0000      -0.752043       -20.4641
  19   2.0000      -0.713347       -19.4111
  20   2.0000      -0.678998       -18.4765
  21   2.0000      -0.673152       -18.3174
  22   2.0000      -0.647221       -17.6118
  23   2.0000      -0.644230       -17.5304
  24   2.0000      -0.635284       -17.2869
  25   2.0000      -0.612636       -16.6707
  26   2.0000      -0.586627       -15.9629
  27   2.0000      -0.538094       -14.6423
  28   2.0000      -0.533957       -14.5297
  29   0.0000       0.029825         0.8116
  30   0.0000       0.044712         1.2167
  31   0.0000       0.052193         1.4202
  32   0.0000       0.056541         1.5386
  33   0.0000       0.099591         2.7100

MULLIKEN ATOMIC CHARGES
-----------------------
   0 C :   -0.312649
   1 C :    1.594993
   2 C :    1.594993
   3 F :   -0.623409
   4 F :   -0.613932
   5 F :   -0.613932
   6 F :   -0.623409
   7 H :    0.050771
   8 H :   -0.004826
   9 H :   -0.224299
  10 H :   -0.224299
Sum of atomic charges:   -0.0000000

LOEWDIN ATOMIC CHARGES
----------------------
   0 C :    0.028382
   1 C :   -0.159837
   2 C :   -0.159837
   3 F :    0.037246
   4 F :    0.044838
   5 F :    0.044838
   6 F :    0.037246
   7 H :    0.032763
   8 H :    0.039966
   9 H :    0.027197
  10 H :    0.027197

  Mayer bond orders larger than 0.100000
B(  0-C ,  1-C ) :   1.2199 B(  0-C ,  2-C ) :   1.2199 B(  0-C ,  3-F ) :   0.1562
B(  0-C ,  6-F ) :   0.1562 B(  0-C ,  7-H ) :   0.8760 B(  0-C ,  8-H ) :   0.8168
B(  1-C ,  3-F ) :   0.2657 B(  1-C ,  4-F ) :   0.3048 B(  1-C ,  9-H ) :   0.9011
B(  2-C ,  5-F ) :   0.3048 B(  2-C ,  6-F ) :   0.2657 B(  2-C , 10-H ) :   0.9011

MP2 TOTAL ENERGY:     -514.992199774 Eh
FINAL SINGLE POINT ENERGY      -514.992199773641

DIPOLE MOMENT
-------------
                                X             Y             Z
Electronic contribution:      0.18197       2.50762      -0.00000
Nuclear contribution   :     -0.73620      -3.38440      -0.00000
                        -----------------------------------------
Total Dipole Moment    :     -0.55424      -0.87678      -0.00000
                        -----------------------------------------
Magnitude (a.u.)       :      1.03727
Magnitude (Debye)      :      2.63653

Rotational constants in cm-1:     0.170449     0.049379     0.040106
Rotational constants in MHz :  5109.944121  1480.353398  1202.347123

                             ****ORCA TERMINATED NORMALLY****
TOTAL RUN TIME: 0 days 0 hours 0 minutes 30 seconds 944 msec
