                         Program Version 5.0.3 -  RELEASE  -
|  1> !ri-mp2 aug-cc-pvdz aug-cc-pvdz/c tightscf
|  2> %pal nprocs 16 end
|  3> %maxcore 3800
|  4>
|  5> * xyz 0 1
|  6> C     0.000000     0.000000    1.162215
|  7> C     0.000000     1.146150    0.130119
|  8> C     0.000000    -1.146150    0.130119
|  9> C     1.246419     0.777460   -0.711377
| 10> C    -1.246419     0.777460   -0.711377
| 11> C    -1.246419    -0.777460   -0.711377
| 12> C     1.246419    -0.777460   -0.711377
| 13> H    -0.887511     0.000000    1.799660
| 14> H     0.887511     0.000000    1.799660
| 15> C     0.000000     2.567261    0.662990
| 16> C     0.000000    -2.567261    0.662990
| 17> H     2.149630     1.169313   -0.239900
| 18> H    -2.149630    -1.169313   -0.239900
| 19> H     2.149630    -1.169313   -0.239900
| 20> H    -2.149630     1.169313   -0.239900
| 21> H     1.195920    -1.204338   -1.714197
| 22> H    -1.195920     1.204338   -1.714197
| 23> H     1.195920     1.204338   -1.714197
| 24> H    -1.195920    -1.204338   -1.714197
| 25> H     0.882939    -2.760591    1.276063
| 26> H     0.000000    -3.294790   -0.152370
| 27> H    -0.882939    -2.760591    1.276063
| 28> H    -0.882939     2.760591    1.276063
| 29> H     0.000000     3.294790   -0.152370
| 30> H     0.882939     2.760591    1.276063
| 31> *
| 32>
| 33>                          ****END OF INPUT****

CARTESIAN COORDINATES (ANGSTROEM)
---------------------------------
  C      0.000000    0.000000    1.162215
  C      0.000000    1.146150    0.130119
  C      0.000000   -1.146150    0.130119
  C      1.246419    0.777460   -0.711377
  C     -1.246419    0.777460   -0.711377
  C     -1.246419   -0.777460   -0.711377
  C      1.246419   -0.777460   -0.711377
  H     -0.887511    0.000000    1.799660
  H      0.887511    0.000000    1.799660
  C      0.000000    2.567261    0.662990
  C      0.000000   -2.567261    0.662990
  H      2.149630    1.169313   -0.239900
  H     -2.149630   -1.169313   -0.239900
  H      2.149630   -1.169313   -0.239900
  H     -2.149630    1.169313   -0.239900
  H      1.195920   -1.204338   -1.714197
  H     -1.195920    1.204338   -1.714197
  H      1.195920    1.204338   -1.714197
  H     -1.195920   -1.204338   -1.714197
  H      0.882939   -2.760591    1.276063
  H      0.000000   -3.294790   -0.152370
  H     -0.882939   -2.760591    1.276063
  H     -0.882939    2.760591    1.276063
  H      0.000000    3.294790   -0.152370
  H      0.882939    2.760591    1.276063

 Total Charge           Charge          ....    0
 Multiplicity           Mult            ....    1
 Number of Electrons    NEL             ....   70
 Basis Dimension        Dim             ....  351

ORBITAL ENERGIES
----------------

  NO   OCC          E(Eh)            E(eV)
   0   2.0000     -11.227011      -305.5025
   1   2.0000     -11.227005      -305.5023
   2   2.0000     -11.215231      -305.1819
   3   2.0000     -11.215202      -305.1812
   4   2.0000     -11.214686      -305.1671
   5   2.0000     -11.214664      -305.1665
   6   2.0000     -11.213285      -305.1290
   7   2.0000     -11.213283      -305.1289
   8   2.0000     -11.211788      -305.0882
   9   2.0000      -1.168288       -31.7907
  10   2.0000      -1.036858       -28.2144
  11   2.0000      -0.997367       -27.1397
  12   2.0000      -0.961580       -26.1659
  13   2.0000      -0.926220       -25.2037
  14   2.0000      -0.875361       -23.8198
  15   2.0000      -0.825248       -22.4561
  16   2.0000      -0.739443       -20.1213
  17   2.0000      -0.703510       -19.1435
  18   2.0000      -0.643072       -17.4989
  19   2.0000      -0.627728       -17.0813
  20   2.0000      -0.624368       -16.9899
  21   2.0000      -0.575900       -15.6710
  22   2.0000      -0.560309       -15.2468
  23   2.0000      -0.552497       -15.0342
  24   2.0000      -0.545586       -14.8462
  25   2.0000      -0.542899       -14.7730
  26   2.0000      -0.515604       -14.0303
  27   2.0000      -0.496001       -13.4969
  28   2.0000      -0.473381       -12.8813
  29   2.0000      -0.463227       -12.6051
  30   2.0000      -0.458651       -12.4805
  31   2.0000      -0.446081       -12.1385
  32   2.0000      -0.433733       -11.8025
  33   2.0000      -0.412702       -11.2302
  34   2.0000      -0.406272       -11.0552
  35   0.0000       0.036398         0.9904
  36   0.0000       0.039612         1.0779
  37   0.0000       0.045235         1.2309
  38   0.0000       0.045984         1.2513
  39   0.0000       0.060106         1.6356

MULLIKEN ATOMIC CHARGES
-----------------------
   0 C :    1.094042
   1 C :   -2.479305
   2 C :   -2.479305
   3 C :    0.719205
   4 C :    0.719205
   5 C :    0.719205
   6 C :    0.719205
   7 H :   -0.216453
   8 H :   -0.216453
   9 C :    1.539112
  10 C :    1.539112
  11 H :   -0.221529
  12 H :   -0.221529
  13 H :   -0.221529
  14 H :   -0.221529
  15 H :   -0.193292
  16 H :   -0.193292
  17 H :   -0.193292
  18 H :   -0.193292
  19 H :   -0.018578
  20 H :    0.038013
  21 H :   -0.018578
  22 H :   -0.018578
  23 H :    0.038013
  24 H :   -0.018578
Sum of atomic charges:   -0.0000000

LOEWDIN ATOMIC CHARGES
----------------------
   0 C :    0.075637
   1 C :   -0.410118
   2 C :   -0.410118
   3 C :    0.057457
   4 C :    0.057457
   5 C :    0.057457
   6 C :    0.057457
   7 H :    0.033659
   8 H :    0.033659
   9 C :    0.185359
  10 C :    0.185359
  11 H :    0.015214
  12 H :    0.015214
  13 H :    0.015214
  14 H :    0.015214
  15 H :    0.016191
  16 H :    0.016191
  17 H :    0.016191
  18 H :    0.016191
  19 H :   -0.009251
  20 H :   -0.005937
  21 H :   -0.009251
  22 H :   -0.009251
  23 H :   -0.005937
  24 H :   -0.009251

  Mayer bond orders larger than 0.100000
B(  0-C ,  1-C ) :   0.6971 B(  0-C ,  2-C ) :   0.6971 B(  0-C ,  3-C ) :   0.1042
B(  0-C ,  4-C ) :   0.1042 B(  0-C ,  5-C ) :   0.1042 B(  0-C ,  6-C ) :   0.1042
B(  0-C ,  7-H ) :   0.5676 B(  0-C ,  8-H ) :   0.5676 B(  1-C ,  2-C ) :  -0.3007
B(  1-C ,  3-C ) :   0.9366 B(  1-C ,  4-C ) :   0.9366 B(  1-C ,  7-H ) :   0.2288
B(  1-C ,  8-H ) :   0.2288 B(  1-C ,  9-C ) :   1.1612 B(  1-C , 11-H ) :   0.2800
B(  1-C , 14-H ) :   0.2800 B(  1-C , 15-H ) :  -0.1772 B(  1-C , 16-H ) :   0.2147
B(  1-C , 17-H ) :   0.2147 B(  1-C , 18-H ) :  -0.1772 B(  1-C , 22-H ) :   0.2464
B(  1-C , 23-H ) :   0.1740 B(  1-C , 24-H ) :   0.2464 B(  2-C ,  5-C ) :   0.9366
B(  2-C ,  6-C ) :   0.9366 B(  2-C ,  7-H ) :   0.2288 B(  2-C ,  8-H ) :   0.2288
B(  2-C , 10-C ) :   1.1612 B(  2-C , 12-H ) :   0.2800 B(  2-C , 13-H ) :   0.2800
B(  2-C , 15-H ) :   0.2147 B(  2-C , 16-H ) :  -0.1772 B(  2-C , 17-H ) :  -0.1772
B(  2-C , 18-H ) :   0.2147 B(  2-C , 19-H ) :   0.2464 B(  2-C , 20-H ) :   0.1740
B(  2-C , 21-H ) :   0.2464 B(  3-C ,  6-C ) :   1.3200 B(  3-C ,  9-C ) :  -0.1447
B(  3-C , 11-H ) :   0.6414 B(  3-C , 15-H ) :   0.1622 B(  3-C , 17-H ) :   0.5911
B(  4-C ,  5-C ) :   1.3200 B(  4-C ,  9-C ) :  -0.1447 B(  4-C , 14-H ) :   0.6414
B(  4-C , 16-H ) :   0.5911 B(  4-C , 18-H ) :   0.1622 B(  5-C , 10-C ) :  -0.1447
B(  5-C , 12-H ) :   0.6414 B(  5-C , 16-H ) :   0.1622 B(  5-C , 18-H ) :   0.5911
B(  6-C , 10-C ) :  -0.1447 B(  6-C , 13-H ) :   0.6414 B(  6-C , 15-H ) :   0.5911
B(  6-C , 17-H ) :   0.1622 B(  7-H ,  8-H ) :  -0.2973 B(  9-C , 22-H ) :   0.6943
B(  9-C , 23-H ) :   0.7450 B(  9-C , 24-H ) :   0.6943 B( 10-C , 19-H ) :   0.6943
B( 10-C , 20-H ) :   0.7450 B( 10-C , 21-H ) :   0.6943 B( 11-H , 17-H ) :  -0.2569
B( 12-H , 18-H ) :  -0.2569 B( 13-H , 15-H ) :  -0.2569 B( 14-H , 16-H ) :  -0.2569

MP2 TOTAL ENERGY:     -351.501154217 Eh
FINAL SINGLE POINT ENERGY      -351.501154216933

DIPOLE MOMENT
-------------
                                X             Y             Z
Electronic contribution:      0.00000       0.00000      -0.60763
Nuclear contribution   :      0.00000      -0.00000       0.61638
                        -----------------------------------------
Total Dipole Moment    :      0.00000       0.00000       0.00875
                        -----------------------------------------
Magnitude (a.u.)       :      0.00875
Magnitude (Debye)      :      0.02225

Rotational constants in cm-1:     0.093399     0.046877     0.043598
Rotational constants in MHz :  2800.040360  1405.329692  1307.026462

                             ****ORCA TERMINATED NORMALLY****
TOTAL RUN TIME: 0 days 0 hours 2 minutes 4 seconds 273 msec
