                         Program Version 5.0.3 -  RELEASE  -
|  1> !ri-mp2 aug-cc-pvdz aug-cc-pvdz/c tightscf
|  2> %pal nprocs 16 end
|  3>
|  4> * xyz 0 1
|  5> C    -0.237982    0.743614    0.000000
|  6> C     0.237982   -0.743614    0.000000
|  7> Cl   -2.016512    0.831072    0.000000
|  8> Cl    2.016512   -0.831072    0.000000
|  9> F     0.237982    1.361871    1.086622
| 10> F     0.237982    1.361871   -1.086622
| 11> F    -0.237982   -1.361871    1.086622
| 12> F    -0.237982   -1.361871   -1.086622
| 13> *
| 14>
| 15>                          ****END OF INPUT****

CARTESIAN COORDINATES (ANGSTROEM)
---------------------------------
  C     -0.237982    0.743614    0.000000
  C      0.237982   -0.743614    0.000000
  Cl    -2.016512    0.831072    0.000000
  Cl     2.016512   -0.831072    0.000000
  F      0.237982    1.361871    1.086622
  F      0.237982    1.361871   -1.086622
  F     -0.237982   -1.361871    1.086622
  F     -0.237982   -1.361871   -1.086622

 Total Charge           Charge          ....    0
 Multiplicity           Mult            ....    1
 Number of Electrons    NEL             ....   82
 Basis Dimension        Dim             ....  192

ORBITAL ENERGIES
----------------

  NO   OCC          E(Eh)            E(eV)
   0   2.0000    -104.883645     -2854.0291
   1   2.0000    -104.883645     -2854.0291
   2   2.0000     -26.387008      -718.0270
   3   2.0000     -26.387005      -718.0269
   4   2.0000     -26.386989      -718.0265
   5   2.0000     -26.386985      -718.0264
   6   2.0000     -11.538335      -313.9741
   7   2.0000     -11.537806      -313.9597
   8   2.0000     -10.610239      -288.7193
   9   2.0000     -10.610239      -288.7193
  10   2.0000      -8.077968      -219.8127
  11   2.0000      -8.077968      -219.8127
  12   2.0000      -8.074286      -219.7125
  13   2.0000      -8.074285      -219.7125
  14   2.0000      -8.074210      -219.7104
  15   2.0000      -8.074210      -219.7104
  16   2.0000      -1.749976       -47.6193
  17   2.0000      -1.733097       -47.1600
  18   2.0000      -1.678686       -45.6794
  19   2.0000      -1.669176       -45.4206
  20   2.0000      -1.200469       -32.6664
  21   2.0000      -1.180509       -32.1233
  22   2.0000      -1.035875       -28.1876
  23   2.0000      -0.938673       -25.5426
  24   2.0000      -0.869830       -23.6693
  25   2.0000      -0.850844       -23.1527
  26   2.0000      -0.813862       -22.1463
  27   2.0000      -0.810263       -22.0484
  28   2.0000      -0.792654       -21.5692
  29   2.0000      -0.750603       -20.4249
  30   2.0000      -0.727827       -19.8052
  31   2.0000      -0.726191       -19.7607
  32   2.0000      -0.696662       -18.9571
  33   2.0000      -0.683570       -18.6009
  34   2.0000      -0.661173       -17.9914
  35   2.0000      -0.622929       -16.9508
  36   2.0000      -0.554740       -15.0952
  37   2.0000      -0.518056       -14.0970
  38   2.0000      -0.508350       -13.8329
  39   2.0000      -0.503528       -13.7017
  40   2.0000      -0.492114       -13.3911
  41   0.0000       0.066857         1.8193
  42   0.0000       0.068115         1.8535
  43   0.0000       0.082515         2.2454
  44   0.0000       0.100078         2.7233
  45   0.0000       0.101437         2.7602

MULLIKEN ATOMIC CHARGES
-----------------------
   0 C :    1.204335
   1 C :    1.204335
   2 Cl:   -0.080372
   3 Cl:   -0.080372
   4 F :   -0.561981
   5 F :   -0.561981
   6 F :   -0.561981
   7 F :   -0.561981
Sum of atomic charges:    0.0000000

LOEWDIN ATOMIC CHARGES
----------------------
   0 C :   -0.701149
   1 C :   -0.701149
   2 Cl:    0.594557
   3 Cl:    0.594557
   4 F :    0.053296
   5 F :    0.053296
   6 F :    0.053296
   7 F :    0.053296

  Mayer bond orders larger than 0.100000
B(  0-C ,  1-C ) :   0.8592 B(  0-C ,  2-Cl) :   1.1834 B(  0-C ,  4-F ) :   0.3665
B(  0-C ,  5-F ) :   0.3665 B(  0-C ,  6-F ) :   0.1091 B(  0-C ,  7-F ) :   0.1091
B(  1-C ,  3-Cl) :   1.1834 B(  1-C ,  4-F ) :   0.1091 B(  1-C ,  5-F ) :   0.1091
B(  1-C ,  6-F ) :   0.3665 B(  1-C ,  7-F ) :   0.3665

MP2 TOTAL ENERGY:    -1393.918173492 Eh
FINAL SINGLE POINT ENERGY     -1393.918173492037

DIPOLE MOMENT
-------------
                                X             Y             Z
Electronic contribution:      0.00000      -0.00000       0.00000
Nuclear contribution   :      0.00000       0.00000       0.00000
                        -----------------------------------------
Total Dipole Moment    :      0.00000      -0.00000       0.00000
                        -----------------------------------------
Magnitude (a.u.)       :      0.00000
Magnitude (Debye)      :      0.00000

Rotational constants in cm-1:     0.073323     0.037735     0.033906
Rotational constants in MHz :  2198.173524  1131.272997  1016.472918

                             ****ORCA TERMINATED NORMALLY****
TOTAL RUN TIME: 0 days 0 hours 0 minutes 57 seconds 477 msec
