                         Program Version 5.0.3 -  RELEASE  -
|  1> !ri-mp2 aug-cc-pvdz aug-cc-pvdz/c tightscf
|  2> %pal nprocs 16 end
|  3>
|  4> * xyz 0 1
|  5> C     -0.375827    1.083218   -0.143727
|  6> C     -1.730720    0.914545    0.013207
|  7> C     -0.800510   -1.127958    0.050865
|  8> C      0.213730   -0.211135   -0.126043
|  9> N     -1.984695   -0.422966    0.119352
| 10> N      2.473612    0.408232    0.261342
| 11> N      1.571203   -0.508797   -0.347613
| 12> H      0.147064    2.015954   -0.252645
| 13> H     -2.523634    1.639838    0.060015
| 14> H     -0.779966   -2.201879    0.108656
| 15> H     -2.889932   -0.832811    0.250080
| 16> H      3.335494    0.406023   -0.266084
| 17> H      2.672619    0.160352    1.227596
| 18> H      1.777472   -1.474780   -0.124995
| 19> *
| 20>
| 21>                          ****END OF INPUT****

CARTESIAN COORDINATES (ANGSTROEM)
---------------------------------
  C     -0.375827    1.083218   -0.143727
  C     -1.730720    0.914545    0.013207
  C     -0.800510   -1.127958    0.050865
  C      0.213730   -0.211135   -0.126043
  N     -1.984695   -0.422966    0.119352
  N      2.473612    0.408232    0.261342
  N      1.571203   -0.508797   -0.347613
  H      0.147064    2.015954   -0.252645
  H     -2.523634    1.639838    0.060015
  H     -0.779966   -2.201879    0.108656
  H     -2.889932   -0.832811    0.250080
  H      3.335494    0.406023   -0.266084
  H      2.672619    0.160352    1.227596
  H      1.777472   -1.474780   -0.124995

 Total Charge           Charge          ....    0
 Multiplicity           Mult            ....    1
 Number of Electrons    NEL             ....   52
 Basis Dimension        Dim             ....  224

ORBITAL ENERGIES
----------------

  NO   OCC          E(Eh)            E(eV)
   0   2.0000     -15.603014      -424.5796
   1   2.0000     -15.585821      -424.1117
   2   2.0000     -15.580204      -423.9589
   3   2.0000     -11.255131      -306.2677
   4   2.0000     -11.247934      -306.0719
   5   2.0000     -11.241670      -305.9014
   6   2.0000     -11.203230      -304.8554
   7   2.0000      -1.294643       -35.2290
   8   2.0000      -1.271523       -34.5999
   9   2.0000      -1.077443       -29.3187
  10   2.0000      -1.005609       -27.3640
  11   2.0000      -0.952520       -25.9194
  12   2.0000      -0.796389       -21.6708
  13   2.0000      -0.750780       -20.4298
  14   2.0000      -0.729385       -19.8476
  15   2.0000      -0.681006       -18.5311
  16   2.0000      -0.668209       -18.1829
  17   2.0000      -0.602015       -16.3817
  18   2.0000      -0.577978       -15.7276
  19   2.0000      -0.564309       -15.3556
  20   2.0000      -0.556750       -15.1499
  21   2.0000      -0.522079       -14.2065
  22   2.0000      -0.448004       -12.1908
  23   2.0000      -0.416538       -11.3346
  24   2.0000      -0.316277        -8.6063
  25   2.0000      -0.276620        -7.5272
  26   0.0000       0.032274         0.8782
  27   0.0000       0.038186         1.0391
  28   0.0000       0.044690         1.2161
  29   0.0000       0.060237         1.6391
  30   0.0000       0.060924         1.6578

MULLIKEN ATOMIC CHARGES
-----------------------
   0 C :    0.889765
   1 C :    0.320635
   2 C :    1.031487
   3 C :    0.235237
   4 N :   -0.580261
   5 N :   -0.201589
   6 N :   -0.624085
   7 H :   -0.423158
   8 H :   -0.276490
   9 H :   -0.356916
  10 H :   -0.123347
  11 H :    0.087852
  12 H :    0.040410
  13 H :   -0.019540
Sum of atomic charges:   -0.0000000

LOEWDIN ATOMIC CHARGES
----------------------
   0 C :    0.040357
   1 C :    0.014433
   2 C :    0.052335
   3 C :   -0.242137
   4 N :    0.049604
   5 N :    0.192102
   6 N :    0.027821
   7 H :   -0.011052
   8 H :   -0.007548
   9 H :   -0.014168
  10 H :    0.016862
  11 H :   -0.054595
  12 H :   -0.047566
  13 H :   -0.016446

  Mayer bond orders larger than 0.100000
B(  0-C ,  1-C ) :   1.4268 B(  0-C ,  3-C ) :   1.6372 B(  0-C ,  7-H ) :   0.2478
B(  1-C ,  2-C ) :   0.1323 B(  1-C ,  3-C ) :   0.1450 B(  1-C ,  4-N ) :   0.9996
B(  1-C ,  7-H ) :   0.1687 B(  1-C ,  8-H ) :   0.8809 B(  1-C , 10-H ) :  -0.1312
B(  2-C ,  3-C ) :   1.6763 B(  2-C ,  4-N ) :   0.8268 B(  2-C ,  6-N ) :  -0.1256
B(  2-C ,  9-H ) :   0.6026 B(  2-C , 10-H ) :  -0.1778 B(  3-C ,  5-N ) :  -0.3475
B(  3-C ,  6-N ) :   0.5944 B(  3-C ,  7-H ) :   0.3875 B(  3-C ,  9-H ) :   0.1554
B(  4-N , 10-H ) :   1.2766 B(  5-N ,  6-N ) :   1.1098 B(  5-N , 11-H ) :   1.0311
B(  5-N , 12-H ) :   1.0672 B(  6-N , 13-H ) :   1.0991

MP2 TOTAL ENERGY:     -319.951458984 Eh
FINAL SINGLE POINT ENERGY      -319.951458983839

DIPOLE MOMENT
-------------
                                X             Y             Z
Electronic contribution:     -1.91774      -0.43831      -0.51669
Nuclear contribution   :      1.76092      -0.29199       1.00838
                        -----------------------------------------
Total Dipole Moment    :     -0.15681      -0.73029       0.49169
                        -----------------------------------------
Magnitude (a.u.)       :      0.89425
Magnitude (Debye)      :      2.27300

Rotational constants in cm-1:     0.246992     0.063982     0.052413
Rotational constants in MHz :  7404.629743  1918.136203  1571.309090

                             ****ORCA TERMINATED NORMALLY****
TOTAL RUN TIME: 0 days 0 hours 0 minutes 48 seconds 165 msec
