                         Program Version 5.0.3 -  RELEASE  -
|  1> !ri-mp2 aug-cc-pvdz aug-cc-pvdz/c tightscf
|  2> %pal nprocs 16 end
|  3>
|  4> * xyz 0 1
|  5> S      0.104910   -0.330209    1.416746
|  6> S      0.104910   -0.330209   -1.416746
|  7> N     -0.487995   -1.151970    0.000000
|  8> C      0.104910    1.282613    0.665107
|  9> C      0.104910    1.282613   -0.665107
| 10> H      0.150997    2.157376    1.295596
| 11> H      0.150997    2.157376   -1.295596
| 12> H     -1.502056   -1.075624    0.000000
| 13> *
| 14>
| 15>                          ****END OF INPUT****

CARTESIAN COORDINATES (ANGSTROEM)
---------------------------------
  S      0.104910   -0.330209    1.416746
  S      0.104910   -0.330209   -1.416746
  N     -0.487995   -1.151970    0.000000
  C      0.104910    1.282613    0.665107
  C      0.104910    1.282613   -0.665107
  H      0.150997    2.157376    1.295596
  H      0.150997    2.157376   -1.295596
  H     -1.502056   -1.075624    0.000000

 Total Charge           Charge          ....    0
 Multiplicity           Mult            ....    1
 Number of Electrons    NEL             ....   54
 Basis Dimension        Dim             ....  150

ORBITAL ENERGIES
----------------

  NO   OCC          E(Eh)            E(eV)
   0   2.0000     -92.003079     -2503.5310
   1   2.0000     -92.003077     -2503.5310
   2   2.0000     -15.628351      -425.2691
   3   2.0000     -11.285861      -307.1039
   4   2.0000     -11.284151      -307.0574
   5   2.0000      -9.001566      -244.9451
   6   2.0000      -9.001541      -244.9444
   7   2.0000      -6.683433      -181.8654
   8   2.0000      -6.683432      -181.8654
   9   2.0000      -6.681878      -181.8231
  10   2.0000      -6.681872      -181.8230
  11   2.0000      -6.679430      -181.7565
  12   2.0000      -6.679429      -181.7565
  13   2.0000      -1.249963       -34.0132
  14   2.0000      -1.083386       -29.4804
  15   2.0000      -1.002472       -27.2786
  16   2.0000      -0.856682       -23.3115
  17   2.0000      -0.773549       -21.0493
  18   2.0000      -0.685517       -18.6539
  19   2.0000      -0.656926       -17.8759
  20   2.0000      -0.558035       -15.1849
  21   2.0000      -0.544955       -14.8290
  22   2.0000      -0.503196       -13.6927
  23   2.0000      -0.463722       -12.6185
  24   2.0000      -0.434652       -11.8275
  25   2.0000      -0.388052       -10.5594
  26   2.0000      -0.311413        -8.4740
  27   0.0000       0.033550         0.9129
  28   0.0000       0.045591         1.2406
  29   0.0000       0.048014         1.3065
  30   0.0000       0.075130         2.0444
  31   0.0000       0.085358         2.3227

MULLIKEN ATOMIC CHARGES
-----------------------
   0 S :    0.632975
   1 S :    0.632975
   2 N :   -0.936786
   3 C :    0.097890
   4 C :    0.097890
   5 H :   -0.323517
   6 H :   -0.323517
   7 H :    0.122090
Sum of atomic charges:   -0.0000000

LOEWDIN ATOMIC CHARGES
----------------------
   0 S :    0.800106
   1 S :    0.800106
   2 N :   -0.552815
   3 C :   -0.394754
   4 C :   -0.394754
   5 H :   -0.059250
   6 H :   -0.059250
   7 H :   -0.139390

  Mayer bond orders larger than 0.100000
B(  0-S ,  2-N ) :   0.7300 B(  0-S ,  3-C ) :   0.8810 B(  0-S ,  5-H ) :  -0.1051
B(  1-S ,  2-N ) :   0.7300 B(  1-S ,  4-C ) :   0.8810 B(  1-S ,  6-H ) :  -0.1051
B(  2-N ,  7-H ) :   1.0984 B(  3-C ,  4-C ) :   2.0854 B(  3-C ,  5-H ) :   0.9335
B(  4-C ,  6-H ) :   0.9335

MP2 TOTAL ENERGY:     -927.673013841 Eh
FINAL SINGLE POINT ENERGY      -927.673013840986

DIPOLE MOMENT
-------------
                                X             Y             Z
Electronic contribution:      0.76288      -2.23296      -0.00000
Nuclear contribution   :     -1.16620       3.13655       0.00000
                        -----------------------------------------
Total Dipole Moment    :     -0.40332       0.90359      -0.00000
                        -----------------------------------------
Magnitude (a.u.)       :      0.98952
Magnitude (Debye)      :      2.51515

Rotational constants in cm-1:     0.205181     0.114253     0.076614
Rotational constants in MHz :  6151.174969  3425.231720  2296.822132

                             ****ORCA TERMINATED NORMALLY****
TOTAL RUN TIME: 0 days 0 hours 0 minutes 51 seconds 98 msec
