                         Program Version 5.0.3 -  RELEASE  -
|  1> !ri-mp2 aug-cc-pvdz aug-cc-pvdz/c tightscf
|  2> %pal nprocs 16 end
|  3> %maxcore 3800
|  4>
|  5> * xyz 0 1
|  6> C     -4.547650   -1.705638    0.272597
|  7> C     -3.795689   -0.553081   -0.390005
|  8> C     -2.349515   -0.430093    0.100464
|  9> C     -1.615268    0.722413   -0.573309
| 10> S      0.037748    1.077404    0.089018
| 11> O      0.541910    2.249760   -0.624888
| 12> C      1.055947   -0.348493   -0.390800
| 13> C      2.496572   -0.170036    0.080449
| 14> C      3.378082   -1.358055   -0.315035
| 15> C      4.824517   -1.194420    0.147764
| 16> O     -0.048573    1.105880    1.548995
| 17> H     -4.067320   -2.663473    0.063479
| 18> H     -4.581440   -1.582093    1.356437
| 19> H     -5.575090   -1.764796   -0.087565
| 20> H     -4.320256    0.386228   -0.194738
| 21> H     -3.803321   -0.687023   -1.475548
| 22> H     -1.826735   -1.371038   -0.089908
| 23> H     -2.336575   -0.275264    1.180431
| 24> H     -2.130655    1.672755   -0.422484
| 25> H     -1.487390    0.579358   -1.646641
| 26> H      0.990394   -0.416247   -1.477160
| 27> H      0.591980   -1.227121    0.056620
| 28> H      2.505188   -0.047615    1.164989
| 29> H      2.901550    0.749170   -0.346134
| 30> H      3.354143   -1.481736   -1.401693
| 31> H      2.960814   -2.276931    0.107216
| 32> H      5.277008   -0.300011   -0.284003
| 33> H      4.882665   -1.102883    1.233779
| 34> H      5.432396   -2.050455   -0.146968
| 35> *
| 36>
| 37>                          ****END OF INPUT****

CARTESIAN COORDINATES (ANGSTROEM)
---------------------------------
  C     -4.547650   -1.705638    0.272597
  C     -3.795689   -0.553081   -0.390005
  C     -2.349515   -0.430093    0.100464
  C     -1.615268    0.722413   -0.573309
  S      0.037748    1.077404    0.089018
  O      0.541910    2.249760   -0.624888
  C      1.055947   -0.348493   -0.390800
  C      2.496572   -0.170036    0.080449
  C      3.378082   -1.358055   -0.315035
  C      4.824517   -1.194420    0.147764
  O     -0.048573    1.105880    1.548995
  H     -4.067320   -2.663473    0.063479
  H     -4.581440   -1.582093    1.356437
  H     -5.575090   -1.764796   -0.087565
  H     -4.320256    0.386228   -0.194738
  H     -3.803321   -0.687023   -1.475548
  H     -1.826735   -1.371038   -0.089908
  H     -2.336575   -0.275264    1.180431
  H     -2.130655    1.672755   -0.422484
  H     -1.487390    0.579358   -1.646641
  H      0.990394   -0.416247   -1.477160
  H      0.591980   -1.227121    0.056620
  H      2.505188   -0.047615    1.164989
  H      2.901550    0.749170   -0.346134
  H      3.354143   -1.481736   -1.401693
  H      2.960814   -2.276931    0.107216
  H      5.277008   -0.300011   -0.284003
  H      4.882665   -1.102883    1.233779
  H      5.432396   -2.050455   -0.146968

 Total Charge           Charge          ....    0
 Multiplicity           Mult            ....    1
 Number of Electrons    NEL             ....   98
 Basis Dimension        Dim             ....  419

ORBITAL ENERGIES
----------------

  NO   OCC          E(Eh)            E(eV)
   0   2.0000     -92.184544     -2508.4690
   1   2.0000     -20.543011      -559.0038
   2   2.0000     -20.542382      -558.9866
   3   2.0000     -11.280684      -306.9630
   4   2.0000     -11.280084      -306.9467
   5   2.0000     -11.251690      -306.1741
   6   2.0000     -11.244470      -305.9776
   7   2.0000     -11.243686      -305.9563
   8   2.0000     -11.239587      -305.8447
   9   2.0000     -11.232198      -305.6436
  10   2.0000     -11.226660      -305.4930
  11   2.0000      -9.158161      -249.2062
  12   2.0000      -6.843370      -186.2176
  13   2.0000      -6.841964      -186.1793
  14   2.0000      -6.841749      -186.1734
  15   2.0000      -1.438682       -39.1485
  16   2.0000      -1.324805       -36.0498
  17   2.0000      -1.113371       -30.2964
  18   2.0000      -1.100592       -29.9486
  19   2.0000      -1.040387       -28.3104
  20   2.0000      -1.013541       -27.5799
  21   2.0000      -0.930809       -25.3286
  22   2.0000      -0.893399       -24.3106
  23   2.0000      -0.823096       -22.3976
  24   2.0000      -0.814891       -22.1743
  25   2.0000      -0.791297       -21.5323
  26   2.0000      -0.688324       -18.7302
  27   2.0000      -0.673805       -18.3352
  28   2.0000      -0.666071       -18.1247
  29   2.0000      -0.653396       -17.7798
  30   2.0000      -0.634450       -17.2643
  31   2.0000      -0.605546       -16.4777
  32   2.0000      -0.604211       -16.4414
  33   2.0000      -0.594490       -16.1769
  34   2.0000      -0.590781       -16.0760
  35   2.0000      -0.555251       -15.1092
  36   2.0000      -0.553741       -15.0681
  37   2.0000      -0.528837       -14.3904
  38   2.0000      -0.522615       -14.2211
  39   2.0000      -0.516888       -14.0652
  40   2.0000      -0.499644       -13.5960
  41   2.0000      -0.495532       -13.4841
  42   2.0000      -0.491577       -13.3765
  43   2.0000      -0.486564       -13.2401
  44   2.0000      -0.485289       -13.2054
  45   2.0000      -0.475705       -12.9446
  46   2.0000      -0.465371       -12.6634
  47   2.0000      -0.452930       -12.3248
  48   2.0000      -0.411910       -11.2086
  49   0.0000       0.028133         0.7655
  50   0.0000       0.034366         0.9352
  51   0.0000       0.039322         1.0700
  52   0.0000       0.042030         1.1437
  53   0.0000       0.051185         1.3928

MULLIKEN ATOMIC CHARGES
-----------------------
   0 C :    0.582347
   1 C :    0.404140
   2 C :    0.284382
   3 C :   -0.137854
   4 S :    2.951377
   5 O :   -1.276475
   6 C :   -0.217196
   7 C :    0.324310
   8 C :    0.409077
   9 C :    0.594823
  10 O :   -1.318380
  11 H :   -0.096933
  12 H :   -0.071167
  13 H :   -0.072999
  14 H :   -0.192377
  15 H :   -0.170863
  16 H :   -0.253635
  17 H :   -0.188325
  18 H :   -0.040687
  19 H :   -0.176066
  20 H :   -0.192376
  21 H :   -0.191598
  22 H :   -0.171928
  23 H :   -0.183383
  24 H :   -0.177788
  25 H :   -0.181276
  26 H :   -0.085784
  27 H :   -0.082319
  28 H :   -0.071044
Sum of atomic charges:   -0.0000000

LOEWDIN ATOMIC CHARGES
----------------------
   0 C :    0.138077
   1 C :   -0.068184
   2 C :   -0.065319
   3 C :   -0.075386
   4 S :    0.947109
   5 O :   -0.404220
   6 C :   -0.081501
   7 C :   -0.060483
   8 C :   -0.070078
   9 C :    0.137729
  10 O :   -0.399585
  11 H :   -0.018675
  12 H :   -0.016325
  13 H :   -0.018986
  14 H :    0.013972
  15 H :    0.012418
  16 H :    0.008047
  17 H :    0.015664
  18 H :    0.005155
  19 H :   -0.000257
  20 H :    0.001254
  21 H :   -0.005551
  22 H :    0.018046
  23 H :    0.017432
  24 H :    0.011697
  25 H :    0.011589
  26 H :   -0.016855
  27 H :   -0.016873
  28 H :   -0.019911

  Mayer bond orders larger than 0.100000
B(  0-C ,  1-C ) :   1.1762 B(  0-C , 11-H ) :   0.9155 B(  0-C , 12-H ) :   0.9233
B(  0-C , 13-H ) :   0.8931 B(  1-C ,  2-C ) :   1.2215 B(  1-C , 14-H ) :   0.7272
B(  1-C , 15-H ) :   0.7825 B(  2-C ,  3-C ) :   1.2698 B(  2-C , 10-O ) :  -0.1331
B(  2-C , 14-H ) :   0.1176 B(  2-C , 16-H ) :   0.7333 B(  2-C , 17-H ) :   0.7798
B(  3-C ,  4-S ) :   0.8216 B(  3-C , 10-O ) :   0.2638 B(  3-C , 18-H ) :   0.8422
B(  3-C , 19-H ) :   0.9565 B(  4-S ,  5-O ) :   0.5158 B(  4-S ,  6-C ) :   1.0034
B(  4-S , 10-O ) :   0.6095 B(  5-O ,  6-C ) :   0.2397 B(  5-O , 10-O ) :   0.1349
B(  6-C ,  7-C ) :   1.5079 B(  6-C ,  8-C ) :  -0.1099 B(  6-C , 10-O ) :   0.1628
B(  6-C , 20-H ) :   0.9190 B(  6-C , 21-H ) :   0.8899 B(  7-C ,  8-C ) :   1.2220
B(  7-C , 22-H ) :   0.7981 B(  7-C , 23-H ) :   0.7481 B(  8-C ,  9-C ) :   1.2207
B(  8-C , 24-H ) :   0.7544 B(  8-C , 25-H ) :   0.7521 B(  9-C , 26-H ) :   0.9095
B(  9-C , 27-H ) :   0.9080 B(  9-C , 28-H ) :   0.9122

MP2 TOTAL ENERGY:     -862.427877357 Eh
FINAL SINGLE POINT ENERGY      -862.427877357176

DIPOLE MOMENT
-------------
                                X             Y             Z
Electronic contribution:      0.68705      12.46856       1.53875
Nuclear contribution   :     -1.26565     -14.28672      -2.47556
                        -----------------------------------------
Total Dipole Moment    :     -0.57860      -1.81816      -0.93681
                        -----------------------------------------
Magnitude (a.u.)       :      2.12558
Magnitude (Debye)      :      5.40279

Rotational constants in cm-1:     0.051165     0.012619     0.011062
Rotational constants in MHz :  1533.879521   378.306436   331.636175

                             ****ORCA TERMINATED NORMALLY****
TOTAL RUN TIME: 0 days 0 hours 3 minutes 29 seconds 420 msec
