                         Program Version 5.0.3 -  RELEASE  -
|  1> !ri-mp2 aug-cc-pvdz aug-cc-pvdz/c tightscf
|  2> %pal nprocs 16 end
|  3>
|  4> * xyz 0 1
|  5> O      1.086627   -0.768894   -0.000019
|  6> O     -1.086627   -0.768894   -0.000018
|  7> N      3.344570    0.172429    0.000005
|  8> N     -3.344570    0.172429    0.000011
|  9> C      0.000000    0.087074   -0.000001
| 10> C      2.270510   -0.244533   -0.000005
| 11> C     -2.270510   -0.244533   -0.000002
| 12> C      0.000000    1.401601    0.000027
| 13> H     -0.931172    1.945319    0.000038
| 14> H      0.931172    1.945319    0.000038
| 15> *
| 16>
| 17>                          ****END OF INPUT****

CARTESIAN COORDINATES (ANGSTROEM)
---------------------------------
  O      1.086627   -0.768894   -0.000019
  O     -1.086627   -0.768894   -0.000018
  N      3.344570    0.172429    0.000005
  N     -3.344570    0.172429    0.000011
  C      0.000000    0.087074   -0.000001
  C      2.270510   -0.244533   -0.000005
  C     -2.270510   -0.244533   -0.000002
  C      0.000000    1.401601    0.000027
  H     -0.931172    1.945319    0.000038
  H      0.931172    1.945319    0.000038

 Total Charge           Charge          ....    0
 Multiplicity           Mult            ....    1
 Number of Electrons    NEL             ....   56
 Basis Dimension        Dim             ....  202

ORBITAL ENERGIES
----------------

  NO   OCC          E(Eh)            E(eV)
   0   2.0000     -20.731598      -564.1355
   1   2.0000     -20.731584      -564.1351
   2   2.0000     -15.618272      -424.9948
   3   2.0000     -15.618272      -424.9948
   4   2.0000     -11.456825      -311.7561
   5   2.0000     -11.383146      -309.7512
   6   2.0000     -11.383144      -309.7511
   7   2.0000     -11.294545      -307.3402
   8   2.0000      -1.591660       -43.3113
   9   2.0000      -1.531881       -41.6846
  10   2.0000      -1.263883       -34.3920
  11   2.0000      -1.257522       -34.2189
  12   2.0000      -1.125830       -30.6354
  13   2.0000      -1.011465       -27.5234
  14   2.0000      -0.869098       -23.6494
  15   2.0000      -0.791055       -21.5257
  16   2.0000      -0.767419       -20.8825
  17   2.0000      -0.766392       -20.8546
  18   2.0000      -0.701091       -19.0776
  19   2.0000      -0.682614       -18.5749
  20   2.0000      -0.631005       -17.1705
  21   2.0000      -0.599484       -16.3128
  22   2.0000      -0.596424       -16.2295
  23   2.0000      -0.512500       -13.9458
  24   2.0000      -0.503556       -13.7025
  25   2.0000      -0.500372       -13.6158
  26   2.0000      -0.481903       -13.1132
  27   2.0000      -0.422946       -11.5090
  28   0.0000       0.028698         0.7809
  29   0.0000       0.053897         1.4666
  30   0.0000       0.054167         1.4740
  31   0.0000       0.071792         1.9536
  32   0.0000       0.073445         1.9986

MULLIKEN ATOMIC CHARGES
-----------------------
   0 O :   -0.620827
   1 O :   -0.620827
   2 N :   -0.237991
   3 N :   -0.237991
   4 C :    1.815880
   5 C :   -0.100320
   6 C :   -0.100320
   7 C :    0.637080
   8 H :   -0.267343
   9 H :   -0.267343
Sum of atomic charges:    0.0000000

LOEWDIN ATOMIC CHARGES
----------------------
   0 O :    0.128234
   1 O :    0.128234
   2 N :    0.105300
   3 N :    0.105300
   4 C :   -0.230429
   5 C :   -0.226382
   6 C :   -0.226382
   7 C :    0.258057
   8 H :   -0.020967
   9 H :   -0.020967

  Mayer bond orders larger than 0.100000
B(  0-O ,  2-N ) :  -0.1139 B(  0-O ,  4-C ) :   0.2513 B(  0-O ,  5-C ) :   1.2917
B(  1-O ,  3-N ) :  -0.1139 B(  1-O ,  4-C ) :   0.2513 B(  1-O ,  6-C ) :   1.2917
B(  2-N ,  5-C ) :   2.6745 B(  3-N ,  6-C ) :   2.6745 B(  4-C ,  5-C ) :  -0.3609
B(  4-C ,  6-C ) :  -0.3609 B(  4-C ,  7-C ) :   1.7993 B(  7-C ,  8-H ) :   0.8942
B(  7-C ,  9-H ) :   0.8942 B(  8-H ,  9-H ) :  -0.1847

MP2 TOTAL ENERGY:     -412.421514180 Eh
FINAL SINGLE POINT ENERGY      -412.421514179570

DIPOLE MOMENT
-------------
                                X             Y             Z
Electronic contribution:     -0.00000      -3.54578      -0.00007
Nuclear contribution   :      0.00000       3.69622       0.00007
                        -----------------------------------------
Total Dipole Moment    :     -0.00000       0.15043      -0.00000
                        -----------------------------------------
Magnitude (a.u.)       :      0.15043
Magnitude (Debye)      :      0.38237

Rotational constants in cm-1:     0.321909     0.035360     0.031861
Rotational constants in MHz :  9650.579710  1060.079603   955.159007

                             ****ORCA TERMINATED NORMALLY****
TOTAL RUN TIME: 0 days 0 hours 0 minutes 40 seconds 398 msec
