                         Program Version 5.0.3 -  RELEASE  -
|  1> !ri-mp2 aug-cc-pvdz aug-cc-pvdz/c tightscf
|  2> %pal nprocs 16 end
|  3>
|  4> * xyz 0 1
|  5> C      0.536731    3.223064    0.000000
|  6> C     -0.454928    2.061221    0.000000
|  7> C      0.239825    0.697977    0.000000
|  8> C     -0.768764   -0.447146    0.000000
|  9> N     -0.044489   -1.768093    0.000000
| 10> O      0.239825   -2.250342    1.084249
| 11> O      0.239825   -2.250342   -1.084249
| 12> H      0.018030    4.181913    0.000000
| 13> H      1.179997    3.192827    0.881142
| 14> H      1.179997    3.192827   -0.881142
| 15> H     -1.106167    2.136482    0.875255
| 16> H     -1.106167    2.136482   -0.875255
| 17> H      0.880107    0.607526   -0.879899
| 18> H      0.880107    0.607526    0.879899
| 19> H     -1.384437   -0.442080    0.895216
| 20> H     -1.384437   -0.442080   -0.895216
| 21> *
| 22>
| 23>                          ****END OF INPUT****

CARTESIAN COORDINATES (ANGSTROEM)
---------------------------------
  C      0.536731    3.223064    0.000000
  C     -0.454928    2.061221    0.000000
  C      0.239825    0.697977    0.000000
  C     -0.768764   -0.447146    0.000000
  N     -0.044489   -1.768093    0.000000
  O      0.239825   -2.250342    1.084249
  O      0.239825   -2.250342   -1.084249
  H      0.018030    4.181913    0.000000
  H      1.179997    3.192827    0.881142
  H      1.179997    3.192827   -0.881142
  H     -1.106167    2.136482    0.875255
  H     -1.106167    2.136482   -0.875255
  H      0.880107    0.607526   -0.879899
  H      0.880107    0.607526    0.879899
  H     -1.384437   -0.442080    0.895216
  H     -1.384437   -0.442080   -0.895216

 Total Charge           Charge          ....    0
 Multiplicity           Mult            ....    1
 Number of Electrons    NEL             ....   56
 Basis Dimension        Dim             ....  242

ORBITAL ENERGIES
----------------

  NO   OCC          E(Eh)            E(eV)
   0   2.0000     -20.611931      -560.8792
   1   2.0000     -20.611876      -560.8777
   2   2.0000     -15.851180      -431.3325
   3   2.0000     -11.311920      -307.8130
   4   2.0000     -11.260937      -306.4257
   5   2.0000     -11.252072      -306.1844
   6   2.0000     -11.237286      -305.7821
   7   2.0000      -1.609687       -43.8018
   8   2.0000      -1.404492       -38.2182
   9   2.0000      -1.135639       -30.9023
  10   2.0000      -1.059708       -28.8361
  11   2.0000      -0.950154       -25.8550
  12   2.0000      -0.849824       -23.1249
  13   2.0000      -0.828100       -22.5338
  14   2.0000      -0.749402       -20.3923
  15   2.0000      -0.735541       -20.0151
  16   2.0000      -0.712771       -19.3955
  17   2.0000      -0.677025       -18.4228
  18   2.0000      -0.613633       -16.6978
  19   2.0000      -0.606605       -16.5066
  20   2.0000      -0.567372       -15.4390
  21   2.0000      -0.540240       -14.7007
  22   2.0000      -0.518405       -14.1065
  23   2.0000      -0.504015       -13.7149
  24   2.0000      -0.495154       -13.4738
  25   2.0000      -0.489725       -13.3261
  26   2.0000      -0.474348       -12.9077
  27   2.0000      -0.451821       -12.2947
  28   0.0000       0.029934         0.8146
  29   0.0000       0.039521         1.0754
  30   0.0000       0.043083         1.1723
  31   0.0000       0.048156         1.3104
  32   0.0000       0.063367         1.7243

MULLIKEN ATOMIC CHARGES
-----------------------
   0 C :    0.456208
   1 C :    0.212833
   2 C :    0.054395
   3 C :    1.190974
   4 N :    0.790787
   5 O :   -0.795463
   6 O :   -0.795463
   7 H :   -0.067178
   8 H :   -0.074568
   9 H :   -0.074568
  10 H :   -0.151916
  11 H :   -0.151916
  12 H :   -0.134343
  13 H :   -0.134343
  14 H :   -0.162719
  15 H :   -0.162719
Sum of atomic charges:   -0.0000000

LOEWDIN ATOMIC CHARGES
----------------------
   0 C :    0.139979
   1 C :   -0.065898
   2 C :   -0.020449
   3 C :    0.084064
   4 N :   -0.368436
   5 O :    0.077016
   6 O :    0.077016
   7 H :   -0.018057
   8 H :   -0.016375
   9 H :   -0.016375
  10 H :    0.014076
  11 H :    0.014076
  12 H :    0.024004
  13 H :    0.024004
  14 H :    0.025677
  15 H :    0.025677

  Mayer bond orders larger than 0.100000
B(  0-C ,  1-C ) :   1.2092 B(  0-C ,  7-H ) :   0.8978 B(  0-C ,  8-H ) :   0.9324
B(  0-C ,  9-H ) :   0.9324 B(  1-C ,  2-C ) :   1.2135 B(  1-C , 10-H ) :   0.7956
B(  1-C , 11-H ) :   0.7956 B(  2-C ,  3-C ) :   1.1699 B(  2-C , 12-H ) :   0.8043
B(  2-C , 13-H ) :   0.8043 B(  2-C , 14-H ) :   0.1136 B(  2-C , 15-H ) :   0.1136
B(  3-C ,  4-N ) :   0.5606 B(  3-C , 14-H ) :   0.8090 B(  3-C , 15-H ) :   0.8090
B(  4-N ,  5-O ) :   1.1376 B(  4-N ,  6-O ) :   1.1376 B(  5-O ,  6-O ) :   0.1848
B( 14-H , 15-H ) :  -0.1419

MP2 TOTAL ENERGY:     -362.003443250 Eh
FINAL SINGLE POINT ENERGY      -362.003443250500

DIPOLE MOMENT
-------------
                                X             Y             Z
Electronic contribution:      0.16221     -13.69116      -0.00000
Nuclear contribution   :     -0.85229      15.39024       0.00000
                        -----------------------------------------
Total Dipole Moment    :     -0.69008       1.69908      -0.00000
                        -----------------------------------------
Magnitude (a.u.)       :      1.83387
Magnitude (Debye)      :      4.66133

Rotational constants in cm-1:     0.240335     0.036448     0.035107
Rotational constants in MHz :  7205.047998  1092.670783  1052.477320

                             ****ORCA TERMINATED NORMALLY****
TOTAL RUN TIME: 0 days 0 hours 1 minutes 12 seconds 305 msec
