                         Program Version 5.0.3 -  RELEASE  -
|  1> !ri-mp2 aug-cc-pvdz aug-cc-pvdz/c tightscf
|  2> %pal nprocs 16 end
|  3>
|  4> * xyz 0 1
|  5> C     -0.621011   -0.043215   -0.003296
|  6> H      0.001740    2.009175   -0.056030
|  7> N      0.197961    1.024633   -0.005588
|  8> N      1.486430    0.574685    0.004451
|  9> N      1.411372   -0.699900    0.008559
| 10> N      0.119936   -1.131006    0.009304
| 11> H     -2.446118    0.747717    0.423321
| 12> H     -2.419586   -0.896323    0.073092
| 13> N     -1.988552    0.002833   -0.076813
| 14> *
| 15>
| 16>                          ****END OF INPUT****

CARTESIAN COORDINATES (ANGSTROEM)
---------------------------------
  C     -0.621011   -0.043215   -0.003296
  H      0.001740    2.009175   -0.056030
  N      0.197961    1.024633   -0.005588
  N      1.486430    0.574685    0.004451
  N      1.411372   -0.699900    0.008559
  N      0.119936   -1.131006    0.009304
  H     -2.446118    0.747717    0.423321
  H     -2.419586   -0.896323    0.073092
  N     -1.988552    0.002833   -0.076813

 Total Charge           Charge          ....    0
 Multiplicity           Mult            ....    1
 Number of Electrons    NEL             ....   44
 Basis Dimension        Dim             ....  165

ORBITAL ENERGIES
----------------

  NO   OCC          E(Eh)            E(eV)
   0   2.0000     -15.670222      -426.4084
   1   2.0000     -15.657805      -426.0705
   2   2.0000     -15.650940      -425.8837
   3   2.0000     -15.621716      -425.0885
   4   2.0000     -15.590597      -424.2417
   5   2.0000     -11.378648      -309.6288
   6   2.0000      -1.489312       -40.5262
   7   2.0000      -1.284976       -34.9660
   8   2.0000      -1.245343       -33.8875
   9   2.0000      -1.155500       -31.4427
  10   2.0000      -0.901646       -24.5350
  11   2.0000      -0.878793       -23.9132
  12   2.0000      -0.794261       -21.6129
  13   2.0000      -0.713021       -19.4023
  14   2.0000      -0.694923       -18.9098
  15   2.0000      -0.673611       -18.3299
  16   2.0000      -0.571034       -15.5386
  17   2.0000      -0.528638       -14.3850
  18   2.0000      -0.466058       -12.6821
  19   2.0000      -0.462843       -12.5946
  20   2.0000      -0.450609       -12.2617
  21   2.0000      -0.373889       -10.1740
  22   0.0000       0.016542         0.4501
  23   0.0000       0.037014         1.0072
  24   0.0000       0.055700         1.5157
  25   0.0000       0.090147         2.4530
  26   0.0000       0.109536         2.9806

MULLIKEN ATOMIC CHARGES
-----------------------
   0 C :    1.404615
   1 H :   -0.032581
   2 N :   -0.158815
   3 N :   -0.233511
   4 N :   -0.234359
   5 N :   -0.473212
   6 H :   -0.017550
   7 H :    0.035474
   8 N :   -0.290062
Sum of atomic charges:    0.0000000

LOEWDIN ATOMIC CHARGES
----------------------
   0 C :   -0.310186
   1 H :    0.032520
   2 N :    0.075276
   3 N :   -0.002712
   4 N :   -0.051931
   5 N :    0.004302
   6 H :   -0.018640
   7 H :   -0.009537
   8 N :    0.280908

  Mayer bond orders larger than 0.100000
B(  0-C ,  2-N ) :   0.8943 B(  0-C ,  3-N ) :  -0.1107 B(  0-C ,  4-N ) :  -0.1181
B(  0-C ,  5-N ) :   1.3154 B(  0-C ,  8-N ) :   0.8587 B(  1-H ,  2-N ) :   1.1541
B(  1-H ,  3-N ) :  -0.1117 B(  2-N ,  3-N ) :   0.9995 B(  3-N ,  4-N ) :   1.2297
B(  4-N ,  5-N ) :   0.8780 B(  6-H ,  8-N ) :   1.1167 B(  7-H ,  8-N ) :   1.0825

MP2 TOTAL ENERGY:     -312.836697318 Eh
FINAL SINGLE POINT ENERGY      -312.836697318028

DIPOLE MOMENT
-------------
                                X             Y             Z
Electronic contribution:      2.73176      -0.34440      -0.07896
Nuclear contribution   :     -4.71776       1.80601       0.42744
                        -----------------------------------------
Total Dipole Moment    :     -1.98600       1.46161       0.34848
                        -----------------------------------------
Magnitude (a.u.)       :      2.49037
Magnitude (Debye)      :      6.33001

Rotational constants in cm-1:     0.338536     0.128144     0.093226
Rotational constants in MHz : 10149.050223  3841.664399  2794.830351

                             ****ORCA TERMINATED NORMALLY****
TOTAL RUN TIME: 0 days 0 hours 0 minutes 38 seconds 527 msec
