                         Program Version 5.0.3 -  RELEASE  -
|  1> !ri-mp2 aug-cc-pvdz aug-cc-pvdz/c tightscf
|  2> %pal nprocs 16 end
|  3> %maxcore 3800
|  4>
|  5> * xyz 0 1
|  6> C     -3.718906    0.008129   -0.494379
|  7> C     -2.699428    0.209382    0.331599
|  8> C      3.687893   -0.207825   -0.120495
|  9> C     -1.396675   -0.530695    0.303389
| 10> C      2.358809    0.545407   -0.139559
| 11> C     -0.186173    0.386338    0.074430
| 12> C      1.148183   -0.358947    0.093708
| 13> H     -4.631597    0.584270   -0.421349
| 14> H     -3.677416   -0.743766   -1.273896
| 15> H     -2.790163    0.977233    1.096030
| 16> H      3.716728   -0.976298   -0.895791
| 17> H      3.846764   -0.703368    0.839542
| 18> H      4.530129    0.464536   -0.289388
| 19> H     -1.260508   -1.052629    1.257535
| 20> H     -1.428811   -1.300599   -0.471834
| 21> H      2.244636    1.058481   -1.099103
| 22> H      2.373926    1.330018    0.622906
| 23> H     -0.176694    1.167721    0.841095
| 24> H     -0.305655    0.900978   -0.883282
| 25> H      1.134469   -1.144791   -0.669046
| 26> H      1.261978   -0.872523    1.054419
| 27> *
| 28>
| 29>                          ****END OF INPUT****

CARTESIAN COORDINATES (ANGSTROEM)
---------------------------------
  C     -3.718906    0.008129   -0.494379
  C     -2.699428    0.209382    0.331599
  C      3.687893   -0.207825   -0.120495
  C     -1.396675   -0.530695    0.303389
  C      2.358809    0.545407   -0.139559
  C     -0.186173    0.386338    0.074430
  C      1.148183   -0.358947    0.093708
  H     -4.631597    0.584270   -0.421349
  H     -3.677416   -0.743766   -1.273896
  H     -2.790163    0.977233    1.096030
  H      3.716728   -0.976298   -0.895791
  H      3.846764   -0.703368    0.839542
  H      4.530129    0.464536   -0.289388
  H     -1.260508   -1.052629    1.257535
  H     -1.428811   -1.300599   -0.471834
  H      2.244636    1.058481   -1.099103
  H      2.373926    1.330018    0.622906
  H     -0.176694    1.167721    0.841095
  H     -0.305655    0.900978   -0.883282
  H      1.134469   -1.144791   -0.669046
  H      1.261978   -0.872523    1.054419

 Total Charge           Charge          ....    0
 Multiplicity           Mult            ....    1
 Number of Electrons    NEL             ....   56
 Basis Dimension        Dim             ....  287

ORBITAL ENERGIES
----------------

  NO   OCC          E(Eh)            E(eV)
   0   2.0000     -11.236089      -305.7495
   1   2.0000     -11.228279      -305.5370
   2   2.0000     -11.223737      -305.4134
   3   2.0000     -11.223166      -305.3979
   4   2.0000     -11.222487      -305.3794
   5   2.0000     -11.221136      -305.3426
   6   2.0000     -11.217232      -305.2364
   7   2.0000      -1.096156       -29.8279
   8   2.0000      -1.059116       -28.8200
   9   2.0000      -0.998793       -27.1785
  10   2.0000      -0.919984       -25.0341
  11   2.0000      -0.831818       -22.6349
  12   2.0000      -0.789365       -21.4797
  13   2.0000      -0.754671       -20.5356
  14   2.0000      -0.655385       -17.8339
  15   2.0000      -0.629909       -17.1407
  16   2.0000      -0.602440       -16.3932
  17   2.0000      -0.586744       -15.9661
  18   2.0000      -0.566395       -15.4124
  19   2.0000      -0.556052       -15.1309
  20   2.0000      -0.523589       -14.2476
  21   2.0000      -0.508337       -13.8325
  22   2.0000      -0.491757       -13.3814
  23   2.0000      -0.476521       -12.9668
  24   2.0000      -0.463611       -12.6155
  25   2.0000      -0.461000       -12.5445
  26   2.0000      -0.451470       -12.2851
  27   2.0000      -0.357264        -9.7216
  28   0.0000       0.037456         1.0192
  29   0.0000       0.040758         1.1091
  30   0.0000       0.044093         1.1998
  31   0.0000       0.046179         1.2566
  32   0.0000       0.055609         1.5132

MULLIKEN ATOMIC CHARGES
-----------------------
   0 C :    0.455230
   1 C :    0.948565
   2 C :    0.517983
   3 C :    0.487485
   4 C :    0.359736
   5 C :   -0.088620
   6 C :    0.178747
   7 H :   -0.306454
   8 H :   -0.315862
   9 H :   -0.496627
  10 H :   -0.091682
  11 H :   -0.093158
  12 H :   -0.074189
  13 H :   -0.083427
  14 H :   -0.222355
  15 H :   -0.178352
  16 H :   -0.179444
  17 H :   -0.211754
  18 H :   -0.175350
  19 H :   -0.229502
  20 H :   -0.200969
Sum of atomic charges:    0.0000000

LOEWDIN ATOMIC CHARGES
----------------------
   0 C :    0.157108
   1 C :   -0.068078
   2 C :    0.130384
   3 C :   -0.039155
   4 C :   -0.072964
   5 C :   -0.034971
   6 C :   -0.043425
   7 H :   -0.046365
   8 H :   -0.040731
   9 H :   -0.000497
  10 H :   -0.020343
  11 H :   -0.020401
  12 H :   -0.022268
  13 H :    0.017503
  14 H :    0.015645
  15 H :    0.011137
  16 H :    0.010874
  17 H :    0.015691
  18 H :    0.018070
  19 H :    0.016627
  20 H :    0.016162

  Mayer bond orders larger than 0.100000
B(  0-C ,  1-C ) :   1.8504 B(  0-C ,  5-C ) :   0.1037 B(  0-C ,  7-H ) :   0.7091
B(  0-C ,  8-H ) :   0.8795 B(  1-C ,  3-C ) :   1.2349 B(  1-C ,  5-C ) :  -0.1172
B(  1-C ,  7-H ) :   0.1954 B(  1-C ,  9-H ) :   0.4380 B(  2-C ,  4-C ) :   1.1581
B(  2-C , 10-H ) :   0.9205 B(  2-C , 11-H ) :   0.9182 B(  2-C , 12-H ) :   0.9100
B(  3-C ,  5-C ) :   1.1950 B(  3-C ,  6-C ) :  -0.1216 B(  3-C , 13-H ) :   0.7836
B(  3-C , 14-H ) :   0.7042 B(  3-C , 18-H ) :  -0.1260 B(  4-C ,  6-C ) :   1.2372
B(  4-C , 15-H ) :   0.7530 B(  4-C , 16-H ) :   0.7525 B(  5-C ,  6-C ) :   1.3336
B(  5-C , 14-H ) :   0.2269 B(  5-C , 17-H ) :   0.8100 B(  5-C , 18-H ) :   0.8962
B(  6-C , 16-H ) :   0.1035 B(  6-C , 19-H ) :   0.7675 B(  6-C , 20-H ) :   0.8065
B(  7-H ,  8-H ) :  -0.1955

MP2 TOTAL ENERGY:     -274.269558654 Eh
FINAL SINGLE POINT ENERGY      -274.269558654164

DIPOLE MOMENT
-------------
                                X             Y             Z
Electronic contribution:     -5.00299       0.33953       0.36068
Nuclear contribution   :      5.18184      -0.33284      -0.31294
                        -----------------------------------------
Total Dipole Moment    :      0.17885       0.00670       0.04774
                        -----------------------------------------
Magnitude (a.u.)       :      0.18523
Magnitude (Debye)      :      0.47083

Rotational constants in cm-1:     0.401717     0.025922     0.025606
Rotational constants in MHz : 12043.176971   777.132273   767.649174

                             ****ORCA TERMINATED NORMALLY****
TOTAL RUN TIME: 0 days 0 hours 1 minutes 7 seconds 567 msec
