                         Program Version 5.0.3 -  RELEASE  -
|  1> !ri-mp2 aug-cc-pvdz aug-cc-pvdz/c tightscf
|  2> %pal nprocs 16 end
|  3>
|  4> * xyz 0 1
|  5> N      1.951229   -0.653592    0.274179
|  6> C     -1.544566   -0.217982   -0.577174
|  7> C      0.599777    1.081360   -0.202261
|  8> H      0.156334    2.041637   -0.396652
|  9> C      1.871547    0.709910    0.140798
| 10> H      2.728958    1.343392    0.292022
| 11> H      0.434363   -2.128670    0.020356
| 12> C      0.743448   -1.095776    0.014974
| 13> N     -0.123330   -0.087560   -0.284887
| 14> H     -1.720891   -1.257639   -0.851818
| 15> H     -1.770847    0.387341   -1.456142
| 16> C     -2.439557    0.181938    0.592297
| 17> H     -2.233726   -0.434183    1.467321
| 18> H     -3.488111    0.054549    0.320622
| 19> H     -2.285276    1.224935    0.867450
| 20> *
| 21>
| 22>                          ****END OF INPUT****

CARTESIAN COORDINATES (ANGSTROEM)
---------------------------------
  N      1.951229   -0.653592    0.274179
  C     -1.544566   -0.217982   -0.577174
  C      0.599777    1.081360   -0.202261
  H      0.156334    2.041637   -0.396652
  C      1.871547    0.709910    0.140798
  H      2.728958    1.343392    0.292022
  H      0.434363   -2.128670    0.020356
  C      0.743448   -1.095776    0.014974
  N     -0.123330   -0.087560   -0.284887
  H     -1.720891   -1.257639   -0.851818
  H     -1.770847    0.387341   -1.456142
  C     -2.439557    0.181938    0.592297
  H     -2.233726   -0.434183    1.467321
  H     -3.488111    0.054549    0.320622
  H     -2.285276    1.224935    0.867450

 Total Charge           Charge          ....    0
 Multiplicity           Mult            ....    1
 Number of Electrons    NEL             ....   52
 Basis Dimension        Dim             ....  233

ORBITAL ENERGIES
----------------

  NO   OCC          E(Eh)            E(eV)
   0   2.0000     -15.623011      -425.1237
   1   2.0000     -15.546188      -423.0333
   2   2.0000     -11.294286      -307.3332
   3   2.0000     -11.294257      -307.3324
   4   2.0000     -11.258353      -306.3553
   5   2.0000     -11.243812      -305.9597
   6   2.0000     -11.242355      -305.9200
   7   2.0000      -1.345562       -36.6146
   8   2.0000      -1.187004       -32.3000
   9   2.0000      -1.042754       -28.3748
  10   2.0000      -1.001585       -27.2545
  11   2.0000      -0.890730       -24.2380
  12   2.0000      -0.805607       -21.9217
  13   2.0000      -0.780460       -21.2374
  14   2.0000      -0.719186       -19.5700
  15   2.0000      -0.646735       -17.5986
  16   2.0000      -0.624189       -16.9850
  17   2.0000      -0.594763       -16.1843
  18   2.0000      -0.590732       -16.0746
  19   2.0000      -0.567181       -15.4338
  20   2.0000      -0.546197       -14.8628
  21   2.0000      -0.531974       -14.4757
  22   2.0000      -0.517130       -14.0718
  23   2.0000      -0.428835       -11.6692
  24   2.0000      -0.379811       -10.3352
  25   2.0000      -0.314882        -8.5684
  26   0.0000       0.028943         0.7876
  27   0.0000       0.040917         1.1134
  28   0.0000       0.044532         1.2118
  29   0.0000       0.047305         1.2872
  30   0.0000       0.057786         1.5724

MULLIKEN ATOMIC CHARGES
-----------------------
   0 N :   -0.799157
   1 C :    0.651434
   2 C :    0.714843
   3 H :   -0.354396
   4 C :    0.470176
   5 H :   -0.208927
   6 H :   -0.260095
   7 C :    0.490373
   8 N :   -0.428087
   9 H :   -0.218613
  10 H :   -0.212612
  11 C :    0.348021
  12 H :   -0.057830
  13 H :   -0.062484
  14 H :   -0.072648
Sum of atomic charges:   -0.0000000

LOEWDIN ATOMIC CHARGES
----------------------
   0 N :    0.010181
   1 C :    0.003383
   2 C :    0.039602
   3 H :   -0.002735
   4 C :   -0.052795
   5 H :   -0.015227
   6 H :    0.009242
   7 C :   -0.019565
   8 N :   -0.127408
   9 H :    0.019559
  10 H :    0.021458
  11 C :    0.157384
  12 H :   -0.011408
  13 H :   -0.014614
  14 H :   -0.017058

  Mayer bond orders larger than 0.100000
B(  0-N ,  4-C ) :   1.0488 B(  0-N ,  6-H ) :  -0.1261 B(  0-N ,  7-C ) :   1.4263
B(  1-C ,  8-N ) :   0.7554 B(  1-C ,  9-H ) :   0.9285 B(  1-C , 10-H ) :   0.9138
B(  1-C , 11-C ) :   1.1857 B(  2-C ,  3-H ) :   0.7867 B(  2-C ,  4-C ) :   1.6254
B(  2-C ,  6-H ) :  -0.1173 B(  2-C ,  7-C ) :  -0.1964 B(  2-C ,  8-N ) :   1.0649
B(  4-C ,  5-H ) :   0.9341 B(  4-C ,  7-C ) :   0.1157 B(  6-H ,  7-C ) :   1.1030
B(  6-H ,  8-N ) :  -0.1309 B(  7-C ,  8-N ) :   1.1940 B(  9-H , 10-H ) :  -0.1265
B( 11-C , 12-H ) :   0.9711 B( 11-C , 13-H ) :   0.9256 B( 11-C , 14-H ) :   0.9633

MP2 TOTAL ENERGY:     -303.970890909 Eh
FINAL SINGLE POINT ENERGY      -303.970890908767

DIPOLE MOMENT
-------------
                                X             Y             Z
Electronic contribution:      6.63262      -0.94902      -0.61930
Nuclear contribution   :     -8.29820       1.24650       0.26727
                        -----------------------------------------
Total Dipole Moment    :     -1.66558       0.29748      -0.35203
                        -----------------------------------------
Magnitude (a.u.)       :      1.72817
Magnitude (Debye)      :      4.39266

Rotational constants in cm-1:     0.231424     0.064898     0.056556
Rotational constants in MHz :  6937.912450  1945.589727  1695.508054

                             ****ORCA TERMINATED NORMALLY****
TOTAL RUN TIME: 0 days 0 hours 0 minutes 46 seconds 233 msec
