                         Program Version 5.0.3 -  RELEASE  -
|  1> !ri-mp2 aug-cc-pvdz aug-cc-pvdz/c tightscf
|  2> %pal nprocs 16 end
|  3>
|  4> * xyz 0 1
|  5> C     0.599705     1.744134       0.000000
|  6> C    -0.599705    -1.744134       0.000000
|  7> C     0.599705     0.409791       0.000000
|  8> C    -0.599705    -0.409791       0.000000
|  9> H     1.519840     2.311174       0.000000
| 10> H    -0.324442     2.309081       0.000000
| 11> H    -1.519840    -2.311174       0.000000
| 12> H     0.324442    -2.309081       0.000000
| 13> H     1.546374    -0.121919       0.000000
| 14> H    -1.546374     0.121919       0.000000
| 15> *
| 16>
| 17>                          ****END OF INPUT****

CARTESIAN COORDINATES (ANGSTROEM)
---------------------------------
  C      0.599705    1.744134    0.000000
  C     -0.599705   -1.744134    0.000000
  C      0.599705    0.409791    0.000000
  C     -0.599705   -0.409791    0.000000
  H      1.519840    2.311174    0.000000
  H     -0.324442    2.309081    0.000000
  H     -1.519840   -2.311174    0.000000
  H      0.324442   -2.309081    0.000000
  H      1.546374   -0.121919    0.000000
  H     -1.546374    0.121919    0.000000

 Total Charge           Charge          ....    0
 Multiplicity           Mult            ....    1
 Number of Electrons    NEL             ....   30
 Basis Dimension        Dim             ....  146

ORBITAL ENERGIES
----------------

  NO   OCC          E(Eh)            E(eV)
   0   2.0000     -11.245809      -306.0140
   1   2.0000     -11.244977      -305.9914
   2   2.0000     -11.236552      -305.7621
   3   2.0000     -11.236546      -305.7620
   4   2.0000      -1.096777       -29.8448
   5   2.0000      -1.004911       -27.3450
   6   2.0000      -0.830182       -22.5904
   7   2.0000      -0.756350       -20.5813
   8   2.0000      -0.646889       -17.6028
   9   2.0000      -0.637340       -17.3429
  10   2.0000      -0.560082       -15.2406
  11   2.0000      -0.544894       -14.8273
  12   2.0000      -0.493995       -13.4423
  13   2.0000      -0.445586       -12.1250
  14   2.0000      -0.324606        -8.8330
  15   0.0000       0.038079         1.0362
  16   0.0000       0.042562         1.1582
  17   0.0000       0.046117         1.2549
  18   0.0000       0.063333         1.7234
  19   0.0000       0.067295         1.8312

MULLIKEN ATOMIC CHARGES
-----------------------
   0 C :    0.530281
   1 C :    0.530281
   2 C :    0.591253
   3 C :    0.591253
   4 H :   -0.298114
   5 H :   -0.316424
   6 H :   -0.298114
   7 H :   -0.316424
   8 H :   -0.506996
   9 H :   -0.506996
Sum of atomic charges:   -0.0000000

LOEWDIN ATOMIC CHARGES
----------------------
   0 C :    0.170843
   1 C :    0.170843
   2 C :   -0.085409
   3 C :   -0.085409
   4 H :   -0.044493
   5 H :   -0.039893
   6 H :   -0.044493
   7 H :   -0.039893
   8 H :   -0.001048
   9 H :   -0.001048

  Mayer bond orders larger than 0.100000
B(  0-C ,  1-C ) :   0.1908 B(  0-C ,  2-C ) :   1.8794 B(  0-C ,  3-C ) :  -0.1588
B(  0-C ,  4-H ) :   0.7787 B(  0-C ,  5-H ) :   0.8499 B(  1-C ,  2-C ) :  -0.1588
B(  1-C ,  3-C ) :   1.8794 B(  1-C ,  6-H ) :   0.7787 B(  1-C ,  7-H ) :   0.8499
B(  2-C ,  3-C ) :   1.1916 B(  2-C ,  8-H ) :   0.6789 B(  3-C ,  9-H ) :   0.6789
B(  4-H ,  5-H ) :  -0.1812 B(  6-H ,  7-H ) :  -0.1812

MP2 TOTAL ENERGY:     -155.493671617 Eh
FINAL SINGLE POINT ENERGY      -155.493671616654

DIPOLE MOMENT
-------------
                                X             Y             Z
Electronic contribution:     -0.00000       0.00000       0.00000
Nuclear contribution   :      0.00000       0.00000       0.00000
                        -----------------------------------------
Total Dipole Moment    :     -0.00000       0.00000       0.00000
                        -----------------------------------------
Magnitude (a.u.)       :      0.00000
Magnitude (Debye)      :      0.00000

Rotational constants in cm-1:     1.422050     0.148172     0.134190
Rotational constants in MHz : 42632.001405  4442.089577  4022.917175

                             ****ORCA TERMINATED NORMALLY****
TOTAL RUN TIME: 0 days 0 hours 0 minutes 26 seconds 678 msec
