                         Program Version 5.0.3 -  RELEASE  -
|  1> !ri-mp2 aug-cc-pvdz aug-cc-pvdz/c tightscf
|  2> %pal nprocs 16 end
|  3>
|  4> * xyz 0 1
|  5> O     2.042882    1.386061   -0.306059
|  6> O    -0.918032   -1.066477   -0.827288
|  7> O     3.605054   -0.221660   -0.468251
|  8> N     0.250255   -0.222810    0.941283
|  9> N    -3.135574    0.325904   -0.031872
| 10> N    -4.076826    0.233940   -0.637842
| 11> C     1.503935   -0.802214    0.535266
| 12> C    -0.876835   -0.354541    0.164605
| 13> C     2.504443    0.128212   -0.134773
| 14> C    -2.026017    0.411410    0.648141
| 15> H     2.017669   -1.255971    1.383817
| 16> H     1.288572   -1.598028   -0.176598
| 17> H     0.261728    0.487240    1.652644
| 18> H    -2.050184    1.041177    1.521965
| 19> H     2.744845    1.885755   -0.749461
| 20> *
| 21>
| 22>                          ****END OF INPUT****

CARTESIAN COORDINATES (ANGSTROEM)
---------------------------------
  O      2.042882    1.386061   -0.306059
  O     -0.918032   -1.066477   -0.827288
  O      3.605054   -0.221660   -0.468251
  N      0.250255   -0.222810    0.941283
  N     -3.135574    0.325904   -0.031872
  N     -4.076826    0.233940   -0.637842
  C      1.503935   -0.802214    0.535266
  C     -0.876835   -0.354541    0.164605
  C      2.504443    0.128212   -0.134773
  C     -2.026017    0.411410    0.648141
  H      2.017669   -1.255971    1.383817
  H      1.288572   -1.598028   -0.176598
  H      0.261728    0.487240    1.652644
  H     -2.050184    1.041177    1.521965
  H      2.744845    1.885755   -0.749461

 Total Charge           Charge          ....    0
 Multiplicity           Mult            ....    1
 Number of Electrons    NEL             ....   74
 Basis Dimension        Dim             ....  275

ORBITAL ENERGIES
----------------

  NO   OCC          E(Eh)            E(eV)
   0   2.0000     -20.635074      -561.5089
   1   2.0000     -20.569178      -559.7158
   2   2.0000     -20.538801      -558.8892
   3   2.0000     -15.777975      -429.3405
   4   2.0000     -15.710946      -427.5166
   5   2.0000     -15.609480      -424.7556
   6   2.0000     -11.406381      -310.3834
   7   2.0000     -11.383017      -309.7476
   8   2.0000     -11.300893      -307.5129
   9   2.0000     -11.294832      -307.3480
  10   2.0000      -1.507027       -41.0083
  11   2.0000      -1.482217       -40.3332
  12   2.0000      -1.399951       -38.0946
  13   2.0000      -1.378939       -37.5228
  14   2.0000      -1.254714       -34.1425
  15   2.0000      -1.162110       -31.6226
  16   2.0000      -1.024235       -27.8708
  17   2.0000      -0.880610       -23.9626
  18   2.0000      -0.834696       -22.7132
  19   2.0000      -0.785466       -21.3736
  20   2.0000      -0.750483       -20.4217
  21   2.0000      -0.717995       -19.5376
  22   2.0000      -0.712270       -19.3818
  23   2.0000      -0.696296       -18.9472
  24   2.0000      -0.688284       -18.7292
  25   2.0000      -0.662013       -18.0143
  26   2.0000      -0.644194       -17.5294
  27   2.0000      -0.628830       -17.1113
  28   2.0000      -0.606292       -16.4980
  29   2.0000      -0.583157       -15.8685
  30   2.0000      -0.571654       -15.5555
  31   2.0000      -0.565158       -15.3787
  32   2.0000      -0.490759       -13.3542
  33   2.0000      -0.478878       -13.0309
  34   2.0000      -0.447279       -12.1711
  35   2.0000      -0.410820       -11.1790
  36   2.0000      -0.353440        -9.6176
  37   0.0000       0.022572         0.6142
  38   0.0000       0.039059         1.0629
  39   0.0000       0.043253         1.1770
  40   0.0000       0.057221         1.5571
  41   0.0000       0.073355         1.9961

MULLIKEN ATOMIC CHARGES
-----------------------
   0 O :   -0.729154
   1 O :   -0.886455
   2 O :   -0.791821
   3 N :   -0.317679
   4 N :    0.126692
   5 N :   -0.423154
   6 C :    0.472499
   7 C :    0.837254
   8 C :    1.078182
   9 C :    0.823625
  10 H :   -0.002091
  11 H :    0.053997
  12 H :   -0.102397
  13 H :   -0.353810
  14 H :    0.214313
Sum of atomic charges:    0.0000000

LOEWDIN ATOMIC CHARGES
----------------------
   0 O :    0.205644
   1 O :    0.023816
   2 O :    0.042059
   3 N :    0.095726
   4 N :   -0.131768
   5 N :    0.294871
   6 C :    0.071716
   7 C :   -0.370778
   8 C :   -0.324890
   9 C :    0.055477
  10 H :    0.031193
  11 H :    0.026642
  12 H :    0.011050
  13 H :   -0.016152
  14 H :   -0.014606

  Mayer bond orders larger than 0.100000
B(  0-O ,  6-C ) :   0.2268 B(  0-O ,  8-C ) :   0.4463 B(  0-O , 14-H ) :   1.0112
B(  1-O ,  7-C ) :   1.2295 B(  1-O ,  9-C ) :   0.1124 B(  2-O ,  6-C ) :   0.1337
B(  2-O ,  8-C ) :   1.3564 B(  3-N ,  6-C ) :   0.9988 B(  3-N ,  7-C ) :   0.8323
B(  3-N , 12-H ) :   1.0943 B(  4-N ,  5-N ) :   1.7995 B(  4-N ,  9-C ) :   1.1077
B(  5-N ,  9-C ) :  -0.1645 B(  6-C ,  7-C ) :  -0.1171 B(  6-C ,  8-C ) :   0.9881
B(  6-C , 10-H ) :   0.8697 B(  6-C , 11-H ) :   0.8759 B(  7-C ,  9-C ) :   1.2146
B(  7-C , 13-H ) :   0.1137 B(  9-C , 13-H ) :   0.7691 B( 10-H , 11-H ) :  -0.1060

MP2 TOTAL ENERGY:     -543.999290767 Eh
FINAL SINGLE POINT ENERGY      -543.999290767297

DIPOLE MOMENT
-------------
                                X             Y             Z
Electronic contribution:     -4.55098       0.73573      -1.99760
Nuclear contribution   :      4.17249       0.54745       3.50470
                        -----------------------------------------
Total Dipole Moment    :     -0.37848       1.28318       1.50710
                        -----------------------------------------
Magnitude (a.u.)       :      2.01523
Magnitude (Debye)      :      5.12230

Rotational constants in cm-1:     0.136118     0.018967     0.018496
Rotational constants in MHz :  4080.708752   568.610664   554.509196

                             ****ORCA TERMINATED NORMALLY****
TOTAL RUN TIME: 0 days 0 hours 1 minutes 1 seconds 985 msec
