                         Program Version 5.0.3 -  RELEASE  -
|  1> !ri-mp2 aug-cc-pvdz aug-cc-pvdz/c tightscf
|  2> %pal nprocs 16 end
|  3>
|  4> * xyz 0 1
|  5> C     -0.695065   -2.506553    0.000000
|  6> C      0.640810   -2.129667    0.000000
|  7> C     -1.686417   -1.527721    0.000000
|  8> C      0.985096   -0.782121    0.000000
|  9> C     -1.343694   -0.185795    0.000000
| 10> C      0.000000    0.209408    0.000000
| 11> C      0.343826    1.660851    0.000000
| 12> C      1.805185    2.046442    0.000000
| 13> N     -0.606615    2.511330    0.000000
| 14> H     -0.964675   -3.554227    0.000000
| 15> H      1.418044   -2.881961    0.000000
| 16> H     -2.729354   -1.815347    0.000000
| 17> H      2.031257   -0.512617    0.000000
| 18> H     -2.104187    0.580888    0.000000
| 19> H      2.317686    1.650451    0.878477
| 20> H      1.909909    3.129766    0.000000
| 21> H      2.317686    1.650451   -0.878477
| 22> H     -0.248508    3.464218    0.000000
| 23> *
| 24>
| 25>                          ****END OF INPUT****

CARTESIAN COORDINATES (ANGSTROEM)
---------------------------------
  C     -0.695065   -2.506553    0.000000
  C      0.640810   -2.129667    0.000000
  C     -1.686417   -1.527721    0.000000
  C      0.985096   -0.782121    0.000000
  C     -1.343694   -0.185795    0.000000
  C      0.000000    0.209408    0.000000
  C      0.343826    1.660851    0.000000
  C      1.805185    2.046442    0.000000
  N     -0.606615    2.511330    0.000000
  H     -0.964675   -3.554227    0.000000
  H      1.418044   -2.881961    0.000000
  H     -2.729354   -1.815347    0.000000
  H      2.031257   -0.512617    0.000000
  H     -2.104187    0.580888    0.000000
  H      2.317686    1.650451    0.878477
  H      1.909909    3.129766    0.000000
  H      2.317686    1.650451   -0.878477
  H     -0.248508    3.464218    0.000000

 Total Charge           Charge          ....    0
 Multiplicity           Mult            ....    1
 Number of Electrons    NEL             ....   64
 Basis Dimension        Dim             ....  288

ORBITAL ENERGIES
----------------

  NO   OCC          E(Eh)            E(eV)
   0   2.0000     -15.551610      -423.1808
   1   2.0000     -11.298401      -307.4451
   2   2.0000     -11.247885      -306.0705
   3   2.0000     -11.246699      -306.0382
   4   2.0000     -11.245752      -306.0125
   5   2.0000     -11.243736      -305.9576
   6   2.0000     -11.242113      -305.9134
   7   2.0000     -11.239949      -305.8546
   8   2.0000     -11.238080      -305.8037
   9   2.0000      -1.223044       -33.2807
  10   2.0000      -1.155275       -31.4366
  11   2.0000      -1.036645       -28.2085
  12   2.0000      -1.021407       -27.7939
  13   2.0000      -0.987273       -26.8651
  14   2.0000      -0.860470       -23.4146
  15   2.0000      -0.829786       -22.5796
  16   2.0000      -0.764411       -20.8007
  17   2.0000      -0.698225       -18.9997
  18   2.0000      -0.658852       -17.9283
  19   2.0000      -0.631381       -17.1808
  20   2.0000      -0.615003       -16.7351
  21   2.0000      -0.600844       -16.3498
  22   2.0000      -0.594570       -16.1791
  23   2.0000      -0.589902       -16.0521
  24   2.0000      -0.548405       -14.9229
  25   2.0000      -0.511713       -13.9244
  26   2.0000      -0.502756       -13.6807
  27   2.0000      -0.494363       -13.4523
  28   2.0000      -0.437845       -11.9144
  29   2.0000      -0.417139       -11.3509
  30   2.0000      -0.340140        -9.2557
  31   2.0000      -0.327710        -8.9175
  32   0.0000       0.032779         0.8920
  33   0.0000       0.036713         0.9990
  34   0.0000       0.043258         1.1771
  35   0.0000       0.054061         1.4711
  36   0.0000       0.055022         1.4972

MULLIKEN ATOMIC CHARGES
-----------------------
   0 C :    0.547834
   1 C :    0.255450
   2 C :    0.386026
   3 C :    0.435686
   4 C :    0.076796
   5 C :    1.342820
   6 C :   -0.511759
   7 C :    0.584419
   8 N :   -0.487266
   9 H :   -0.448816
  10 H :   -0.460677
  11 H :   -0.455449
  12 H :   -0.720056
  13 H :   -0.620572
  14 H :    0.146898
  15 H :   -0.247516
  16 H :    0.146898
  17 H :    0.029284
Sum of atomic charges:    0.0000000

LOEWDIN ATOMIC CHARGES
----------------------
   0 C :    0.013278
   1 C :    0.011041
   2 C :    0.016598
   3 C :    0.045608
   4 C :    0.063610
   5 C :   -0.138777
   6 C :   -0.270488
   7 C :    0.187562
   8 N :    0.184969
   9 H :    0.001025
  10 H :   -0.000431
  11 H :    0.000840
  12 H :   -0.006536
  13 H :   -0.000613
  14 H :   -0.003495
  15 H :   -0.014649
  16 H :   -0.003495
  17 H :   -0.086045

  Mayer bond orders larger than 0.100000
B(  0-C ,  1-C ) :   1.7984 B(  0-C ,  2-C ) :   1.7396 B(  0-C ,  5-C ) :   0.2056
B(  0-C ,  6-C ) :  -0.1010 B(  0-C ,  9-H ) :   0.3092 B(  1-C ,  3-C ) :   1.6994
B(  1-C ,  5-C ) :  -0.6501 B(  1-C ,  6-C ) :   0.3479 B(  1-C ,  7-C ) :   0.2668
B(  1-C ,  9-H ) :   0.2213 B(  1-C , 11-H ) :  -0.1268 B(  1-C , 12-H ) :   0.3921
B(  2-C ,  4-C ) :   1.9567 B(  2-C ,  5-C ) :  -0.6546 B(  2-C ,  6-C ) :   0.3553
B(  2-C ,  7-C ) :   0.1247 B(  2-C ,  9-H ) :   0.2045 B(  2-C , 10-H ) :  -0.1210
B(  2-C , 11-H ) :   0.1183 B(  2-C , 13-H ) :   0.3098 B(  3-C ,  4-C ) :  -1.0743
B(  3-C ,  5-C ) :   2.1298 B(  3-C ,  6-C ) :  -0.5868 B(  3-C ,  7-C ) :  -0.4737
B(  3-C ,  8-N ) :   0.1086 B(  3-C , 10-H ) :   0.6310 B(  3-C , 12-H ) :  -0.4905
B(  4-C ,  5-C ) :   1.5939 B(  4-C ,  6-C ) :  -1.3254 B(  4-C , 11-H ) :   0.5762
B(  5-C ,  6-C ) :   1.5878 B(  5-C , 12-H ) :   0.5710 B(  5-C , 13-H ) :   0.4591
B(  6-C ,  7-C ) :   1.1253 B(  6-C ,  8-N ) :   1.5476 B(  6-C , 14-H ) :   0.1087
B(  6-C , 15-H ) :   0.2579 B(  6-C , 16-H ) :   0.1087 B(  7-C , 12-H ) :   0.1821
B(  7-C , 14-H ) :   0.8349 B(  7-C , 15-H ) :   0.7003 B(  7-C , 16-H ) :   0.8349
B(  8-N , 17-H ) :   0.9045

MP2 TOTAL ENERGY:     -363.936164825 Eh
FINAL SINGLE POINT ENERGY      -363.936164825137

DIPOLE MOMENT
-------------
                                X             Y             Z
Electronic contribution:     -3.10483      -1.93723       0.00000
Nuclear contribution   :      3.97838       1.74128       0.00000
                        -----------------------------------------
Total Dipole Moment    :      0.87355      -0.19595       0.00000
                        -----------------------------------------
Magnitude (a.u.)       :      0.89526
Magnitude (Debye)      :      2.27556

Rotational constants in cm-1:     0.122566     0.040762     0.030763
Rotational constants in MHz :  3674.430451  1222.023841   922.246556

                             ****ORCA TERMINATED NORMALLY****
TOTAL RUN TIME: 0 days 0 hours 1 minutes 31 seconds 217 msec
