                         Program Version 5.0.3 -  RELEASE  -
|  1> !ri-mp2 aug-cc-pvdz aug-cc-pvdz/c tightscf
|  2> %pal nprocs 16 end
|  3>
|  4> * xyz 0 1
|  5> F      0.548649    1.404763   -0.866830
|  6> N      1.973333   -1.532425   -0.071295
|  7> N     -2.338792   -0.929583   -0.574584
|  8> C      0.660912    0.696914    0.317359
|  9> C     -0.731990    0.476706    0.920774
| 10> C      1.389652   -0.554071    0.072761
| 11> C     -1.622829   -0.312424    0.077679
| 12> H      1.247307    1.305371    1.008994
| 13> H     -0.623459   -0.014179    1.889654
| 14> H     -1.177948    1.457246    1.092538
| 15> *
| 16>
| 17>                          ****END OF INPUT****

CARTESIAN COORDINATES (ANGSTROEM)
---------------------------------
  F      0.548649    1.404763   -0.866830
  N      1.973333   -1.532425   -0.071295
  N     -2.338792   -0.929583   -0.574584
  C      0.660912    0.696914    0.317359
  C     -0.731990    0.476706    0.920774
  C      1.389652   -0.554071    0.072761
  C     -1.622829   -0.312424    0.077679
  H      1.247307    1.305371    1.008994
  H     -0.623459   -0.014179    1.889654
  H     -1.177948    1.457246    1.092538

 Total Charge           Charge          ....    0
 Multiplicity           Mult            ....    1
 Number of Electrons    NEL             ....   50
 Basis Dimension        Dim             ....  188

ORBITAL ENERGIES
----------------

  NO   OCC          E(Eh)            E(eV)
   0   2.0000     -26.355331      -717.1650
   1   2.0000     -15.622896      -425.1206
   2   2.0000     -15.605705      -424.6528
   3   2.0000     -11.422880      -310.8324
   4   2.0000     -11.338169      -308.5273
   5   2.0000     -11.314810      -307.8916
   6   2.0000     -11.305878      -307.6486
   7   2.0000      -1.659649       -45.1614
   8   2.0000      -1.264393       -34.4059
   9   2.0000      -1.250544       -34.0290
  10   2.0000      -1.142221       -31.0814
  11   2.0000      -0.998032       -27.1578
  12   2.0000      -0.819559       -22.3013
  13   2.0000      -0.781619       -21.2689
  14   2.0000      -0.751163       -20.4402
  15   2.0000      -0.706565       -19.2266
  16   2.0000      -0.661763       -18.0075
  17   2.0000      -0.637492       -17.3471
  18   2.0000      -0.616273       -16.7696
  19   2.0000      -0.585355       -15.9283
  20   2.0000      -0.574611       -15.6359
  21   2.0000      -0.510491       -13.8912
  22   2.0000      -0.502354       -13.6697
  23   2.0000      -0.485565       -13.2129
  24   2.0000      -0.484188       -13.1754
  25   0.0000       0.016663         0.4534
  26   0.0000       0.040599         1.1048
  27   0.0000       0.041860         1.1391
  28   0.0000       0.067943         1.8488
  29   0.0000       0.085813         2.3351

MULLIKEN ATOMIC CHARGES
-----------------------
   0 F :   -0.662471
   1 N :   -0.254166
   2 N :   -0.306905
   3 C :    1.177722
   4 C :    0.286692
   5 C :   -0.273791
   6 C :   -0.079735
   7 H :   -0.021976
   8 H :    0.056095
   9 H :    0.078535
Sum of atomic charges:    0.0000000

LOEWDIN ATOMIC CHARGES
----------------------
   0 F :    0.052899
   1 N :    0.110472
   2 N :    0.100980
   3 C :   -0.180700
   4 C :    0.004567
   5 C :   -0.086776
   6 C :   -0.131467
   7 H :    0.048005
   8 H :    0.042156
   9 H :    0.039865

  Mayer bond orders larger than 0.100000
B(  0-F ,  4-C ) :   0.1774 B(  0-F ,  5-C ) :   0.1459 B(  1-N ,  5-C ) :   2.7035
B(  2-N ,  6-C ) :   2.7487 B(  3-C ,  4-C ) :   1.4308 B(  3-C ,  5-C ) :   0.5582
B(  3-C ,  7-H ) :   0.7811 B(  3-C ,  9-H ) :   0.1253 B(  4-C ,  6-C ) :   0.7442
B(  4-C ,  8-H ) :   0.8896 B(  4-C ,  9-H ) :   0.7854

MP2 TOTAL ENERGY:     -362.625753176 Eh
FINAL SINGLE POINT ENERGY      -362.625753176298

DIPOLE MOMENT
-------------
                                X             Y             Z
Electronic contribution:      1.27719       0.31562      -2.91695
Nuclear contribution   :     -1.05133       1.28931       4.63723
                        -----------------------------------------
Total Dipole Moment    :      0.22586       1.60493       1.72027
                        -----------------------------------------
Magnitude (a.u.)       :      2.36351
Magnitude (Debye)      :      6.00756

Rotational constants in cm-1:     0.124107     0.069497     0.054955
Rotational constants in MHz :  3720.634086  2083.465095  1647.497726

                             ****ORCA TERMINATED NORMALLY****
TOTAL RUN TIME: 0 days 0 hours 0 minutes 51 seconds 152 msec
