                         Program Version 5.0.3 -  RELEASE  -
|  1> !ri-mp2 aug-cc-pvdz aug-cc-pvdz/c tightscf
|  2> %pal nprocs 16 end
|  3>
|  4> * xyz 0 1
|  5> C      0.000000    0.430631        0.000000
|  6> C     -0.704353   -0.686847        0.000000
|  7> F      1.314791    0.500587        0.000000
|  8> F     -0.554822    1.630861        0.000000
|  9> F     -0.092517   -1.882156        0.000000
| 10> H     -1.780948   -0.706341        0.000000
| 11> *
| 12>
| 13>                          ****END OF INPUT****

CARTESIAN COORDINATES (ANGSTROEM)
---------------------------------
  C      0.000000    0.430631    0.000000
  C     -0.704353   -0.686847    0.000000
  F      1.314791    0.500587    0.000000
  F     -0.554822    1.630861    0.000000
  F     -0.092517   -1.882156    0.000000
  H     -1.780948   -0.706341    0.000000

 Total Charge           Charge          ....    0
 Multiplicity           Mult            ....    1
 Number of Electrons    NEL             ....   40
 Basis Dimension        Dim             ....  124

ORBITAL ENERGIES
----------------

  NO   OCC          E(Eh)            E(eV)
   0   2.0000     -26.375515      -717.7143
   1   2.0000     -26.374596      -717.6893
   2   2.0000     -26.345658      -716.9018
   3   2.0000     -11.448577      -311.5316
   4   2.0000     -11.354845      -308.9810
   5   2.0000      -1.723066       -46.8870
   6   2.0000      -1.661998       -45.2253
   7   2.0000      -1.651713       -44.9454
   8   2.0000      -1.090388       -29.6710
   9   2.0000      -0.904523       -24.6133
  10   2.0000      -0.825558       -22.4646
  11   2.0000      -0.812956       -22.1217
  12   2.0000      -0.781084       -21.2544
  13   2.0000      -0.734882       -19.9971
  14   2.0000      -0.711046       -19.3485
  15   2.0000      -0.704498       -19.1704
  16   2.0000      -0.699626       -19.0378
  17   2.0000      -0.679523       -18.4908
  18   2.0000      -0.611327       -16.6351
  19   2.0000      -0.400403       -10.8955
  20   0.0000       0.035569         0.9679
  21   0.0000       0.070202         1.9103
  22   0.0000       0.087921         2.3925
  23   0.0000       0.097468         2.6522
  24   0.0000       0.115865         3.1529

MULLIKEN ATOMIC CHARGES
-----------------------
   0 C :    1.213941
   1 C :    0.693007
   2 F :   -0.581522
   3 F :   -0.587542
   4 F :   -0.595317
   5 H :   -0.142567
Sum of atomic charges:    0.0000000

LOEWDIN ATOMIC CHARGES
----------------------
   0 C :   -0.241241
   1 C :    0.019504
   2 F :    0.101200
   3 F :    0.088634
   4 F :    0.039182
   5 H :   -0.007279

  Mayer bond orders larger than 0.100000
B(  0-C ,  1-C ) :   2.0326 B(  0-C ,  2-F ) :   0.2794 B(  0-C ,  3-F ) :   0.2999
B(  0-C ,  4-F ) :   0.1196 B(  1-C ,  2-F ) :   0.2343 B(  1-C ,  3-F ) :   0.1818
B(  1-C ,  4-F ) :   0.3578 B(  1-C ,  5-H ) :   0.8686

MP2 TOTAL ENERGY:     -375.490585700 Eh
FINAL SINGLE POINT ENERGY      -375.490585699635

DIPOLE MOMENT
-------------
                                X             Y             Z
Electronic contribution:      1.63715       0.92030       0.00000
Nuclear contribution   :     -2.23482      -0.87240       0.00000
                        -----------------------------------------
Total Dipole Moment    :     -0.59767       0.04790       0.00000
                        -----------------------------------------
Magnitude (a.u.)       :      0.59958
Magnitude (Debye)      :      1.52402

Rotational constants in cm-1:     0.354520     0.128330     0.094223
Rotational constants in MHz : 10628.237852  3847.234141  2824.731349

                             ****ORCA TERMINATED NORMALLY****
TOTAL RUN TIME: 0 days 0 hours 0 minutes 23 seconds 208 msec
