                         Program Version 5.0.3 -  RELEASE  -
|  1> !ri-mp2 aug-cc-pvdz aug-cc-pvdz/c tightscf
|  2> %pal nprocs 16 end
|  3>
|  4> * xyz 0 1
|  5> S     -1.711330   -0.591498    0.000002
|  6> N     -0.125713   -1.050663    0.000000
|  7> N      3.206102   -0.162108   -0.000004
|  8> C     -0.041278    1.287387    0.000000
|  9> C      0.631726    0.033488   -0.000001
| 10> C     -1.390605    1.091295    0.000002
| 11> C      2.056708   -0.099158   -0.000002
| 12> H      0.453822    2.244922    0.000000
| 13> H     -2.174575    1.830378    0.000003
| 14> *
| 15>
| 16>                          ****END OF INPUT****

CARTESIAN COORDINATES (ANGSTROEM)
---------------------------------
  S     -1.711330   -0.591498    0.000002
  N     -0.125713   -1.050663    0.000000
  N      3.206102   -0.162108   -0.000004
  C     -0.041278    1.287387    0.000000
  C      0.631726    0.033488   -0.000001
  C     -1.390605    1.091295    0.000002
  C      2.056708   -0.099158   -0.000002
  H      0.453822    2.244922    0.000000
  H     -2.174575    1.830378    0.000003

 Total Charge           Charge          ....    0
 Multiplicity           Mult            ....    1
 Number of Electrons    NEL             ....   56
 Basis Dimension        Dim             ....  183

ORBITAL ENERGIES
----------------

  NO   OCC          E(Eh)            E(eV)
   0   2.0000     -92.049235     -2504.7870
   1   2.0000     -15.640233      -425.5924
   2   2.0000     -15.603334      -424.5883
   3   2.0000     -11.349183      -308.8270
   4   2.0000     -11.319505      -308.0194
   5   2.0000     -11.300567      -307.5041
   6   2.0000     -11.287952      -307.1608
   7   2.0000      -9.048414      -246.2199
   8   2.0000      -6.730037      -183.1336
   9   2.0000      -6.728609      -183.0948
  10   2.0000      -6.726940      -183.0493
  11   2.0000      -1.324291       -36.0358
  12   2.0000      -1.240665       -33.7602
  13   2.0000      -1.103973       -30.0406
  14   2.0000      -1.062951       -28.9244
  15   2.0000      -0.873889       -23.7797
  16   2.0000      -0.836908       -22.7734
  17   2.0000      -0.754153       -20.5216
  18   2.0000      -0.652715       -17.7613
  19   2.0000      -0.625216       -17.0130
  20   2.0000      -0.610435       -16.6108
  21   2.0000      -0.576991       -15.7007
  22   2.0000      -0.526265       -14.3204
  23   2.0000      -0.504962       -13.7407
  24   2.0000      -0.495278       -13.4772
  25   2.0000      -0.485766       -13.2184
  26   2.0000      -0.403823       -10.9886
  27   2.0000      -0.382000       -10.3948
  28   0.0000       0.023557         0.6410
  29   0.0000       0.041405         1.1267
  30   0.0000       0.046881         1.2757
  31   0.0000       0.065682         1.7873
  32   0.0000       0.082674         2.2497

MULLIKEN ATOMIC CHARGES
-----------------------
   0 S :    0.840328
   1 N :   -1.130460
   2 N :   -0.220846
   3 C :    0.639004
   4 C :    1.195543
   5 C :    0.031955
   6 C :   -0.723898
   7 H :   -0.359892
   8 H :   -0.271734
Sum of atomic charges:   -0.0000000

LOEWDIN ATOMIC CHARGES
----------------------
   0 S :    0.987237
   1 N :   -0.257104
   2 N :    0.097945
   3 C :   -0.041877
   4 C :   -0.392133
   5 C :   -0.256301
   6 C :   -0.100233
   7 H :    0.004088
   8 H :   -0.041623

  Mayer bond orders larger than 0.100000
B(  0-S ,  1-N ) :   1.0211 B(  0-S ,  4-C ) :  -0.1017 B(  0-S ,  5-C ) :   0.9497
B(  0-S ,  8-H ) :  -0.1075 B(  1-N ,  4-C ) :   1.0998 B(  1-N ,  5-C ) :   0.1129
B(  1-N ,  6-C ) :   0.3120 B(  2-N ,  6-C ) :   2.5608 B(  3-C ,  4-C ) :   1.2670
B(  3-C ,  5-C ) :   1.8978 B(  3-C ,  7-H ) :   0.6189 B(  4-C ,  7-H ) :   0.1343
B(  5-C ,  8-H ) :   0.8766

MP2 TOTAL ENERGY:     -660.059486995 Eh
FINAL SINGLE POINT ENERGY      -660.059486995436

DIPOLE MOMENT
-------------
                                X             Y             Z
Electronic contribution:     -0.23326      -2.71214      -0.00000
Nuclear contribution   :     -1.57553       3.90233       0.00000
                        -----------------------------------------
Total Dipole Moment    :     -1.80879       1.19018       0.00000
                        -----------------------------------------
Magnitude (a.u.)       :      2.16524
Magnitude (Debye)      :      5.50361

Rotational constants in cm-1:     0.241998     0.052365     0.043050
Rotational constants in MHz :  7254.916615  1569.857277  1290.592119

                             ****ORCA TERMINATED NORMALLY****
TOTAL RUN TIME: 0 days 0 hours 0 minutes 54 seconds 858 msec
