                         Program Version 5.0.3 -  RELEASE  -
|  1> !ri-mp2 aug-cc-pvdz aug-cc-pvdz/c tightscf
|  2> %pal nprocs 16 end
|  3>
|  4> * xyz 0 1
|  5> C     -1.855229   -1.337950    0.000000
|  6> C     -0.499088   -1.653073    0.000000
|  7> C      0.428036   -0.615933    0.000000
|  8> C      0.000000    0.724298    0.000000
|  9> C      1.213119    1.619187    0.000000
| 10> C      1.890304   -0.626401    0.000000
| 11> C      2.352575    0.633211    0.000000
| 12> C     -1.348795    1.031328    0.000000
| 13> C     -2.277760   -0.010338    0.000000
| 14> H     -2.590250   -2.131799    0.000000
| 15> H     -0.176462   -2.686234    0.000000
| 16> H      1.242418    2.275992    0.875487
| 17> H      1.242418    2.275992   -0.875487
| 18> H      2.494096   -1.522542    0.000000
| 19> H      3.391246    0.927949    0.000000
| 20> H     -1.686610    2.060169    0.000000
| 21> H     -3.335828    0.214508    0.000000
| 22> *
| 23>
| 24>                          ****END OF INPUT****

CARTESIAN COORDINATES (ANGSTROEM)
---------------------------------
  C     -1.855229   -1.337950    0.000000
  C     -0.499088   -1.653073    0.000000
  C      0.428036   -0.615933    0.000000
  C      0.000000    0.724298    0.000000
  C      1.213119    1.619187    0.000000
  C      1.890304   -0.626401    0.000000
  C      2.352575    0.633211    0.000000
  C     -1.348795    1.031328    0.000000
  C     -2.277760   -0.010338    0.000000
  H     -2.590250   -2.131799    0.000000
  H     -0.176462   -2.686234    0.000000
  H      1.242418    2.275992    0.875487
  H      1.242418    2.275992   -0.875487
  H      2.494096   -1.522542    0.000000
  H      3.391246    0.927949    0.000000
  H     -1.686610    2.060169    0.000000
  H     -3.335828    0.214508    0.000000

 Total Charge           Charge          ....    0
 Multiplicity           Mult            ....    1
 Number of Electrons    NEL             ....   62
 Basis Dimension        Dim             ....  279

ORBITAL ENERGIES
----------------

  NO   OCC          E(Eh)            E(eV)
   0   2.0000     -11.241966      -305.9095
   1   2.0000     -11.240978      -305.8826
   2   2.0000     -11.239021      -305.8293
   3   2.0000     -11.238071      -305.8034
   4   2.0000     -11.237655      -305.7921
   5   2.0000     -11.236862      -305.7706
   6   2.0000     -11.236213      -305.7529
   7   2.0000     -11.235236      -305.7263
   8   2.0000     -11.234218      -305.6986
   9   2.0000      -1.182636       -32.1812
  10   2.0000      -1.104780       -30.0626
  11   2.0000      -1.028999       -28.0005
  12   2.0000      -0.977246       -26.5922
  13   2.0000      -0.944738       -25.7076
  14   2.0000      -0.830272       -22.5928
  15   2.0000      -0.792731       -21.5713
  16   2.0000      -0.759342       -20.6628
  17   2.0000      -0.692377       -18.8405
  18   2.0000      -0.647023       -17.6064
  19   2.0000      -0.629186       -17.1210
  20   2.0000      -0.600898       -16.3513
  21   2.0000      -0.585721       -15.9383
  22   2.0000      -0.583382       -15.8746
  23   2.0000      -0.540943       -14.7198
  24   2.0000      -0.511722       -13.9247
  25   2.0000      -0.496695       -13.5157
  26   2.0000      -0.493869       -13.4388
  27   2.0000      -0.473820       -12.8933
  28   2.0000      -0.403123       -10.9695
  29   2.0000      -0.329465        -8.9652
  30   2.0000      -0.294128        -8.0036
  31   0.0000       0.035601         0.9688
  32   0.0000       0.038517         1.0481
  33   0.0000       0.041080         1.1178
  34   0.0000       0.053322         1.4510
  35   0.0000       0.054301         1.4776

MULLIKEN ATOMIC CHARGES
-----------------------
   0 C :    0.352317
   1 C :    0.909239
   2 C :   -0.086915
   3 C :   -0.555976
   4 C :   -0.202554
   5 C :    0.556993
   6 C :    0.412966
   7 C :    0.959002
   8 C :    0.165291
   9 H :   -0.475260
  10 H :   -0.490352
  11 H :    0.124599
  12 H :    0.124599
  13 H :   -0.467282
  14 H :   -0.335269
  15 H :   -0.510898
  16 H :   -0.480498
Sum of atomic charges:    0.0000000

LOEWDIN ATOMIC CHARGES
----------------------
   0 C :    0.004105
   1 C :    0.053657
   2 C :   -0.158498
   3 C :   -0.133907
   4 C :    0.029021
   5 C :    0.055905
   6 C :    0.040222
   7 C :    0.051947
   8 C :    0.006098
   9 H :   -0.002764
  10 H :    0.002477
  11 H :    0.027973
  12 H :    0.027973
  13 H :    0.001587
  14 H :   -0.007066
  15 H :    0.005673
  16 H :   -0.004402

  Mayer bond orders larger than 0.100000
B(  0-C ,  1-C ) :   1.4392 B(  0-C ,  3-C ) :   0.1483 B(  0-C ,  4-C ) :   0.1199
B(  0-C ,  5-C ) :   0.1156 B(  0-C ,  8-C ) :   1.9644 B(  0-C ,  9-H ) :   0.2058
B(  0-C , 15-H ) :  -0.1139 B(  0-C , 16-H ) :   0.2441 B(  1-C ,  2-C ) :   1.6342
B(  1-C ,  3-C ) :  -0.7337 B(  1-C ,  4-C ) :   0.3549 B(  1-C ,  5-C ) :  -0.5567
B(  1-C ,  7-C ) :   0.2304 B(  1-C ,  8-C ) :   0.1287 B(  1-C ,  9-H ) :   0.2240
B(  1-C , 10-H ) :  -0.1665 B(  2-C ,  3-C ) :   2.4287 B(  2-C ,  4-C ) :  -0.4874
B(  2-C ,  5-C ) :   1.4420 B(  2-C ,  7-C ) :  -0.3021 B(  2-C , 10-H ) :   0.8303
B(  2-C , 11-H ) :   0.1068 B(  2-C , 12-H ) :   0.1068 B(  2-C , 13-H ) :   0.5306
B(  2-C , 14-H ) :   0.1249 B(  3-C ,  4-C ) :   0.7611 B(  3-C ,  5-C ) :  -0.1817
B(  3-C ,  7-C ) :   1.4970 B(  3-C , 11-H ) :   0.3750 B(  3-C , 12-H ) :   0.3750
B(  3-C , 15-H ) :   0.8341 B(  4-C ,  5-C ) :   0.1697 B(  4-C ,  6-C ) :   1.0539
B(  4-C ,  8-C ) :   0.3462 B(  4-C , 11-H ) :   0.6358 B(  4-C , 12-H ) :   0.6358
B(  4-C , 15-H ) :   0.1292 B(  5-C ,  6-C ) :   1.6637 B(  5-C ,  7-C ) :   0.2260
B(  5-C , 13-H ) :   0.1997 B(  6-C ,  7-C ) :  -0.1044 B(  6-C , 14-H ) :   0.6681
B(  7-C ,  8-C ) :   1.5012 B(  7-C , 15-H ) :  -0.4004 B(  7-C , 16-H ) :   0.1906
B(  8-C ,  9-H ) :   0.2611 B(  8-C , 10-H ) :  -0.1028 B(  8-C , 15-H ) :   0.1966
B(  8-C , 16-H ) :   0.2350 B( 11-H , 12-H ) :  -0.1371

MP2 TOTAL ENERGY:     -346.714103623 Eh
FINAL SINGLE POINT ENERGY      -346.714103622521

DIPOLE MOMENT
-------------
                                X             Y             Z
Electronic contribution:     -0.38742      -1.20628       0.00000
Nuclear contribution   :      0.58242       1.41741       0.00000
                        -----------------------------------------
Total Dipole Moment    :      0.19500       0.21113       0.00000
                        -----------------------------------------
Magnitude (a.u.)       :      0.28740
Magnitude (Debye)      :      0.73052

Rotational constants in cm-1:     0.126898     0.052903     0.037595
Rotational constants in MHz :  3804.293795  1585.991500  1127.057476

                             ****ORCA TERMINATED NORMALLY****
TOTAL RUN TIME: 0 days 0 hours 1 minutes 26 seconds 651 msec
