                         Program Version 5.0.3 -  RELEASE  -
|  1> !ri-mp2 aug-cc-pvdz aug-cc-pvdz/c tightscf
|  2> %pal nprocs 16 end
|  3>
|  4> * xyz 0 1
|  5> C     -1.612388    0.682359    0.140260
|  6> C     -1.488887   -0.779323    0.122520
|  7> C     -0.420753    1.265282   -0.005680
|  8> N     -0.318061   -1.288315   -0.012961
|  9> O      1.964766    0.007831    0.533864
| 10> S      0.794812   -0.007586   -0.382382
| 11> H     -2.559721    1.190971    0.248025
| 12> H     -2.350133   -1.435001    0.211100
| 13> H     -0.166681    2.311049   -0.063797
| 14> *
| 15>
| 16>                          ****END OF INPUT****

CARTESIAN COORDINATES (ANGSTROEM)
---------------------------------
  C     -1.612388    0.682359    0.140260
  C     -1.488887   -0.779323    0.122520
  C     -0.420753    1.265282   -0.005680
  N     -0.318061   -1.288315   -0.012961
  O      1.964766    0.007831    0.533864
  S      0.794812   -0.007586   -0.382382
  H     -2.559721    1.190971    0.248025
  H     -2.350133   -1.435001    0.211100
  H     -0.166681    2.311049   -0.063797

 Total Charge           Charge          ....    0
 Multiplicity           Mult            ....    1
 Number of Electrons    NEL             ....   52
 Basis Dimension        Dim             ....  169

ORBITAL ENERGIES
----------------

  NO   OCC          E(Eh)            E(eV)
   0   2.0000     -92.119282     -2506.6931
   1   2.0000     -20.541547      -558.9639
   2   2.0000     -15.619094      -425.0172
   3   2.0000     -11.337591      -308.5115
   4   2.0000     -11.308290      -307.7142
   5   2.0000     -11.297115      -307.4101
   6   2.0000      -9.104741      -247.7526
   7   2.0000      -6.787230      -184.6899
   8   2.0000      -6.786343      -184.6658
   9   2.0000      -6.784046      -184.6033
  10   2.0000      -1.377041       -37.4712
  11   2.0000      -1.281487       -34.8710
  12   2.0000      -1.103011       -30.0145
  13   2.0000      -0.991734       -26.9864
  14   2.0000      -0.826448       -22.4888
  15   2.0000      -0.802360       -21.8333
  16   2.0000      -0.733043       -19.9471
  17   2.0000      -0.633587       -17.2408
  18   2.0000      -0.629118       -17.1192
  19   2.0000      -0.607651       -16.5350
  20   2.0000      -0.590253       -16.0616
  21   2.0000      -0.509583       -13.8665
  22   2.0000      -0.495925       -13.4948
  23   2.0000      -0.443095       -12.0572
  24   2.0000      -0.404205       -10.9990
  25   2.0000      -0.383647       -10.4396
  26   0.0000       0.022562         0.6139
  27   0.0000       0.032172         0.8754
  28   0.0000       0.036397         0.9904
  29   0.0000       0.048911         1.3309
  30   0.0000       0.081905         2.2287

MULLIKEN ATOMIC CHARGES
-----------------------
   0 C :    0.657383
   1 C :    0.365260
   2 C :   -0.108048
   3 N :   -0.914405
   4 O :   -1.079529
   5 S :    1.800404
   6 H :   -0.281102
   7 H :   -0.189755
   8 H :   -0.250208
Sum of atomic charges:    0.0000000

LOEWDIN ATOMIC CHARGES
----------------------
   0 C :   -0.054101
   1 C :   -0.118196
   2 C :   -0.115054
   3 N :   -0.183409
   4 O :   -0.534929
   5 S :    1.036856
   6 H :   -0.003081
   7 H :    0.006859
   8 H :   -0.034945

  Mayer bond orders larger than 0.100000
B(  0-C ,  1-C ) :   1.0588 B(  0-C ,  2-C ) :   2.0190 B(  0-C ,  6-H ) :   0.8119
B(  0-C ,  7-H ) :  -0.1130 B(  1-C ,  2-C ) :   0.1262 B(  1-C ,  3-N ) :   1.7365
B(  1-C ,  7-H ) :   1.0008 B(  2-C ,  4-O ) :   0.1430 B(  2-C ,  5-S ) :   0.8199
B(  2-C ,  8-H ) :   0.9478 B(  3-N ,  4-O ) :   0.1343 B(  3-N ,  5-S ) :   0.7224
B(  4-O ,  5-S ) :   0.9657

MP2 TOTAL ENERGY:     -643.028218297 Eh
FINAL SINGLE POINT ENERGY      -643.028218296520

DIPOLE MOMENT
-------------
                                X             Y             Z
Electronic contribution:      2.70731      -1.04225      -0.85300
Nuclear contribution   :     -4.89825       1.98927       0.40124
                        -----------------------------------------
Total Dipole Moment    :     -2.19094       0.94703      -0.45176
                        -----------------------------------------
Magnitude (a.u.)       :      2.42923
Magnitude (Debye)      :      6.17461

Rotational constants in cm-1:     0.227860     0.102084     0.076772
Rotational constants in MHz :  6831.075740  3060.416284  2301.554644

                             ****ORCA TERMINATED NORMALLY****
TOTAL RUN TIME: 0 days 0 hours 0 minutes 50 seconds 930 msec
