                         Program Version 5.0.3 -  RELEASE  -
|  1> !ri-mp2 aug-cc-pvdz aug-cc-pvdz/c tightscf
|  2> %pal nprocs 16 end
|  3>
|  4> * xyz 0 1
|  5> S     -1.224006    0.049081   -0.107328
|  6> O      1.242809   -0.702537   -0.222880
|  7> N     -0.052232   -1.238625    0.159007
|  8> C      0.065658    1.249525    0.142810
|  9> C      1.244683    0.655383    0.012729
| 10> H     -0.124065    2.299324    0.277492
| 11> H      2.227513    1.098553    0.002818
| 12> H      0.041759   -1.321948    1.173704
| 13> *
| 14>
| 15>                          ****END OF INPUT****

CARTESIAN COORDINATES (ANGSTROEM)
---------------------------------
  S     -1.224006    0.049081   -0.107328
  O      1.242809   -0.702537   -0.222880
  N     -0.052232   -1.238625    0.159007
  C      0.065658    1.249525    0.142810
  C      1.244683    0.655383    0.012729
  H     -0.124065    2.299324    0.277492
  H      2.227513    1.098553    0.002818
  H      0.041759   -1.321948    1.173704

 Total Charge           Charge          ....    0
 Multiplicity           Mult            ....    1
 Number of Electrons    NEL             ....   46
 Basis Dimension        Dim             ....  146

ORBITAL ENERGIES
----------------

  NO   OCC          E(Eh)            E(eV)
   0   2.0000     -92.002488     -2503.5150
   1   2.0000     -20.639433      -561.6275
   2   2.0000     -15.665726      -426.2861
   3   2.0000     -11.320736      -308.0529
   4   2.0000     -11.276629      -306.8527
   5   2.0000      -9.001524      -244.9439
   6   2.0000      -6.683308      -181.8621
   7   2.0000      -6.681958      -181.8253
   8   2.0000      -6.679246      -181.7515
   9   2.0000      -1.459851       -39.7246
  10   2.0000      -1.154191       -31.4071
  11   2.0000      -1.088394       -29.6167
  12   2.0000      -0.889959       -24.2170
  13   2.0000      -0.810735       -22.0612
  14   2.0000      -0.725318       -19.7369
  15   2.0000      -0.696768       -18.9600
  16   2.0000      -0.620756       -16.8916
  17   2.0000      -0.583688       -15.8830
  18   2.0000      -0.543487       -14.7890
  19   2.0000      -0.498089       -13.5537
  20   2.0000      -0.473418       -12.8824
  21   2.0000      -0.431045       -11.7293
  22   2.0000      -0.321255        -8.7418
  23   0.0000       0.032643         0.8882
  24   0.0000       0.045133         1.2281
  25   0.0000       0.049627         1.3504
  26   0.0000       0.078758         2.1431
  27   0.0000       0.092929         2.5287

MULLIKEN ATOMIC CHARGES
-----------------------
   0 S :    0.615235
   1 O :   -0.781726
   2 N :   -0.342965
   3 C :   -0.057628
   4 C :    0.938300
   5 H :   -0.332094
   6 H :   -0.220054
   7 H :    0.180931
Sum of atomic charges:    0.0000000

LOEWDIN ATOMIC CHARGES
----------------------
   0 S :    0.818302
   1 O :   -0.030566
   2 N :   -0.198091
   3 C :   -0.305657
   4 C :   -0.122503
   5 H :   -0.060509
   6 H :   -0.007762
   7 H :   -0.093214

  Mayer bond orders larger than 0.100000
B(  0-S ,  2-N ) :   0.7383 B(  0-S ,  3-C ) :   0.8486 B(  1-O ,  2-N ) :   0.7560
B(  1-O ,  4-C ) :   0.6013 B(  2-N ,  4-C ) :  -0.1109 B(  2-N ,  7-H ) :   1.0066
B(  3-C ,  4-C ) :   1.9204 B(  3-C ,  5-H ) :   0.9699 B(  4-C ,  6-H ) :   0.9124

MP2 TOTAL ENERGY:     -605.014345649 Eh
FINAL SINGLE POINT ENERGY      -605.014345648868

DIPOLE MOMENT
-------------
                                X             Y             Z
Electronic contribution:     -1.89330      -1.14122      -0.79751
Nuclear contribution   :      2.13502       1.99330       1.41033
                        -----------------------------------------
Total Dipole Moment    :      0.24172       0.85208       0.61282
                        -----------------------------------------
Magnitude (a.u.)       :      1.07704
Magnitude (Debye)      :      2.73761

Rotational constants in cm-1:     0.260499     0.169030     0.106657
Rotational constants in MHz :  7809.562857  5067.383644  3197.493559

                             ****ORCA TERMINATED NORMALLY****
TOTAL RUN TIME: 0 days 0 hours 0 minutes 51 seconds 50 msec
