                         Program Version 5.0.3 -  RELEASE  -
|  1> !ri-mp2 aug-cc-pvdz aug-cc-pvdz/c tightscf
|  2> %pal nprocs 16 end
|  3>
|  4> * xyz 0 1
|  5> Cl     2.615902   -0.172641   -0.000080
|  6> O     -0.165508   -1.237912    0.000142
|  7> N     -2.509366    0.187022   -0.000312
|  8> N     -3.469270   -0.391475   -0.000476
|  9> C     -0.149899   -0.026948    0.000164
| 10> C     -1.350968    0.797979   -0.000120
| 11> C      1.130742    0.811941    0.000604
| 12> H     -1.378265    1.874748   -0.000193
| 13> H      1.151566    1.448971   -0.881951
| 14> H      1.151625    1.447808    0.884002
| 15> *
| 16>
| 17>                          ****END OF INPUT****

CARTESIAN COORDINATES (ANGSTROEM)
---------------------------------
  Cl     2.615902   -0.172641   -0.000080
  O     -0.165508   -1.237912    0.000142
  N     -2.509366    0.187022   -0.000312
  N     -3.469270   -0.391475   -0.000476
  C     -0.149899   -0.026948    0.000164
  C     -1.350968    0.797979   -0.000120
  C      1.130742    0.811941    0.000604
  H     -1.378265    1.874748   -0.000193
  H      1.151566    1.448971   -0.881951
  H      1.151625    1.447808    0.884002

 Total Charge           Charge          ....    0
 Multiplicity           Mult            ....    1
 Number of Electrons    NEL             ....   60
 Basis Dimension        Dim             ....  192

ORBITAL ENERGIES
----------------

  NO   OCC          E(Eh)            E(eV)
   0   2.0000    -104.832703     -2852.6429
   1   2.0000     -20.564257      -559.5819
   2   2.0000     -15.789685      -429.6592
   3   2.0000     -15.725762      -427.9197
   4   2.0000     -11.369430      -309.3779
   5   2.0000     -11.322860      -308.1107
   6   2.0000     -11.301028      -307.5166
   7   2.0000     -10.558468      -287.3105
   8   2.0000      -8.026235      -218.4050
   9   2.0000      -8.022813      -218.3118
  10   2.0000      -8.022806      -218.3117
  11   2.0000      -1.520904       -41.3859
  12   2.0000      -1.406850       -38.2823
  13   2.0000      -1.172617       -31.9085
  14   2.0000      -1.145794       -31.1786
  15   2.0000      -0.993739       -27.0410
  16   2.0000      -0.846840       -23.0437
  17   2.0000      -0.759308       -20.6618
  18   2.0000      -0.722011       -19.6469
  19   2.0000      -0.707598       -19.2547
  20   2.0000      -0.699614       -19.0375
  21   2.0000      -0.656135       -17.8543
  22   2.0000      -0.642120       -17.4730
  23   2.0000      -0.602978       -16.4079
  24   2.0000      -0.555895       -15.1267
  25   2.0000      -0.536386       -14.5958
  26   2.0000      -0.455712       -12.4005
  27   2.0000      -0.444195       -12.0872
  28   2.0000      -0.434277       -11.8173
  29   2.0000      -0.362224        -9.8566
  30   0.0000       0.024365         0.6630
  31   0.0000       0.048487         1.3194
  32   0.0000       0.048721         1.3258
  33   0.0000       0.070615         1.9215
  34   0.0000       0.075803         2.0627

MULLIKEN ATOMIC CHARGES
-----------------------
   0 Cl:   -0.027085
   1 O :   -0.806433
   2 N :    0.120289
   3 N :   -0.424681
   4 C :    0.430883
   5 C :    0.963244
   6 C :   -0.270796
   7 H :   -0.370525
   8 H :    0.192494
   9 H :    0.192610
Sum of atomic charges:    0.0000000

LOEWDIN ATOMIC CHARGES
----------------------
   0 Cl:    0.505117
   1 O :    0.024065
   2 N :   -0.122152
   3 N :    0.308440
   4 C :   -0.385409
   5 C :    0.031750
   6 C :   -0.298302
   7 H :   -0.015529
   8 H :   -0.024000
   9 H :   -0.023979

  Mayer bond orders larger than 0.100000
B(  0-Cl,  4-C ) :  -0.2119 B(  0-Cl,  6-C ) :   1.2845 B(  0-Cl,  8-H ) :  -0.1009
B(  0-Cl,  9-H ) :  -0.1010 B(  1-O ,  4-C ) :   1.3262 B(  2-N ,  3-N ) :   1.8241
B(  2-N ,  5-C ) :   1.0687 B(  3-N ,  5-C ) :  -0.1673 B(  4-C ,  5-C ) :   1.0715
B(  4-C ,  6-C ) :   1.0378 B(  5-C ,  7-H ) :   0.7865 B(  6-C ,  8-H ) :   0.8599
B(  6-C ,  9-H ) :   0.8598

MP2 TOTAL ENERGY:     -759.673220341 Eh
FINAL SINGLE POINT ENERGY      -759.673220341032

DIPOLE MOMENT
-------------
                                X             Y             Z
Electronic contribution:      1.90866      -2.94376      -0.00157
Nuclear contribution   :     -2.71458       4.75160       0.00187
                        -----------------------------------------
Total Dipole Moment    :     -0.80592       1.80785       0.00030
                        -----------------------------------------
Magnitude (a.u.)       :      1.97935
Magnitude (Debye)      :      5.03110

Rotational constants in cm-1:     0.318562     0.031018     0.028416
Rotational constants in MHz :  9550.234795   929.909184   851.888089

                             ****ORCA TERMINATED NORMALLY****
TOTAL RUN TIME: 0 days 0 hours 0 minutes 40 seconds 26 msec
