                         Program Version 5.0.3 -  RELEASE  -
|  1> !ri-mp2 aug-cc-pvdz aug-cc-pvdz/c tightscf
|  2> %pal nprocs 16 end
|  3>
|  4> * xyz 0 1
|  5> C      0.607256   -1.472453    0.000000
|  6> C     -0.720908   -1.347453    0.000000
|  7> C      0.000000    0.838463    0.000000
|  8> C      1.215158   -0.096851    0.000000
|  9> N     -1.101042    0.002861    0.000000
| 10> O     -0.024582    2.048657    0.000000
| 11> H      1.152714   -2.400270    0.000000
| 12> H     -1.477373   -2.115225    0.000000
| 13> H      1.831991    0.113272    0.876531
| 14> H      1.831991    0.113272   -0.876531
| 15> H     -2.044414    0.349438    0.000000
| 16> *
| 17>
| 18>                          ****END OF INPUT****

CARTESIAN COORDINATES (ANGSTROEM)
---------------------------------
  C      0.607256   -1.472453    0.000000
  C     -0.720908   -1.347453    0.000000
  C      0.000000    0.838463    0.000000
  C      1.215158   -0.096851    0.000000
  N     -1.101042    0.002861    0.000000
  O     -0.024582    2.048657    0.000000
  H      1.152714   -2.400270    0.000000
  H     -1.477373   -2.115225    0.000000
  H      1.831991    0.113272    0.876531
  H      1.831991    0.113272   -0.876531
  H     -2.044414    0.349438    0.000000

 Total Charge           Charge          ....    0
 Multiplicity           Mult            ....    1
 Number of Electrons    NEL             ....   44
 Basis Dimension        Dim             ....  183

ORBITAL ENERGIES
----------------

  NO   OCC          E(Eh)            E(eV)
   0   2.0000     -20.538701      -558.8865
   1   2.0000     -15.608031      -424.7161
   2   2.0000     -11.365825      -309.2798
   3   2.0000     -11.295439      -307.3645
   4   2.0000     -11.255090      -306.2666
   5   2.0000     -11.241394      -305.8939
   6   2.0000      -1.395015       -37.9603
   7   2.0000      -1.278096       -34.7788
   8   2.0000      -1.071553       -29.1584
   9   2.0000      -0.978548       -26.6276
  10   2.0000      -0.817672       -22.2500
  11   2.0000      -0.800507       -21.7829
  12   2.0000      -0.708908       -19.2904
  13   2.0000      -0.639808       -17.4101
  14   2.0000      -0.633159       -17.2291
  15   2.0000      -0.608543       -16.5593
  16   2.0000      -0.591387       -16.0925
  17   2.0000      -0.545599       -14.8465
  18   2.0000      -0.539628       -14.6840
  19   2.0000      -0.479895       -13.0586
  20   2.0000      -0.422248       -11.4900
  21   2.0000      -0.329167        -8.9571
  22   0.0000       0.028300         0.7701
  23   0.0000       0.039257         1.0683
  24   0.0000       0.048266         1.3134
  25   0.0000       0.056051         1.5252
  26   0.0000       0.063555         1.7294

MULLIKEN ATOMIC CHARGES
-----------------------
   0 C :    0.559007
   1 C :    0.631370
   2 C :    0.851321
   3 C :   -0.046401
   4 N :   -0.560610
   5 O :   -0.798211
   6 H :   -0.290313
   7 H :   -0.260173
   8 H :    0.020970
   9 H :    0.020970
  10 H :   -0.127931
Sum of atomic charges:    0.0000000

LOEWDIN ATOMIC CHARGES
----------------------
   0 C :    0.016182
   1 C :    0.020322
   2 C :   -0.288499
   3 C :    0.056890
   4 N :    0.107938
   5 O :    0.018871
   6 H :   -0.014450
   7 H :    0.006300
   8 H :    0.026905
   9 H :    0.026905
  10 H :    0.022636

  Mayer bond orders larger than 0.100000
B(  0-C ,  1-C ) :   1.6908 B(  0-C ,  3-C ) :   1.1732 B(  0-C ,  6-H ) :   0.7140
B(  1-C ,  4-N ) :   0.6642 B(  1-C ,  7-H ) :   0.9219 B(  1-C , 10-H ) :  -0.1537
B(  2-C ,  3-C ) :   0.9384 B(  2-C ,  4-N ) :   1.0443 B(  2-C ,  5-O ) :   1.3053
B(  3-C ,  8-H ) :   0.8490 B(  3-C ,  9-H ) :   0.8490 B(  4-N , 10-H ) :   1.2534

MP2 TOTAL ENERGY:     -284.633965382 Eh
FINAL SINGLE POINT ENERGY      -284.633965381530

DIPOLE MOMENT
-------------
                                X             Y             Z
Electronic contribution:     -1.58813       2.37943       0.00000
Nuclear contribution   :      1.28101      -3.88582       0.00000
                        -----------------------------------------
Total Dipole Moment    :     -0.30712      -1.50638       0.00000
                        -----------------------------------------
Magnitude (a.u.)       :      1.53737
Magnitude (Debye)      :      3.90769

Rotational constants in cm-1:     0.274443     0.124496     0.087014
Rotational constants in MHz :  8227.587162  3732.298684  2608.622808

                             ****ORCA TERMINATED NORMALLY****
TOTAL RUN TIME: 0 days 0 hours 0 minutes 36 seconds 405 msec
