                         Program Version 5.0.3 -  RELEASE  -
|  1> !ri-mp2 aug-cc-pvdz aug-cc-pvdz/c tightscf
|  2> %pal nprocs 16 end
|  3>
|  4> * xyz 0 1
|  5> S     3.207011    0.103485   -0.057042
|  6> F    -1.915460    1.328253   -0.160483
|  7> F    -3.079188   -0.540242   -0.097326
|  8> N     0.482209   -0.239691    0.285694
|  9> C    -1.923576    0.054593    0.324835
| 10> C    -0.750694   -0.732182   -0.236127
| 11> C     1.650101   -0.112516    0.094338
| 12> H    -1.934452    0.106448    1.414038
| 13> H    -0.774486   -0.657000   -1.325535
| 14> H    -0.881854   -1.778836    0.046326
| 15> *
| 16>
| 17>                          ****END OF INPUT****

CARTESIAN COORDINATES (ANGSTROEM)
---------------------------------
  S      3.207011    0.103485   -0.057042
  F     -1.915460    1.328253   -0.160483
  F     -3.079188   -0.540242   -0.097326
  N      0.482209   -0.239691    0.285694
  C     -1.923576    0.054593    0.324835
  C     -0.750694   -0.732182   -0.236127
  C      1.650101   -0.112516    0.094338
  H     -1.934452    0.106448    1.414038
  H     -0.774486   -0.657000   -1.325535
  H     -0.881854   -1.778836    0.046326

 Total Charge           Charge          ....    0
 Multiplicity           Mult            ....    1
 Number of Electrons    NEL             ....   62
 Basis Dimension        Dim             ....  192

ORBITAL ENERGIES
----------------

  NO   OCC          E(Eh)            E(eV)
   0   2.0000     -91.964847     -2502.4907
   1   2.0000     -26.342654      -716.8201
   2   2.0000     -26.338765      -716.7142
   3   2.0000     -15.631650      -425.3588
   4   2.0000     -11.439599      -311.2873
   5   2.0000     -11.399622      -310.1995
   6   2.0000     -11.338056      -308.5242
   7   2.0000      -8.968172      -244.0364
   8   2.0000      -6.650820      -180.9780
   9   2.0000      -6.647053      -180.8755
  10   2.0000      -6.646691      -180.8656
  11   2.0000      -1.681834       -45.7650
  12   2.0000      -1.620824       -44.1049
  13   2.0000      -1.317993       -35.8644
  14   2.0000      -1.106975       -30.1223
  15   2.0000      -1.035761       -28.1845
  16   2.0000      -0.935882       -25.4666
  17   2.0000      -0.812318       -22.1043
  18   2.0000      -0.787783       -21.4367
  19   2.0000      -0.771097       -20.9826
  20   2.0000      -0.724990       -19.7280
  21   2.0000      -0.687117       -18.6974
  22   2.0000      -0.666019       -18.1233
  23   2.0000      -0.647746       -17.6261
  24   2.0000      -0.635506       -17.2930
  25   2.0000      -0.606454       -16.5025
  26   2.0000      -0.586272       -15.9533
  27   2.0000      -0.542884       -14.7726
  28   2.0000      -0.527681       -14.3589
  29   2.0000      -0.379921       -10.3382
  30   2.0000      -0.369386       -10.0515
  31   0.0000       0.029953         0.8151
  32   0.0000       0.042089         1.1453
  33   0.0000       0.052553         1.4300
  34   0.0000       0.065820         1.7910
  35   0.0000       0.083322         2.2673

MULLIKEN ATOMIC CHARGES
-----------------------
   0 S :    0.172202
   1 F :   -0.621959
   2 F :   -0.622580
   3 N :   -0.342300
   4 C :    1.631427
   5 C :    0.525889
   6 C :   -0.410363
   7 H :   -0.183119
   8 H :   -0.076308
   9 H :   -0.072889
Sum of atomic charges:    0.0000000

LOEWDIN ATOMIC CHARGES
----------------------
   0 S :    0.606868
   1 F :    0.044311
   2 F :    0.040381
   3 N :   -0.018498
   4 C :   -0.152839
   5 C :    0.011085
   6 C :   -0.628082
   7 H :    0.030055
   8 H :    0.035766
   9 H :    0.030953

  Mayer bond orders larger than 0.100000
B(  0-S ,  6-C ) :   1.8606 B(  1-F ,  4-C ) :   0.3240 B(  2-F ,  4-C ) :   0.2802
B(  2-F ,  5-C ) :   0.1205 B(  3-N ,  5-C ) :   0.6194 B(  3-N ,  6-C ) :   2.0039
B(  4-C ,  5-C ) :   1.2346 B(  4-C ,  7-H ) :   0.9101 B(  5-C ,  8-H ) :   0.8740
B(  5-C ,  9-H ) :   0.9364

MP2 TOTAL ENERGY:     -767.362616859 Eh
FINAL SINGLE POINT ENERGY      -767.362616859390

DIPOLE MOMENT
-------------
                                X             Y             Z
Electronic contribution:     -1.60701       2.21052      -0.18620
Nuclear contribution   :      1.17816      -2.94338       0.37156
                        -----------------------------------------
Total Dipole Moment    :     -0.42885      -0.73286       0.18536
                        -----------------------------------------
Magnitude (a.u.)       :      0.86911
Magnitude (Debye)      :      2.20910

Rotational constants in cm-1:     0.290029     0.024805     0.023338
Rotational constants in MHz :  8694.854752   743.622048   699.665186

                             ****ORCA TERMINATED NORMALLY****
TOTAL RUN TIME: 0 days 0 hours 0 minutes 34 seconds 672 msec
