                         Program Version 5.0.3 -  RELEASE  -
|  1> !ri-mp2 aug-cc-pvdz aug-cc-pvdz/c tightscf
|  2> %pal nprocs 16 end
|  3>
|  4> * xyz 0 1
|  5> C     -0.494582   -1.855654        0.000000
|  6> N      0.801387   -1.341554        0.000000
|  7> C      1.003289    0.010465        0.000000
|  8> C      0.000000    0.951847        0.000000
|  9> N      0.543549    2.219652        0.000000
| 10> C      1.828513    2.045590        0.000000
| 11> N      2.176164    0.698429        0.000000
| 12> N     -1.483837   -0.891134        0.000000
| 13> C     -1.384973    0.528592        0.000000
| 14> O     -0.710820   -3.048700        0.000000
| 15> H      2.579315    2.817576        0.000000
| 16> O     -2.386498    1.205693        0.000000
| 17> H     -2.426033   -1.254649        0.000000
| 18> H      1.543280   -2.021140        0.000000
| 19> H      3.107654    0.319474        0.000000
| 20> *
| 21>
| 22>                          ****END OF INPUT****

CARTESIAN COORDINATES (ANGSTROEM)
---------------------------------
  C     -0.494582   -1.855654    0.000000
  N      0.801387   -1.341554    0.000000
  C      1.003289    0.010465    0.000000
  C      0.000000    0.951847    0.000000
  N      0.543549    2.219652    0.000000
  C      1.828513    2.045590    0.000000
  N      2.176164    0.698429    0.000000
  N     -1.483837   -0.891134    0.000000
  C     -1.384973    0.528592    0.000000
  O     -0.710820   -3.048700    0.000000
  H      2.579315    2.817576    0.000000
  O     -2.386498    1.205693    0.000000
  H     -2.426033   -1.254649    0.000000
  H      1.543280   -2.021140    0.000000
  H      3.107654    0.319474    0.000000

 Total Charge           Charge          ....    0
 Multiplicity           Mult            ....    1
 Number of Electrons    NEL             ....   78
 Basis Dimension        Dim             ....  289

ORBITAL ENERGIES
----------------

  NO   OCC          E(Eh)            E(eV)
   0   2.0000     -20.558943      -559.4373
   1   2.0000     -20.550452      -559.2062
   2   2.0000     -15.672382      -426.4672
   3   2.0000     -15.657746      -426.0689
   4   2.0000     -15.630938      -425.3395
   5   2.0000     -15.593663      -424.3251
   6   2.0000     -11.431697      -311.0723
   7   2.0000     -11.388439      -309.8952
   8   2.0000     -11.371404      -309.4316
   9   2.0000     -11.337932      -308.5208
  10   2.0000     -11.275977      -306.8349
  11   2.0000      -1.444552       -39.3082
  12   2.0000      -1.406789       -38.2807
  13   2.0000      -1.394324       -37.9415
  14   2.0000      -1.306813       -35.5602
  15   2.0000      -1.248441       -33.9718
  16   2.0000      -1.210739       -32.9459
  17   2.0000      -1.064360       -28.9627
  18   2.0000      -0.928667       -25.2703
  19   2.0000      -0.906841       -24.6764
  20   2.0000      -0.878287       -23.8994
  21   2.0000      -0.834975       -22.7208
  22   2.0000      -0.778922       -21.1956
  23   2.0000      -0.740361       -20.1462
  24   2.0000      -0.697250       -18.9731
  25   2.0000      -0.688160       -18.7258
  26   2.0000      -0.682383       -18.5686
  27   2.0000      -0.648925       -17.6582
  28   2.0000      -0.632100       -17.2003
  29   2.0000      -0.626195       -17.0396
  30   2.0000      -0.621180       -16.9032
  31   2.0000      -0.575339       -15.6558
  32   2.0000      -0.501879       -13.6568
  33   2.0000      -0.490780       -13.3548
  34   2.0000      -0.472281       -12.8514
  35   2.0000      -0.444978       -12.1085
  36   2.0000      -0.440904       -11.9976
  37   2.0000      -0.434237       -11.8162
  38   2.0000      -0.331667        -9.0251
  39   0.0000       0.008514         0.2317
  40   0.0000       0.031387         0.8541
  41   0.0000       0.048775         1.3272
  42   0.0000       0.057179         1.5559
  43   0.0000       0.067286         1.8309

MULLIKEN ATOMIC CHARGES
-----------------------
   0 C :    1.100133
   1 N :   -0.640075
   2 C :    0.770703
   3 C :    0.594449
   4 N :   -0.941652
   5 C :    1.039435
   6 N :   -0.570803
   7 N :   -0.578830
   8 C :    1.214497
   9 O :   -0.738515
  10 H :   -0.164856
  11 O :   -0.825407
  12 H :   -0.031779
  13 H :   -0.115034
  14 H :   -0.112268
Sum of atomic charges:   -0.0000000

LOEWDIN ATOMIC CHARGES
----------------------
   0 C :   -0.321585
   1 N :    0.189715
   2 C :   -0.122867
   3 C :   -0.147755
   4 N :    0.090568
   5 C :    0.007152
   6 N :    0.150724
   7 N :    0.196713
   8 C :   -0.263872
   9 O :    0.039066
  10 H :    0.009178
  11 O :    0.054041
  12 H :    0.038701
  13 H :    0.040284
  14 H :    0.039937

  Mayer bond orders larger than 0.100000
B(  0-C ,  1-N ) :   1.0782 B(  0-C ,  7-N ) :   1.0220 B(  0-C ,  9-O ) :   1.4133
B(  0-C , 12-H ) :  -0.1038 B(  1-N ,  2-C ) :   0.6502 B(  1-N , 13-H ) :   1.2477
B(  2-C ,  3-C ) :   1.2365 B(  2-C ,  6-N ) :   0.8857 B(  2-C ,  8-C ) :   0.2597
B(  2-C , 13-H ) :  -0.1978 B(  2-C , 14-H ) :  -0.1404 B(  3-C ,  4-N ) :   0.7747
B(  3-C ,  7-N ) :   0.1632 B(  3-C ,  8-C ) :   0.5143 B(  3-C , 10-H ) :   0.1512
B(  3-C , 11-O ) :   0.1078 B(  4-N ,  5-C ) :   1.7371 B(  5-C ,  6-N ) :   0.8518
B(  5-C , 10-H ) :   0.8007 B(  5-C , 14-H ) :  -0.1397 B(  6-N , 14-H ) :   1.2568
B(  7-N ,  8-C ) :   0.5627 B(  7-N , 12-H ) :   1.1772 B(  8-C , 11-O ) :   1.1420

MP2 TOTAL ENERGY:     -561.028550280 Eh
FINAL SINGLE POINT ENERGY      -561.028550280462

DIPOLE MOMENT
-------------
                                X             Y             Z
Electronic contribution:     -1.52444      -0.27923      -0.00000
Nuclear contribution   :      4.59111      -0.15771       0.00000
                        -----------------------------------------
Total Dipole Moment    :      3.06667      -0.43695      -0.00000
                        -----------------------------------------
Magnitude (a.u.)       :      3.09764
Magnitude (Debye)      :      7.87359

Rotational constants in cm-1:     0.064628     0.037023     0.023539
Rotational constants in MHz :  1937.501551  1109.926792   705.672009

                             ****ORCA TERMINATED NORMALLY****
TOTAL RUN TIME: 0 days 0 hours 1 minutes 30 seconds 293 msec
