                         Program Version 5.0.3 -  RELEASE  -
|  1> !ri-mp2 aug-cc-pvdz aug-cc-pvdz/c tightscf
|  2> %pal nprocs 16 end
|  3>
|  4> * xyz 0 1
|  5> C      0.100732   -1.751447        0.000000
|  6> C     -1.100249   -1.123375        0.000000
|  7> C      1.230486    0.248996        0.000000
|  8> C      0.000000    1.043061        0.000000
|  9> N      1.273925   -1.045277        0.000000
| 10> N     -1.140617    0.238051        0.000000
| 11> O     -0.072478    2.260456        0.000000
| 12> H      0.169795   -2.828181        0.000000
| 13> H     -2.046117   -1.644386        0.000000
| 14> H      2.160066    0.806767        0.000000
| 15> H     -2.022892    0.729333        0.000000
| 16> *
| 17>
| 18>                          ****END OF INPUT****

CARTESIAN COORDINATES (ANGSTROEM)
---------------------------------
  C      0.100732   -1.751447    0.000000
  C     -1.100249   -1.123375    0.000000
  C      1.230486    0.248996    0.000000
  C      0.000000    1.043061    0.000000
  N      1.273925   -1.045277    0.000000
  N     -1.140617    0.238051    0.000000
  O     -0.072478    2.260456    0.000000
  H      0.169795   -2.828181    0.000000
  H     -2.046117   -1.644386    0.000000
  H      2.160066    0.806767    0.000000
  H     -2.022892    0.729333    0.000000

 Total Charge           Charge          ....    0
 Multiplicity           Mult            ....    1
 Number of Electrons    NEL             ....   50
 Basis Dimension        Dim             ....  197

ORBITAL ENERGIES
----------------

  NO   OCC          E(Eh)            E(eV)
   0   2.0000     -20.544990      -559.0576
   1   2.0000     -15.649396      -425.8417
   2   2.0000     -15.614774      -424.8996
   3   2.0000     -11.380157      -309.6698
   4   2.0000     -11.322693      -308.1061
   5   2.0000     -11.301192      -307.5211
   6   2.0000     -11.280160      -306.9488
   7   2.0000      -1.407098       -38.2891
   8   2.0000      -1.315495       -35.7964
   9   2.0000      -1.250610       -34.0308
  10   2.0000      -1.057238       -28.7689
  11   2.0000      -0.936421       -25.4813
  12   2.0000      -0.897288       -24.4164
  13   2.0000      -0.779033       -21.1986
  14   2.0000      -0.740493       -20.1498
  15   2.0000      -0.683938       -18.6109
  16   2.0000      -0.650917       -17.7124
  17   2.0000      -0.632473       -17.2105
  18   2.0000      -0.630235       -17.1496
  19   2.0000      -0.582228       -15.8432
  20   2.0000      -0.512665       -13.9503
  21   2.0000      -0.489032       -13.3072
  22   2.0000      -0.480332       -13.0705
  23   2.0000      -0.421088       -11.4584
  24   2.0000      -0.329384        -8.9630
  25   0.0000       0.023194         0.6311
  26   0.0000       0.041096         1.1183
  27   0.0000       0.048306         1.3145
  28   0.0000       0.057444         1.5631
  29   0.0000       0.061190         1.6651

MULLIKEN ATOMIC CHARGES
-----------------------
   0 C :    0.548021
   1 C :    0.970602
   2 C :    0.415452
   3 C :    0.928193
   4 N :   -0.622285
   5 N :   -0.577255
   6 O :   -0.808844
   7 H :   -0.261841
   8 H :   -0.317411
   9 H :   -0.216149
  10 H :   -0.058483
Sum of atomic charges:    0.0000000

LOEWDIN ATOMIC CHARGES
----------------------
   0 C :   -0.046662
   1 C :    0.044028
   2 C :    0.056733
   3 C :   -0.305976
   4 N :    0.049033
   5 N :    0.135541
   6 O :    0.009366
   7 H :   -0.009241
   8 H :    0.017286
   9 H :    0.010652
  10 H :    0.039241

  Mayer bond orders larger than 0.100000
B(  0-C ,  1-C ) :   1.6166 B(  0-C ,  4-N ) :   0.9506 B(  0-C ,  7-H ) :   0.9578
B(  1-C ,  5-N ) :   0.8133 B(  1-C ,  8-H ) :   0.7947 B(  1-C , 10-H ) :  -0.1226
B(  2-C ,  3-C ) :   1.0269 B(  2-C ,  4-N ) :   1.7185 B(  2-C ,  5-N ) :   0.1059
B(  2-C ,  9-H ) :   0.9584 B(  3-C ,  5-N ) :   1.0273 B(  3-C ,  6-O ) :   1.2590
B(  5-N , 10-H ) :   1.1639

MP2 TOTAL ENERGY:     -338.660048914 Eh
FINAL SINGLE POINT ENERGY      -338.660048913852

DIPOLE MOMENT
-------------
                                X             Y             Z
Electronic contribution:      0.54092       1.66108      -0.00000
Nuclear contribution   :     -1.69995      -2.83949       0.00000
                        -----------------------------------------
Total Dipole Moment    :     -1.15903      -1.17841      -0.00000
                        -----------------------------------------
Magnitude (a.u.)       :      1.65287
Magnitude (Debye)      :      4.20127

Rotational constants in cm-1:     0.194690     0.095836     0.064223
Rotational constants in MHz :  5836.661124  2873.089659  1925.342198

                             ****ORCA TERMINATED NORMALLY****
TOTAL RUN TIME: 0 days 0 hours 0 minutes 46 seconds 141 msec
