                         Program Version 5.0.3 -  RELEASE  -
|  1> !ri-mp2 aug-cc-pvdz aug-cc-pvdz/c tightscf
|  2> %pal nprocs 16 end
|  3>
|  4> * xyz 0 1
|  5> C      0.000000    1.283548        0.000000
|  6> N      1.195886    0.688755        0.000000
|  7> N     -1.187170    0.683937        0.000000
|  8> C      1.154952   -0.633315        0.000000
|  9> C     -0.067010   -1.302568        0.000000
| 10> N     -1.219098   -0.643966        0.000000
| 11> H     -0.131661   -2.382786        0.000000
| 12> H      2.096736   -1.170292        0.000000
| 13> H     -0.020059    2.366010        0.000000
| 14> *
| 15>
| 16>                          ****END OF INPUT****

CARTESIAN COORDINATES (ANGSTROEM)
---------------------------------
  C      0.000000    1.283548    0.000000
  N      1.195886    0.688755    0.000000
  N     -1.187170    0.683937    0.000000
  C      1.154952   -0.633315    0.000000
  C     -0.067010   -1.302568    0.000000
  N     -1.219098   -0.643966    0.000000
  H     -0.131661   -2.382786    0.000000
  H      2.096736   -1.170292    0.000000
  H     -0.020059    2.366010    0.000000

 Total Charge           Charge          ....    0
 Multiplicity           Mult            ....    1
 Number of Electrons    NEL             ....   42
 Basis Dimension        Dim             ....  165

ORBITAL ENERGIES
----------------

  NO   OCC          E(Eh)            E(eV)
   0   2.0000     -15.650288      -425.8660
   1   2.0000     -15.630731      -425.3338
   2   2.0000     -15.616199      -424.9384
   3   2.0000     -11.333312      -308.3951
   4   2.0000     -11.324980      -308.1684
   5   2.0000     -11.302918      -307.5680
   6   2.0000      -1.390892       -37.8481
   7   2.0000      -1.265425       -34.4340
   8   2.0000      -1.141832       -31.0708
   9   2.0000      -0.954808       -25.9816
  10   2.0000      -0.928683       -25.2707
  11   2.0000      -0.750656       -20.4264
  12   2.0000      -0.745959       -20.2986
  13   2.0000      -0.681364       -18.5409
  14   2.0000      -0.617825       -16.8119
  15   2.0000      -0.613804       -16.7025
  16   2.0000      -0.525380       -14.2963
  17   2.0000      -0.500052       -13.6071
  18   2.0000      -0.462828       -12.5942
  19   2.0000      -0.411030       -11.1847
  20   2.0000      -0.403211       -10.9719
  21   0.0000       0.029310         0.7976
  22   0.0000       0.043573         1.1857
  23   0.0000       0.048476         1.3191
  24   0.0000       0.052115         1.4181
  25   0.0000       0.079529         2.1641

MULLIKEN ATOMIC CHARGES
-----------------------
   0 C :    0.769463
   1 N :   -0.576898
   2 N :   -0.374108
   3 C :    0.518490
   4 C :    0.896154
   5 N :   -0.602453
   6 H :   -0.226246
   7 H :   -0.228229
   8 H :   -0.176171
Sum of atomic charges:    0.0000000

LOEWDIN ATOMIC CHARGES
----------------------
   0 C :   -0.064734
   1 N :    0.048975
   2 N :    0.002061
   3 C :   -0.002195
   4 C :   -0.012941
   5 N :    0.014641
   6 H :    0.000819
   7 H :    0.010686
   8 H :    0.002687

  Mayer bond orders larger than 0.100000
B(  0-C ,  1-N ) :   1.2113 B(  0-C ,  2-N ) :   1.2627 B(  0-C ,  8-H ) :   1.0388
B(  1-N ,  3-C ) :   1.3403 B(  2-N ,  3-C ) :   0.1120 B(  2-N ,  5-N ) :   1.0048
B(  3-C ,  4-C ) :   1.3704 B(  3-C ,  5-N ) :   0.1053 B(  3-C ,  7-H ) :   0.8712
B(  4-C ,  5-N ) :   1.1667 B(  4-C ,  6-H ) :   0.8475

MP2 TOTAL ENERGY:     -279.576942577 Eh
FINAL SINGLE POINT ENERGY      -279.576942577367

DIPOLE MOMENT
-------------
                                X             Y             Z
Electronic contribution:     -0.93549       0.60059       0.00000
Nuclear contribution   :      1.88535      -1.15071       0.00000
                        -----------------------------------------
Total Dipole Moment    :      0.94986      -0.55012       0.00000
                        -----------------------------------------
Magnitude (a.u.)       :      1.09767
Magnitude (Debye)      :      2.79005

Rotational constants in cm-1:     0.220686     0.207093     0.106837
Rotational constants in MHz :  6616.011043  6208.497939  3202.889949

                             ****ORCA TERMINATED NORMALLY****
TOTAL RUN TIME: 0 days 0 hours 0 minutes 58 seconds 89 msec
