                         Program Version 5.0.3 -  RELEASE  -
|  1> !ri-mp2 aug-cc-pvdz aug-cc-pvdz/c tightscf
|  2> %pal nprocs 16 end
|  3>
|  4> * xyz 0 1
|  5> Cl     1.271311   -0.098836        0.000000
|  6> F     -0.891537    1.237652        0.000000
|  7> C     -0.455870   -0.024081        0.000000
|  8> C     -1.271818   -1.059179        0.000002
|  9> H     -0.883625   -2.063137        0.000003
| 10> H     -2.338704   -0.895953        0.000003
| 11> *
| 12>
| 13>                          ****END OF INPUT****

CARTESIAN COORDINATES (ANGSTROEM)
---------------------------------
  Cl     1.271311   -0.098836    0.000000
  F     -0.891537    1.237652    0.000000
  C     -0.455870   -0.024081    0.000000
  C     -1.271818   -1.059179    0.000002
  H     -0.883625   -2.063137    0.000003
  H     -2.338704   -0.895953    0.000003

 Total Charge           Charge          ....    0
 Multiplicity           Mult            ....    1
 Number of Electrons    NEL             ....   40
 Basis Dimension        Dim             ....  114

ORBITAL ENERGIES
----------------

  NO   OCC          E(Eh)            E(eV)
   0   2.0000    -104.865317     -2853.5303
   1   2.0000     -26.351664      -717.0652
   2   2.0000     -11.405500      -310.3594
   3   2.0000     -11.261195      -306.4327
   4   2.0000     -10.591567      -288.2112
   5   2.0000      -8.059429      -219.3082
   6   2.0000      -8.055824      -219.2101
   7   2.0000      -8.055741      -219.2078
   8   2.0000      -1.666240       -45.3407
   9   2.0000      -1.177492       -32.0412
  10   2.0000      -1.045855       -28.4592
  11   2.0000      -0.843233       -22.9455
  12   2.0000      -0.738859       -20.1054
  13   2.0000      -0.724448       -19.7132
  14   2.0000      -0.708699       -19.2847
  15   2.0000      -0.610495       -16.6124
  16   2.0000      -0.572319       -15.5736
  17   2.0000      -0.520346       -14.1593
  18   2.0000      -0.484947       -13.1961
  19   2.0000      -0.385082       -10.4786
  20   0.0000       0.037449         1.0191
  21   0.0000       0.052333         1.4241
  22   0.0000       0.075159         2.0452
  23   0.0000       0.092606         2.5199
  24   0.0000       0.096817         2.6345

MULLIKEN ATOMIC CHARGES
-----------------------
   0 Cl:   -0.137507
   1 F :   -0.636431
   2 C :    0.463105
   3 C :    0.707404
   4 H :   -0.177354
   5 H :   -0.219217
Sum of atomic charges:    0.0000000

LOEWDIN ATOMIC CHARGES
----------------------
   0 Cl:    0.563762
   1 F :    0.023352
   2 C :   -0.648585
   3 C :    0.138233
   4 H :   -0.043428
   5 H :   -0.033334

  Mayer bond orders larger than 0.100000
B(  0-Cl,  2-C ) :   1.0604 B(  0-Cl,  3-C ) :  -0.1353 B(  1-F ,  2-C ) :   0.3698
B(  2-C ,  3-C ) :   1.7416 B(  3-C ,  4-H ) :   0.9761 B(  3-C ,  5-H ) :   0.8456
B(  4-H ,  5-H ) :  -0.1354

MP2 TOTAL ENERGY:     -636.449605219 Eh
FINAL SINGLE POINT ENERGY      -636.449605218897

DIPOLE MOMENT
-------------
                                X             Y             Z
Electronic contribution:      3.57993       3.19157      -0.00000
Nuclear contribution   :     -3.88328      -3.77064       0.00001
                        -----------------------------------------
Total Dipole Moment    :     -0.30334      -0.57908       0.00000
                        -----------------------------------------
Magnitude (a.u.)       :      0.65372
Magnitude (Debye)      :      1.66162

Rotational constants in cm-1:     0.356497     0.166984     0.113718
Rotational constants in MHz : 10687.497355  5006.043691  3409.178244

                             ****ORCA TERMINATED NORMALLY****
TOTAL RUN TIME: 0 days 0 hours 0 minutes 32 seconds 673 msec
