                         Program Version 5.0.3 -  RELEASE  -
|  1> !ri-mp2 aug-cc-pvdz aug-cc-pvdz/c tightscf
|  2> %pal nprocs 16 end
|  3>
|  4> * xyz 0 1
|  5> C      0.000000    1.060596        0.000000
|  6> N      1.107973    0.392861        0.000000
|  7> N      0.687701   -0.924391        0.000000
|  8> N     -0.543555   -1.038784        0.000000
|  9> O     -1.082437    0.312079        0.000000
| 10> H     -0.105336    2.131991        0.000000
| 11> *
| 12>
| 13>                          ****END OF INPUT****

CARTESIAN COORDINATES (ANGSTROEM)
---------------------------------
  C      0.000000    1.060596    0.000000
  N      1.107973    0.392861    0.000000
  N      0.687701   -0.924391    0.000000
  N     -0.543555   -1.038784    0.000000
  O     -1.082437    0.312079    0.000000
  H     -0.105336    2.131991    0.000000

 Total Charge           Charge          ....    0
 Multiplicity           Mult            ....    1
 Number of Electrons    NEL             ....   36
 Basis Dimension        Dim             ....  124

ORBITAL ENERGIES
----------------

  NO   OCC          E(Eh)            E(eV)
   0   2.0000     -20.704319      -563.3932
   1   2.0000     -15.731390      -428.0729
   2   2.0000     -15.702924      -427.2983
   3   2.0000     -15.640230      -425.5923
   4   2.0000     -11.396769      -310.1219
   5   2.0000      -1.586787       -43.1787
   6   2.0000      -1.381653       -37.5967
   7   2.0000      -1.250131       -34.0178
   8   2.0000      -0.926746       -25.2180
   9   2.0000      -0.918712       -24.9994
  10   2.0000      -0.778962       -21.1966
  11   2.0000      -0.723823       -19.6962
  12   2.0000      -0.663065       -18.0429
  13   2.0000      -0.607503       -16.5310
  14   2.0000      -0.539179       -14.6718
  15   2.0000      -0.519595       -14.1389
  16   2.0000      -0.508483       -13.8365
  17   2.0000      -0.460281       -12.5249
  18   0.0000       0.028936         0.7874
  19   0.0000       0.067186         1.8282
  20   0.0000       0.079107         2.1526
  21   0.0000       0.087166         2.3719
  22   0.0000       0.103199         2.8082

MULLIKEN ATOMIC CHARGES
-----------------------
   0 C :    1.105219
   1 N :   -0.467184
   2 N :    0.013510
   3 N :    0.116924
   4 O :   -0.674293
   5 H :   -0.094175
Sum of atomic charges:   -0.0000000

LOEWDIN ATOMIC CHARGES
----------------------
   0 C :   -0.045338
   1 N :   -0.018947
   2 N :   -0.054874
   3 N :    0.055449
   4 O :    0.047072
   5 H :    0.016637

  Mayer bond orders larger than 0.100000
B(  0-C ,  1-N ) :   1.4828 B(  0-C ,  4-O ) :   0.9543 B(  0-C ,  5-H ) :   0.9847
B(  1-N ,  2-N ) :   0.8575 B(  1-N ,  3-N ) :   0.1082 B(  2-N ,  3-N ) :   1.1422
B(  3-N ,  4-O ) :   0.6210

MP2 TOTAL ENERGY:     -277.430110341 Eh
FINAL SINGLE POINT ENERGY      -277.430110340826

DIPOLE MOMENT
-------------
                                X             Y             Z
Electronic contribution:     -0.29440      -0.91855      -0.00000
Nuclear contribution   :     -0.10950       2.02501       0.00000
                        -----------------------------------------
Total Dipole Moment    :     -0.40390       1.10646      -0.00000
                        -----------------------------------------
Magnitude (a.u.)       :      1.17787
Magnitude (Debye)      :      2.99392

Rotational constants in cm-1:     0.361822     0.344339     0.176432
Rotational constants in MHz : 10847.158575 10323.028420  5289.302653

                             ****ORCA TERMINATED NORMALLY****
TOTAL RUN TIME: 0 days 0 hours 0 minutes 25 seconds 109 msec
