                         Program Version 5.0.3 -  RELEASE  -
|  1> !ri-mp2 aug-cc-pvdz aug-cc-pvdz/c tightscf
|  2> %pal nprocs 16 end
|  3>
|  4> * xyz 0 1
|  5> C     -0.035450   -0.681860    0.000000
|  6> F      1.048578   -1.447157    0.000000
|  7> F     -1.137562   -1.409159    0.000000
|  8> C      0.000000    0.641679    0.000000
|  9> F     -1.187405    1.293847    0.000000
| 10> C      1.198490    1.512864    0.000000
| 11> H      2.107235    0.915995    0.000000
| 12> H      1.201017    2.155061    0.882809
| 13> H      1.201017    2.155061   -0.882809
| 14> *
| 15>
| 16>                          ****END OF INPUT****

CARTESIAN COORDINATES (ANGSTROEM)
---------------------------------
  C     -0.035450   -0.681860    0.000000
  F      1.048578   -1.447157    0.000000
  F     -1.137562   -1.409159    0.000000
  C      0.000000    0.641679    0.000000
  F     -1.187405    1.293847    0.000000
  C      1.198490    1.512864    0.000000
  H      2.107235    0.915995    0.000000
  H      1.201017    2.155061    0.882809
  H      1.201017    2.155061   -0.882809

 Total Charge           Charge          ....    0
 Multiplicity           Mult            ....    1
 Number of Electrons    NEL             ....   48
 Basis Dimension        Dim             ....  165

ORBITAL ENERGIES
----------------

  NO   OCC          E(Eh)            E(eV)
   0   2.0000     -26.365817      -717.4504
   1   2.0000     -26.362728      -717.3663
   2   2.0000     -26.335483      -716.6249
   3   2.0000     -11.432333      -311.0896
   4   2.0000     -11.352898      -308.9281
   5   2.0000     -11.263268      -306.4891
   6   2.0000      -1.710630       -46.5486
   7   2.0000      -1.650571       -44.9143
   8   2.0000      -1.640148       -44.6307
   9   2.0000      -1.108338       -30.1594
  10   2.0000      -0.991233       -26.9728
  11   2.0000      -0.875284       -23.8177
  12   2.0000      -0.809734       -22.0340
  13   2.0000      -0.789537       -21.4844
  14   2.0000      -0.771540       -20.9947
  15   2.0000      -0.704940       -19.1824
  16   2.0000      -0.703632       -19.1468
  17   2.0000      -0.694902       -18.9092
  18   2.0000      -0.686369       -18.6770
  19   2.0000      -0.668943       -18.2029
  20   2.0000      -0.593344       -16.1457
  21   2.0000      -0.584305       -15.8998
  22   2.0000      -0.577767       -15.7218
  23   2.0000      -0.380727       -10.3601
  24   0.0000       0.032954         0.8967
  25   0.0000       0.054512         1.4834
  26   0.0000       0.055941         1.5222
  27   0.0000       0.071410         1.9432
  28   0.0000       0.094693         2.5767

MULLIKEN ATOMIC CHARGES
-----------------------
   0 C :    1.491073
   1 F :   -0.636887
   2 F :   -0.617290
   3 C :    0.160163
   4 F :   -0.754083
   5 C :    0.333846
   6 H :   -0.092727
   7 H :    0.057953
   8 H :    0.057953
Sum of atomic charges:   -0.0000000

LOEWDIN ATOMIC CHARGES
----------------------
   0 C :   -0.193791
   1 F :    0.086633
   2 F :    0.096354
   3 C :   -0.219530
   4 F :    0.060632
   5 C :    0.184030
   6 H :   -0.007783
   7 H :   -0.003273
   8 H :   -0.003273

  Mayer bond orders larger than 0.100000
B(  0-C ,  1-F ) :   0.2003 B(  0-C ,  2-F ) :   0.1183 B(  0-C ,  3-C ) :   1.8634
B(  1-F ,  3-C ) :   0.2367 B(  2-F ,  3-C ) :   0.3113 B(  3-C ,  4-F ) :   0.1379
B(  3-C ,  5-C ) :   1.2129 B(  5-C ,  6-H ) :   0.9325 B(  5-C ,  7-H ) :   0.8783
B(  5-C ,  8-H ) :   0.8783

MP2 TOTAL ENERGY:     -414.687563713 Eh
FINAL SINGLE POINT ENERGY      -414.687563712574

DIPOLE MOMENT
-------------
                                X             Y             Z
Electronic contribution:     -4.66920      -5.85839      -0.00000
Nuclear contribution   :      5.41519       6.35315       0.00000
                        -----------------------------------------
Total Dipole Moment    :      0.74599       0.49476      -0.00000
                        -----------------------------------------
Magnitude (a.u.)       :      0.89515
Magnitude (Debye)      :      2.27529

Rotational constants in cm-1:     0.171820     0.106243     0.066463
Rotational constants in MHz :  5151.025541  3185.089121  1992.503166

                             ****ORCA TERMINATED NORMALLY****
TOTAL RUN TIME: 0 days 0 hours 0 minutes 32 seconds 372 msec
