                         Program Version 5.0.3 -  RELEASE  -
|  1> !ri-mp2 aug-cc-pvdz aug-cc-pvdz/c tightscf
|  2> %pal nprocs 16 end
|  3>
|  4> * xyz 0 1
|  5> C      1.426873    1.298590    0.000000
|  6> C      0.000000    0.751500    0.000000
|  7> C     -0.052657   -0.779459    0.000000
|  8> N     -1.385423   -1.383272    0.000000
|  9> H      1.978422    0.962964    0.880677
| 10> H      1.978422    0.962964   -0.880677
| 11> H      1.436602    2.389035    0.000000
| 12> H     -0.539820    1.125120   -0.875744
| 13> H     -0.539820    1.125120    0.875744
| 14> H      0.483988   -1.159679    0.873422
| 15> H      0.483988   -1.159679   -0.873422
| 16> H     -1.914561   -1.093363   -0.813803
| 17> H     -1.914561   -1.093363    0.813803
| 18> *
| 19>
| 20>                          ****END OF INPUT****

CARTESIAN COORDINATES (ANGSTROEM)
---------------------------------
  C      1.426873    1.298590    0.000000
  C      0.000000    0.751500    0.000000
  C     -0.052657   -0.779459    0.000000
  N     -1.385423   -1.383272    0.000000
  H      1.978422    0.962964    0.880677
  H      1.978422    0.962964   -0.880677
  H      1.436602    2.389035    0.000000
  H     -0.539820    1.125120   -0.875744
  H     -0.539820    1.125120    0.875744
  H      0.483988   -1.159679    0.873422
  H      0.483988   -1.159679   -0.873422
  H     -1.914561   -1.093363   -0.813803
  H     -1.914561   -1.093363    0.813803

 Total Charge           Charge          ....    0
 Multiplicity           Mult            ....    1
 Number of Electrons    NEL             ....   34
 Basis Dimension        Dim             ....  173

ORBITAL ENERGIES
----------------

  NO   OCC          E(Eh)            E(eV)
   0   2.0000     -15.544855      -422.9970
   1   2.0000     -11.249751      -306.1213
   2   2.0000     -11.223995      -305.4204
   3   2.0000     -11.220918      -305.3367
   4   2.0000      -1.176593       -32.0167
   5   2.0000      -1.037694       -28.2371
   6   2.0000      -0.899591       -24.4791
   7   2.0000      -0.805952       -21.9311
   8   2.0000      -0.674567       -18.3559
   9   2.0000      -0.607178       -16.5222
  10   2.0000      -0.603532       -16.4229
  11   2.0000      -0.560853       -15.2616
  12   2.0000      -0.521172       -14.1818
  13   2.0000      -0.516592       -14.0572
  14   2.0000      -0.485998       -13.2247
  15   2.0000      -0.469406       -12.7732
  16   2.0000      -0.382077       -10.3968
  17   0.0000       0.036394         0.9903
  18   0.0000       0.044592         1.2134
  19   0.0000       0.048104         1.3090
  20   0.0000       0.050011         1.3609
  21   0.0000       0.070959         1.9309

MULLIKEN ATOMIC CHARGES
-----------------------
   0 C :    0.357317
   1 C :    0.114941
   2 C :    0.696437
   3 N :   -0.448133
   4 H :   -0.065412
   5 H :   -0.065412
   6 H :   -0.093668
   7 H :   -0.094802
   8 H :   -0.094802
   9 H :   -0.149398
  10 H :   -0.149398
  11 H :   -0.003835
  12 H :   -0.003835
Sum of atomic charges:   -0.0000000

LOEWDIN ATOMIC CHARGES
----------------------
   0 C :    0.127883
   1 C :   -0.075315
   2 C :   -0.082239
   3 N :    0.171511
   4 H :   -0.020614
   5 H :   -0.020614
   6 H :   -0.022763
   7 H :    0.007653
   8 H :    0.007653
   9 H :    0.009325
  10 H :    0.009325
  11 H :   -0.055902
  12 H :   -0.055902

  Mayer bond orders larger than 0.100000
B(  0-C ,  1-C ) :   1.1945 B(  0-C ,  4-H ) :   0.9376 B(  0-C ,  5-H ) :   0.9376
B(  0-C ,  6-H ) :   0.9212 B(  1-C ,  2-C ) :   1.1759 B(  1-C ,  7-H ) :   0.8199
B(  1-C ,  8-H ) :   0.8199 B(  2-C ,  3-N ) :   0.7924 B(  2-C ,  9-H ) :   0.9175
B(  2-C , 10-H ) :   0.9175 B(  3-N , 11-H ) :   1.0585 B(  3-N , 12-H ) :   1.0585
B(  9-H , 10-H ) :  -0.1035

MP2 TOTAL ENERGY:     -173.950231231 Eh
FINAL SINGLE POINT ENERGY      -173.950231230781

DIPOLE MOMENT
-------------
                                X             Y             Z
Electronic contribution:     -1.60386      -1.65170       0.00000
Nuclear contribution   :      1.56042       2.21555       0.00000
                        -----------------------------------------
Total Dipole Moment    :     -0.04344       0.56385       0.00000
                        -----------------------------------------
Magnitude (a.u.)       :      0.56552
Magnitude (Debye)      :      1.43745

Rotational constants in cm-1:     0.832740     0.122296     0.115368
Rotational constants in MHz : 24964.919473  3666.354612  3458.649301

                             ****ORCA TERMINATED NORMALLY****
TOTAL RUN TIME: 0 days 0 hours 0 minutes 31 seconds 433 msec
