                         Program Version 5.0.3 -  RELEASE  -
|  1> !ri-mp2 aug-cc-pvdz aug-cc-pvdz/c tightscf
|  2> %pal nprocs 16 end
|  3>
|  4> * xyz 0 1
|  5> S    -3.986894   -0.049708   -0.000087
|  6> O     4.775654   -0.113191   -0.000147
|  7> N    -1.218888   -0.119564    0.000118
|  8> N     2.439468    0.263192    0.000069
|  9> C     0.039669    0.560667    0.000057
| 10> C     1.185169   -0.449890    0.000115
| 11> C    -2.404278   -0.042911    0.000025
| 12> C     3.612272    0.010529   -0.000044
| 13> H     0.112187    1.198876   -0.883098
| 14> H     0.112207    1.198992    0.883127
| 15> H     1.109813   -1.086449   -0.883060
| 16> H     1.109821   -1.086333    0.883374
| 17> *
| 18>
| 19>                          ****END OF INPUT****

CARTESIAN COORDINATES (ANGSTROEM)
---------------------------------
  S     -3.986894   -0.049708   -0.000087
  O      4.775654   -0.113191   -0.000147
  N     -1.218888   -0.119564    0.000118
  N      2.439468    0.263192    0.000069
  C      0.039669    0.560667    0.000057
  C      1.185169   -0.449890    0.000115
  C     -2.404278   -0.042911    0.000025
  C      3.612272    0.010529   -0.000044
  H      0.112187    1.198876   -0.883098
  H      0.112207    1.198992    0.883127
  H      1.109813   -1.086449   -0.883060
  H      1.109821   -1.086333    0.883374

 Total Charge           Charge          ....    0
 Multiplicity           Mult            ....    1
 Number of Electrons    NEL             ....   66
 Basis Dimension        Dim             ....  224

ORBITAL ENERGIES
----------------

  NO   OCC          E(Eh)            E(eV)
   0   2.0000     -91.958628     -2502.3215
   1   2.0000     -20.629091      -561.3461
   2   2.0000     -15.627290      -425.2402
   3   2.0000     -15.611731      -424.8168
   4   2.0000     -11.425648      -310.9077
   5   2.0000     -11.393192      -310.0245
   6   2.0000     -11.327956      -308.2493
   7   2.0000     -11.325503      -308.1826
   8   2.0000      -8.961942      -243.8668
   9   2.0000      -6.644625      -180.8094
  10   2.0000      -6.640809      -180.7056
  11   2.0000      -6.640507      -180.6974
  12   2.0000      -1.476434       -40.1758
  13   2.0000      -1.314102       -35.7585
  14   2.0000      -1.293309       -35.1927
  15   2.0000      -1.104814       -30.0635
  16   2.0000      -1.035298       -28.1719
  17   2.0000      -0.944368       -25.6976
  18   2.0000      -0.779060       -21.1993
  19   2.0000      -0.743845       -20.2410
  20   2.0000      -0.710296       -19.3281
  21   2.0000      -0.702897       -19.1268
  22   2.0000      -0.667165       -18.1545
  23   2.0000      -0.658258       -17.9121
  24   2.0000      -0.619735       -16.8639
  25   2.0000      -0.600614       -16.3435
  26   2.0000      -0.598466       -16.2851
  27   2.0000      -0.539671       -14.6852
  28   2.0000      -0.529254       -14.4017
  29   2.0000      -0.460175       -12.5220
  30   2.0000      -0.437555       -11.9065
  31   2.0000      -0.373102       -10.1526
  32   2.0000      -0.363836        -9.9005
  33   0.0000       0.027009         0.7350
  34   0.0000       0.040743         1.1087
  35   0.0000       0.042589         1.1589
  36   0.0000       0.059463         1.6181
  37   0.0000       0.064901         1.7661

MULLIKEN ATOMIC CHARGES
-----------------------
   0 S :    0.121491
   1 O :   -0.470355
   2 N :   -0.284592
   3 N :   -0.250898
   4 C :    0.786930
   5 C :    0.999982
   6 C :   -0.432864
   7 C :    0.057310
   8 H :   -0.129529
   9 H :   -0.129529
  10 H :   -0.133975
  11 H :   -0.133971
Sum of atomic charges:   -0.0000000

LOEWDIN ATOMIC CHARGES
----------------------
   0 S :    0.587134
   1 O :    0.097071
   2 N :   -0.015113
   3 N :    0.054628
   4 C :   -0.007580
   5 C :   -0.009399
   6 C :   -0.631574
   7 C :   -0.176760
   8 H :    0.028267
   9 H :    0.028267
  10 H :    0.022529
  11 H :    0.022529

  Mayer bond orders larger than 0.100000
B(  0-S ,  6-C ) :   1.8811 B(  1-O ,  7-C ) :   1.9880 B(  2-N ,  4-C ) :   0.6094
B(  2-N ,  5-C ) :  -0.1128 B(  2-N ,  6-C ) :   1.9692 B(  3-N ,  4-C ) :  -0.1132
B(  3-N ,  5-C ) :   0.6996 B(  3-N ,  7-C ) :   2.0290 B(  4-C ,  5-C ) :   1.3274
B(  4-C ,  8-H ) :   0.9090 B(  4-C ,  9-H ) :   0.9090 B(  5-C , 10-H ) :   0.8510
B(  5-C , 11-H ) :   0.8510

MP2 TOTAL ENERGY:     -736.329799448 Eh
FINAL SINGLE POINT ENERGY      -736.329799447996

DIPOLE MOMENT
-------------
                                X             Y             Z
Electronic contribution:     -2.33334      -0.22064      -0.00027
Nuclear contribution   :      2.56274       0.21829       0.00033
                        -----------------------------------------
Total Dipole Moment    :      0.22941      -0.00236       0.00006
                        -----------------------------------------
Magnitude (a.u.)       :      0.22942
Magnitude (Debye)      :      0.58313

Rotational constants in cm-1:     1.046877     0.013735     0.013627
Rotational constants in MHz : 31384.568312   411.779629   408.513321

                             ****ORCA TERMINATED NORMALLY****
TOTAL RUN TIME: 0 days 0 hours 0 minutes 46 seconds 913 msec
