                         Program Version 5.0.3 -  RELEASE  -
|  1> !ri-mp2 aug-cc-pvdz aug-cc-pvdz/c tightscf
|  2> %pal nprocs 16 end
|  3>
|  4> * xyz 0 1
|  5> F      2.330214   -0.536042    0.000001
|  6> F     -2.393334   -0.522974   -0.000003
|  7> N      1.036400   -0.102187    0.000000
|  8> C     -1.116301   -0.113298    0.000000
|  9> C     -0.028009   -0.957326   -0.000003
| 10> C      0.691209    1.205519    0.000003
| 11> C     -0.693561    1.228172    0.000003
| 12> H      0.078795   -2.024555   -0.000006
| 13> H      1.428370    1.986186    0.000006
| 14> H     -1.313902    2.106420    0.000004
| 15> *
| 16>
| 17>                          ****END OF INPUT****

CARTESIAN COORDINATES (ANGSTROEM)
---------------------------------
  F      2.330214   -0.536042    0.000001
  F     -2.393334   -0.522974   -0.000003
  N      1.036400   -0.102187    0.000000
  C     -1.116301   -0.113298    0.000000
  C     -0.028009   -0.957326   -0.000003
  C      0.691209    1.205519    0.000003
  C     -0.693561    1.228172    0.000003
  H      0.078795   -2.024555   -0.000006
  H      1.428370    1.986186    0.000006
  H     -1.313902    2.106420    0.000004

 Total Charge           Charge          ....    0
 Multiplicity           Mult            ....    1
 Number of Electrons    NEL             ....   52
 Basis Dimension        Dim             ....  188

ORBITAL ENERGIES
----------------

  NO   OCC          E(Eh)            E(eV)
   0   2.0000     -26.383933      -717.9433
   1   2.0000     -26.326510      -716.3808
   2   2.0000     -15.724252      -427.8787
   3   2.0000     -11.330655      -308.3228
   4   2.0000     -11.298976      -307.4608
   5   2.0000     -11.288966      -307.1884
   6   2.0000     -11.247681      -306.0650
   7   2.0000      -1.685002       -45.8512
   8   2.0000      -1.634267       -44.4707
   9   2.0000      -1.319080       -35.8940
  10   2.0000      -1.056711       -28.7546
  11   2.0000      -1.033929       -28.1346
  12   2.0000      -0.843175       -22.9439
  13   2.0000      -0.838214       -22.8090
  14   2.0000      -0.780344       -21.2342
  15   2.0000      -0.757064       -20.6007
  16   2.0000      -0.729863       -19.8606
  17   2.0000      -0.701977       -19.1018
  18   2.0000      -0.697693       -18.9852
  19   2.0000      -0.668415       -18.1885
  20   2.0000      -0.626328       -17.0433
  21   2.0000      -0.605806       -16.4848
  22   2.0000      -0.582265       -15.8442
  23   2.0000      -0.555176       -15.1071
  24   2.0000      -0.367740       -10.0067
  25   2.0000      -0.330866        -9.0033
  26   0.0000       0.034855         0.9485
  27   0.0000       0.042197         1.1482
  28   0.0000       0.047798         1.3006
  29   0.0000       0.083952         2.2844
  30   0.0000       0.087682         2.3859

MULLIKEN ATOMIC CHARGES
-----------------------
   0 F :   -0.648600
   1 F :   -0.734508
   2 N :   -0.011898
   3 C :    0.737633
   4 C :    0.489967
   5 C :    0.405420
   6 C :    0.509934
   7 H :   -0.226837
   8 H :   -0.224846
   9 H :   -0.296265
Sum of atomic charges:    0.0000000

LOEWDIN ATOMIC CHARGES
----------------------
   0 F :    0.099622
   1 F :    0.062945
   2 N :   -0.156446
   3 C :   -0.221502
   4 C :    0.103060
   5 C :    0.064400
   6 C :    0.041479
   7 H :    0.004787
   8 H :    0.005886
   9 H :   -0.004230

  Mayer bond orders larger than 0.100000
B(  0-F ,  2-N ) :   0.4971 B(  1-F ,  3-C ) :  -0.2362 B(  1-F ,  4-C ) :   0.2249
B(  1-F ,  6-C ) :   0.2638 B(  2-N ,  3-C ) :  -0.1238 B(  2-N ,  4-C ) :   1.1005
B(  2-N ,  5-C ) :   1.1282 B(  3-C ,  4-C ) :   1.5009 B(  3-C ,  6-C ) :   1.5370
B(  4-C ,  7-H ) :   0.8341 B(  5-C ,  6-C ) :   1.4831 B(  5-C ,  8-H ) :   0.9017
B(  6-C ,  8-H ) :  -0.1084 B(  6-C ,  9-H ) :   0.6574

MP2 TOTAL ENERGY:     -407.578443311 Eh
FINAL SINGLE POINT ENERGY      -407.578443310944

DIPOLE MOMENT
-------------
                                X             Y             Z
Electronic contribution:      0.26560      -2.63621      -0.00001
Nuclear contribution   :      0.24794       2.94988       0.00001
                        -----------------------------------------
Total Dipole Moment    :      0.51355       0.31366       0.00000
                        -----------------------------------------
Magnitude (a.u.)       :      0.60176
Magnitude (Debye)      :      1.52955

Rotational constants in cm-1:     0.240743     0.065513     0.051498
Rotational constants in MHz :  7217.278969  1964.019050  1543.885555

                             ****ORCA TERMINATED NORMALLY****
TOTAL RUN TIME: 0 days 0 hours 0 minutes 38 seconds 130 msec
