                         Program Version 5.0.3 -  RELEASE  -
|  1> !ri-mp2 aug-cc-pvdz aug-cc-pvdz/c tightscf
|  2> %pal nprocs 16 end
|  3>
|  4> * xyz 0 1
|  5> O     -0.194628    1.442226   -0.211553
|  6> O      0.194628   -1.442226   -0.211553
|  7> N      0.795033    3.647186   -0.572454
|  8> N     -0.795033   -3.647186   -0.572454
|  9> C      0.339745    0.667888    0.903873
| 10> C     -0.339745   -0.667888    0.903873
| 11> C      0.339745    2.601889   -0.389104
| 12> C     -0.339745   -2.601889   -0.389104
| 13> H      1.417300    0.568273    0.779108
| 14> H      0.119945    1.195921    1.831875
| 15> H     -1.417300   -0.568273    0.779108
| 16> H     -0.119945   -1.195921    1.831875
| 17> *
| 18>
| 19>                          ****END OF INPUT****

CARTESIAN COORDINATES (ANGSTROEM)
---------------------------------
  O     -0.194628    1.442226   -0.211553
  O      0.194628   -1.442226   -0.211553
  N      0.795033    3.647186   -0.572454
  N     -0.795033   -3.647186   -0.572454
  C      0.339745    0.667888    0.903873
  C     -0.339745   -0.667888    0.903873
  C      0.339745    2.601889   -0.389104
  C     -0.339745   -2.601889   -0.389104
  H      1.417300    0.568273    0.779108
  H      0.119945    1.195921    1.831875
  H     -1.417300   -0.568273    0.779108
  H     -0.119945   -1.195921    1.831875

 Total Charge           Charge          ....    0
 Multiplicity           Mult            ....    1
 Number of Electrons    NEL             ....   58
 Basis Dimension        Dim             ....  220

ORBITAL ENERGIES
----------------

  NO   OCC          E(Eh)            E(eV)
   0   2.0000     -20.690757      -563.0241
   1   2.0000     -20.690756      -563.0241
   2   2.0000     -15.593846      -424.3301
   3   2.0000     -15.593846      -424.3301
   4   2.0000     -11.374429      -309.5140
   5   2.0000     -11.373732      -309.4950
   6   2.0000     -11.359793      -309.1157
   7   2.0000     -11.359793      -309.1157
   8   2.0000      -1.518381       -41.3173
   9   2.0000      -1.506363       -40.9902
  10   2.0000      -1.238351       -33.6972
  11   2.0000      -1.235267       -33.6133
  12   2.0000      -1.121416       -30.5153
  13   2.0000      -0.955119       -25.9901
  14   2.0000      -0.843297       -22.9473
  15   2.0000      -0.834239       -22.7008
  16   2.0000      -0.734442       -19.9852
  17   2.0000      -0.732674       -19.9371
  18   2.0000      -0.720992       -19.6192
  19   2.0000      -0.668258       -18.1842
  20   2.0000      -0.608223       -16.5506
  21   2.0000      -0.603649       -16.4261
  22   2.0000      -0.586333       -15.9549
  23   2.0000      -0.576343       -15.6831
  24   2.0000      -0.572936       -15.5904
  25   2.0000      -0.476010       -12.9529
  26   2.0000      -0.474807       -12.9202
  27   2.0000      -0.459197       -12.4954
  28   2.0000      -0.454660       -12.3719
  29   0.0000       0.016662         0.4534
  30   0.0000       0.034973         0.9517
  31   0.0000       0.044610         1.2139
  32   0.0000       0.044916         1.2222
  33   0.0000       0.074687         2.0323

MULLIKEN ATOMIC CHARGES
-----------------------
   0 O :   -0.573667
   1 O :   -0.573667
   2 N :   -0.344131
   3 N :   -0.344131
   4 C :    0.915116
   5 C :    0.915116
   6 C :    0.221684
   7 C :    0.221684
   8 H :   -0.122686
   9 H :   -0.096316
  10 H :   -0.122686
  11 H :   -0.096316
Sum of atomic charges:    0.0000000

LOEWDIN ATOMIC CHARGES
----------------------
   0 O :    0.073204
   1 O :    0.073204
   2 N :    0.074752
   3 N :    0.074752
   4 C :    0.055272
   5 C :    0.055272
   6 C :   -0.265794
   7 C :   -0.265794
   8 H :    0.031163
   9 H :    0.031403
  10 H :    0.031163
  11 H :    0.031403

  Mayer bond orders larger than 0.100000
B(  0-O ,  4-C ) :   0.5807 B(  0-O ,  6-C ) :   1.0906 B(  1-O ,  5-C ) :   0.5807
B(  1-O ,  7-C ) :   1.0906 B(  2-N ,  6-C ) :   2.6425 B(  3-N ,  7-C ) :   2.6425
B(  4-C ,  5-C ) :   1.3478 B(  4-C ,  8-H ) :   0.9773 B(  4-C ,  9-H ) :   0.8504
B(  5-C , 10-H ) :   0.9773 B(  5-C , 11-H ) :   0.8504

MP2 TOTAL ENERGY:     -413.643178025 Eh
FINAL SINGLE POINT ENERGY      -413.643178024545

DIPOLE MOMENT
-------------
                                X             Y             Z
Electronic contribution:     -0.00000      -0.00000      -3.31074
Nuclear contribution   :      0.00000       0.00000       5.06175
                        -----------------------------------------
Total Dipole Moment    :     -0.00000      -0.00000       1.75100
                        -----------------------------------------
Magnitude (a.u.)       :      1.75100
Magnitude (Debye)      :      4.45070

Rotational constants in cm-1:     0.316041     0.026151     0.024992
Rotational constants in MHz :  9474.668717   784.001268   749.237244

                             ****ORCA TERMINATED NORMALLY****
TOTAL RUN TIME: 0 days 0 hours 0 minutes 55 seconds 10 msec
