                         Program Version 5.0.3 -  RELEASE  -
|  1> !ri-mp2 aug-cc-pvdz aug-cc-pvdz/c tightscf
|  2> %pal nprocs 16 end
|  3>
|  4> * xyz 0 1
|  5> Cl     1.969671   -1.392624   -0.227155
|  6> Cl    -2.726372   -0.166639   -0.549480
|  7> O      1.299667    1.497740    1.060977
|  8> O      1.142038    1.750743   -1.088218
|  9> N      1.039851    1.108331   -0.061878
| 10> C      0.528061   -0.332445   -0.214217
| 11> C     -0.425033   -0.704823    0.900645
| 12> C     -1.706486    0.113665    0.924971
| 13> H      0.086211   -0.366790   -1.201970
| 14> H     -0.662786   -1.761718    0.786146
| 15> H      0.086276   -0.577124    1.855350
| 16> H     -2.317628   -0.174091    1.774333
| 17> H     -1.520016    1.182620    0.971618
| 18> *
| 19>
| 20>                          ****END OF INPUT****

CARTESIAN COORDINATES (ANGSTROEM)
---------------------------------
  Cl     1.969671   -1.392624   -0.227155
  Cl    -2.726372   -0.166639   -0.549480
  O      1.299667    1.497740    1.060977
  O      1.142038    1.750743   -1.088218
  N      1.039851    1.108331   -0.061878
  C      0.528061   -0.332445   -0.214217
  C     -0.425033   -0.704823    0.900645
  C     -1.706486    0.113665    0.924971
  H      0.086211   -0.366790   -1.201970
  H     -0.662786   -1.761718    0.786146
  H      0.086276   -0.577124    1.855350
  H     -2.317628   -0.174091    1.774333
  H     -1.520016    1.182620    0.971618

 Total Charge           Charge          ....    0
 Multiplicity           Mult            ....    1
 Number of Electrons    NEL             ....   80
 Basis Dimension        Dim             ....  237

ORBITAL ENERGIES
----------------

  NO   OCC          E(Eh)            E(eV)
   0   2.0000    -104.871861     -2853.7084
   1   2.0000    -104.845023     -2852.9781
   2   2.0000     -20.638029      -561.5893
   3   2.0000     -20.634820      -561.5020
   4   2.0000     -15.876778      -432.0291
   5   2.0000     -11.395588      -310.0897
   6   2.0000     -11.332916      -308.3843
   7   2.0000     -11.293858      -307.3215
   8   2.0000     -10.597563      -288.3744
   9   2.0000     -10.570966      -287.6506
  10   2.0000      -8.065283      -219.4675
  11   2.0000      -8.061855      -219.3742
  12   2.0000      -8.061693      -219.3698
  13   2.0000      -8.038558      -218.7403
  14   2.0000      -8.035491      -218.6568
  15   2.0000      -8.035370      -218.6535
  16   2.0000      -1.636670       -44.5360
  17   2.0000      -1.432525       -38.9810
  18   2.0000      -1.216009       -33.0893
  19   2.0000      -1.158759       -31.5314
  20   2.0000      -1.072586       -29.1865
  21   2.0000      -1.016012       -27.6471
  22   2.0000      -0.906033       -24.6544
  23   2.0000      -0.842789       -22.9335
  24   2.0000      -0.778640       -21.1879
  25   2.0000      -0.751080       -20.4379
  26   2.0000      -0.744137       -20.2490
  27   2.0000      -0.683879       -18.6093
  28   2.0000      -0.660768       -17.9804
  29   2.0000      -0.621394       -16.9090
  30   2.0000      -0.589986       -16.0543
  31   2.0000      -0.571707       -15.5569
  32   2.0000      -0.534251       -14.5377
  33   2.0000      -0.522337       -14.2135
  34   2.0000      -0.515858       -14.0372
  35   2.0000      -0.488581       -13.2950
  36   2.0000      -0.476602       -12.9690
  37   2.0000      -0.470987       -12.8162
  38   2.0000      -0.457335       -12.4447
  39   2.0000      -0.455581       -12.3970
  40   0.0000       0.030799         0.8381
  41   0.0000       0.044624         1.2143
  42   0.0000       0.049013         1.3337
  43   0.0000       0.054853         1.4926
  44   0.0000       0.059131         1.6090

MULLIKEN ATOMIC CHARGES
-----------------------
   0 Cl:   -0.046780
   1 Cl:   -0.117241
   2 O :   -0.842472
   3 O :   -0.796562
   4 N :    0.885324
   5 C :    0.453193
   6 C :    0.394901
   7 C :    0.024782
   8 H :   -0.098873
   9 H :   -0.026457
  10 H :    0.066535
  11 H :    0.057359
  12 H :    0.046291
Sum of atomic charges:    0.0000000

LOEWDIN ATOMIC CHARGES
----------------------
   0 Cl:    0.588024
   1 Cl:    0.471235
   2 O :    0.090409
   3 O :    0.100710
   4 N :   -0.394633
   5 C :   -0.420972
   6 C :   -0.115299
   7 C :   -0.288756
   8 H :   -0.014580
   9 H :    0.018104
  10 H :    0.019093
  11 H :   -0.024353
  12 H :   -0.028982

  Mayer bond orders larger than 0.100000
B(  0-Cl,  4-N ) :  -0.2212 B(  0-Cl,  5-C ) :   1.2415 B(  1-Cl,  6-C ) :  -0.1509
B(  1-Cl,  7-C ) :   1.1817 B(  2-O ,  3-O ) :   0.2178 B(  2-O ,  4-N ) :   1.1221
B(  3-O ,  4-N ) :   1.2247 B(  4-N ,  5-C ) :   0.7545 B(  5-C ,  6-C ) :   1.1314
B(  5-C ,  7-C ) :  -0.1516 B(  5-C ,  8-H ) :   0.7493 B(  6-C ,  7-C ) :   1.2689
B(  6-C ,  9-H ) :   0.8796 B(  6-C , 10-H ) :   0.9082 B(  6-C , 11-H ) :   0.1075
B(  7-C , 11-H ) :   0.8669 B(  7-C , 12-H ) :   0.9216

MP2 TOTAL ENERGY:    -1240.941925356 Eh
FINAL SINGLE POINT ENERGY     -1240.941925356140

DIPOLE MOMENT
-------------
                                X             Y             Z
Electronic contribution:      2.41069      -1.52940      -4.34066
Nuclear contribution   :     -3.04399       0.56241       5.03639
                        -----------------------------------------
Total Dipole Moment    :     -0.63330      -0.96699       0.69573
                        -----------------------------------------
Magnitude (a.u.)       :      1.34914
Magnitude (Debye)      :      3.42925

Rotational constants in cm-1:     0.063899     0.028459     0.024177
Rotational constants in MHz :  1915.657937   853.179509   724.800223

                             ****ORCA TERMINATED NORMALLY****
TOTAL RUN TIME: 0 days 0 hours 0 minutes 51 seconds 237 msec
