                         Program Version 5.0.3 -  RELEASE  -
|  1> !ri-mp2 aug-cc-pvdz aug-cc-pvdz/c tightscf
|  2> %pal nprocs 16 end
|  3>
|  4> * xyz 0 1
|  5> C     0.000000     0.000000    1.419313
|  6> C     0.000000     0.000000    0.079174
|  7> H     0.000000     0.919976    1.976204
|  8> H     0.000000    -0.919976    1.976204
|  9> O     0.000000     1.079169   -0.727837
| 10> O     0.000000    -1.079169   -0.727837
| 11> C     0.000000     2.361498   -0.117979
| 12> C     0.000000    -2.361498   -0.117979
| 13> H     0.000000     3.078298   -0.933962
| 14> H     0.000000    -3.078298   -0.933962
| 15> H    -0.891567     2.503674    0.496436
| 16> H     0.891567     2.503674    0.496436
| 17> H     0.891567    -2.503674    0.496436
| 18> H    -0.891567    -2.503674    0.496436
| 19> *
| 20>
| 21>                          ****END OF INPUT****

CARTESIAN COORDINATES (ANGSTROEM)
---------------------------------
  C      0.000000    0.000000    1.419313
  C      0.000000    0.000000    0.079174
  H      0.000000    0.919976    1.976204
  H      0.000000   -0.919976    1.976204
  O      0.000000    1.079169   -0.727837
  O      0.000000   -1.079169   -0.727837
  C      0.000000    2.361498   -0.117979
  C      0.000000   -2.361498   -0.117979
  H      0.000000    3.078298   -0.933962
  H      0.000000   -3.078298   -0.933962
  H     -0.891567    2.503674    0.496436
  H      0.891567    2.503674    0.496436
  H      0.891567   -2.503674    0.496436
  H     -0.891567   -2.503674    0.496436

 Total Charge           Charge          ....    0
 Multiplicity           Mult            ....    1
 Number of Electrons    NEL             ....   48
 Basis Dimension        Dim             ....  210

ORBITAL ENERGIES
----------------

  NO   OCC          E(Eh)            E(eV)
   0   2.0000     -20.598814      -560.5222
   1   2.0000     -20.598795      -560.5217
   2   2.0000     -11.363872      -309.2267
   3   2.0000     -11.291418      -307.2551
   4   2.0000     -11.291416      -307.2551
   5   2.0000     -11.205411      -304.9147
   6   2.0000      -1.460951       -39.7545
   7   2.0000      -1.382803       -37.6280
   8   2.0000      -1.029129       -28.0040
   9   2.0000      -0.979970       -26.6663
  10   2.0000      -0.933049       -25.3895
  11   2.0000      -0.768210       -20.9041
  12   2.0000      -0.724178       -19.7059
  13   2.0000      -0.682775       -18.5793
  14   2.0000      -0.678951       -18.4752
  15   2.0000      -0.635536       -17.2938
  16   2.0000      -0.612456       -16.6658
  17   2.0000      -0.591244       -16.0886
  18   2.0000      -0.550981       -14.9929
  19   2.0000      -0.528393       -14.3783
  20   2.0000      -0.522014       -14.2047
  21   2.0000      -0.502867       -13.6837
  22   2.0000      -0.460591       -12.5333
  23   2.0000      -0.330502        -8.9934
  24   0.0000       0.035806         0.9743
  25   0.0000       0.042137         1.1466
  26   0.0000       0.049023         1.3340
  27   0.0000       0.055900         1.5211
  28   0.0000       0.062944         1.7128

MULLIKEN ATOMIC CHARGES
-----------------------
   0 C :    0.661039
   1 C :    1.277504
   2 H :   -0.422073
   3 H :   -0.422073
   4 O :   -0.920938
   5 O :   -0.920938
   6 C :    0.796291
   7 C :    0.796291
   8 H :   -0.322988
   9 H :   -0.322988
  10 H :   -0.049782
  11 H :   -0.049782
  12 H :   -0.049782
  13 H :   -0.049782
Sum of atomic charges:    0.0000000

LOEWDIN ATOMIC CHARGES
----------------------
   0 C :    0.166876
   1 C :   -0.332174
   2 H :   -0.068657
   3 H :   -0.068657
   4 O :    0.047840
   5 O :    0.047840
   6 C :    0.159590
   7 C :    0.159590
   8 H :   -0.023434
   9 H :   -0.023434
  10 H :   -0.016345
  11 H :   -0.016345
  12 H :   -0.016345
  13 H :   -0.016345

  Mayer bond orders larger than 0.100000
B(  0-C ,  1-C ) :   1.7787 B(  0-C ,  2-H ) :   0.7721 B(  0-C ,  3-H ) :   0.7721
B(  1-C ,  4-O ) :   0.5242 B(  1-C ,  5-O ) :   0.5242 B(  2-H ,  3-H ) :  -0.2120
B(  4-O ,  5-O ) :  -0.1483 B(  4-O ,  6-C ) :   0.7160 B(  5-O ,  7-C ) :   0.7160
B(  6-C ,  8-H ) :   1.0336 B(  6-C , 10-H ) :   0.9555 B(  6-C , 11-H ) :   0.9555
B(  7-C ,  9-H ) :   1.0336 B(  7-C , 12-H ) :   0.9555 B(  7-C , 13-H ) :   0.9555
B(  8-H , 10-H ) :  -0.1025 B(  8-H , 11-H ) :  -0.1025 B(  9-H , 12-H ) :  -0.1025
B(  9-H , 13-H ) :  -0.1025

MP2 TOTAL ENERGY:     -306.815485408 Eh
FINAL SINGLE POINT ENERGY      -306.815485407777

DIPOLE MOMENT
-------------
                                X             Y             Z
Electronic contribution:     -0.00000       0.00000      -3.60895
Nuclear contribution   :      0.00000       0.00000       4.14106
                        -----------------------------------------
Total Dipole Moment    :     -0.00000       0.00000       0.53211
                        -----------------------------------------
Magnitude (a.u.)       :      0.53211
Magnitude (Debye)      :      1.35252

Rotational constants in cm-1:     0.305376     0.076446     0.062596
Rotational constants in MHz :  9154.948930  2291.796657  1876.574425

                             ****ORCA TERMINATED NORMALLY****
TOTAL RUN TIME: 0 days 0 hours 0 minutes 35 seconds 383 msec
