                         Program Version 5.0.3 -  RELEASE  -
|  1> !ri-mp2 aug-cc-pvdz aug-cc-pvdz/c tightscf
|  2> %pal nprocs 16 end
|  3> %maxcore 3800
|  4>
|  5> * xyz 0 1
|  6> C     -1.970214    0.143052    0.172978
|  7> C     -1.480744   -1.307690    0.157221
|  8> C     -1.121757    1.024428   -0.749887
|  9> C      0.015884   -1.401750    0.468056
| 10> C      0.383838    0.959334   -0.431292
| 11> C      0.859319   -0.515324   -0.460979
| 12> C      0.725765    1.702133    0.867397
| 13> C      2.355971   -0.676582   -0.191592
| 14> H     -3.018288    0.190873   -0.131201
| 15> H     -1.932318    0.529274    1.195719
| 16> H     -2.052364   -1.909311    0.867681
| 17> H     -1.667570   -1.737320   -0.832885
| 18> H     -1.274482    0.696175   -1.783249
| 19> H     -1.464303    2.061271   -0.701898
| 20> H      0.192158   -1.114610    1.509552
| 21> H      0.350636   -2.438687    0.380000
| 22> H      0.910384    1.478545   -1.239286
| 23> H      0.676087   -0.866606   -1.483879
| 24> H      0.286020    1.232479    1.747768
| 25> H      1.802459    1.755395    1.027304
| 26> H      0.352228    2.726827    0.824022
| 27> H      2.609678   -0.437246    0.842406
| 28> H      2.671869   -1.705362   -0.374491
| 29> H      2.949430   -0.027309   -0.838979
| 30> *
| 31>
| 32>                          ****END OF INPUT****

CARTESIAN COORDINATES (ANGSTROEM)
---------------------------------
  C     -1.970214    0.143052    0.172978
  C     -1.480744   -1.307690    0.157221
  C     -1.121757    1.024428   -0.749887
  C      0.015884   -1.401750    0.468056
  C      0.383838    0.959334   -0.431292
  C      0.859319   -0.515324   -0.460979
  C      0.725765    1.702133    0.867397
  C      2.355971   -0.676582   -0.191592
  H     -3.018288    0.190873   -0.131201
  H     -1.932318    0.529274    1.195719
  H     -2.052364   -1.909311    0.867681
  H     -1.667570   -1.737320   -0.832885
  H     -1.274482    0.696175   -1.783249
  H     -1.464303    2.061271   -0.701898
  H      0.192158   -1.114610    1.509552
  H      0.350636   -2.438687    0.380000
  H      0.910384    1.478545   -1.239286
  H      0.676087   -0.866606   -1.483879
  H      0.286020    1.232479    1.747768
  H      1.802459    1.755395    1.027304
  H      0.352228    2.726827    0.824022
  H      2.609678   -0.437246    0.842406
  H      2.671869   -1.705362   -0.374491
  H      2.949430   -0.027309   -0.838979

 Total Charge           Charge          ....    0
 Multiplicity           Mult            ....    1
 Number of Electrons    NEL             ....   64
 Basis Dimension        Dim             ....  328

ORBITAL ENERGIES
----------------

  NO   OCC          E(Eh)            E(eV)
   0   2.0000     -11.222795      -305.3878
   1   2.0000     -11.222009      -305.3664
   2   2.0000     -11.216723      -305.2225
   3   2.0000     -11.216022      -305.2035
   4   2.0000     -11.215201      -305.1811
   5   2.0000     -11.214705      -305.1676
   6   2.0000     -11.212568      -305.1095
   7   2.0000     -11.211647      -305.0844
   8   2.0000      -1.123038       -30.5594
   9   2.0000      -1.030882       -28.0517
  10   2.0000      -1.018996       -27.7283
  11   2.0000      -0.940295       -25.5867
  12   2.0000      -0.897314       -24.4172
  13   2.0000      -0.816409       -22.2156
  14   2.0000      -0.796840       -21.6831
  15   2.0000      -0.720275       -19.5997
  16   2.0000      -0.646638       -17.5959
  17   2.0000      -0.619222       -16.8499
  18   2.0000      -0.601587       -16.3700
  19   2.0000      -0.590362       -16.0646
  20   2.0000      -0.564909       -15.3720
  21   2.0000      -0.552988       -15.0476
  22   2.0000      -0.536650       -14.6030
  23   2.0000      -0.524884       -14.2828
  24   2.0000      -0.509217       -13.8565
  25   2.0000      -0.493900       -13.4397
  26   2.0000      -0.477865       -13.0034
  27   2.0000      -0.471498       -12.8301
  28   2.0000      -0.459603       -12.5064
  29   2.0000      -0.435289       -11.8448
  30   2.0000      -0.417083       -11.3494
  31   2.0000      -0.413243       -11.2449
  32   0.0000       0.036800         1.0014
  33   0.0000       0.042280         1.1505
  34   0.0000       0.043175         1.1748
  35   0.0000       0.045028         1.2253
  36   0.0000       0.058881         1.6022

MULLIKEN ATOMIC CHARGES
-----------------------
   0 C :    0.319690
   1 C :    0.456663
   2 C :    0.649647
   3 C :    0.587077
   4 C :   -0.784616
   5 C :   -0.755426
   6 C :    0.823141
   7 C :    0.880639
   8 H :   -0.135230
   9 H :   -0.138022
  10 H :   -0.150252
  11 H :   -0.129529
  12 H :   -0.138862
  13 H :   -0.189171
  14 H :   -0.111705
  15 H :   -0.199078
  16 H :   -0.261600
  17 H :   -0.245203
  18 H :   -0.098210
  19 H :   -0.097131
  20 H :   -0.084387
  21 H :   -0.040771
  22 H :   -0.095331
  23 H :   -0.062333
Sum of atomic charges:   -0.0000000

LOEWDIN ATOMIC CHARGES
----------------------
   0 C :   -0.020401
   1 C :   -0.018683
   2 C :    0.003079
   3 C :    0.000874
   4 C :   -0.204485
   5 C :   -0.215084
   6 C :    0.167304
   7 C :    0.162936
   8 H :    0.014581
   9 H :    0.012464
  10 H :    0.014038
  11 H :    0.018143
  12 H :    0.020955
  13 H :    0.016195
  14 H :    0.017264
  15 H :    0.018907
  16 H :    0.040622
  17 H :    0.043840
  18 H :   -0.020126
  19 H :   -0.019881
  20 H :   -0.011360
  21 H :   -0.016931
  22 H :   -0.014171
  23 H :   -0.010080

  Mayer bond orders larger than 0.100000
B(  0-C ,  1-C ) :   1.2712 B(  0-C ,  2-C ) :   1.2317 B(  0-C ,  4-C ) :  -0.1183
B(  0-C ,  8-H ) :   0.7599 B(  0-C ,  9-H ) :   0.7832 B(  1-C ,  3-C ) :   1.2443
B(  1-C , 10-H ) :   0.7339 B(  1-C , 11-H ) :   0.7263 B(  2-C ,  4-C ) :   1.1610
B(  2-C , 12-H ) :   0.6775 B(  2-C , 13-H ) :   0.7296 B(  3-C ,  5-C ) :   1.2528
B(  3-C ,  7-C ) :  -0.2291 B(  3-C , 10-H ) :   0.1001 B(  3-C , 14-H ) :   0.7039
B(  3-C , 15-H ) :   0.6536 B(  4-C ,  5-C ) :   0.9957 B(  4-C ,  6-C ) :   1.4720
B(  4-C ,  7-C ) :  -0.1018 B(  4-C ,  9-H ) :   0.1204 B(  4-C , 12-H ) :   0.1700
B(  4-C , 14-H ) :   0.1427 B(  4-C , 16-H ) :   0.4544 B(  4-C , 17-H ) :   0.2529
B(  4-C , 18-H ) :   0.3641 B(  4-C , 19-H ) :   0.1515 B(  5-C ,  6-C ) :  -0.1041
B(  5-C ,  7-C ) :   1.3679 B(  5-C , 15-H ) :   0.1522 B(  5-C , 16-H ) :   0.2300
B(  5-C , 17-H ) :   0.4089 B(  5-C , 21-H ) :   0.1498 B(  5-C , 22-H ) :   0.1871
B(  5-C , 23-H ) :   0.1620 B(  6-C , 18-H ) :   0.7983 B(  6-C , 19-H ) :   0.8041
B(  6-C , 20-H ) :   0.7826 B(  7-C , 21-H ) :   0.8892 B(  7-C , 22-H ) :   0.7396
B(  7-C , 23-H ) :   0.7655 B(  8-H ,  9-H ) :  -0.1576 B( 10-H , 11-H ) :  -0.1614
B( 12-H , 13-H ) :  -0.1859 B( 14-H , 15-H ) :  -0.1781 B( 19-H , 20-H ) :  -0.1026
B( 22-H , 23-H ) :  -0.1078

MP2 TOTAL ENERGY:     -313.500848629 Eh
FINAL SINGLE POINT ENERGY      -313.500848629219

DIPOLE MOMENT
-------------
                                X             Y             Z
Electronic contribution:     -1.51092      -0.47037      -1.12264
Nuclear contribution   :      1.49060       0.46528       1.08031
                        -----------------------------------------
Total Dipole Moment    :     -0.02033      -0.00508      -0.04232
                        -----------------------------------------
Magnitude (a.u.)       :      0.04723
Magnitude (Debye)      :      0.12004

Rotational constants in cm-1:     0.087655     0.063193     0.045308
Rotational constants in MHz :  2627.830699  1894.464601  1358.286892

                             ****ORCA TERMINATED NORMALLY****
TOTAL RUN TIME: 0 days 0 hours 1 minutes 58 seconds 571 msec
