                         Program Version 5.0.3 -  RELEASE  -
|  1> !ri-mp2 aug-cc-pvdz aug-cc-pvdz/c tightscf
|  2> %pal nprocs 16 end
|  3>
|  4> * xyz 0 1
|  5> C      0.361772    0.190165    0.000000
|  6> C     -1.157274    0.243325    0.000000
|  7> F      0.843210    1.450981    0.000000
|  8> F      0.843210   -0.436999    1.084078
|  9> F      0.843210   -0.436999   -1.084078
| 10> F     -1.667677   -1.036067    0.000000
| 11> H     -1.492284    0.765414    0.895748
| 12> H     -1.492284    0.765414   -0.895748
| 13> *
| 14>
| 15>                          ****END OF INPUT****

CARTESIAN COORDINATES (ANGSTROEM)
---------------------------------
  C      0.361772    0.190165    0.000000
  C     -1.157274    0.243325    0.000000
  F      0.843210    1.450981    0.000000
  F      0.843210   -0.436999    1.084078
  F      0.843210   -0.436999   -1.084078
  F     -1.667677   -1.036067    0.000000
  H     -1.492284    0.765414    0.895748
  H     -1.492284    0.765414   -0.895748

 Total Charge           Charge          ....    0
 Multiplicity           Mult            ....    1
 Number of Electrons    NEL             ....   50
 Basis Dimension        Dim             ....  156

ORBITAL ENERGIES
----------------

  NO   OCC          E(Eh)            E(eV)
   0   2.0000     -26.367532      -717.4970
   1   2.0000     -26.363455      -717.3861
   2   2.0000     -26.363433      -717.3855
   3   2.0000     -26.332292      -716.5381
   4   2.0000     -11.532595      -313.8179
   5   2.0000     -11.367297      -309.3199
   6   2.0000      -1.746759       -47.5317
   7   2.0000      -1.653679       -44.9989
   8   2.0000      -1.651118       -44.9292
   9   2.0000      -1.635022       -44.4912
  10   2.0000      -1.079556       -29.3762
  11   2.0000      -0.941863       -25.6294
  12   2.0000      -0.840518       -22.8717
  13   2.0000      -0.839845       -22.8533
  14   2.0000      -0.818291       -22.2668
  15   2.0000      -0.746781       -20.3209
  16   2.0000      -0.735823       -20.0227
  17   2.0000      -0.712128       -19.3780
  18   2.0000      -0.710935       -19.3455
  19   2.0000      -0.680172       -18.5084
  20   2.0000      -0.673931       -18.3386
  21   2.0000      -0.673304       -18.3215
  22   2.0000      -0.660817       -17.9818
  23   2.0000      -0.573695       -15.6110
  24   2.0000      -0.560690       -15.2571
  25   0.0000       0.033223         0.9040
  26   0.0000       0.050165         1.3651
  27   0.0000       0.077085         2.0976
  28   0.0000       0.087170         2.3720
  29   0.0000       0.114389         3.1127

MULLIKEN ATOMIC CHARGES
-----------------------
   0 C :    1.827688
   1 C :    0.702481
   2 F :   -0.616302
   3 F :   -0.607965
   4 F :   -0.607965
   5 F :   -0.583164
   6 H :   -0.057386
   7 H :   -0.057386
Sum of atomic charges:    0.0000000

LOEWDIN ATOMIC CHARGES
----------------------
   0 C :   -0.373583
   1 C :    0.061797
   2 F :    0.078815
   3 F :    0.088041
   4 F :    0.088041
   5 F :    0.019974
   6 H :    0.018457
   7 H :    0.018457

  Mayer bond orders larger than 0.100000
B(  0-C ,  1-C ) :   1.2335 B(  0-C ,  2-F ) :   0.3298 B(  0-C ,  3-F ) :   0.3288
B(  0-C ,  4-F ) :   0.3288 B(  1-C ,  2-F ) :   0.1092 B(  1-C ,  3-F ) :   0.1016
B(  1-C ,  4-F ) :   0.1016 B(  1-C ,  5-F ) :   0.3989 B(  1-C ,  6-H ) :   0.9383
B(  1-C ,  7-H ) :   0.9383

MP2 TOTAL ENERGY:     -475.806042531 Eh
FINAL SINGLE POINT ENERGY      -475.806042530990

DIPOLE MOMENT
-------------
                                X             Y             Z
Electronic contribution:      2.93366      -1.12972       0.00000
Nuclear contribution   :     -3.53031       1.82618       0.00000
                        -----------------------------------------
Total Dipole Moment    :     -0.59665       0.69646       0.00000
                        -----------------------------------------
Magnitude (a.u.)       :      0.91709
Magnitude (Debye)      :      2.33106

Rotational constants in cm-1:     0.176958     0.092331     0.090975
Rotational constants in MHz :  5305.074646  2768.009438  2727.369487

                             ****ORCA TERMINATED NORMALLY****
TOTAL RUN TIME: 0 days 0 hours 0 minutes 28 seconds 98 msec
