                         Program Version 5.0.3 -  RELEASE  -
|  1> !ri-mp2 aug-cc-pvdz aug-cc-pvdz/c tightscf
|  2> %pal nprocs 16 end
|  3>
|  4> * xyz 0 1
|  5> C      0.743618   -1.988841        0.000000
|  6> N     -0.536382   -1.791562        0.000000
|  7> C     -0.865081   -0.470779        0.000000
|  8> C      0.000000    0.626262        0.000000
|  9> C     -0.849694    1.757502        0.000000
| 10> N     -2.119175    1.395232        0.000000
| 11> N     -2.113501    0.036902        0.000000
| 12> N      1.682928   -1.003258        0.000000
| 13> C      1.418760    0.396955        0.000000
| 14> H      1.125544   -3.002395        0.000000
| 15> O      2.336731    1.192002        0.000000
| 16> H     -0.582351    2.800421        0.000000
| 17> H      2.661588   -1.251117        0.000000
| 18> H     -2.981334   -0.470717        0.000000
| 19> *
| 20>
| 21>                          ****END OF INPUT****

CARTESIAN COORDINATES (ANGSTROEM)
---------------------------------
  C      0.743618   -1.988841    0.000000
  N     -0.536382   -1.791562    0.000000
  C     -0.865081   -0.470779    0.000000
  C      0.000000    0.626262    0.000000
  C     -0.849694    1.757502    0.000000
  N     -2.119175    1.395232    0.000000
  N     -2.113501    0.036902    0.000000
  N      1.682928   -1.003258    0.000000
  C      1.418760    0.396955    0.000000
  H      1.125544   -3.002395    0.000000
  O      2.336731    1.192002    0.000000
  H     -0.582351    2.800421    0.000000
  H      2.661588   -1.251117    0.000000
  H     -2.981334   -0.470717    0.000000

 Total Charge           Charge          ....    0
 Multiplicity           Mult            ....    1
 Number of Electrons    NEL             ....   70
 Basis Dimension        Dim             ....  266

ORBITAL ENERGIES
----------------

  NO   OCC          E(Eh)            E(eV)
   0   2.0000     -20.549327      -559.1756
   1   2.0000     -15.658011      -426.0761
   2   2.0000     -15.650714      -425.8776
   3   2.0000     -15.614999      -424.9057
   4   2.0000     -15.598769      -424.4641
   5   2.0000     -11.389503      -309.9241
   6   2.0000     -11.378467      -309.6238
   7   2.0000     -11.343990      -308.6857
   8   2.0000     -11.285969      -307.1068
   9   2.0000     -11.246934      -306.0446
  10   2.0000      -1.416006       -38.5315
  11   2.0000      -1.398686       -38.0602
  12   2.0000      -1.335573       -36.3428
  13   2.0000      -1.234049       -33.5802
  14   2.0000      -1.122174       -30.5359
  15   2.0000      -1.091503       -29.7013
  16   2.0000      -0.930876       -25.3304
  17   2.0000      -0.914414       -24.8825
  18   2.0000      -0.839990       -22.8573
  19   2.0000      -0.795183       -21.6380
  20   2.0000      -0.757805       -20.6209
  21   2.0000      -0.727049       -19.7840
  22   2.0000      -0.675767       -18.3885
  23   2.0000      -0.660754       -17.9800
  24   2.0000      -0.634652       -17.2698
  25   2.0000      -0.627357       -17.0712
  26   2.0000      -0.614159       -16.7121
  27   2.0000      -0.603905       -16.4331
  28   2.0000      -0.537136       -14.6162
  29   2.0000      -0.488898       -13.3036
  30   2.0000      -0.466960       -12.7066
  31   2.0000      -0.450157       -12.2494
  32   2.0000      -0.444194       -12.0871
  33   2.0000      -0.388821       -10.5804
  34   2.0000      -0.338737        -9.2175
  35   0.0000       0.022467         0.6114
  36   0.0000       0.039931         1.0866
  37   0.0000       0.047882         1.3029
  38   0.0000       0.055403         1.5076
  39   0.0000       0.065300         1.7769

MULLIKEN ATOMIC CHARGES
-----------------------
   0 C :    0.880932
   1 N :   -0.634728
   2 C :    0.420157
   3 C :    0.334899
   4 C :    1.115920
   5 N :   -0.808029
   6 N :   -0.360040
   7 N :   -0.597588
   8 C :    1.091440
   9 H :   -0.231703
  10 O :   -0.869628
  11 H :   -0.307841
  12 H :   -0.024697
  13 H :   -0.009096
Sum of atomic charges:   -0.0000000

LOEWDIN ATOMIC CHARGES
----------------------
   0 C :    0.015538
   1 N :    0.081070
   2 C :   -0.191107
   3 C :   -0.091412
   4 C :    0.035224
   5 N :    0.049273
   6 N :    0.080516
   7 N :    0.158493
   8 C :   -0.278184
   9 H :    0.029724
  10 O :    0.029190
  11 H :    0.010433
  12 H :    0.034874
  13 H :    0.036369

  Mayer bond orders larger than 0.100000
B(  0-C ,  1-N ) :   1.6577 B(  0-C ,  7-N ) :   0.9450 B(  0-C ,  8-C ) :  -0.1099
B(  0-C ,  9-H ) :   1.0057 B(  0-C , 12-H ) :  -0.1378 B(  1-N ,  2-C ) :   0.9133
B(  1-N ,  6-N ) :  -0.1180 B(  2-C ,  3-C ) :   1.0751 B(  2-C ,  4-C ) :  -0.2143
B(  2-C ,  5-N ) :  -0.1904 B(  2-C ,  6-N ) :   0.9292 B(  2-C ,  8-C ) :   0.1140
B(  2-C , 11-H ) :   0.1191 B(  3-C ,  4-C ) :   1.2500 B(  3-C ,  5-N ) :   0.2990
B(  3-C ,  7-N ) :   0.1005 B(  3-C ,  8-C ) :   0.5979 B(  3-C , 11-H ) :   0.2874
B(  4-C ,  5-N ) :   1.3816 B(  4-C ,  6-N ) :  -0.2772 B(  4-C ,  8-C ) :  -0.2148
B(  4-C , 11-H ) :   0.3538 B(  5-N ,  6-N ) :   1.2147 B(  5-N , 11-H ) :   0.1220
B(  5-N , 13-H ) :  -0.1073 B(  6-N , 13-H ) :   1.1406 B(  7-N ,  8-C ) :   0.6338
B(  7-N , 12-H ) :   1.1742 B(  8-C , 10-O ) :   1.1696

MP2 TOTAL ENERGY:     -485.923539674 Eh
FINAL SINGLE POINT ENERGY      -485.923539673673

DIPOLE MOMENT
-------------
                                X             Y             Z
Electronic contribution:     -0.13092       0.15513       0.00000
Nuclear contribution   :      0.23390      -1.84768       0.00000
                        -----------------------------------------
Total Dipole Moment    :      0.10298      -1.69255       0.00000
                        -----------------------------------------
Magnitude (a.u.)       :      1.69568
Magnitude (Debye)      :      4.31008

Rotational constants in cm-1:     0.080926     0.050151     0.030963
Rotational constants in MHz :  2426.102444  1503.495006   928.245948

                             ****ORCA TERMINATED NORMALLY****
TOTAL RUN TIME: 0 days 0 hours 1 minutes 10 seconds 735 msec
