                         Program Version 5.0.3 -  RELEASE  -
|  1> !ri-mp2 aug-cc-pvdz aug-cc-pvdz/c tightscf
|  2> %pal nprocs 16 end
|  3>
|  4> * xyz 0 1
|  5> C     -1.663197    0.594398    0.145760
|  6> C     -1.313787   -0.870942    0.411302
|  7> C     -0.347274    1.331041   -0.152189
|  8> N     -0.238792   -1.138186   -0.555395
|  9> O      1.706481   -0.033622    0.889358
| 10> S      0.987654    0.059920   -0.421492
| 11> H     -2.320976    0.654479   -0.720214
| 12> H     -2.180873    1.039574    0.994418
| 13> H     -0.990263   -1.021403    1.445604
| 14> H     -2.153940   -1.534637    0.209646
| 15> H     -0.400187    1.966309   -1.033577
| 16> H      0.034328    1.907959    0.686849
| 17> H      0.174693   -2.061706   -0.495193
| 18> *
| 19>
| 20>                          ****END OF INPUT****

CARTESIAN COORDINATES (ANGSTROEM)
---------------------------------
  C     -1.663197    0.594398    0.145760
  C     -1.313787   -0.870942    0.411302
  C     -0.347274    1.331041   -0.152189
  N     -0.238792   -1.138186   -0.555395
  O      1.706481   -0.033622    0.889358
  S      0.987654    0.059920   -0.421492
  H     -2.320976    0.654479   -0.720214
  H     -2.180873    1.039574    0.994418
  H     -0.990263   -1.021403    1.445604
  H     -2.153940   -1.534637    0.209646
  H     -0.400187    1.966309   -1.033577
  H      0.034328    1.907959    0.686849
  H      0.174693   -2.061706   -0.495193

 Total Charge           Charge          ....    0
 Multiplicity           Mult            ....    1
 Number of Electrons    NEL             ....   56
 Basis Dimension        Dim             ....  205

ORBITAL ENERGIES
----------------

  NO   OCC          E(Eh)            E(eV)
   0   2.0000     -92.097403     -2506.0977
   1   2.0000     -20.517768      -558.3169
   2   2.0000     -15.595064      -424.3633
   3   2.0000     -11.279537      -306.9318
   4   2.0000     -11.272995      -306.7538
   5   2.0000     -11.255127      -306.2676
   6   2.0000      -9.082184      -247.1388
   7   2.0000      -6.764515      -184.0718
   8   2.0000      -6.763408      -184.0417
   9   2.0000      -6.761464      -183.9888
  10   2.0000      -1.352973       -36.8163
  11   2.0000      -1.230036       -33.4710
  12   2.0000      -1.063311       -28.9342
  13   2.0000      -0.991661       -26.9845
  14   2.0000      -0.833262       -22.6742
  15   2.0000      -0.821111       -22.3436
  16   2.0000      -0.703246       -19.1363
  17   2.0000      -0.679052       -18.4779
  18   2.0000      -0.621918       -16.9233
  19   2.0000      -0.590815       -16.0769
  20   2.0000      -0.563506       -15.3338
  21   2.0000      -0.556412       -15.1407
  22   2.0000      -0.546318       -14.8661
  23   2.0000      -0.515196       -14.0192
  24   2.0000      -0.499710       -13.5978
  25   2.0000      -0.446682       -12.1548
  26   2.0000      -0.401002       -10.9118
  27   2.0000      -0.372977       -10.1492
  28   0.0000       0.031224         0.8496
  29   0.0000       0.042368         1.1529
  30   0.0000       0.046374         1.2619
  31   0.0000       0.051795         1.4094
  32   0.0000       0.065061         1.7704

MULLIKEN ATOMIC CHARGES
-----------------------
   0 C :    0.198914
   1 C :    0.760350
   2 C :   -0.004724
   3 N :   -0.798409
   4 O :   -1.161192
   5 S :    1.688688
   6 H :   -0.124394
   7 H :   -0.090608
   8 H :   -0.171440
   9 H :   -0.159928
  10 H :   -0.029987
  11 H :   -0.048473
  12 H :   -0.058797
Sum of atomic charges:    0.0000000

LOEWDIN ATOMIC CHARGES
----------------------
   0 C :   -0.052181
   1 C :   -0.075481
   2 C :   -0.120008
   3 N :   -0.184468
   4 O :   -0.564818
   5 S :    1.049779
   6 H :    0.011412
   7 H :    0.014423
   8 H :    0.010433
   9 H :    0.011370
  10 H :   -0.026918
  11 H :   -0.020759
  12 H :   -0.052783

  Mayer bond orders larger than 0.100000
B(  0-C ,  1-C ) :   1.2274 B(  0-C ,  2-C ) :   1.2997 B(  0-C ,  3-N ) :  -0.1244
B(  0-C ,  6-H ) :   0.8079 B(  0-C ,  7-H ) :   0.8301 B(  1-C ,  3-N ) :   0.8963
B(  1-C ,  8-H ) :   0.8184 B(  1-C ,  9-H ) :   0.8712 B(  2-C ,  5-S ) :   0.9902
B(  2-C , 10-H ) :   0.8807 B(  2-C , 11-H ) :   0.8483 B(  3-N ,  4-O ) :   0.1283
B(  3-N ,  5-S ) :   0.6595 B(  3-N , 12-H ) :   1.1411 B(  4-O ,  5-S ) :   0.8830
B(  6-H ,  7-H ) :  -0.1096 B(  8-H ,  9-H ) :  -0.1183

MP2 TOTAL ENERGY:     -645.456566314 Eh
FINAL SINGLE POINT ENERGY      -645.456566314280

DIPOLE MOMENT
-------------
                                X             Y             Z
Electronic contribution:      6.35988      -0.86074      -1.63439
Nuclear contribution   :     -7.84347       0.94167       1.11148
                        -----------------------------------------
Total Dipole Moment    :     -1.48359       0.08092      -0.52292
                        -----------------------------------------
Magnitude (a.u.)       :      1.57513
Magnitude (Debye)      :      4.00366

Rotational constants in cm-1:     0.167978     0.093523     0.076859
Rotational constants in MHz :  5035.858093  2803.756584  2304.179496

                             ****ORCA TERMINATED NORMALLY****
TOTAL RUN TIME: 0 days 0 hours 0 minutes 42 seconds 479 msec
