                         Program Version 5.0.3 -  RELEASE  -
|  1> !ri-mp2 aug-cc-pvdz aug-cc-pvdz/c tightscf
|  2> %pal nprocs 16 end
|  3>
|  4> * xyz 0 1
|  5> H      0.649149    1.161865   -2.677287
|  6> H     -0.649149   -1.161865   -2.677287
|  7> S      0.000000    0.000000    2.320077
|  8> C      0.000000    0.000000    0.684261
|  9> S     -0.642955   -1.323450   -0.281165
| 10> S      0.642955    1.323450   -0.281165
| 11> H      1.004355   -1.158971   -2.032629
| 12> C      0.000000   -0.759876   -1.900808
| 13> H     -1.004355    1.158971   -2.032629
| 14> C      0.000000    0.759876   -1.900808
| 15> *
| 16>
| 17>                          ****END OF INPUT****

CARTESIAN COORDINATES (ANGSTROEM)
---------------------------------
  H      0.649149    1.161865   -2.677287
  H     -0.649149   -1.161865   -2.677287
  S      0.000000    0.000000    2.320077
  C      0.000000    0.000000    0.684261
  S     -0.642955   -1.323450   -0.281165
  S      0.642955    1.323450   -0.281165
  H      1.004355   -1.158971   -2.032629
  C      0.000000   -0.759876   -1.900808
  H     -1.004355    1.158971   -2.032629
  C      0.000000    0.759876   -1.900808

 Total Charge           Charge          ....    0
 Multiplicity           Mult            ....    1
 Number of Electrons    NEL             ....   70
 Basis Dimension        Dim             ....  186

ORBITAL ENERGIES
----------------

  NO   OCC          E(Eh)            E(eV)
   0   2.0000     -91.999005     -2503.4202
   1   2.0000     -91.999004     -2503.4202
   2   2.0000     -91.933714     -2501.6435
   3   2.0000     -11.380623      -309.6825
   4   2.0000     -11.305603      -307.6411
   5   2.0000     -11.304985      -307.6243
   6   2.0000      -9.001098      -244.9323
   7   2.0000      -9.001082      -244.9319
   8   2.0000      -8.936933      -243.1863
   9   2.0000      -6.682696      -181.8454
  10   2.0000      -6.682694      -181.8453
  11   2.0000      -6.681273      -181.8067
  12   2.0000      -6.681272      -181.8066
  13   2.0000      -6.679336      -181.7540
  14   2.0000      -6.679334      -181.7539
  15   2.0000      -6.618985      -180.1117
  16   2.0000      -6.616635      -180.0478
  17   2.0000      -6.615009      -180.0035
  18   2.0000      -1.179964       -32.1084
  19   2.0000      -1.069814       -29.1111
  20   2.0000      -1.021201       -27.7883
  21   2.0000      -0.932880       -25.3849
  22   2.0000      -0.843607       -22.9557
  23   2.0000      -0.706860       -19.2346
  24   2.0000      -0.682516       -18.5722
  25   2.0000      -0.641165       -17.4470
  26   2.0000      -0.578896       -15.7526
  27   2.0000      -0.568263       -15.4632
  28   2.0000      -0.523989       -14.2585
  29   2.0000      -0.501569       -13.6484
  30   2.0000      -0.501208       -13.6386
  31   2.0000      -0.453580       -12.3425
  32   2.0000      -0.378451       -10.2982
  33   2.0000      -0.342811        -9.3283
  34   2.0000      -0.335992        -9.1428
  35   0.0000       0.025367         0.6903
  36   0.0000       0.039381         1.0716
  37   0.0000       0.044050         1.1987
  38   0.0000       0.052140         1.4188
  39   0.0000       0.057489         1.5644

MULLIKEN ATOMIC CHARGES
-----------------------
   0 H :   -0.009604
   1 H :   -0.009604
   2 S :    0.127516
   3 C :   -0.710237
   4 S :    0.489296
   5 S :    0.489296
   6 H :   -0.055963
   7 C :   -0.132370
   8 H :   -0.055963
   9 C :   -0.132370
Sum of atomic charges:   -0.0000000

LOEWDIN ATOMIC CHARGES
----------------------
   0 H :   -0.028004
   1 H :   -0.028004
   2 S :    0.465071
   3 C :   -1.386465
   4 S :    0.836338
   5 S :    0.836338
   6 H :   -0.030060
   7 C :   -0.317578
   8 H :   -0.030060
   9 C :   -0.317578

  Mayer bond orders larger than 0.100000
B(  0-H ,  9-C ) :   0.8946 B(  1-H ,  7-C ) :   0.8946 B(  2-S ,  3-C ) :   1.7372
B(  3-C ,  4-S ) :   1.1369 B(  3-C ,  5-S ) :   1.1369 B(  4-S ,  7-C ) :   1.1032
B(  4-S ,  9-C ) :  -0.1022 B(  5-S ,  7-C ) :  -0.1022 B(  5-S ,  9-C ) :   1.1032
B(  6-H ,  7-C ) :   0.9540 B(  7-C ,  9-C ) :   1.3122 B(  8-H ,  9-C ) :   0.9540

MP2 TOTAL ENERGY:    -1309.380805145 Eh
FINAL SINGLE POINT ENERGY     -1309.380805145496

DIPOLE MOMENT
-------------
                                X             Y             Z
Electronic contribution:      0.00000      -0.00000       6.91484
Nuclear contribution   :      0.00000       0.00000      -9.14169
                        -----------------------------------------
Total Dipole Moment    :      0.00000      -0.00000      -2.22685
                        -----------------------------------------
Magnitude (a.u.)       :      2.22685
Magnitude (Debye)      :      5.66020

Rotational constants in cm-1:     0.104708     0.056470     0.037726
Rotational constants in MHz :  3139.057911  1692.917587  1130.998919

                             ****ORCA TERMINATED NORMALLY****
TOTAL RUN TIME: 0 days 0 hours 0 minutes 41 seconds 816 msec
