                         Program Version 5.0.3 -  RELEASE  -
|  1> !ri-mp2 aug-cc-pvdz aug-cc-pvdz/c tightscf
|  2> %pal nprocs 16 end
|  3> %maxcore 3800
|  4>
|  5> * xyz 0 1
|  6> C      1.195758   -1.298145   -0.004519
|  7> C     -0.164078   -1.590289   -0.001142
|  8> C      0.666857    1.027078   -0.003574
|  9> C      1.634761    0.020991   -0.004468
| 10> C     -1.127279   -0.586152    0.001431
| 11> C     -0.698001    0.753544   -0.000391
| 12> C      3.101945    0.363537    0.005491
| 13> C     -2.592222   -0.934876    0.003747
| 14> C     -1.694071    1.883282   -0.000809
| 15> H      1.916869   -2.105981   -0.008032
| 16> H     -0.483106   -2.625508   -0.001941
| 17> H      0.988228    2.062856   -0.006517
| 18> H      3.350936    1.071949   -0.786662
| 19> H      3.394831    0.823552    0.952224
| 20> H      3.716693   -0.524973   -0.134151
| 21> H     -3.103136   -0.529106    0.880359
| 22> H     -3.105416   -0.531909   -0.872848
| 23> H     -2.735435   -2.014351    0.005643
| 24> H     -1.191305    2.849145   -0.002610
| 25> H     -2.346579    1.844113   -0.876396
| 26> H     -2.344609    1.846392    0.876330
| 27> *
| 28>
| 29>                          ****END OF INPUT****

CARTESIAN COORDINATES (ANGSTROEM)
---------------------------------
  C      1.195758   -1.298145   -0.004519
  C     -0.164078   -1.590289   -0.001142
  C      0.666857    1.027078   -0.003574
  C      1.634761    0.020991   -0.004468
  C     -1.127279   -0.586152    0.001431
  C     -0.698001    0.753544   -0.000391
  C      3.101945    0.363537    0.005491
  C     -2.592222   -0.934876    0.003747
  C     -1.694071    1.883282   -0.000809
  H      1.916869   -2.105981   -0.008032
  H     -0.483106   -2.625508   -0.001941
  H      0.988228    2.062856   -0.006517
  H      3.350936    1.071949   -0.786662
  H      3.394831    0.823552    0.952224
  H      3.716693   -0.524973   -0.134151
  H     -3.103136   -0.529106    0.880359
  H     -3.105416   -0.531909   -0.872848
  H     -2.735435   -2.014351    0.005643
  H     -1.191305    2.849145   -0.002610
  H     -2.346579    1.844113   -0.876396
  H     -2.344609    1.846392    0.876330

 Total Charge           Charge          ....    0
 Multiplicity           Mult            ....    1
 Number of Electrons    NEL             ....   66
 Basis Dimension        Dim             ....  315

ORBITAL ENERGIES
----------------

  NO   OCC          E(Eh)            E(eV)
   0   2.0000     -11.238325      -305.8104
   1   2.0000     -11.236810      -305.7691
   2   2.0000     -11.233864      -305.6890
   3   2.0000     -11.228539      -305.5441
   4   2.0000     -11.226979      -305.5016
   5   2.0000     -11.225966      -305.4741
   6   2.0000     -11.225718      -305.4673
   7   2.0000     -11.224703      -305.4397
   8   2.0000     -11.224454      -305.4329
   9   2.0000      -1.158011       -31.5111
  10   2.0000      -1.066629       -29.0245
  11   2.0000      -1.033177       -28.1142
  12   2.0000      -0.973233       -26.4830
  13   2.0000      -0.935363       -25.4525
  14   2.0000      -0.889922       -24.2160
  15   2.0000      -0.811502       -22.0821
  16   2.0000      -0.766712       -20.8633
  17   2.0000      -0.658815       -17.9273
  18   2.0000      -0.652951       -17.7677
  19   2.0000      -0.612042       -16.6545
  20   2.0000      -0.590329       -16.0637
  21   2.0000      -0.568032       -15.4569
  22   2.0000      -0.564428       -15.3589
  23   2.0000      -0.555763       -15.1231
  24   2.0000      -0.547993       -14.9116
  25   2.0000      -0.544544       -14.8178
  26   2.0000      -0.536882       -14.6093
  27   2.0000      -0.518047       -14.0968
  28   2.0000      -0.472727       -12.8636
  29   2.0000      -0.471170       -12.8212
  30   2.0000      -0.466491       -12.6939
  31   2.0000      -0.323267        -8.7965
  32   2.0000      -0.307095        -8.3565
  33   0.0000       0.036320         0.9883
  34   0.0000       0.038432         1.0458
  35   0.0000       0.041075         1.1177
  36   0.0000       0.052318         1.4236
  37   0.0000       0.055971         1.5230

MULLIKEN ATOMIC CHARGES
-----------------------
   0 C :    0.364045
   1 C :    0.500243
   2 C :    0.338316
   3 C :   -0.135882
   4 C :   -0.450751
   5 C :   -0.556123
   6 C :    0.464002
   7 C :    0.669743
   8 C :    0.557565
   9 H :   -0.613803
  10 H :   -0.661797
  11 H :   -0.681946
  12 H :    0.058483
  13 H :    0.114455
  14 H :   -0.184629
  15 H :    0.174836
  16 H :    0.173921
  17 H :   -0.261469
  18 H :   -0.263197
  19 H :    0.197735
  20 H :    0.196253
Sum of atomic charges:    0.0000000

LOEWDIN ATOMIC CHARGES
----------------------
   0 C :    0.036699
   1 C :    0.040905
   2 C :    0.070563
   3 C :   -0.218375
   4 C :   -0.180455
   5 C :   -0.173512
   6 C :    0.172575
   7 C :    0.170979
   8 C :    0.174139
   9 H :    0.001217
  10 H :    0.002797
  11 H :    0.008421
  12 H :   -0.011386
  13 H :   -0.008855
  14 H :   -0.017477
  15 H :   -0.009219
  16 H :   -0.009176
  17 H :   -0.017030
  18 H :   -0.016747
  19 H :   -0.008008
  20 H :   -0.008055

  Mayer bond orders larger than 0.100000
B(  0-C ,  1-C ) :   1.9701 B(  0-C ,  2-C ) :  -0.6774 B(  0-C ,  3-C ) :   2.0843
B(  0-C ,  5-C ) :   0.7888 B(  0-C ,  6-C ) :  -0.2426 B(  0-C ,  7-C ) :   0.1785
B(  0-C ,  9-H ) :  -0.4401 B(  0-C , 10-H ) :   0.2633 B(  0-C , 14-H ) :  -0.1050
B(  1-C ,  2-C ) :   0.5689 B(  1-C ,  3-C ) :  -0.3874 B(  1-C ,  4-C ) :   1.7454
B(  1-C ,  5-C ) :  -0.7157 B(  1-C ,  6-C ) :   0.2322 B(  1-C ,  7-C ) :  -0.1703
B(  1-C ,  9-H ) :   0.1614 B(  1-C , 10-H ) :  -0.8057 B(  2-C ,  3-C ) :   0.7961
B(  2-C ,  4-C ) :  -1.3531 B(  2-C ,  5-C ) :   3.0648 B(  2-C ,  6-C ) :  -0.5443
B(  2-C ,  8-C ) :  -0.3608 B(  2-C , 10-H ) :   0.1268 B(  2-C , 11-H ) :  -0.4253
B(  2-C , 12-H ) :  -0.1353 B(  2-C , 13-H ) :  -0.1160 B(  3-C ,  4-C ) :   0.8722
B(  3-C ,  5-C ) :  -0.3073 B(  3-C ,  6-C ) :   1.3777 B(  3-C ,  8-C ) :   0.1994
B(  3-C ,  9-H ) :   0.7587 B(  3-C , 10-H ) :  -0.2792 B(  3-C , 11-H ) :   0.3030
B(  3-C , 12-H ) :   0.2865 B(  3-C , 13-H ) :   0.2149 B(  3-C , 14-H ) :   0.4855
B(  4-C ,  5-C ) :   1.7119 B(  4-C ,  7-C ) :   1.2505 B(  4-C , 10-H ) :   1.1908
B(  4-C , 11-H ) :  -0.1179 B(  4-C , 15-H ) :   0.2071 B(  4-C , 16-H ) :   0.2092
B(  4-C , 17-H ) :   0.5599 B(  5-C ,  8-C ) :   1.2919 B(  5-C , 11-H ) :   0.7151
B(  5-C , 18-H ) :   0.5039 B(  5-C , 19-H ) :   0.1287 B(  5-C , 20-H ) :   0.1365
B(  6-C , 12-H ) :   0.8370 B(  6-C , 13-H ) :   0.9118 B(  6-C , 14-H ) :   0.5443
B(  7-C ,  8-C ) :  -0.1631 B(  7-C , 15-H ) :   0.8425 B(  7-C , 16-H ) :   0.8418
B(  7-C , 17-H ) :   0.4161 B(  7-C , 19-H ) :  -0.1108 B(  7-C , 20-H ) :  -0.1097
B(  8-C , 18-H ) :   0.4203 B(  8-C , 19-H ) :   0.8473 B(  8-C , 20-H ) :   0.8431

MP2 TOTAL ENERGY:     -349.115846703 Eh
FINAL SINGLE POINT ENERGY      -349.115846702946

DIPOLE MOMENT
-------------
                                X             Y             Z
Electronic contribution:      1.90287      -2.11460      -0.02092
Nuclear contribution   :     -2.00274       2.23390       0.02619
                        -----------------------------------------
Total Dipole Moment    :     -0.09987       0.11930       0.00527
                        -----------------------------------------
Magnitude (a.u.)       :      0.15568
Magnitude (Debye)      :      0.39570

Rotational constants in cm-1:     0.098541     0.042927     0.030403
Rotational constants in MHz :  2954.189053  1286.928846   911.473004

                             ****ORCA TERMINATED NORMALLY****
TOTAL RUN TIME: 0 days 0 hours 1 minutes 40 seconds 500 msec
