                         Program Version 5.0.3 -  RELEASE  -
|  1> !ri-mp2 aug-cc-pvdz aug-cc-pvdz/c tightscf
|  2> %pal nprocs 16 end
|  3>
|  4> * xyz 0 1
|  5> N      0.687175   -0.997210        0.000000
|  6> C     -0.670085   -0.896250        0.000000
|  7> H     -1.325913   -1.750118        0.000000
|  8> N     -1.137377    0.337628        0.000000
|  9> N      0.000000    1.069665        0.000000
| 10> H     -0.046582    2.073946        0.000000
| 11> C      1.075604    0.260484        0.000000
| 12> H      2.090800    0.620191        0.000000
| 13> *
| 14>
| 15>                          ****END OF INPUT****

CARTESIAN COORDINATES (ANGSTROEM)
---------------------------------
  N      0.687175   -0.997210    0.000000
  C     -0.670085   -0.896250    0.000000
  H     -1.325913   -1.750118    0.000000
  N     -1.137377    0.337628    0.000000
  N      0.000000    1.069665    0.000000
  H     -0.046582    2.073946    0.000000
  C      1.075604    0.260484    0.000000
  H      2.090800    0.620191    0.000000

 Total Charge           Charge          ....    0
 Multiplicity           Mult            ....    1
 Number of Electrons    NEL             ....   36
 Basis Dimension        Dim             ....  142

ORBITAL ENERGIES
----------------

  NO   OCC          E(Eh)            E(eV)
   0   2.0000     -15.664603      -426.2555
   1   2.0000     -15.608365      -424.7252
   2   2.0000     -15.570840      -423.7041
   3   2.0000     -11.330892      -308.3293
   4   2.0000     -11.297806      -307.4289
   5   2.0000      -1.424232       -38.7553
   6   2.0000      -1.206127       -32.8204
   7   2.0000      -1.123240       -30.5649
   8   2.0000      -0.872176       -23.7331
   9   2.0000      -0.838206       -22.8087
  10   2.0000      -0.775776       -21.1099
  11   2.0000      -0.643931       -17.5223
  12   2.0000      -0.640317       -17.4239
  13   2.0000      -0.598383       -16.2828
  14   2.0000      -0.510508       -13.8916
  15   2.0000      -0.453947       -12.3525
  16   2.0000      -0.421410       -11.4671
  17   2.0000      -0.379008       -10.3133
  18   0.0000       0.026948         0.7333
  19   0.0000       0.047312         1.2874
  20   0.0000       0.049491         1.3467
  21   0.0000       0.085504         2.3267
  22   0.0000       0.097725         2.6592

MULLIKEN ATOMIC CHARGES
-----------------------
   0 N :   -0.728137
   1 C :    0.820548
   2 H :   -0.100952
   3 N :   -0.505983
   4 N :   -0.241238
   5 H :    0.010463
   6 C :    0.835873
   7 H :   -0.090574
Sum of atomic charges:   -0.0000000

LOEWDIN ATOMIC CHARGES
----------------------
   0 N :    0.013574
   1 C :   -0.092418
   2 H :   -0.004449
   3 N :    0.030602
   4 N :    0.019775
   5 H :    0.029377
   6 C :   -0.007854
   7 H :    0.011393

  Mayer bond orders larger than 0.100000
B(  0-N ,  1-C ) :   1.1384 B(  0-N ,  6-C ) :   1.4825 B(  1-C ,  2-H ) :   0.9845
B(  1-C ,  3-N ) :   1.4265 B(  3-N ,  4-N ) :   0.9634 B(  3-N ,  5-H ) :  -0.1167
B(  4-N ,  5-H ) :   1.1522 B(  4-N ,  6-C ) :   1.0361 B(  5-H ,  6-C ) :  -0.1048
B(  6-C ,  7-H ) :   0.9748

MP2 TOTAL ENERGY:     -241.621131428 Eh
FINAL SINGLE POINT ENERGY      -241.621131428492

DIPOLE MOMENT
-------------
                                X             Y             Z
Electronic contribution:     -0.19806       0.10202       0.00000
Nuclear contribution   :      0.70057       0.92647       0.00000
                        -----------------------------------------
Total Dipole Moment    :      0.50251       1.02849       0.00000
                        -----------------------------------------
Magnitude (a.u.)       :      1.14468
Magnitude (Debye)      :      2.90956

Rotational constants in cm-1:     0.343164     0.331286     0.168560
Rotational constants in MHz : 10287.812414  9931.708280  5053.312256

                             ****ORCA TERMINATED NORMALLY****
TOTAL RUN TIME: 0 days 0 hours 0 minutes 34 seconds 637 msec
