                         Program Version 5.0.3 -  RELEASE  -
|  1> !ri-mp2 aug-cc-pvdz aug-cc-pvdz/c tightscf
|  2> %pal nprocs 16 end
|  3>
|  4> * xyz 0 1
|  5> C     0.245890   -0.471484   -0.000001
|  6> C     1.412981    0.161547    0.000001
|  7> C    -1.126370    0.134384   -0.000001
|  8> F     0.234429   -1.812633    0.000002
|  9> F     2.559922   -0.475620    0.000002
| 10> F     1.575610    1.460961    0.000000
| 11> F    -1.821022   -0.263524    1.082021
| 12> F    -1.082861    1.471534   -0.000098
| 13> F    -1.821079   -0.263683   -1.081926
| 14> *
| 15>
| 16>                          ****END OF INPUT****

CARTESIAN COORDINATES (ANGSTROEM)
---------------------------------
  C      0.245890   -0.471484   -0.000001
  C      1.412981    0.161547    0.000001
  C     -1.126370    0.134384   -0.000001
  F      0.234429   -1.812633    0.000002
  F      2.559922   -0.475620    0.000002
  F      1.575610    1.460961    0.000000
  F     -1.821022   -0.263524    1.082021
  F     -1.082861    1.471534   -0.000098
  F     -1.821079   -0.263683   -1.081926

 Total Charge           Charge          ....    0
 Multiplicity           Mult            ....    1
 Number of Electrons    NEL             ....   72
 Basis Dimension        Dim             ....  207

ORBITAL ENERGIES
----------------

  NO   OCC          E(Eh)            E(eV)
   0   2.0000     -26.404047      -718.4906
   1   2.0000     -26.401766      -718.4286
   2   2.0000     -26.381751      -717.8839
   3   2.0000     -26.374006      -717.6732
   4   2.0000     -26.373985      -717.6726
   5   2.0000     -26.373231      -717.6521
   6   2.0000     -11.560089      -314.5660
   7   2.0000     -11.490157      -312.6631
   8   2.0000     -11.391873      -309.9886
   9   2.0000      -1.761789       -47.9407
  10   2.0000      -1.754388       -47.7393
  11   2.0000      -1.692840       -46.0645
  12   2.0000      -1.680563       -45.7304
  13   2.0000      -1.666852       -45.3573
  14   2.0000      -1.660304       -45.1792
  15   2.0000      -1.146061       -31.1859
  16   2.0000      -1.022650       -27.8277
  17   2.0000      -0.931685       -25.3524
  18   2.0000      -0.883062       -24.0293
  19   2.0000      -0.861318       -23.4377
  20   2.0000      -0.850684       -23.1483
  21   2.0000      -0.838842       -22.8260
  22   2.0000      -0.809156       -22.0182
  23   2.0000      -0.804515       -21.8920
  24   2.0000      -0.748116       -20.3573
  25   2.0000      -0.733342       -19.9553
  26   2.0000      -0.730254       -19.8712
  27   2.0000      -0.730151       -19.8684
  28   2.0000      -0.721444       -19.6315
  29   2.0000      -0.713476       -19.4147
  30   2.0000      -0.706828       -19.2338
  31   2.0000      -0.683978       -18.6120
  32   2.0000      -0.683219       -18.5913
  33   2.0000      -0.671035       -18.2598
  34   2.0000      -0.613268       -16.6879
  35   2.0000      -0.432871       -11.7790
  36   0.0000       0.059219         1.6114
  37   0.0000       0.075116         2.0440
  38   0.0000       0.079129         2.1532
  39   0.0000       0.087489         2.3807
  40   0.0000       0.105846         2.8802

MULLIKEN ATOMIC CHARGES
-----------------------
   0 C :    0.138671
   1 C :    1.489152
   2 C :    2.059783
   3 F :   -0.728858
   4 F :   -0.571755
   5 F :   -0.586661
   6 F :   -0.586140
   7 F :   -0.628050
   8 F :   -0.586143
Sum of atomic charges:    0.0000000

LOEWDIN ATOMIC CHARGES
----------------------
   0 C :   -0.131564
   1 C :   -0.164470
   2 C :   -0.337971
   3 F :    0.092256
   4 F :    0.125660
   5 F :    0.125866
   6 F :    0.093681
   7 F :    0.102859
   8 F :    0.093684

  Mayer bond orders larger than 0.100000
B(  0-C ,  1-C ) :   1.7855 B(  0-C ,  2-C ) :   0.9882 B(  0-C ,  3-F ) :   0.2007
B(  0-C ,  4-F ) :   0.2985 B(  0-C ,  5-F ) :   0.2502 B(  0-C ,  6-F ) :   0.1467
B(  0-C ,  7-F ) :   0.2514 B(  0-C ,  8-F ) :   0.1467 B(  1-C ,  4-F ) :   0.1873
B(  1-C ,  5-F ) :   0.2578 B(  2-C ,  6-F ) :   0.3365 B(  2-C ,  7-F ) :   0.2640
B(  2-C ,  8-F ) :   0.3365

MP2 TOTAL ENERGY:     -711.871980143 Eh
FINAL SINGLE POINT ENERGY      -711.871980143311

DIPOLE MOMENT
-------------
                                X             Y             Z
Electronic contribution:      0.10329       0.26351      -0.00000
Nuclear contribution   :      0.31601      -0.10418      -0.00000
                        -----------------------------------------
Total Dipole Moment    :      0.41930       0.15933      -0.00000
                        -----------------------------------------
Magnitude (a.u.)       :      0.44855
Magnitude (Debye)      :      1.14011

Rotational constants in cm-1:     0.084828     0.041582     0.032722
Rotational constants in MHz :  2543.080261  1246.588658   980.984170

                             ****ORCA TERMINATED NORMALLY****
TOTAL RUN TIME: 0 days 0 hours 0 minutes 34 seconds 347 msec
