                         Program Version 5.0.3 -  RELEASE  -
|  1> !ri-mp2 aug-cc-pvdz aug-cc-pvdz/c tightscf
|  2> %pal nprocs 16 end
|  3>
|  4> * xyz 0 1
|  5> C      0.000000    0.825176    0.000000
|  6> C      1.158271    1.785300    0.000000
|  7> C     -1.007571   -1.801949    0.000000
|  8> N     -1.193183    1.247338    0.000000
|  9> S      0.556958   -0.883144    0.000000
| 10> H      1.784741    1.632779    0.879911
| 11> H      1.784741    1.632779   -0.879911
| 12> H      0.775934    2.802688    0.000000
| 13> H     -0.737538   -2.855412    0.000000
| 14> H     -1.589589   -1.586821   -0.894274
| 15> H     -1.589589   -1.586821    0.894274
| 16> H     -1.891951    0.508598    0.000000
| 17> *
| 18>
| 19>                          ****END OF INPUT****

CARTESIAN COORDINATES (ANGSTROEM)
---------------------------------
  C      0.000000    0.825176    0.000000
  C      1.158271    1.785300    0.000000
  C     -1.007571   -1.801949    0.000000
  N     -1.193183    1.247338    0.000000
  S      0.556958   -0.883144    0.000000
  H      1.784741    1.632779    0.879911
  H      1.784741    1.632779   -0.879911
  H      0.775934    2.802688    0.000000
  H     -0.737538   -2.855412    0.000000
  H     -1.589589   -1.586821   -0.894274
  H     -1.589589   -1.586821    0.894274
  H     -1.891951    0.508598    0.000000

 Total Charge           Charge          ....    0
 Multiplicity           Mult            ....    1
 Number of Electrons    NEL             ....   48
 Basis Dimension        Dim             ....  182

ORBITAL ENERGIES
----------------

  NO   OCC          E(Eh)            E(eV)
   0   2.0000     -91.969576     -2502.6194
   1   2.0000     -15.558858      -423.3780
   2   2.0000     -11.325982      -308.1956
   3   2.0000     -11.276117      -306.8387
   4   2.0000     -11.239213      -305.8345
   5   2.0000      -8.972049      -244.1419
   6   2.0000      -6.654097      -181.0672
   7   2.0000      -6.652389      -181.0207
   8   2.0000      -6.650592      -180.9718
   9   2.0000      -1.227777       -33.4095
  10   2.0000      -1.055322       -28.7168
  11   2.0000      -1.004065       -27.3220
  12   2.0000      -0.891575       -24.2610
  13   2.0000      -0.749638       -20.3987
  14   2.0000      -0.661034       -17.9877
  15   2.0000      -0.610298       -16.6070
  16   2.0000      -0.602597       -16.3975
  17   2.0000      -0.587488       -15.9864
  18   2.0000      -0.570081       -15.5127
  19   2.0000      -0.528064       -14.3694
  20   2.0000      -0.483184       -13.1481
  21   2.0000      -0.456187       -12.4135
  22   2.0000      -0.402552       -10.9540
  23   2.0000      -0.354533        -9.6473
  24   0.0000       0.033592         0.9141
  25   0.0000       0.044156         1.2015
  26   0.0000       0.051262         1.3949
  27   0.0000       0.055077         1.4987
  28   0.0000       0.068286         1.8581

MULLIKEN ATOMIC CHARGES
-----------------------
   0 C :   -0.174319
   1 C :    0.389768
   2 C :    0.064412
   3 N :   -0.480391
   4 S :    0.365243
   5 H :    0.046788
   6 H :    0.046788
   7 H :   -0.079227
   8 H :   -0.201775
   9 H :    0.005926
  10 H :    0.005926
  11 H :    0.010861
Sum of atomic charges:   -0.0000000

LOEWDIN ATOMIC CHARGES
----------------------
   0 C :   -0.606939
   1 C :    0.112625
   2 C :   -0.130555
   3 N :    0.120392
   4 S :    0.857176
   5 H :   -0.016473
   6 H :   -0.016473
   7 H :   -0.014225
   8 H :   -0.067917
   9 H :   -0.058764
  10 H :   -0.058764
  11 H :   -0.120084

  Mayer bond orders larger than 0.100000
B(  0-C ,  1-C ) :   1.2659 B(  0-C ,  3-N ) :   1.6277 B(  0-C ,  4-S ) :   1.0020
B(  0-C ,  7-H ) :   0.1452 B(  1-C ,  5-H ) :   0.8976 B(  1-C ,  6-H ) :   0.8976
B(  1-C ,  7-H ) :   0.8700 B(  2-C ,  4-S ) :   1.0203 B(  2-C ,  8-H ) :   1.0602
B(  2-C ,  9-H ) :   0.9571 B(  2-C , 10-H ) :   0.9571 B(  3-N , 11-H ) :   0.9953

MP2 TOTAL ENERGY:     -570.427359540 Eh
FINAL SINGLE POINT ENERGY      -570.427359540165

DIPOLE MOMENT
-------------
                                X             Y             Z
Electronic contribution:      1.48862      -1.28554      -0.00000
Nuclear contribution   :     -1.50398       0.58884       0.00000
                        -----------------------------------------
Total Dipole Moment    :     -0.01537      -0.69670      -0.00000
                        -----------------------------------------
Magnitude (a.u.)       :      0.69687
Magnitude (Debye)      :      1.77130

Rotational constants in cm-1:     0.237028     0.099881     0.072180
Rotational constants in MHz :  7105.907487  2994.364276  2163.887199

                             ****ORCA TERMINATED NORMALLY****
TOTAL RUN TIME: 0 days 0 hours 0 minutes 48 seconds 200 msec
