                         Program Version 5.0.3 -  RELEASE  -
|  1> !ri-mp2 aug-cc-pvdz aug-cc-pvdz/c tightscf
|  2> %pal nprocs 16 end
|  3>
|  4> * xyz 0 1
|  5> C      1.485110    2.778995    0.000000
|  6> C      1.429424    1.252245    0.000000
|  7> C     -1.555601   -2.629031    0.000000
|  8> O     -1.408397   -1.225844    0.000000
|  9> C     -0.054114   -0.808031    0.000000
| 10> C      0.000000    0.708683    0.000000
| 11> H     -2.622301   -2.844448    0.000000
| 12> H      2.514453    3.139718    0.000000
| 13> H      0.988352    3.190751    0.880627
| 14> H      0.988352    3.190751   -0.880627
| 15> H      1.964404    0.869962    0.874461
| 16> H      1.964404    0.869962   -0.874461
| 17> H     -1.100454   -3.081175    0.889958
| 18> H     -1.100454   -3.081175   -0.889958
| 19> H     -0.538951    1.078011   -0.876368
| 20> H     -0.538951    1.078011    0.876368
| 21> H      0.459702   -1.210388   -0.884985
| 22> H      0.459702   -1.210388    0.884985
| 23> *
| 24>
| 25>                          ****END OF INPUT****

CARTESIAN COORDINATES (ANGSTROEM)
---------------------------------
  C      1.485110    2.778995    0.000000
  C      1.429424    1.252245    0.000000
  C     -1.555601   -2.629031    0.000000
  O     -1.408397   -1.225844    0.000000
  C     -0.054114   -0.808031    0.000000
  C      0.000000    0.708683    0.000000
  H     -2.622301   -2.844448    0.000000
  H      2.514453    3.139718    0.000000
  H      0.988352    3.190751    0.880627
  H      0.988352    3.190751   -0.880627
  H      1.964404    0.869962    0.874461
  H      1.964404    0.869962   -0.874461
  H     -1.100454   -3.081175    0.889958
  H     -1.100454   -3.081175   -0.889958
  H     -0.538951    1.078011   -0.876368
  H     -0.538951    1.078011    0.876368
  H      0.459702   -1.210388   -0.884985
  H      0.459702   -1.210388    0.884985

 Total Charge           Charge          ....    0
 Multiplicity           Mult            ....    1
 Number of Electrons    NEL             ....   50
 Basis Dimension        Dim             ....  246

ORBITAL ENERGIES
----------------

  NO   OCC          E(Eh)            E(eV)
   0   2.0000     -20.561095      -559.4958
   1   2.0000     -11.275603      -306.8248
   2   2.0000     -11.274541      -306.7959
   3   2.0000     -11.225830      -305.4704
   4   2.0000     -11.219776      -305.3056
   5   2.0000     -11.218502      -305.2710
   6   2.0000      -1.372564       -37.3494
   7   2.0000      -1.073942       -29.2235
   8   2.0000      -0.989681       -26.9306
   9   2.0000      -0.913600       -24.8603
  10   2.0000      -0.843488       -22.9525
  11   2.0000      -0.796326       -21.6691
  12   2.0000      -0.672194       -18.2913
  13   2.0000      -0.644573       -17.5397
  14   2.0000      -0.630102       -17.1459
  15   2.0000      -0.622457       -16.9379
  16   2.0000      -0.567970       -15.4552
  17   2.0000      -0.563868       -15.3436
  18   2.0000      -0.535468       -14.5708
  19   2.0000      -0.505085       -13.7441
  20   2.0000      -0.484990       -13.1972
  21   2.0000      -0.472407       -12.8548
  22   2.0000      -0.466117       -12.6837
  23   2.0000      -0.461598       -12.5607
  24   2.0000      -0.418059       -11.3760
  25   0.0000       0.036943         1.0053
  26   0.0000       0.042118         1.1461
  27   0.0000       0.048403         1.3171
  28   0.0000       0.048411         1.3173
  29   0.0000       0.059908         1.6302

MULLIKEN ATOMIC CHARGES
-----------------------
   0 C :    0.391523
   1 C :    0.334294
   2 C :    0.754801
   3 O :   -0.877311
   4 C :    0.935149
   5 C :    0.143285
   6 H :   -0.278817
   7 H :   -0.073655
   8 H :   -0.080386
   9 H :   -0.080386
  10 H :   -0.173754
  11 H :   -0.173754
  12 H :   -0.059977
  13 H :   -0.059977
  14 H :   -0.159450
  15 H :   -0.159450
  16 H :   -0.191066
  17 H :   -0.191066
Sum of atomic charges:   -0.0000000

LOEWDIN ATOMIC CHARGES
----------------------
   0 C :    0.130661
   1 C :   -0.072531
   2 C :    0.118622
   3 O :   -0.024230
   4 C :   -0.055705
   5 C :   -0.036494
   6 H :   -0.029248
   7 H :   -0.021954
   8 H :   -0.019500
   9 H :   -0.019500
  10 H :    0.009879
  11 H :    0.009879
  12 H :   -0.024647
  13 H :   -0.024647
  14 H :    0.018964
  15 H :    0.018964
  16 H :    0.010744
  17 H :    0.010744

  Mayer bond orders larger than 0.100000
B(  0-C ,  1-C ) :   1.2024 B(  0-C ,  7-H ) :   0.9243 B(  0-C ,  8-H ) :   0.9311
B(  0-C ,  9-H ) :   0.9311 B(  1-C ,  5-C ) :   1.1859 B(  1-C , 10-H ) :   0.7788
B(  1-C , 11-H ) :   0.7788 B(  2-C ,  3-O ) :   0.8179 B(  2-C ,  6-H ) :   1.0342
B(  2-C , 12-H ) :   0.9469 B(  2-C , 13-H ) :   0.9469 B(  3-O ,  4-C ) :   0.6321
B(  4-C ,  5-C ) :   1.2702 B(  4-C , 16-H ) :   0.8584 B(  4-C , 17-H ) :   0.8584
B(  5-C , 14-H ) :   0.8316 B(  5-C , 15-H ) :   0.8316

MP2 TOTAL ENERGY:     -272.157401081 Eh
FINAL SINGLE POINT ENERGY      -272.157401081410

DIPOLE MOMENT
-------------
                                X             Y             Z
Electronic contribution:     -3.20027      -2.38864      -0.00000
Nuclear contribution   :      3.63903       2.09887       0.00000
                        -----------------------------------------
Total Dipole Moment    :      0.43875      -0.28977      -0.00000
                        -----------------------------------------
Magnitude (a.u.)       :      0.52580
Magnitude (Debye)      :      1.33649

Rotational constants in cm-1:     0.552820     0.040092     0.038726
Rotational constants in MHz : 16573.112930  1201.940175  1160.976043

                             ****ORCA TERMINATED NORMALLY****
TOTAL RUN TIME: 0 days 0 hours 0 minutes 48 seconds 737 msec
