                         Program Version 5.0.3 -  RELEASE  -
|  1> !ri-mp2 aug-cc-pvdz aug-cc-pvdz/c tightscf
|  2> %pal nprocs 16 end
|  3>
|  4> * xyz 0 1
|  5> O      2.708104   -0.570601   -0.088239
|  6> O     -2.779924    0.006037   -0.197353
|  7> N     -0.704809   -0.238358    0.294109
|  8> N      0.460380   -0.985720    0.109260
|  9> N     -1.836329   -0.763921   -0.182698
| 10> C     -0.379980    1.203560    0.320132
| 11> C      1.049525    1.244702   -0.232188
| 12> C      1.565924   -0.183314   -0.071158
| 13> H     -0.441868    1.572185    1.343414
| 14> H     -1.126052    1.719833   -0.277729
| 15> H      1.701720    1.927919    0.304039
| 16> H      1.078298    1.509182   -1.289948
| 17> H      0.514950   -1.886298    0.559549
| 18> *
| 19>
| 20>                          ****END OF INPUT****

CARTESIAN COORDINATES (ANGSTROEM)
---------------------------------
  O      2.708104   -0.570601   -0.088239
  O     -2.779924    0.006037   -0.197353
  N     -0.704809   -0.238358    0.294109
  N      0.460380   -0.985720    0.109260
  N     -1.836329   -0.763921   -0.182698
  C     -0.379980    1.203560    0.320132
  C      1.049525    1.244702   -0.232188
  C      1.565924   -0.183314   -0.071158
  H     -0.441868    1.572185    1.343414
  H     -1.126052    1.719833   -0.277729
  H      1.701720    1.927919    0.304039
  H      1.078298    1.509182   -1.289948
  H      0.514950   -1.886298    0.559549

 Total Charge           Charge          ....    0
 Multiplicity           Mult            ....    1
 Number of Electrons    NEL             ....   60
 Basis Dimension        Dim             ....  229

ORBITAL ENERGIES
----------------

  NO   OCC          E(Eh)            E(eV)
   0   2.0000     -20.615073      -560.9646
   1   2.0000     -20.564148      -559.5789
   2   2.0000     -15.757836      -428.7925
   3   2.0000     -15.688862      -426.9156
   4   2.0000     -15.654035      -425.9680
   5   2.0000     -11.393000      -310.0193
   6   2.0000     -11.315429      -307.9085
   7   2.0000     -11.280905      -306.9690
   8   2.0000      -1.544811       -42.0364
   9   2.0000      -1.431007       -38.9397
  10   2.0000      -1.374162       -37.3928
  11   2.0000      -1.178345       -32.0644
  12   2.0000      -1.111569       -30.2473
  13   2.0000      -0.970877       -26.4189
  14   2.0000      -0.862535       -23.4708
  15   2.0000      -0.848179       -23.0801
  16   2.0000      -0.765963       -20.8429
  17   2.0000      -0.730885       -19.8884
  18   2.0000      -0.696600       -18.9554
  19   2.0000      -0.673418       -18.3246
  20   2.0000      -0.641982       -17.4692
  21   2.0000      -0.628093       -17.0913
  22   2.0000      -0.616639       -16.7796
  23   2.0000      -0.597827       -16.2677
  24   2.0000      -0.581358       -15.8195
  25   2.0000      -0.551912       -15.0183
  26   2.0000      -0.491372       -13.3709
  27   2.0000      -0.449107       -12.2208
  28   2.0000      -0.438146       -11.9226
  29   2.0000      -0.381373       -10.3777
  30   0.0000       0.028151         0.7660
  31   0.0000       0.040893         1.1128
  32   0.0000       0.044868         1.2209
  33   0.0000       0.052889         1.4392
  34   0.0000       0.066886         1.8201

MULLIKEN ATOMIC CHARGES
-----------------------
   0 O :   -0.762526
   1 O :   -0.666144
   2 N :   -0.180517
   3 N :   -0.332999
   4 N :    0.232394
   5 C :    1.073868
   6 C :    0.075262
   7 C :    0.939756
   8 H :   -0.198130
   9 H :   -0.163877
  10 H :   -0.023083
  11 H :   -0.004587
  12 H :    0.010583
Sum of atomic charges:    0.0000000

LOEWDIN ATOMIC CHARGES
----------------------
   0 O :    0.041896
   1 O :   -0.024886
   2 N :   -0.160177
   3 N :    0.146343
   4 N :    0.006938
   5 C :    0.080270
   6 C :    0.091131
   7 C :   -0.301644
   8 H :    0.023516
   9 H :    0.006288
  10 H :    0.027944
  11 H :    0.030279
  12 H :    0.032102

  Mayer bond orders larger than 0.100000
B(  0-O ,  7-C ) :   1.3831 B(  1-O ,  2-N ) :   0.1238 B(  1-O ,  4-N ) :   1.1136
B(  2-N ,  3-N ) :   0.9729 B(  2-N ,  4-N ) :   0.5692 B(  2-N ,  5-C ) :   0.7239
B(  2-N ,  6-C ) :   0.1335 B(  2-N ,  7-C ) :  -0.1229 B(  3-N ,  4-N ) :   0.1550
B(  3-N ,  7-C ) :   0.9172 B(  3-N , 12-H ) :   1.1271 B(  5-C ,  6-C ) :   1.2137
B(  5-C ,  8-H ) :   0.8475 B(  5-C ,  9-H ) :   0.8291 B(  6-C ,  7-C ) :   0.9449
B(  6-C , 10-H ) :   0.8015 B(  6-C , 11-H ) :   0.8709

MP2 TOTAL ENERGY:     -430.849394902 Eh
FINAL SINGLE POINT ENERGY      -430.849394901537

DIPOLE MOMENT
-------------
                                X             Y             Z
Electronic contribution:     -1.59956      -3.90464      -0.20200
Nuclear contribution   :      1.67785       4.72137       0.62281
                        -----------------------------------------
Total Dipole Moment    :      0.07830       0.81673       0.42081
                        -----------------------------------------
Magnitude (a.u.)       :      0.92210
Magnitude (Debye)      :      2.34378

Rotational constants in cm-1:     0.192424     0.047237     0.039436
Rotational constants in MHz :  5768.738917  1416.143948  1182.253738

                             ****ORCA TERMINATED NORMALLY****
TOTAL RUN TIME: 0 days 0 hours 1 minutes 7 seconds 230 msec
