                         Program Version 5.0.3 -  RELEASE  -
|  1> !ri-mp2 aug-cc-pvdz aug-cc-pvdz/c tightscf
|  2> %pal nprocs 16 end
|  3>
|  4> * xyz 0 1
|  5> O     -1.911245    0.085603   -0.071095
|  6> O      1.911245   -0.085603   -0.071094
|  7> C     -0.597007   -0.013624    0.006112
|  8> C      0.597007    0.013624    0.006111
|  9> H     -2.328814   -0.541074    0.532088
| 10> H      2.328813    0.541078    0.532085
| 11> *
| 12>
| 13>                          ****END OF INPUT****

CARTESIAN COORDINATES (ANGSTROEM)
---------------------------------
  O     -1.911245    0.085603   -0.071095
  O      1.911245   -0.085603   -0.071094
  C     -0.597007   -0.013624    0.006112
  C      0.597007    0.013624    0.006111
  H     -2.328814   -0.541074    0.532088
  H      2.328813    0.541078    0.532085

 Total Charge           Charge          ....    0
 Multiplicity           Mult            ....    1
 Number of Electrons    NEL             ....   30
 Basis Dimension        Dim             ....  110

ORBITAL ENERGIES
----------------

  NO   OCC          E(Eh)            E(eV)
   0   2.0000     -20.635716      -561.5264
   1   2.0000     -20.635714      -561.5263
   2   2.0000     -11.292115      -307.2741
   3   2.0000     -11.288289      -307.1700
   4   2.0000      -1.440049       -39.1857
   5   2.0000      -1.435086       -39.0507
   6   2.0000      -1.022140       -27.8138
   7   2.0000      -0.822316       -22.3764
   8   2.0000      -0.781767       -21.2730
   9   2.0000      -0.664854       -18.0916
  10   2.0000      -0.655419       -17.8349
  11   2.0000      -0.606350       -16.4996
  12   2.0000      -0.604883       -16.4597
  13   2.0000      -0.368653       -10.0316
  14   2.0000      -0.367021        -9.9871
  15   0.0000       0.028437         0.7738
  16   0.0000       0.037389         1.0174
  17   0.0000       0.100403         2.7321
  18   0.0000       0.107323         2.9204
  19   0.0000       0.123855         3.3703

MULLIKEN ATOMIC CHARGES
-----------------------
   0 O :   -0.543190
   1 O :   -0.543190
   2 C :    0.366133
   3 C :    0.366131
   4 H :    0.177058
   5 H :    0.177058
Sum of atomic charges:   -0.0000000

LOEWDIN ATOMIC CHARGES
----------------------
   0 O :    0.168680
   1 O :    0.168681
   2 C :   -0.140773
   3 C :   -0.140773
   4 H :   -0.027907
   5 H :   -0.027908

  Mayer bond orders larger than 0.100000
B(  0-O ,  2-C ) :   0.7874 B(  0-O ,  4-H ) :   0.9963 B(  1-O ,  3-C ) :   0.7874
B(  1-O ,  5-H ) :   0.9963 B(  2-C ,  3-C ) :   2.4941

MP2 TOTAL ENERGY:     -227.193366539 Eh
FINAL SINGLE POINT ENERGY      -227.193366539228

DIPOLE MOMENT
-------------
                                X             Y             Z
Electronic contribution:      0.00000      -0.00000      -0.20646
Nuclear contribution   :     -0.00000       0.00000       1.03094
                        -----------------------------------------
Total Dipole Moment    :     -0.00000       0.00000       0.82447
                        -----------------------------------------
Magnitude (a.u.)       :      0.82447
Magnitude (Debye)      :      2.09565

Rotational constants in cm-1:    11.258902     0.122923     0.122861
Rotational constants in MHz : 337533.385472  3685.141380  3683.291528

                             ****ORCA TERMINATED NORMALLY****
TOTAL RUN TIME: 0 days 0 hours 0 minutes 51 seconds 934 msec
