                         Program Version 5.0.3 -  RELEASE  -
|  1> !ri-mp2 aug-cc-pvdz aug-cc-pvdz/c tightscf
|  2> %pal nprocs 16 end
|  3>
|  4> * xyz 0 1
|  5> O      1.052746   -0.884054    1.262930
|  6> S      0.899001   -0.165953    0.000000
|  7> O      1.052746   -0.884054   -1.262930
|  8> C      2.067344    1.204889    0.000000
|  9> C     -0.723417    0.647846    0.000000
| 10> C     -1.851316   -0.380647    0.000000
| 11> C     -3.225240    0.289975    0.000000
| 12> H      3.053274    0.745574    0.000000
| 13> H      1.925580    1.797049   -0.900169
| 14> H      1.925580    1.797049    0.900169
| 15> H     -0.749135    1.277504    0.890070
| 16> H     -0.749135    1.277504   -0.890070
| 17> H     -1.747958   -1.021292   -0.876349
| 18> H     -1.747958   -1.021292    0.876349
| 19> H     -3.362963    0.917670    0.882223
| 20> H     -3.362963    0.917671   -0.882223
| 21> H     -4.016488   -0.459710    0.000000
| 22> *
| 23>
| 24>                          ****END OF INPUT****

CARTESIAN COORDINATES (ANGSTROEM)
---------------------------------
  O      1.052746   -0.884054    1.262930
  S      0.899001   -0.165953    0.000000
  O      1.052746   -0.884054   -1.262930
  C      2.067344    1.204889    0.000000
  C     -0.723417    0.647846    0.000000
  C     -1.851316   -0.380647    0.000000
  C     -3.225240    0.289975    0.000000
  H      3.053274    0.745574    0.000000
  H      1.925580    1.797049   -0.900169
  H      1.925580    1.797049    0.900169
  H     -0.749135    1.277504    0.890070
  H     -0.749135    1.277504   -0.890070
  H     -1.747958   -1.021292   -0.876349
  H     -1.747958   -1.021292    0.876349
  H     -3.362963    0.917670    0.882223
  H     -3.362963    0.917671   -0.882223
  H     -4.016488   -0.459710    0.000000

 Total Charge           Charge          ....    0
 Multiplicity           Mult            ....    1
 Number of Electrons    NEL             ....   66
 Basis Dimension        Dim             ....  255

ORBITAL ENERGIES
----------------

  NO   OCC          E(Eh)            E(eV)
   0   2.0000     -92.192620     -2508.6887
   1   2.0000     -20.547540      -559.1270
   2   2.0000     -20.547522      -559.1265
   3   2.0000     -11.284854      -307.0765
   4   2.0000     -11.284345      -307.0626
   5   2.0000     -11.250135      -306.1318
   6   2.0000     -11.238375      -305.8117
   7   2.0000      -9.165966      -249.4186
   8   2.0000      -6.851199      -186.4306
   9   2.0000      -6.849856      -186.3941
  10   2.0000      -6.849607      -186.3873
  11   2.0000      -1.445064       -39.3222
  12   2.0000      -1.330695       -36.2101
  13   2.0000      -1.103290       -30.0220
  14   2.0000      -1.046171       -28.4677
  15   2.0000      -0.975590       -26.5471
  16   2.0000      -0.853023       -23.2119
  17   2.0000      -0.802577       -21.8392
  18   2.0000      -0.688507       -18.7352
  19   2.0000      -0.677183       -18.4271
  20   2.0000      -0.660589       -17.9755
  21   2.0000      -0.642800       -17.4915
  22   2.0000      -0.603560       -16.4237
  23   2.0000      -0.599450       -16.3119
  24   2.0000      -0.593694       -16.1552
  25   2.0000      -0.572269       -15.5722
  26   2.0000      -0.533145       -14.5076
  27   2.0000      -0.509767       -13.8715
  28   2.0000      -0.499588       -13.5945
  29   2.0000      -0.485307       -13.2059
  30   2.0000      -0.479231       -13.0405
  31   2.0000      -0.458644       -12.4803
  32   2.0000      -0.424786       -11.5590
  33   0.0000       0.027601         0.7511
  34   0.0000       0.037981         1.0335
  35   0.0000       0.043936         1.1956
  36   0.0000       0.048357         1.3159
  37   0.0000       0.061542         1.6746

MULLIKEN ATOMIC CHARGES
-----------------------
   0 O :   -1.227212
   1 S :    2.505877
   2 O :   -1.227212
   3 C :    0.135818
   4 C :   -0.183613
   5 C :    0.280833
   6 C :    0.472986
   7 H :    0.040472
   8 H :   -0.013708
   9 H :   -0.013708
  10 H :   -0.150348
  11 H :   -0.150348
  12 H :   -0.124299
  13 H :   -0.124299
  14 H :   -0.077657
  15 H :   -0.077655
  16 H :   -0.065927
Sum of atomic charges:    0.0000000

LOEWDIN ATOMIC CHARGES
----------------------
   0 O :   -0.407202
   1 S :    0.902838
   2 O :   -0.407202
   3 C :    0.086097
   4 C :   -0.094050
   5 C :   -0.092030
   6 C :    0.138969
   7 H :   -0.029571
   8 H :   -0.035035
   9 H :   -0.035035
  10 H :   -0.001012
  11 H :   -0.001012
  12 H :    0.013145
  13 H :    0.013145
  14 H :   -0.018086
  15 H :   -0.018086
  16 H :   -0.015873

  Mayer bond orders larger than 0.100000
B(  0-O ,  1-S ) :   0.6612 B(  0-O ,  2-O ) :   0.1594 B(  0-O ,  4-C ) :   0.1680
B(  1-S ,  2-O ) :   0.6612 B(  1-S ,  3-C ) :   1.1394 B(  1-S ,  4-C ) :   1.0232
B(  2-O ,  4-C ) :   0.1680 B(  3-C ,  7-H ) :   0.9373 B(  3-C ,  8-H ) :   0.9314
B(  3-C ,  9-H ) :   0.9314 B(  4-C ,  5-C ) :   1.3191 B(  4-C , 10-H ) :   0.9175
B(  4-C , 11-H ) :   0.9175 B(  5-C ,  6-C ) :   1.1564 B(  5-C , 12-H ) :   0.7914
B(  5-C , 13-H ) :   0.7914 B(  6-C , 14-H ) :   0.9263 B(  6-C , 15-H ) :   0.9263
B(  6-C , 16-H ) :   0.9198

MP2 TOTAL ENERGY:     -705.673104588 Eh
FINAL SINGLE POINT ENERGY      -705.673104588070

DIPOLE MOMENT
-------------
                                X             Y             Z
Electronic contribution:      8.32754      -4.36153       0.00000
Nuclear contribution   :     -8.95464       6.29491       0.00000
                        -----------------------------------------
Total Dipole Moment    :     -0.62710       1.93338       0.00000
                        -----------------------------------------
Magnitude (a.u.)       :      2.03254
Magnitude (Debye)      :      5.16631

Rotational constants in cm-1:     0.137682     0.041603     0.040830
Rotational constants in MHz :  4127.603545  1247.212466  1224.043828

                             ****ORCA TERMINATED NORMALLY****
TOTAL RUN TIME: 0 days 0 hours 1 minutes 3 seconds 257 msec
