                         Program Version 5.0.3 -  RELEASE  -
|  1> !ri-mp2 aug-cc-pvdz aug-cc-pvdz/c tightscf
|  2> %pal nprocs 16 end
|  3> %maxcore 3800
|  4>
|  5> * xyz 0 1
|  6> C      2.858294    3.448276    0.000000
|  7> C      1.443396    2.872081    0.000000
|  8> C      1.412286    1.343354    0.000000
|  9> C      0.000000    0.757661    0.000000
| 10> C     -0.030717   -0.771281    0.000000
| 11> C     -1.443246   -1.357334    0.000000
| 12> C     -1.465482   -2.889128    0.000000
| 13> N     -2.786976   -3.518510    0.000000
| 14> H      3.416468    3.123539    0.880618
| 15> H      3.416468    3.123539   -0.880618
| 16> H      2.845446    4.539098    0.000000
| 17> H      0.899109    3.242456    0.874013
| 18> H      0.899109    3.242456   -0.874013
| 19> H      1.957625    0.972748    0.874556
| 20> H      1.957625    0.972748   -0.874556
| 21> H     -0.544592    1.128853    0.874555
| 22> H     -0.544592    1.128853   -0.874555
| 23> H      0.514279   -1.142144   -0.874488
| 24> H      0.514279   -1.142144    0.874488
| 25> H     -1.990914   -0.993618    0.876239
| 26> H     -1.990914   -0.993618   -0.876239
| 27> H     -0.922544   -3.259922   -0.873380
| 28> H     -0.922544   -3.259922    0.873380
| 29> H     -3.321330   -3.237562   -0.813570
| 30> H     -3.321330   -3.237562    0.813570
| 31> *
| 32>
| 33>                          ****END OF INPUT****

CARTESIAN COORDINATES (ANGSTROEM)
---------------------------------
  C      2.858294    3.448276    0.000000
  C      1.443396    2.872081    0.000000
  C      1.412286    1.343354    0.000000
  C      0.000000    0.757661    0.000000
  C     -0.030717   -0.771281    0.000000
  C     -1.443246   -1.357334    0.000000
  C     -1.465482   -2.889128    0.000000
  N     -2.786976   -3.518510    0.000000
  H      3.416468    3.123539    0.880618
  H      3.416468    3.123539   -0.880618
  H      2.845446    4.539098    0.000000
  H      0.899109    3.242456    0.874013
  H      0.899109    3.242456   -0.874013
  H      1.957625    0.972748    0.874556
  H      1.957625    0.972748   -0.874556
  H     -0.544592    1.128853    0.874555
  H     -0.544592    1.128853   -0.874555
  H      0.514279   -1.142144   -0.874488
  H      0.514279   -1.142144    0.874488
  H     -1.990914   -0.993618    0.876239
  H     -1.990914   -0.993618   -0.876239
  H     -0.922544   -3.259922   -0.873380
  H     -0.922544   -3.259922    0.873380
  H     -3.321330   -3.237562   -0.813570
  H     -3.321330   -3.237562    0.813570

 Total Charge           Charge          ....    0
 Multiplicity           Mult            ....    1
 Number of Electrons    NEL             ....   66
 Basis Dimension        Dim             ....  337

ORBITAL ENERGIES
----------------

  NO   OCC          E(Eh)            E(eV)
   0   2.0000     -15.544190      -422.9789
   1   2.0000     -11.249062      -306.1025
   2   2.0000     -11.222357      -305.3758
   3   2.0000     -11.221872      -305.3627
   4   2.0000     -11.221030      -305.3397
   5   2.0000     -11.220760      -305.3324
   6   2.0000     -11.219713      -305.3039
   7   2.0000     -11.216866      -305.2264
   8   2.0000      -1.175921       -31.9984
   9   2.0000      -1.088670       -29.6242
  10   2.0000      -1.044856       -28.4320
  11   2.0000      -0.979541       -26.6547
  12   2.0000      -0.902449       -24.5569
  13   2.0000      -0.832115       -22.6430
  14   2.0000      -0.793901       -21.6032
  15   2.0000      -0.787529       -21.4297
  16   2.0000      -0.676126       -18.3983
  17   2.0000      -0.648855       -17.6563
  18   2.0000      -0.611346       -16.6356
  19   2.0000      -0.596444       -16.2301
  20   2.0000      -0.592361       -16.1190
  21   2.0000      -0.563531       -15.3345
  22   2.0000      -0.558047       -15.1852
  23   2.0000      -0.539937       -14.6924
  24   2.0000      -0.516075       -14.0431
  25   2.0000      -0.511274       -13.9125
  26   2.0000      -0.480752       -13.0819
  27   2.0000      -0.479040       -13.0354
  28   2.0000      -0.463632       -12.6161
  29   2.0000      -0.459250       -12.4968
  30   2.0000      -0.459012       -12.4904
  31   2.0000      -0.452815       -12.3217
  32   2.0000      -0.379176       -10.3179
  33   0.0000       0.036235         0.9860
  34   0.0000       0.038279         1.0416
  35   0.0000       0.043268         1.1774
  36   0.0000       0.043858         1.1934
  37   0.0000       0.053600         1.4585

MULLIKEN ATOMIC CHARGES
-----------------------
   0 C :    0.568258
   1 C :    0.452745
   2 C :    0.186230
   3 C :    0.177825
   4 C :    0.288644
   5 C :    0.409907
   6 C :    1.057511
   7 N :   -0.472666
   8 H :   -0.093276
   9 H :   -0.093276
  10 H :   -0.078498
  11 H :   -0.186023
  12 H :   -0.186023
  13 H :   -0.224273
  14 H :   -0.224273
  15 H :   -0.229990
  16 H :   -0.229990
  17 H :   -0.210911
  18 H :   -0.210911
  19 H :   -0.171286
  20 H :   -0.171286
  21 H :   -0.177159
  22 H :   -0.177159
  23 H :   -0.002061
  24 H :   -0.002061
Sum of atomic charges:    0.0000000

LOEWDIN ATOMIC CHARGES
----------------------
   0 C :    0.130051
   1 C :   -0.073441
   2 C :   -0.042284
   3 C :   -0.036189
   4 C :   -0.036641
   5 C :   -0.034585
   6 C :   -0.073268
   7 N :    0.173035
   8 H :   -0.020401
   9 H :   -0.020401
  10 H :   -0.022399
  11 H :    0.010657
  12 H :    0.010657
  13 H :    0.016175
  14 H :    0.016175
  15 H :    0.016519
  16 H :    0.016519
  17 H :    0.016597
  18 H :    0.016597
  19 H :    0.013951
  20 H :    0.013951
  21 H :    0.010247
  22 H :    0.010247
  23 H :   -0.055884
  24 H :   -0.055884

  Mayer bond orders larger than 0.100000
B(  0-C ,  1-C ) :   1.1753 B(  0-C ,  8-H ) :   0.9049 B(  0-C ,  9-H ) :   0.9049
B(  0-C , 10-H ) :   0.9128 B(  1-C ,  2-C ) :   1.2290 B(  1-C ,  3-C ) :  -0.1327
B(  1-C , 11-H ) :   0.7189 B(  1-C , 12-H ) :   0.7189 B(  2-C ,  3-C ) :   1.3810
B(  2-C , 13-H ) :   0.7438 B(  2-C , 14-H ) :   0.7438 B(  3-C ,  4-C ) :   1.4612
B(  3-C ,  5-C ) :  -0.1200 B(  3-C , 15-H ) :   0.7738 B(  3-C , 16-H ) :   0.7738
B(  4-C ,  5-C ) :   1.2901 B(  4-C ,  6-C ) :  -0.1278 B(  4-C , 17-H ) :   0.7305
B(  4-C , 18-H ) :   0.7305 B(  5-C ,  6-C ) :   1.1151 B(  5-C , 19-H ) :   0.7366
B(  5-C , 20-H ) :   0.7366 B(  6-C ,  7-N ) :   0.8020 B(  6-C , 21-H ) :   0.8128
B(  6-C , 22-H ) :   0.8128 B(  7-N , 23-H ) :   1.0636 B(  7-N , 24-H ) :   1.0636

MP2 TOTAL ENERGY:     -330.700685944 Eh
FINAL SINGLE POINT ENERGY      -330.700685943937

DIPOLE MOMENT
-------------
                                X             Y             Z
Electronic contribution:     -3.10261      -3.92572      -0.00000
Nuclear contribution   :      3.06094       4.50450       0.00000
                        -----------------------------------------
Total Dipole Moment    :     -0.04167       0.57878      -0.00000
                        -----------------------------------------
Magnitude (a.u.)       :      0.58028
Magnitude (Debye)      :      1.47495

Rotational constants in cm-1:     0.370925     0.016114     0.015794
Rotational constants in MHz : 11120.048569   483.075822   473.503385

                             ****ORCA TERMINATED NORMALLY****
TOTAL RUN TIME: 0 days 0 hours 1 minutes 35 seconds 204 msec
