                         Program Version 5.0.3 -  RELEASE  -
|  1> !ri-mp2 aug-cc-pvdz aug-cc-pvdz/c tightscf
|  2> %pal nprocs 16 end
|  3>
|  4> * xyz 0 1
|  5> C     -0.513595   -1.847902        0.000000
|  6> N      0.778933   -1.359597        0.000000
|  7> C      1.042726   -0.011300        0.000000
|  8> C      0.000000    0.939529        0.000000
|  9> C      0.650742    2.159172        0.000000
| 10> N      1.962308    1.874826        0.000000
| 11> N      2.241607    0.540130        0.000000
| 12> N     -1.509334   -0.870626        0.000000
| 13> C     -1.390022    0.528250        0.000000
| 14> O     -0.770109   -3.032395        0.000000
| 15> H      2.729469    2.523638        0.000000
| 16> O     -2.370508    1.243288        0.000000
| 17> H      0.271382    3.165642        0.000000
| 18> H     -2.450739   -1.235751        0.000000
| 19> H      1.521119   -2.040297        0.000000
| 20> *
| 21>
| 22>                          ****END OF INPUT****

CARTESIAN COORDINATES (ANGSTROEM)
---------------------------------
  C     -0.513595   -1.847902    0.000000
  N      0.778933   -1.359597    0.000000
  C      1.042726   -0.011300    0.000000
  C      0.000000    0.939529    0.000000
  C      0.650742    2.159172    0.000000
  N      1.962308    1.874826    0.000000
  N      2.241607    0.540130    0.000000
  N     -1.509334   -0.870626    0.000000
  C     -1.390022    0.528250    0.000000
  O     -0.770109   -3.032395    0.000000
  H      2.729469    2.523638    0.000000
  O     -2.370508    1.243288    0.000000
  H      0.271382    3.165642    0.000000
  H     -2.450739   -1.235751    0.000000
  H      1.521119   -2.040297    0.000000

 Total Charge           Charge          ....    0
 Multiplicity           Mult            ....    1
 Number of Electrons    NEL             ....   78
 Basis Dimension        Dim             ....  289

ORBITAL ENERGIES
----------------

  NO   OCC          E(Eh)            E(eV)
   0   2.0000     -20.559421      -559.4503
   1   2.0000     -20.554760      -559.3235
   2   2.0000     -15.685727      -426.8303
   3   2.0000     -15.638996      -425.5587
   4   2.0000     -15.632224      -425.3744
   5   2.0000     -15.620476      -425.0548
   6   2.0000     -11.426745      -310.9376
   7   2.0000     -11.398089      -310.1578
   8   2.0000     -11.347601      -308.7839
   9   2.0000     -11.337487      -308.5087
  10   2.0000     -11.262790      -306.4761
  11   2.0000      -1.441801       -39.2334
  12   2.0000      -1.417912       -38.5833
  13   2.0000      -1.410920       -38.3931
  14   2.0000      -1.304542       -35.4984
  15   2.0000      -1.246472       -33.9182
  16   2.0000      -1.135711       -30.9043
  17   2.0000      -1.108235       -30.1566
  18   2.0000      -0.940646       -25.5963
  19   2.0000      -0.904938       -24.6246
  20   2.0000      -0.871798       -23.7228
  21   2.0000      -0.803142       -21.8546
  22   2.0000      -0.787418       -21.4267
  23   2.0000      -0.725783       -19.7496
  24   2.0000      -0.709368       -19.3029
  25   2.0000      -0.681332       -18.5400
  26   2.0000      -0.681217       -18.5368
  27   2.0000      -0.644416       -17.5354
  28   2.0000      -0.639559       -17.4033
  29   2.0000      -0.631305       -17.1787
  30   2.0000      -0.606388       -16.5007
  31   2.0000      -0.579821       -15.7777
  32   2.0000      -0.508168       -13.8280
  33   2.0000      -0.505344       -13.7511
  34   2.0000      -0.484440       -13.1823
  35   2.0000      -0.449495       -12.2314
  36   2.0000      -0.437098       -11.8940
  37   2.0000      -0.388637       -10.5754
  38   2.0000      -0.364089        -9.9074
  39   0.0000       0.020672         0.5625
  40   0.0000       0.042772         1.1639
  41   0.0000       0.044139         1.2011
  42   0.0000       0.056367         1.5338
  43   0.0000       0.066583         1.8118

MULLIKEN ATOMIC CHARGES
-----------------------
   0 C :    1.126037
   1 N :   -0.560183
   2 C :    0.492226
   3 C :    0.608062
   4 C :    1.161720
   5 N :   -0.530999
   6 N :   -0.637533
   7 N :   -0.633185
   8 C :    1.062157
   9 O :   -0.728954
  10 H :   -0.000604
  11 O :   -0.859606
  12 H :   -0.360304
  13 H :   -0.040530
  14 H :   -0.098303
Sum of atomic charges:   -0.0000000

LOEWDIN ATOMIC CHARGES
----------------------
   0 C :   -0.319384
   1 N :    0.185805
   2 C :   -0.216254
   3 C :   -0.087665
   4 C :    0.155185
   5 N :    0.039057
   6 N :    0.091307
   7 N :    0.194870
   8 C :   -0.279542
   9 O :    0.042330
  10 H :    0.033682
  11 O :    0.043057
  12 H :    0.031684
  13 H :    0.039330
  14 H :    0.046538

  Mayer bond orders larger than 0.100000
B(  0-C ,  1-N ) :   1.0863 B(  0-C ,  7-N ) :   0.9523 B(  0-C ,  9-O ) :   1.4778
B(  0-C , 13-H ) :  -0.1043 B(  1-N ,  2-C ) :   0.8588 B(  1-N ,  3-C ) :  -0.1589
B(  1-N , 14-H ) :   1.2101 B(  2-C ,  3-C ) :   0.9336 B(  2-C ,  4-C ) :  -0.4400
B(  2-C ,  5-N ) :  -0.3256 B(  2-C ,  6-N ) :   1.3355 B(  2-C ,  8-C ) :   0.1026
B(  2-C , 12-H ) :   0.1358 B(  3-C ,  4-C ) :   1.3402 B(  3-C ,  5-N ) :   0.1684
B(  3-C ,  8-C ) :   0.5472 B(  3-C , 12-H ) :   0.2584 B(  4-C ,  5-N ) :   1.0390
B(  4-C ,  8-C ) :  -0.2354 B(  4-C , 10-H ) :  -0.1165 B(  4-C , 12-H ) :   0.3223
B(  5-N ,  6-N ) :   1.0176 B(  5-N , 10-H ) :   1.1760 B(  5-N , 12-H ) :   0.1492
B(  6-N , 10-H ) :  -0.1488 B(  7-N ,  8-C ) :   0.7075 B(  7-N , 13-H ) :   1.1849
B(  8-C , 11-O ) :   1.2116

MP2 TOTAL ENERGY:     -561.021923967 Eh
FINAL SINGLE POINT ENERGY      -561.021923967176

DIPOLE MOMENT
-------------
                                X             Y             Z
Electronic contribution:     -0.55153      -0.83261       0.00000
Nuclear contribution   :      1.96662       2.29790       0.00000
                        -----------------------------------------
Total Dipole Moment    :      1.41508       1.46529       0.00000
                        -----------------------------------------
Magnitude (a.u.)       :      2.03704
Magnitude (Debye)      :      5.17775

Rotational constants in cm-1:     0.063911     0.036995     0.023431
Rotational constants in MHz :  1916.001924  1109.072380   702.457064

                             ****ORCA TERMINATED NORMALLY****
TOTAL RUN TIME: 0 days 0 hours 1 minutes 30 seconds 801 msec
