                         Program Version 5.0.3 -  RELEASE  -
|  1> !ri-mp2 aug-cc-pvdz aug-cc-pvdz/c tightscf
|  2> %pal nprocs 16 end
|  3>
|  4> * xyz 0 1
|  5> F    -0.357644   -0.471312    1.292576
|  6> F    -1.367380   -0.721561   -0.632011
|  7> O     0.767788   -0.495627   -0.659306
|  8> O     1.909998    0.165753   -0.077280
|  9> C    -0.382758   -0.035679   -0.006307
| 10> C    -0.624405    1.447497   -0.059329
| 11> H     2.203516   -0.500296    0.562031
| 12> H    -0.689198    1.760727   -1.098748
| 13> H    -1.559522    1.670655    0.449572
| 14> H     0.191108    1.972855    0.428559
| 15> *
| 16>
| 17>                          ****END OF INPUT****

CARTESIAN COORDINATES (ANGSTROEM)
---------------------------------
  F     -0.357644   -0.471312    1.292576
  F     -1.367380   -0.721561   -0.632011
  O      0.767788   -0.495627   -0.659306
  O      1.909998    0.165753   -0.077280
  C     -0.382758   -0.035679   -0.006307
  C     -0.624405    1.447497   -0.059329
  H      2.203516   -0.500296    0.562031
  H     -0.689198    1.760727   -1.098748
  H     -1.559522    1.670655    0.449572
  H      0.191108    1.972855    0.428559

 Total Charge           Charge          ....    0
 Multiplicity           Mult            ....    1
 Number of Electrons    NEL             ....   50
 Basis Dimension        Dim             ....  174

ORBITAL ENERGIES
----------------

  NO   OCC          E(Eh)            E(eV)
   0   2.0000     -26.339987      -716.7475
   1   2.0000     -26.335218      -716.6177
   2   2.0000     -20.671433      -562.4983
   3   2.0000     -20.667944      -562.4033
   4   2.0000     -11.484945      -312.5212
   5   2.0000     -11.255882      -306.2881
   6   2.0000      -1.691374       -46.0246
   7   2.0000      -1.620705       -44.1016
   8   2.0000      -1.516487       -41.2657
   9   2.0000      -1.268254       -34.5109
  10   2.0000      -1.052084       -28.6287
  11   2.0000      -0.897420       -24.4200
  12   2.0000      -0.794018       -21.6063
  13   2.0000      -0.790849       -21.5201
  14   2.0000      -0.764003       -20.7896
  15   2.0000      -0.726169       -19.7601
  16   2.0000      -0.690344       -18.7852
  17   2.0000      -0.662885       -18.0380
  18   2.0000      -0.647498       -17.6193
  19   2.0000      -0.617894       -16.8138
  20   2.0000      -0.594268       -16.1709
  21   2.0000      -0.577608       -15.7175
  22   2.0000      -0.572030       -15.5657
  23   2.0000      -0.522353       -14.2139
  24   2.0000      -0.511161       -13.9094
  25   0.0000       0.034927         0.9504
  26   0.0000       0.045088         1.2269
  27   0.0000       0.058656         1.5961
  28   0.0000       0.061945         1.6856
  29   0.0000       0.092251         2.5103

MULLIKEN ATOMIC CHARGES
-----------------------
   0 F :   -0.691011
   1 F :   -0.668353
   2 O :   -0.632550
   3 O :   -0.286008
   4 C :    1.889782
   5 C :    0.104489
   6 H :    0.223599
   7 H :    0.028034
   8 H :    0.012897
   9 H :    0.019120
Sum of atomic charges:    0.0000000

LOEWDIN ATOMIC CHARGES
----------------------
   0 F :    0.049164
   1 F :    0.075730
   2 O :    0.041027
   3 O :    0.147260
   4 C :   -0.436982
   5 C :    0.192802
   6 H :   -0.058752
   7 H :    0.002248
   8 H :   -0.001140
   9 H :   -0.011356

  Mayer bond orders larger than 0.100000
B(  0-F ,  4-C ) :   0.1451 B(  0-F ,  5-C ) :   0.1238 B(  1-F ,  4-C ) :   0.2061
B(  1-F ,  5-C ) :   0.1046 B(  2-O ,  3-O ) :   0.8945 B(  2-O ,  4-C ) :   0.3572
B(  3-O ,  4-C ) :  -0.1305 B(  3-O ,  6-H ) :   0.9945 B(  4-C ,  5-C ) :   1.2866
B(  5-C ,  7-H ) :   0.9093 B(  5-C ,  8-H ) :   0.9079 B(  5-C ,  9-H ) :   0.9475

MP2 TOTAL ENERGY:     -427.729753838 Eh
FINAL SINGLE POINT ENERGY      -427.729753837718

DIPOLE MOMENT
-------------
                                X             Y             Z
Electronic contribution:     -1.54178      -5.23082       0.68910
Nuclear contribution   :      1.81177       5.81995      -0.30893
                        -----------------------------------------
Total Dipole Moment    :      0.26999       0.58913       0.38017
                        -----------------------------------------
Magnitude (a.u.)       :      0.75133
Magnitude (Debye)      :      1.90974

Rotational constants in cm-1:     0.166444     0.099896     0.097163
Rotational constants in MHz :  4989.856540  2994.800688  2912.874584

                             ****ORCA TERMINATED NORMALLY****
TOTAL RUN TIME: 0 days 0 hours 0 minutes 29 seconds 937 msec
