                         Program Version 5.0.3 -  RELEASE  -
|  1> !ri-mp2 aug-cc-pvdz aug-cc-pvdz/c tightscf
|  2> %pal nprocs 16 end
|  3>
|  4> * xyz 0 1
|  5> C      2.489725   -0.124251    0.000000
|  6> C     -2.342568    0.613953    0.000000
|  7> C      1.086798   -0.728805    0.000000
|  8> C      0.000000    0.330652    0.000000
|  9> O     -1.268327   -0.300846    0.000000
| 10> H      2.655854    0.498469    0.881326
| 11> H      3.251026   -0.904383    0.000000
| 12> H      2.655854    0.498469   -0.881326
| 13> H     -2.324263    1.255246    0.889932
| 14> H     -3.263750    0.034649    0.000000
| 15> H     -2.324263    1.255246   -0.889932
| 16> H      0.951134   -1.366811    0.875899
| 17> H      0.951134   -1.366811   -0.875899
| 18> H      0.095077    0.976700    0.885030
| 19> H      0.095077    0.976700   -0.885030
| 20> *
| 21>
| 22>                          ****END OF INPUT****

CARTESIAN COORDINATES (ANGSTROEM)
---------------------------------
  C      2.489725   -0.124251    0.000000
  C     -2.342568    0.613953    0.000000
  C      1.086798   -0.728805    0.000000
  C      0.000000    0.330652    0.000000
  O     -1.268327   -0.300846    0.000000
  H      2.655854    0.498469    0.881326
  H      3.251026   -0.904383    0.000000
  H      2.655854    0.498469   -0.881326
  H     -2.324263    1.255246    0.889932
  H     -3.263750    0.034649    0.000000
  H     -2.324263    1.255246   -0.889932
  H      0.951134   -1.366811    0.875899
  H      0.951134   -1.366811   -0.875899
  H      0.095077    0.976700    0.885030
  H      0.095077    0.976700   -0.885030

 Total Charge           Charge          ....    0
 Multiplicity           Mult            ....    1
 Number of Electrons    NEL             ....   42
 Basis Dimension        Dim             ....  205

ORBITAL ENERGIES
----------------

  NO   OCC          E(Eh)            E(eV)
   0   2.0000     -20.561381      -559.5036
   1   2.0000     -11.275898      -306.8328
   2   2.0000     -11.274821      -306.8035
   3   2.0000     -11.222682      -305.3847
   4   2.0000     -11.221613      -305.3556
   5   2.0000      -1.373003       -37.3613
   6   2.0000      -1.057522       -28.7766
   7   2.0000      -0.952203       -25.9108
   8   2.0000      -0.878560       -23.9068
   9   2.0000      -0.807544       -21.9744
  10   2.0000      -0.670663       -18.2497
  11   2.0000      -0.648821       -17.6553
  12   2.0000      -0.625980       -17.0338
  13   2.0000      -0.605232       -16.4692
  14   2.0000      -0.563305       -15.3283
  15   2.0000      -0.538612       -14.6564
  16   2.0000      -0.503569       -13.7028
  17   2.0000      -0.488662       -13.2972
  18   2.0000      -0.476299       -12.9608
  19   2.0000      -0.465139       -12.6571
  20   2.0000      -0.418446       -11.3865
  21   0.0000       0.036783         1.0009
  22   0.0000       0.043696         1.1890
  23   0.0000       0.049384         1.3438
  24   0.0000       0.049660         1.3513
  25   0.0000       0.065355         1.7784

MULLIKEN ATOMIC CHARGES
-----------------------
   0 C :    0.391938
   1 C :    0.756054
   2 C :    0.095991
   3 C :    0.829491
   4 O :   -0.880853
   5 H :   -0.072785
   6 H :   -0.085860
   7 H :   -0.072785
   8 H :   -0.060897
   9 H :   -0.265103
  10 H :   -0.060897
  11 H :   -0.106953
  12 H :   -0.106953
  13 H :   -0.180194
  14 H :   -0.180194
Sum of atomic charges:   -0.0000000

LOEWDIN ATOMIC CHARGES
----------------------
   0 C :    0.132237
   1 C :    0.118729
   2 C :   -0.068043
   3 C :   -0.063457
   4 O :   -0.025137
   5 H :   -0.020876
   6 H :   -0.021450
   7 H :   -0.020876
   8 H :   -0.024689
   9 H :   -0.029288
  10 H :   -0.024689
  11 H :    0.013643
  12 H :    0.013643
  13 H :    0.010126
  14 H :    0.010126

  Mayer bond orders larger than 0.100000
B(  0-C ,  2-C ) :   1.1817 B(  0-C ,  5-H ) :   0.9466 B(  0-C ,  6-H ) :   0.9110
B(  0-C ,  7-H ) :   0.9466 B(  1-C ,  4-O ) :   0.7916 B(  1-C ,  8-H ) :   0.9437
B(  1-C ,  9-H ) :   1.0541 B(  1-C , 10-H ) :   0.9437 B(  2-C ,  3-C ) :   1.2911
B(  2-C , 11-H ) :   0.8047 B(  2-C , 12-H ) :   0.8047 B(  3-C ,  4-O ) :   0.5499
B(  3-C , 13-H ) :   0.8641 B(  3-C , 14-H ) :   0.8641

MP2 TOTAL ENERGY:     -232.969946869 Eh
FINAL SINGLE POINT ENERGY      -232.969946868580

DIPOLE MOMENT
-------------
                                X             Y             Z
Electronic contribution:     -2.79216      -1.48236       0.00000
Nuclear contribution   :      2.89760       1.97161       0.00000
                        -----------------------------------------
Total Dipole Moment    :      0.10544       0.48925       0.00000
                        -----------------------------------------
Magnitude (a.u.)       :      0.50049
Magnitude (Debye)      :      1.27214

Rotational constants in cm-1:     0.673290     0.070219     0.066754
Rotational constants in MHz : 20184.738572  2105.110942  2001.235536

                             ****ORCA TERMINATED NORMALLY****
TOTAL RUN TIME: 0 days 0 hours 0 minutes 39 seconds 847 msec
