                         Program Version 5.0.3 -  RELEASE  -
|  1> !ri-mp2 aug-cc-pvdz aug-cc-pvdz/c tightscf
|  2> %pal nprocs 16 end
|  3>
|  4> * xyz 0 1
|  5> S      0.000000    0.000000    2.271299
|  6> C      0.000000    0.000000    0.630759
|  7> S      0.000000    1.453602   -0.360432
|  8> C      0.000000    0.668708   -1.915944
|  9> C      0.000000   -0.668708   -1.915944
| 10> S      0.000000   -1.453602   -0.360432
| 11> H      0.000000    1.287666   -2.800087
| 12> H      0.000000   -1.287666   -2.800087
| 13> *
| 14>
| 15>                          ****END OF INPUT****

CARTESIAN COORDINATES (ANGSTROEM)
---------------------------------
  S      0.000000    0.000000    2.271299
  C      0.000000    0.000000    0.630759
  S      0.000000    1.453602   -0.360432
  C      0.000000    0.668708   -1.915944
  C      0.000000   -0.668708   -1.915944
  S      0.000000   -1.453602   -0.360432
  H      0.000000    1.287666   -2.800087
  H      0.000000   -1.287666   -2.800087

 Total Charge           Charge          ....    0
 Multiplicity           Mult            ....    1
 Number of Electrons    NEL             ....   68
 Basis Dimension        Dim             ....  168

ORBITAL ENERGIES
----------------

  NO   OCC          E(Eh)            E(eV)
   0   2.0000     -92.020627     -2504.0086
   1   2.0000     -92.020626     -2504.0085
   2   2.0000     -91.934982     -2501.6780
   3   2.0000     -11.388708      -309.9025
   4   2.0000     -11.310011      -307.7610
   5   2.0000     -11.308375      -307.7165
   6   2.0000      -9.023201      -245.5338
   7   2.0000      -9.023177      -245.5331
   8   2.0000      -8.938080      -243.2175
   9   2.0000      -6.704749      -182.4455
  10   2.0000      -6.704746      -182.4454
  11   2.0000      -6.703389      -182.4085
  12   2.0000      -6.703387      -182.4084
  13   2.0000      -6.701500      -182.3571
  14   2.0000      -6.701499      -182.3571
  15   2.0000      -6.620236      -180.1458
  16   2.0000      -6.617619      -180.0746
  17   2.0000      -6.616231      -180.0368
  18   2.0000      -1.206322       -32.8257
  19   2.0000      -1.076678       -29.2979
  20   2.0000      -1.040814       -28.3220
  21   2.0000      -0.942748       -25.6535
  22   2.0000      -0.800419       -21.7805
  23   2.0000      -0.741393       -20.1743
  24   2.0000      -0.694583       -18.9006
  25   2.0000      -0.585472       -15.9315
  26   2.0000      -0.563726       -15.3398
  27   2.0000      -0.554126       -15.0785
  28   2.0000      -0.532719       -14.4960
  29   2.0000      -0.482287       -13.1237
  30   2.0000      -0.435937       -11.8625
  31   2.0000      -0.421433       -11.4678
  32   2.0000      -0.343546        -9.3484
  33   2.0000      -0.312350        -8.4995
  34   0.0000       0.025673         0.6986
  35   0.0000       0.039737         1.0813
  36   0.0000       0.041775         1.1368
  37   0.0000       0.066584         1.8118
  38   0.0000       0.083295         2.2666

MULLIKEN ATOMIC CHARGES
-----------------------
   0 S :    0.085409
   1 C :   -0.802385
   2 S :    0.671427
   3 C :    0.023972
   4 C :    0.023972
   5 S :    0.671427
   6 H :   -0.336911
   7 H :   -0.336911
Sum of atomic charges:    0.0000000

LOEWDIN ATOMIC CHARGES
----------------------
   0 S :    0.446598
   1 C :   -1.345783
   2 S :    0.883808
   3 C :   -0.382770
   4 C :   -0.382770
   5 S :    0.883808
   6 H :   -0.051445
   7 H :   -0.051445

  Mayer bond orders larger than 0.100000
B(  0-S ,  1-C ) :   1.6155 B(  1-C ,  2-S ) :   1.1323 B(  1-C ,  5-S ) :   1.1323
B(  2-S ,  3-C ) :   0.8883 B(  2-S ,  4-C ) :  -0.1217 B(  2-S ,  6-H ) :  -0.1686
B(  3-C ,  4-C ) :   2.2579 B(  3-C ,  5-S ) :  -0.1217 B(  3-C ,  6-H ) :   0.9672
B(  4-C ,  5-S ) :   0.8883 B(  4-C ,  7-H ) :   0.9672 B(  5-S ,  7-H ) :  -0.1686

MP2 TOTAL ENERGY:    -1308.173629108 Eh
FINAL SINGLE POINT ENERGY     -1308.173629108091

DIPOLE MOMENT
-------------
                                X             Y             Z
Electronic contribution:      0.00000       0.00000       3.38716
Nuclear contribution   :      0.00000       0.00000      -5.37367
                        -----------------------------------------
Total Dipole Moment    :      0.00000       0.00000      -1.98650
                        -----------------------------------------
Magnitude (a.u.)       :      1.98650
Magnitude (Debye)      :      5.04929

Rotational constants in cm-1:     0.112709     0.059725     0.039039
Rotational constants in MHz :  3378.938224  1790.523814  1170.347961

                             ****ORCA TERMINATED NORMALLY****
TOTAL RUN TIME: 0 days 0 hours 0 minutes 40 seconds 811 msec
