                         Program Version 5.0.3 -  RELEASE  -
|  1> !ri-mp2 aug-cc-pvdz aug-cc-pvdz/c tightscf
|  2> %pal nprocs 16 end
|  3>
|  4> * xyz 0 1
|  5> C      0.008318    0.961105   -0.023694
|  6> C     -1.114125    0.158565    0.611742
|  7> C      1.116320    0.099589   -0.621439
|  8> O     -1.812567   -0.530130   -0.430109
|  9> O      1.810846   -0.677414    0.357585
| 10> H     -0.412195    1.593028   -0.810995
| 11> H      0.431966    1.633237    0.729520
| 12> H     -0.700353   -0.553181    1.331700
| 13> H     -1.795932    0.830612    1.143845
| 14> H      1.818672    0.728131   -1.178324
| 15> H      0.691233   -0.621872   -1.316811
| 16> H     -2.402771   -1.178879   -0.038359
| 17> H      2.320068   -0.086283    0.919958
| 18> *
| 19>
| 20>                          ****END OF INPUT****

CARTESIAN COORDINATES (ANGSTROEM)
---------------------------------
  C      0.008318    0.961105   -0.023694
  C     -1.114125    0.158565    0.611742
  C      1.116320    0.099589   -0.621439
  O     -1.812567   -0.530130   -0.430109
  O      1.810846   -0.677414    0.357585
  H     -0.412195    1.593028   -0.810995
  H      0.431966    1.633237    0.729520
  H     -0.700353   -0.553181    1.331700
  H     -1.795932    0.830612    1.143845
  H      1.818672    0.728131   -1.178324
  H      0.691233   -0.621872   -1.316811
  H     -2.402771   -1.178879   -0.038359
  H      2.320068   -0.086283    0.919958

 Total Charge           Charge          ....    0
 Multiplicity           Mult            ....    1
 Number of Electrons    NEL             ....   42
 Basis Dimension        Dim             ....  187

ORBITAL ENERGIES
----------------

  NO   OCC          E(Eh)            E(eV)
   0   2.0000     -20.565278      -559.6097
   1   2.0000     -20.564435      -559.5867
   2   2.0000     -11.279780      -306.9384
   3   2.0000     -11.276169      -306.8402
   4   2.0000     -11.229256      -305.5636
   5   2.0000      -1.360686       -37.0262
   6   2.0000      -1.354939       -36.8698
   7   2.0000      -1.045808       -28.4579
   8   2.0000      -0.914130       -24.8747
   9   2.0000      -0.808248       -21.9935
  10   2.0000      -0.704024       -19.1575
  11   2.0000      -0.680146       -18.5077
  12   2.0000      -0.650485       -17.7006
  13   2.0000      -0.610715       -16.6184
  14   2.0000      -0.569156       -15.4875
  15   2.0000      -0.567314       -15.4374
  16   2.0000      -0.523311       -14.2400
  17   2.0000      -0.497954       -13.5500
  18   2.0000      -0.475205       -12.9310
  19   2.0000      -0.448839       -12.2135
  20   2.0000      -0.431892       -11.7524
  21   0.0000       0.033854         0.9212
  22   0.0000       0.042601         1.1592
  23   0.0000       0.048788         1.3276
  24   0.0000       0.050557         1.3757
  25   0.0000       0.070101         1.9075

MULLIKEN ATOMIC CHARGES
-----------------------
   0 C :    0.006215
   1 C :    0.911074
   2 C :    0.948751
   3 O :   -0.687787
   4 O :   -0.709945
   5 H :   -0.069185
   6 H :   -0.120213
   7 H :   -0.130929
   8 H :   -0.141172
   9 H :   -0.116572
  10 H :   -0.154265
  11 H :    0.126425
  12 H :    0.137604
Sum of atomic charges:   -0.0000000

LOEWDIN ATOMIC CHARGES
----------------------
   0 C :   -0.044833
   1 C :   -0.049680
   2 C :   -0.042493
   3 O :    0.111003
   4 O :    0.107650
   5 H :    0.020577
   6 H :    0.015078
   7 H :    0.003522
   8 H :    0.001710
   9 H :    0.003481
  10 H :    0.002822
  11 H :   -0.062605
  12 H :   -0.066231

  Mayer bond orders larger than 0.100000
B(  0-C ,  1-C ) :   1.2764 B(  0-C ,  2-C ) :   1.2418 B(  0-C ,  5-H ) :   0.8411
B(  0-C ,  6-H ) :   0.8244 B(  1-C ,  3-O ) :   0.5467 B(  1-C ,  7-H ) :   0.9140
B(  1-C ,  8-H ) :   0.8724 B(  2-C ,  4-O ) :   0.4955 B(  2-C ,  9-H ) :   0.8768
B(  2-C , 10-H ) :   0.9221 B(  3-O , 11-H ) :   1.0862 B(  4-O , 12-H ) :   1.0730
B(  9-H , 10-H ) :  -0.1198

MP2 TOTAL ENERGY:     -268.863078370 Eh
FINAL SINGLE POINT ENERGY      -268.863078369528

DIPOLE MOMENT
-------------
                                X             Y             Z
Electronic contribution:     -0.03377      -1.83294      -0.23374
Nuclear contribution   :     -0.05114       2.41085       0.80791
                        -----------------------------------------
Total Dipole Moment    :     -0.08491       0.57791       0.57417
                        -----------------------------------------
Magnitude (a.u.)       :      0.81906
Magnitude (Debye)      :      2.08189

Rotational constants in cm-1:     0.311087     0.095476     0.090627
Rotational constants in MHz :  9326.139729  2862.294379  2716.932675

                             ****ORCA TERMINATED NORMALLY****
TOTAL RUN TIME: 0 days 0 hours 0 minutes 31 seconds 356 msec
