                         Program Version 5.0.3 -  RELEASE  -
|  1> !ri-mp2 aug-cc-pvdz aug-cc-pvdz/c tightscf
|  2> %pal nprocs 16 end
|  3>
|  4> * xyz 0 1
|  5> F      0.936726   -0.752395    1.002357
|  6> F      1.646645    0.548458   -0.624816
|  7> O     -1.587352   -0.834466   -0.382371
|  8> O     -0.934596    1.174393    0.623606
|  9> C     -0.691510    0.252835   -0.394390
| 10> C      0.702183   -0.374100   -0.292984
| 11> H     -0.754108    0.816515   -1.328274
| 12> H      0.817745   -1.249022   -0.931294
| 13> H     -2.484848   -0.486276   -0.414125
| 14> H     -0.717580    0.762386    1.470180
| 15> *
| 16>
| 17>                          ****END OF INPUT****

CARTESIAN COORDINATES (ANGSTROEM)
---------------------------------
  F      0.936726   -0.752395    1.002357
  F      1.646645    0.548458   -0.624816
  O     -1.587352   -0.834466   -0.382371
  O     -0.934596    1.174393    0.623606
  C     -0.691510    0.252835   -0.394390
  C      0.702183   -0.374100   -0.292984
  H     -0.754108    0.816515   -1.328274
  H      0.817745   -1.249022   -0.931294
  H     -2.484848   -0.486276   -0.414125
  H     -0.717580    0.762386    1.470180

 Total Charge           Charge          ....    0
 Multiplicity           Mult            ....    1
 Number of Electrons    NEL             ....   50
 Basis Dimension        Dim             ....  174

ORBITAL ENERGIES
----------------

  NO   OCC          E(Eh)            E(eV)
   0   2.0000     -26.334403      -716.5955
   1   2.0000     -26.331512      -716.5169
   2   2.0000     -20.601808      -560.6037
   3   2.0000     -20.599431      -560.5390
   4   2.0000     -11.424747      -310.8832
   5   2.0000     -11.373230      -309.4813
   6   2.0000      -1.673869       -45.5483
   7   2.0000      -1.612846       -43.8878
   8   2.0000      -1.442159       -39.2431
   9   2.0000      -1.364995       -37.1434
  10   2.0000      -1.031947       -28.0807
  11   2.0000      -0.894613       -24.3437
  12   2.0000      -0.797630       -21.7046
  13   2.0000      -0.789064       -21.4715
  14   2.0000      -0.767491       -20.8845
  15   2.0000      -0.730217       -19.8702
  16   2.0000      -0.686704       -18.6862
  17   2.0000      -0.667258       -18.1570
  18   2.0000      -0.640952       -17.4412
  19   2.0000      -0.637147       -17.3376
  20   2.0000      -0.627389       -17.0721
  21   2.0000      -0.591129       -16.0854
  22   2.0000      -0.520159       -14.1543
  23   2.0000      -0.514912       -14.0115
  24   2.0000      -0.484793       -13.1919
  25   0.0000       0.032602         0.8872
  26   0.0000       0.047005         1.2791
  27   0.0000       0.052247         1.4217
  28   0.0000       0.058118         1.5815
  29   0.0000       0.104115         2.8331

MULLIKEN ATOMIC CHARGES
-----------------------
   0 F :   -0.647954
   1 F :   -0.608907
   2 O :   -0.688668
   3 O :   -0.700262
   4 C :    1.227884
   5 C :    1.488039
   6 H :   -0.159708
   7 H :   -0.158186
   8 H :    0.116422
   9 H :    0.131340
Sum of atomic charges:   -0.0000000

LOEWDIN ATOMIC CHARGES
----------------------
   0 F :    0.042414
   1 F :    0.045691
   2 O :    0.144655
   3 O :    0.154486
   4 C :   -0.238479
   5 C :   -0.122694
   6 H :    0.034069
   7 H :    0.029505
   8 H :   -0.041209
   9 H :   -0.048438

  Mayer bond orders larger than 0.100000
B(  0-F ,  4-C ) :   0.1160 B(  0-F ,  5-C ) :   0.3343 B(  1-F ,  5-C ) :   0.3622
B(  2-O ,  4-C ) :   0.4718 B(  2-O ,  8-H ) :   1.0875 B(  3-O ,  4-C ) :   0.5350
B(  3-O ,  9-H ) :   1.0606 B(  4-C ,  5-C ) :   1.1789 B(  4-C ,  6-H ) :   0.8467
B(  5-C ,  7-H ) :   0.8934

MP2 TOTAL ENERGY:     -427.817494939 Eh
FINAL SINGLE POINT ENERGY      -427.817494939474

DIPOLE MOMENT
-------------
                                X             Y             Z
Electronic contribution:      4.79957      -0.27586       1.09923
Nuclear contribution   :     -5.48766       0.04824      -1.50610
                        -----------------------------------------
Total Dipole Moment    :     -0.68810      -0.22762      -0.40687
                        -----------------------------------------
Magnitude (a.u.)       :      0.83116
Magnitude (Debye)      :      2.11264

Rotational constants in cm-1:     0.171807     0.091483     0.085367
Rotational constants in MHz :  5150.632329  2742.596312  2559.240255

                             ****ORCA TERMINATED NORMALLY****
TOTAL RUN TIME: 0 days 0 hours 0 minutes 29 seconds 490 msec
