                         Program Version 5.0.3 -  RELEASE  -
|  1> !ri-mp2 aug-cc-pvdz aug-cc-pvdz/c tightscf
|  2> %pal nprocs 16 end
|  3>
|  4> * xyz 0 1
|  5> C     -2.312498   -2.277578    0.000000
|  6> C     -1.228339   -1.763422    0.000000
|  7> C      1.311092    2.604422    0.000000
|  8> C      0.077794   -1.116147    0.000000
|  9> C      1.378741    1.078321    0.000000
| 10> C      0.000000    0.420250    0.000000
| 11> H     -3.268709   -2.737512    0.000000
| 12> H      2.308010    3.046780    0.000000
| 13> H      0.783276    2.975425    0.880761
| 14> H      0.783276    2.975425   -0.880761
| 15> H      0.642365   -1.452734    0.874593
| 16> H      0.642365   -1.452734   -0.874593
| 17> H      1.941609    0.738131   -0.874478
| 18> H      1.941609    0.738131    0.874478
| 19> H     -0.567271    0.747005    0.874792
| 20> H     -0.567271    0.747005   -0.874792
| 21> *
| 22>
| 23>                          ****END OF INPUT****

CARTESIAN COORDINATES (ANGSTROEM)
---------------------------------
  C     -2.312498   -2.277578    0.000000
  C     -1.228339   -1.763422    0.000000
  C      1.311092    2.604422    0.000000
  C      0.077794   -1.116147    0.000000
  C      1.378741    1.078321    0.000000
  C      0.000000    0.420250    0.000000
  H     -3.268709   -2.737512    0.000000
  H      2.308010    3.046780    0.000000
  H      0.783276    2.975425    0.880761
  H      0.783276    2.975425   -0.880761
  H      0.642365   -1.452734    0.874593
  H      0.642365   -1.452734   -0.874593
  H      1.941609    0.738131   -0.874478
  H      1.941609    0.738131    0.874478
  H     -0.567271    0.747005    0.874792
  H     -0.567271    0.747005   -0.874792

 Total Charge           Charge          ....    0
 Multiplicity           Mult            ....    1
 Number of Electrons    NEL             ....   46
 Basis Dimension        Dim             ....  228

ORBITAL ENERGIES
----------------

  NO   OCC          E(Eh)            E(eV)
   0   2.0000     -11.255217      -306.2700
   1   2.0000     -11.238214      -305.8073
   2   2.0000     -11.233153      -305.6696
   3   2.0000     -11.229893      -305.5809
   4   2.0000     -11.224668      -305.4387
   5   2.0000     -11.222210      -305.3719
   6   2.0000      -1.098799       -29.8999
   7   2.0000      -1.041632       -28.3442
   8   2.0000      -0.979183       -26.6449
   9   2.0000      -0.885864       -24.1056
  10   2.0000      -0.803237       -21.8572
  11   2.0000      -0.715726       -19.4759
  12   2.0000      -0.653764       -17.7898
  13   2.0000      -0.631822       -17.1928
  14   2.0000      -0.594473       -16.1764
  15   2.0000      -0.589809       -16.0495
  16   2.0000      -0.537846       -14.6355
  17   2.0000      -0.514468       -13.9994
  18   2.0000      -0.491137       -13.3645
  19   2.0000      -0.477666       -12.9979
  20   2.0000      -0.472237       -12.8502
  21   2.0000      -0.381911       -10.3923
  22   2.0000      -0.380924       -10.3655
  23   0.0000       0.036589         0.9956
  24   0.0000       0.040233         1.0948
  25   0.0000       0.046510         1.2656
  26   0.0000       0.048809         1.3282
  27   0.0000       0.054409         1.4805

MULLIKEN ATOMIC CHARGES
-----------------------
   0 C :    0.860826
   1 C :   -0.325901
   2 C :    0.462785
   3 C :    0.115092
   4 C :    0.348062
   5 C :    0.190684
   6 H :   -0.560545
   7 H :   -0.068563
   8 H :   -0.074204
   9 H :   -0.074204
  10 H :   -0.035052
  11 H :   -0.035052
  12 H :   -0.183907
  13 H :   -0.183907
  14 H :   -0.218057
  15 H :   -0.218057
Sum of atomic charges:   -0.0000000

LOEWDIN ATOMIC CHARGES
----------------------
   0 C :    0.200605
   1 C :   -0.106160
   2 C :    0.133160
   3 C :   -0.060825
   4 C :   -0.073248
   5 C :   -0.032462
   6 H :   -0.109079
   7 H :   -0.021159
   8 H :   -0.018989
   9 H :   -0.018989
  10 H :    0.022566
  11 H :    0.022566
  12 H :    0.011811
  13 H :    0.011811
  14 H :    0.019195
  15 H :    0.019195

  Mayer bond orders larger than 0.100000
B(  0-C ,  1-C ) :   2.7155 B(  0-C ,  3-C ) :   0.1783 B(  0-C ,  6-H ) :  -0.4776
B(  1-C ,  3-C ) :   1.4248 B(  1-C ,  6-H ) :   0.7945 B(  2-C ,  4-C ) :   1.1837
B(  2-C ,  7-H ) :   0.8938 B(  2-C ,  8-H ) :   0.9295 B(  2-C ,  9-H ) :   0.9295
B(  3-C ,  5-C ) :   1.3177 B(  3-C ,  6-H ) :   0.1155 B(  3-C , 10-H ) :   0.7825
B(  3-C , 11-H ) :   0.7825 B(  4-C ,  5-C ) :   1.1700 B(  4-C ,  7-H ) :   0.1075
B(  4-C , 12-H ) :   0.7525 B(  4-C , 13-H ) :   0.7525 B(  5-C , 14-H ) :   0.7845
B(  5-C , 15-H ) :   0.7845

MP2 TOTAL ENERGY:     -233.849171911 Eh
FINAL SINGLE POINT ENERGY      -233.849171910940

DIPOLE MOMENT
-------------
                                X             Y             Z
Electronic contribution:     -4.58221      -6.42544      -0.00000
Nuclear contribution   :      4.87902       6.65180       0.00000
                        -----------------------------------------
Total Dipole Moment    :      0.29681       0.22635      -0.00000
                        -----------------------------------------
Magnitude (a.u.)       :      0.37327
Magnitude (Debye)      :      0.94878

Rotational constants in cm-1:     0.501982     0.043919     0.041620
Rotational constants in MHz : 15049.053286  1316.662662  1247.742536

                             ****ORCA TERMINATED NORMALLY****
TOTAL RUN TIME: 0 days 0 hours 0 minutes 45 seconds 362 msec
