                         Program Version 5.0.3 -  RELEASE  -
|  1> !ri-mp2 aug-cc-pvdz aug-cc-pvdz/c tightscf
|  2> %pal nprocs 16 end
|  3>
|  4> * xyz 0 1
|  5> C      0.989190    2.876892    0.000000
|  6> H      1.934526    3.421126    0.000000
|  7> H      0.422313    3.170372    0.883513
|  8> H      0.422313    3.170372   -0.883513
|  9> C      1.244016    1.383759    0.000000
| 10> H      1.827047    1.091952   -0.884410
| 11> H      1.827047    1.091952    0.884410
| 12> O      0.000000    0.704770    0.000000
| 13> C      0.125303   -0.705775    0.000000
| 14> H      0.691231   -1.031792   -0.884779
| 15> H      0.691231   -1.031792    0.884779
| 16> C     -1.257913   -1.331654    0.000000
| 17> H     -1.802831   -0.972980    0.875837
| 18> H     -1.802831   -0.972980   -0.875837
| 19> C     -1.205589   -2.858427    0.000000
| 20> H     -0.685547   -3.239386   -0.881267
| 21> H     -0.685547   -3.239386    0.881267
| 22> H     -2.208990   -3.284394    0.000000
| 23> *
| 24>
| 25>                          ****END OF INPUT****

CARTESIAN COORDINATES (ANGSTROEM)
---------------------------------
  C      0.989190    2.876892    0.000000
  H      1.934526    3.421126    0.000000
  H      0.422313    3.170372    0.883513
  H      0.422313    3.170372   -0.883513
  C      1.244016    1.383759    0.000000
  H      1.827047    1.091952   -0.884410
  H      1.827047    1.091952    0.884410
  O      0.000000    0.704770    0.000000
  C      0.125303   -0.705775    0.000000
  H      0.691231   -1.031792   -0.884779
  H      0.691231   -1.031792    0.884779
  C     -1.257913   -1.331654    0.000000
  H     -1.802831   -0.972980    0.875837
  H     -1.802831   -0.972980   -0.875837
  C     -1.205589   -2.858427    0.000000
  H     -0.685547   -3.239386   -0.881267
  H     -0.685547   -3.239386    0.881267
  H     -2.208990   -3.284394    0.000000

 Total Charge           Charge          ....    0
 Multiplicity           Mult            ....    1
 Number of Electrons    NEL             ....   50
 Basis Dimension        Dim             ....  246

ORBITAL ENERGIES
----------------

  NO   OCC          E(Eh)            E(eV)
   0   2.0000     -20.558283      -559.4193
   1   2.0000     -11.277237      -306.8692
   2   2.0000     -11.274442      -306.7932
   3   2.0000     -11.221842      -305.3618
   4   2.0000     -11.220892      -305.3360
   5   2.0000     -11.218110      -305.2603
   6   2.0000      -1.371399       -37.3177
   7   2.0000      -1.061763       -28.8920
   8   2.0000      -1.009438       -27.4682
   9   2.0000      -0.910946       -24.7881
  10   2.0000      -0.829780       -22.5795
  11   2.0000      -0.805795       -21.9268
  12   2.0000      -0.675373       -18.3778
  13   2.0000      -0.659538       -17.9470
  14   2.0000      -0.619031       -16.8447
  15   2.0000      -0.604958       -16.4617
  16   2.0000      -0.560390       -15.2490
  17   2.0000      -0.551815       -15.0156
  18   2.0000      -0.535336       -14.5672
  19   2.0000      -0.504073       -13.7165
  20   2.0000      -0.499153       -13.5826
  21   2.0000      -0.478668       -13.0252
  22   2.0000      -0.471736       -12.8366
  23   2.0000      -0.462011       -12.5720
  24   2.0000      -0.415128       -11.2962
  25   0.0000       0.037373         1.0170
  26   0.0000       0.042273         1.1503
  27   0.0000       0.046937         1.2772
  28   0.0000       0.047703         1.2981
  29   0.0000       0.060216         1.6385

MULLIKEN ATOMIC CHARGES
-----------------------
   0 C :    0.296641
   1 H :   -0.055347
   2 H :   -0.048264
   3 H :   -0.048264
   4 C :    0.561577
   5 H :   -0.135428
   6 H :   -0.135428
   7 O :   -0.897737
   8 C :    0.660475
   9 H :   -0.172079
  10 H :   -0.172079
  11 C :    0.216953
  12 H :   -0.135753
  13 H :   -0.135753
  14 C :    0.435604
  15 H :   -0.077168
  16 H :   -0.077168
  17 H :   -0.080781
Sum of atomic charges:    0.0000000

LOEWDIN ATOMIC CHARGES
----------------------
   0 C :    0.135216
   1 H :   -0.018441
   2 H :   -0.017035
   3 H :   -0.017035
   4 C :   -0.089208
   5 H :    0.005989
   6 H :    0.005989
   7 O :    0.001557
   8 C :   -0.058898
   9 H :    0.011106
  10 H :    0.011106
  11 C :   -0.066830
  12 H :    0.013663
  13 H :    0.013663
  14 C :    0.132449
  15 H :   -0.020886
  16 H :   -0.020886
  17 H :   -0.021520

  Mayer bond orders larger than 0.100000
B(  0-C ,  1-H ) :   0.9111 B(  0-C ,  2-H ) :   0.9428 B(  0-C ,  3-H ) :   0.9428
B(  0-C ,  4-C ) :   1.2680 B(  4-C ,  5-H ) :   0.8703 B(  4-C ,  6-H ) :   0.8703
B(  4-C ,  7-O ) :   0.7501 B(  7-O ,  8-C ) :   0.5339 B(  8-C ,  9-H ) :   0.8584
B(  8-C , 10-H ) :   0.8584 B(  8-C , 11-C ) :   1.2395 B(  8-C , 12-H ) :   0.1245
B(  8-C , 13-H ) :   0.1245 B( 11-C , 12-H ) :   0.7826 B( 11-C , 13-H ) :   0.7826
B( 11-C , 14-C ) :   1.1326 B( 14-C , 15-H ) :   0.9431 B( 14-C , 16-H ) :   0.9431
B( 14-C , 17-H ) :   0.9080

MP2 TOTAL ENERGY:     -272.162120596 Eh
FINAL SINGLE POINT ENERGY      -272.162120596129

DIPOLE MOMENT
-------------
                                X             Y             Z
Electronic contribution:     -0.26579       1.70284       0.00000
Nuclear contribution   :      0.67108      -1.93435       0.00000
                        -----------------------------------------
Total Dipole Moment    :      0.40529      -0.23150       0.00000
                        -----------------------------------------
Magnitude (a.u.)       :      0.46675
Magnitude (Debye)      :      1.18638

Rotational constants in cm-1:     0.529958     0.041998     0.040376
Rotational constants in MHz : 15887.731666  1259.078981  1210.443799

                             ****ORCA TERMINATED NORMALLY****
TOTAL RUN TIME: 0 days 0 hours 0 minutes 44 seconds 946 msec
