                         Program Version 5.0.3 -  RELEASE  -
|  1> !ri-mp2 aug-cc-pvdz aug-cc-pvdz/c tightscf
|  2> %pal nprocs 16 end
|  3>
|  4> * xyz 0 1
|  5> C     -3.998201   -0.032014    0.092137
|  6> C     -2.629647    0.130528   -0.566038
|  7> C     -1.467215   -0.100900    0.400376
|  8> C     -0.099316    0.063086   -0.264256
|  9> C      1.038289   -0.173687    0.725014
| 10> N      2.364390   -0.001301    0.031077
| 11> O      2.905108   -1.004150   -0.406070
| 12> O      2.792402    1.136336   -0.078101
| 13> H     -4.802943    0.140790   -0.623098
| 14> H     -4.125783   -1.037723    0.497305
| 15> H     -4.128535    0.674598    0.914043
| 16> H     -2.547318    1.133724   -0.993858
| 17> H     -2.543271   -0.565696   -1.405148
| 18> H     -1.548032   -1.105658    0.827165
| 19> H     -1.550790    0.596612    1.239848
| 20> H     -0.003675    1.068374   -0.678690
| 21> H     -0.002303   -0.642032   -1.092626
| 22> H      1.032650   -1.187298    1.115133
| 23> H      1.025724    0.553854    1.532353
| 24> *
| 25>
| 26>                          ****END OF INPUT****

CARTESIAN COORDINATES (ANGSTROEM)
---------------------------------
  C     -3.998201   -0.032014    0.092137
  C     -2.629647    0.130528   -0.566038
  C     -1.467215   -0.100900    0.400376
  C     -0.099316    0.063086   -0.264256
  C      1.038289   -0.173687    0.725014
  N      2.364390   -0.001301    0.031077
  O      2.905108   -1.004150   -0.406070
  O      2.792402    1.136336   -0.078101
  H     -4.802943    0.140790   -0.623098
  H     -4.125783   -1.037723    0.497305
  H     -4.128535    0.674598    0.914043
  H     -2.547318    1.133724   -0.993858
  H     -2.543271   -0.565696   -1.405148
  H     -1.548032   -1.105658    0.827165
  H     -1.550790    0.596612    1.239848
  H     -0.003675    1.068374   -0.678690
  H     -0.002303   -0.642032   -1.092626
  H      1.032650   -1.187298    1.115133
  H      1.025724    0.553854    1.532353

 Total Charge           Charge          ....    0
 Multiplicity           Mult            ....    1
 Number of Electrons    NEL             ....   64
 Basis Dimension        Dim             ....  283

ORBITAL ENERGIES
----------------

  NO   OCC          E(Eh)            E(eV)
   0   2.0000     -20.612052      -560.8824
   1   2.0000     -20.611031      -560.8547
   2   2.0000     -15.850785      -431.3218
   3   2.0000     -11.311546      -307.8028
   4   2.0000     -11.260292      -306.4081
   5   2.0000     -11.248794      -306.0953
   6   2.0000     -11.240885      -305.8800
   7   2.0000     -11.231112      -305.6141
   8   2.0000      -1.609217       -43.7890
   9   2.0000      -1.403998       -38.2047
  10   2.0000      -1.136313       -30.9206
  11   2.0000      -1.077433       -29.3184
  12   2.0000      -0.994851       -27.0713
  13   2.0000      -0.894257       -24.3340
  14   2.0000      -0.838342       -22.8124
  15   2.0000      -0.815494       -22.1907
  16   2.0000      -0.748509       -20.3680
  17   2.0000      -0.735162       -20.0048
  18   2.0000      -0.711416       -19.3586
  19   2.0000      -0.679539       -18.4912
  20   2.0000      -0.630872       -17.1669
  21   2.0000      -0.600268       -16.3341
  22   2.0000      -0.585183       -15.9236
  23   2.0000      -0.567944       -15.4546
  24   2.0000      -0.535134       -14.5617
  25   2.0000      -0.513786       -13.9808
  26   2.0000      -0.505333       -13.7508
  27   2.0000      -0.489485       -13.3196
  28   2.0000      -0.488774       -13.3002
  29   2.0000      -0.483753       -13.1636
  30   2.0000      -0.468365       -12.7449
  31   2.0000      -0.451450       -12.2846
  32   0.0000       0.030567         0.8318
  33   0.0000       0.037321         1.0156
  34   0.0000       0.041359         1.1254
  35   0.0000       0.046424         1.2633
  36   0.0000       0.058045         1.5795

MULLIKEN ATOMIC CHARGES
-----------------------
   0 C :    0.494286
   1 C :    0.332203
   2 C :    0.181596
   3 C :    0.136624
   4 C :    1.274638
   5 N :    0.803421
   6 O :   -0.799300
   7 O :   -0.802727
   8 H :   -0.062425
   9 H :   -0.084496
  10 H :   -0.085518
  11 H :   -0.183594
  12 H :   -0.182032
  13 H :   -0.200581
  14 H :   -0.195880
  15 H :   -0.137139
  16 H :   -0.148831
  17 H :   -0.179415
  18 H :   -0.160830
Sum of atomic charges:   -0.0000000

LOEWDIN ATOMIC CHARGES
----------------------
   0 C :    0.135366
   1 C :   -0.067684
   2 C :   -0.035171
   3 C :   -0.013569
   4 C :    0.085623
   5 N :   -0.368068
   6 O :    0.077029
   7 O :    0.076691
   8 H :   -0.019387
   9 H :   -0.018669
  10 H :   -0.018687
  11 H :    0.013872
  12 H :    0.013808
  13 H :    0.019037
  14 H :    0.019108
  15 H :    0.023769
  16 H :    0.025169
  17 H :    0.024796
  18 H :    0.026966

  Mayer bond orders larger than 0.100000
B(  0-C ,  1-C ) :   1.1812 B(  0-C ,  8-H ) :   0.9118 B(  0-C ,  9-H ) :   0.9246
B(  0-C , 10-H ) :   0.9240 B(  1-C ,  2-C ) :   1.2245 B(  1-C , 11-H ) :   0.7679
B(  1-C , 12-H ) :   0.7666 B(  2-C ,  3-C ) :   1.2681 B(  2-C , 13-H ) :   0.7990
B(  2-C , 14-H ) :   0.8036 B(  2-C , 16-H ) :   0.1002 B(  3-C ,  4-C ) :   1.1845
B(  3-C , 15-H ) :   0.7876 B(  3-C , 16-H ) :   0.7666 B(  3-C , 17-H ) :   0.1388
B(  3-C , 18-H ) :   0.1273 B(  4-C ,  5-N ) :   0.5714 B(  4-C , 17-H ) :   0.7725
B(  4-C , 18-H ) :   0.7985 B(  5-N ,  6-O ) :   1.1367 B(  5-N ,  7-O ) :   1.1142
B(  6-O ,  7-O ) :   0.1887 B( 17-H , 18-H ) :  -0.1455

MP2 TOTAL ENERGY:     -401.191209473 Eh
FINAL SINGLE POINT ENERGY      -401.191209472865

DIPOLE MOMENT
-------------
                                X             Y             Z
Electronic contribution:     17.85445       0.22262      -0.72961
Nuclear contribution   :    -19.58740      -0.37797       1.35946
                        -----------------------------------------
Total Dipole Moment    :     -1.73294      -0.15534       0.62985
                        -----------------------------------------
Magnitude (a.u.)       :      1.85039
Magnitude (Debye)      :      4.70331

Rotational constants in cm-1:     0.229801     0.022348     0.021828
Rotational constants in MHz :  6889.261237   669.976038   654.388206

                             ****ORCA TERMINATED NORMALLY****
TOTAL RUN TIME: 0 days 0 hours 1 minutes 30 seconds 255 msec
