                         Program Version 5.0.3 -  RELEASE  -
|  1> !ri-mp2 aug-cc-pvdz aug-cc-pvdz/c tightscf
|  2> %pal nprocs 16 end
|  3>
|  4> * xyz 0 1
|  5> C      0.965471    1.453203    0.000000
|  6> C     -0.209585    0.507329    0.000000
|  7> Cl    -0.209585   -0.525034    1.479700
|  8> Cl    -0.209585   -0.525034   -1.479700
|  9> H      1.903270    0.901560    0.000000
| 10> H      0.925876    2.084439   -0.887319
| 11> H      0.925876    2.084439    0.887319
| 12> H     -1.164450    1.017543    0.000000
| 13> *
| 14>
| 15>                          ****END OF INPUT****

CARTESIAN COORDINATES (ANGSTROEM)
---------------------------------
  C      0.965471    1.453203    0.000000
  C     -0.209585    0.507329    0.000000
  Cl    -0.209585   -0.525034    1.479700
  Cl    -0.209585   -0.525034   -1.479700
  H      1.903270    0.901560    0.000000
  H      0.925876    2.084439   -0.887319
  H      0.925876    2.084439    0.887319
  H     -1.164450    1.017543    0.000000

 Total Charge           Charge          ....    0
 Multiplicity           Mult            ....    1
 Number of Electrons    NEL             ....   50
 Basis Dimension        Dim             ....  136

ORBITAL ENERGIES
----------------

  NO   OCC          E(Eh)            E(eV)
   0   2.0000    -104.841438     -2852.8806
   1   2.0000    -104.841438     -2852.8806
   2   2.0000     -11.378629      -309.6282
   3   2.0000     -11.259060      -306.3746
   4   2.0000     -10.567625      -287.5597
   5   2.0000     -10.567606      -287.5592
   6   2.0000      -8.035225      -218.6496
   7   2.0000      -8.035223      -218.6495
   8   2.0000      -8.031920      -218.5597
   9   2.0000      -8.031919      -218.5596
  10   2.0000      -8.031857      -218.5579
  11   2.0000      -8.031856      -218.5579
  12   2.0000      -1.194283       -32.4981
  13   2.0000      -1.089837       -29.6560
  14   2.0000      -1.012769       -27.5589
  15   2.0000      -0.838314       -22.8117
  16   2.0000      -0.665349       -18.1051
  17   2.0000      -0.628977       -17.1153
  18   2.0000      -0.599018       -16.3001
  19   2.0000      -0.550288       -14.9741
  20   2.0000      -0.534178       -14.5357
  21   2.0000      -0.467187       -12.7128
  22   2.0000      -0.464942       -12.6517
  23   2.0000      -0.445011       -12.1094
  24   2.0000      -0.440183       -11.9780
  25   0.0000       0.034581         0.9410
  26   0.0000       0.047811         1.3010
  27   0.0000       0.056892         1.5481
  28   0.0000       0.064685         1.7602
  29   0.0000       0.084760         2.3064

MULLIKEN ATOMIC CHARGES
-----------------------
   0 C :    0.676347
   1 C :   -0.679470
   2 Cl:   -0.057590
   3 Cl:   -0.057590
   4 H :    0.016131
   5 H :   -0.007312
   6 H :   -0.007312
   7 H :    0.116795
Sum of atomic charges:    0.0000000

LOEWDIN ATOMIC CHARGES
----------------------
   0 C :    0.039167
   1 C :   -0.856508
   2 Cl:    0.462807
   3 Cl:    0.462807
   4 H :   -0.017267
   5 H :   -0.016823
   6 H :   -0.016823
   7 H :   -0.057360

  Mayer bond orders larger than 0.100000
B(  0-C ,  1-C ) :   1.0836 B(  0-C ,  4-H ) :   0.9706 B(  0-C ,  5-H ) :   0.9054
B(  0-C ,  6-H ) :   0.9054 B(  1-C ,  2-Cl) :   1.1936 B(  1-C ,  3-Cl) :   1.1936
B(  1-C ,  7-H ) :   0.9277

MP2 TOTAL ENERGY:     -997.680185401 Eh
FINAL SINGLE POINT ENERGY      -997.680185401302

DIPOLE MOMENT
-------------
                                X             Y             Z
Electronic contribution:     -2.90428      -6.27411      -0.00000
Nuclear contribution   :      3.02725       7.20244       0.00000
                        -----------------------------------------
Total Dipole Moment    :      0.12297       0.92833      -0.00000
                        -----------------------------------------
Magnitude (a.u.)       :      0.93644
Magnitude (Debye)      :      2.38024

Rotational constants in cm-1:     0.211959     0.103087     0.073397
Rotational constants in MHz :  6354.384470  3090.463563  2200.389028

                             ****ORCA TERMINATED NORMALLY****
TOTAL RUN TIME: 0 days 0 hours 0 minutes 26 seconds 650 msec
