                         Program Version 5.0.3 -  RELEASE  -
|  1> !ri-mp2 aug-cc-pvdz aug-cc-pvdz/c tightscf
|  2> %pal nprocs 16 end
|  3> %maxcore 3800
|  4>
|  5> * xyz 0 1
|  6> C     2.000783   -2.375333    0.000000
|  7> C     1.952841   -0.953690    0.000000
|  8> C     0.709392   -2.839143    0.000000
|  9> C     0.619213   -0.612080    0.000000
| 10> C    -0.282242    2.841230    0.000000
| 11> C     0.654875    1.876810    0.000000
| 12> C    -1.378739    0.841614    0.000000
| 13> N    -0.129515   -1.752458    0.000000
| 14> N    -1.520850    2.212219    0.000000
| 15> N     0.000000    0.643566    0.000000
| 16> O    -2.261036   -0.010039    0.000000
| 17> H     2.889351   -2.982383    0.000000
| 18> H     2.791003   -0.279563    0.000000
| 19> H     0.317417   -3.839971    0.000000
| 20> H    -0.176176    3.909258    0.000000
| 21> H     1.724825    1.950503    0.000000
| 22> H    -1.139214   -1.728251    0.000000
| 23> H    -2.423096    2.650993    0.000000
| 24> *
| 25>
| 26>                          ****END OF INPUT****

CARTESIAN COORDINATES (ANGSTROEM)
---------------------------------
  C      2.000783   -2.375333    0.000000
  C      1.952841   -0.953690    0.000000
  C      0.709392   -2.839143    0.000000
  C      0.619213   -0.612080    0.000000
  C     -0.282242    2.841230    0.000000
  C      0.654875    1.876810    0.000000
  C     -1.378739    0.841614    0.000000
  N     -0.129515   -1.752458    0.000000
  N     -1.520850    2.212219    0.000000
  N      0.000000    0.643566    0.000000
  O     -2.261036   -0.010039    0.000000
  H      2.889351   -2.982383    0.000000
  H      2.791003   -0.279563    0.000000
  H      0.317417   -3.839971    0.000000
  H     -0.176176    3.909258    0.000000
  H      1.724825    1.950503    0.000000
  H     -1.139214   -1.728251    0.000000
  H     -2.423096    2.650993    0.000000

 Total Charge           Charge          ....    0
 Multiplicity           Mult            ....    1
 Number of Electrons    NEL             ....   78
 Basis Dimension        Dim             ....  316

ORBITAL ENERGIES
----------------

  NO   OCC          E(Eh)            E(eV)
   0   2.0000     -20.538942      -558.8930
   1   2.0000     -15.640288      -425.5939
   2   2.0000     -15.629399      -425.2976
   3   2.0000     -15.605540      -424.6483
   4   2.0000     -11.402761      -310.2849
   5   2.0000     -11.311407      -307.7990
   6   2.0000     -11.296572      -307.3954
   7   2.0000     -11.292295      -307.2790
   8   2.0000     -11.253360      -306.2195
   9   2.0000     -11.217116      -305.2333
  10   2.0000     -11.216091      -305.2053
  11   2.0000      -1.424840       -38.7719
  12   2.0000      -1.335026       -36.3279
  13   2.0000      -1.304734       -35.5036
  14   2.0000      -1.228537       -33.4302
  15   2.0000      -1.050497       -28.5855
  16   2.0000      -1.041626       -28.3441
  17   2.0000      -0.985179       -26.8081
  18   2.0000      -0.875904       -23.8346
  19   2.0000      -0.860348       -23.4113
  20   2.0000      -0.792626       -21.5685
  21   2.0000      -0.773227       -21.0406
  22   2.0000      -0.743219       -20.2240
  23   2.0000      -0.721108       -19.6223
  24   2.0000      -0.668328       -18.1861
  25   2.0000      -0.654166       -17.8008
  26   2.0000      -0.635281       -17.2869
  27   2.0000      -0.627357       -17.0713
  28   2.0000      -0.609105       -16.5746
  29   2.0000      -0.596334       -16.2271
  30   2.0000      -0.578274       -15.7356
  31   2.0000      -0.553604       -15.0643
  32   2.0000      -0.536854       -14.6086
  33   2.0000      -0.503488       -13.7006
  34   2.0000      -0.480844       -13.0844
  35   2.0000      -0.454940       -12.3795
  36   2.0000      -0.350030        -9.5248
  37   2.0000      -0.335509        -9.1297
  38   2.0000      -0.273735        -7.4487
  39   0.0000       0.025349         0.6898
  40   0.0000       0.037748         1.0272
  41   0.0000       0.042672         1.1612
  42   0.0000       0.051427         1.3994
  43   0.0000       0.055415         1.5079

MULLIKEN ATOMIC CHARGES
-----------------------
   0 C :    0.433359
   1 C :    1.147880
   2 C :    0.729333
   3 C :   -0.123904
   4 C :    0.816616
   5 C :    0.809758
   6 C :    0.799528
   7 N :   -0.451337
   8 N :   -0.572332
   9 N :   -0.679257
  10 O :   -0.764754
  11 H :   -0.362577
  12 H :   -0.522372
  13 H :   -0.372867
  14 H :   -0.223420
  15 H :   -0.435048
  16 H :   -0.067843
  17 H :   -0.160764
Sum of atomic charges:   -0.0000000

LOEWDIN ATOMIC CHARGES
----------------------
   0 C :   -0.008647
   1 C :    0.038261
   2 C :    0.023434
   3 C :   -0.154172
   4 C :    0.047331
   5 C :    0.074665
   6 C :   -0.284329
   7 N :    0.127753
   8 N :    0.138968
   9 N :   -0.013890
  10 O :    0.020371
  11 H :   -0.014653
  12 H :   -0.017342
  13 H :   -0.009360
  14 H :    0.002589
  15 H :    0.006597
  16 H :   -0.012546
  17 H :    0.034972

  Mayer bond orders larger than 0.100000
B(  0-C ,  1-C ) :   1.6813 B(  0-C ,  2-C ) :   1.4890 B(  0-C , 11-H ) :   0.5130
B(  0-C , 12-H ) :   0.1619 B(  1-C ,  3-C ) :   1.0051 B(  1-C ,  7-N ) :  -0.1083
B(  1-C , 11-H ) :   0.1627 B(  1-C , 12-H ) :  -0.1416 B(  1-C , 15-H ) :  -0.1065
B(  2-C ,  3-C ) :   0.1398 B(  2-C ,  7-N ) :   0.9200 B(  2-C , 13-H ) :   0.8325
B(  2-C , 16-H ) :  -0.1918 B(  3-C ,  6-C ) :  -0.1553 B(  3-C ,  7-N ) :   0.9273
B(  3-C ,  9-N ) :   0.6145 B(  3-C , 11-H ) :   0.1410 B(  3-C , 12-H ) :   0.6390
B(  3-C , 13-H ) :   0.1702 B(  3-C , 15-H ) :   0.2857 B(  4-C ,  5-C ) :   2.1232
B(  4-C ,  8-N ) :   0.7694 B(  4-C ,  9-N ) :  -0.1260 B(  4-C , 14-H ) :   0.5721
B(  4-C , 15-H ) :   0.1184 B(  4-C , 17-H ) :  -0.1543 B(  5-C ,  9-N ) :   0.9753
B(  5-C , 14-H ) :   0.2443 B(  5-C , 15-H ) :   0.4867 B(  6-C ,  8-N ) :   1.1449
B(  6-C ,  9-N ) :   1.1965 B(  6-C , 10-O ) :   1.4870 B(  7-N , 13-H ) :  -0.1150
B(  7-N , 16-H ) :   1.1794 B(  8-N , 10-O ) :  -0.1478 B(  8-N , 17-H ) :   1.2428

MP2 TOTAL ENERGY:     -509.075483478 Eh
FINAL SINGLE POINT ENERGY      -509.075483477704

DIPOLE MOMENT
-------------
                                X             Y             Z
Electronic contribution:     -3.62012       1.74440       0.00000
Nuclear contribution   :      3.86845      -0.30751       0.00000
                        -----------------------------------------
Total Dipole Moment    :      0.24833       1.43689       0.00000
                        -----------------------------------------
Magnitude (a.u.)       :      1.45819
Magnitude (Debye)      :      3.70643

Rotational constants in cm-1:     0.093515     0.028449     0.021813
Rotational constants in MHz :  2803.506835   852.886277   653.942952

                             ****ORCA TERMINATED NORMALLY****
TOTAL RUN TIME: 0 days 0 hours 1 minutes 58 seconds 649 msec
