                         Program Version 5.0.3 -  RELEASE  -
|  1> !ri-mp2 aug-cc-pvdz aug-cc-pvdz/c tightscf
|  2> %pal nprocs 16 end
|  3>
|  4> * xyz 0 1
|  5> Cl    -0.802776    1.542890   -0.140419
|  6> Cl     2.113305   -0.235887   -0.445398
|  7> O     -0.818187   -1.131783   -0.204327
|  8> O     -2.257807   -1.225852   -0.211671
|  9> C     -0.450958   -0.091853    0.628640
| 10> C      1.015455   -0.237799    0.975858
| 11> H     -1.051458   -0.091718    1.536612
| 12> H      1.314562    0.581471    1.620958
| 13> H      1.157889   -1.186487    1.487459
| 14> H     -2.479028   -0.683324   -0.985157
| 15> *
| 16>
| 17>                          ****END OF INPUT****

CARTESIAN COORDINATES (ANGSTROEM)
---------------------------------
  Cl    -0.802776    1.542890   -0.140419
  Cl     2.113305   -0.235887   -0.445398
  O     -0.818187   -1.131783   -0.204327
  O     -2.257807   -1.225852   -0.211671
  C     -0.450958   -0.091853    0.628640
  C      1.015455   -0.237799    0.975858
  H     -1.051458   -0.091718    1.536612
  H      1.314562    0.581471    1.620958
  H      1.157889   -1.186487    1.487459
  H     -2.479028   -0.683324   -0.985157

 Total Charge           Charge          ....    0
 Multiplicity           Mult            ....    1
 Number of Electrons    NEL             ....   66
 Basis Dimension        Dim             ....  182

ORBITAL ENERGIES
----------------

  NO   OCC          E(Eh)            E(eV)
   0   2.0000    -104.838466     -2852.7997
   1   2.0000    -104.837448     -2852.7720
   2   2.0000     -20.675152      -562.5995
   3   2.0000     -20.665473      -562.3361
   4   2.0000     -11.391983      -309.9916
   5   2.0000     -11.330563      -308.3203
   6   2.0000     -10.564738      -287.4811
   7   2.0000     -10.563362      -287.4437
   8   2.0000      -8.032227      -218.5680
   9   2.0000      -8.031077      -218.5367
  10   2.0000      -8.029253      -218.4871
  11   2.0000      -8.029047      -218.4815
  12   2.0000      -8.027732      -218.4457
  13   2.0000      -8.027639      -218.4432
  14   2.0000      -1.525860       -41.5208
  15   2.0000      -1.285881       -34.9906
  16   2.0000      -1.156104       -31.4592
  17   2.0000      -1.113831       -30.3089
  18   2.0000      -0.990364       -26.9492
  19   2.0000      -0.848795       -23.0969
  20   2.0000      -0.770831       -20.9754
  21   2.0000      -0.702215       -19.1082
  22   2.0000      -0.691115       -18.8062
  23   2.0000      -0.660652       -17.9773
  24   2.0000      -0.612006       -16.6535
  25   2.0000      -0.570194       -15.5158
  26   2.0000      -0.553421       -15.0594
  27   2.0000      -0.527749       -14.3608
  28   2.0000      -0.488856       -13.3024
  29   2.0000      -0.467243       -12.7143
  30   2.0000      -0.457337       -12.4448
  31   2.0000      -0.449554       -12.2330
  32   2.0000      -0.444831       -12.1045
  33   0.0000       0.033579         0.9137
  34   0.0000       0.044382         1.2077
  35   0.0000       0.053500         1.4558
  36   0.0000       0.056239         1.5303
  37   0.0000       0.081005         2.2043

MULLIKEN ATOMIC CHARGES
-----------------------
   0 Cl:   -0.160531
   1 Cl:   -0.055700
   2 O :   -0.553922
   3 O :   -0.283106
   4 C :    0.547303
   5 C :    0.018430
   6 H :    0.036128
   7 H :    0.108311
   8 H :    0.086656
   9 H :    0.256432
Sum of atomic charges:    0.0000000

LOEWDIN ATOMIC CHARGES
----------------------
   0 Cl:    0.457523
   1 Cl:    0.485184
   2 O :   -0.017168
   3 O :    0.133630
   4 C :   -0.568984
   5 C :   -0.357009
   6 H :   -0.007324
   7 H :   -0.029315
   8 H :   -0.022861
   9 H :   -0.073677

  Mayer bond orders larger than 0.100000
B(  0-Cl,  4-C ) :   1.1645 B(  1-Cl,  4-C ) :  -0.1252 B(  1-Cl,  5-C ) :   1.2210
B(  2-O ,  3-O ) :   0.8939 B(  2-O ,  4-C ) :   0.5238 B(  3-O ,  4-C ) :  -0.1426
B(  3-O ,  9-H ) :   0.9594 B(  4-C ,  5-C ) :   1.2484 B(  4-C ,  6-H ) :   0.8435
B(  4-C ,  8-H ) :   0.1098 B(  5-C ,  7-H ) :   0.9064 B(  5-C ,  8-H ) :   0.8316

MP2 TOTAL ENERGY:    -1147.715071078 Eh
FINAL SINGLE POINT ENERGY     -1147.715071078227

DIPOLE MOMENT
-------------
                                X             Y             Z
Electronic contribution:      2.51510       3.13117      -3.48446
Nuclear contribution   :     -2.82196      -3.11126       4.25116
                        -----------------------------------------
Total Dipole Moment    :     -0.30686       0.01991       0.76670
                        -----------------------------------------
Magnitude (a.u.)       :      0.82607
Magnitude (Debye)      :      2.09969

Rotational constants in cm-1:     0.100933     0.050763     0.038970
Rotational constants in MHz :  3025.890594  1521.827922  1168.288785

                             ****ORCA TERMINATED NORMALLY****
TOTAL RUN TIME: 0 days 0 hours 0 minutes 51 seconds 400 msec
