                         Program Version 5.0.3 -  RELEASE  -
|  1> !ri-mp2 aug-cc-pvdz aug-cc-pvdz/c tightscf
|  2> %pal nprocs 16 end
|  3>
|  4> * xyz 0 1
|  5> S      1.269184    0.021994   -0.048659
|  6> N     -0.119168    1.321785   -0.175767
|  7> N      0.137736   -1.247091    0.185652
|  8> N     -1.310755    0.631314    0.167212
|  9> C     -1.144328   -0.729142   -0.328537
| 10> H      0.047793    2.004441    0.559957
| 11> H      0.046503   -1.444294    1.177121
| 12> H     -1.422604    0.577582    1.179868
| 13> H     -1.098328   -0.703317   -1.415165
| 14> H     -1.969031   -1.353519    0.008300
| 15> *
| 16>
| 17>                          ****END OF INPUT****

CARTESIAN COORDINATES (ANGSTROEM)
---------------------------------
  S      1.269184    0.021994   -0.048659
  N     -0.119168    1.321785   -0.175767
  N      0.137736   -1.247091    0.185652
  N     -1.310755    0.631314    0.167212
  C     -1.144328   -0.729142   -0.328537
  H      0.047793    2.004441    0.559957
  H      0.046503   -1.444294    1.177121
  H     -1.422604    0.577582    1.179868
  H     -1.098328   -0.703317   -1.415165
  H     -1.969031   -1.353519    0.008300

 Total Charge           Charge          ....    0
 Multiplicity           Mult            ....    1
 Number of Electrons    NEL             ....   48
 Basis Dimension        Dim             ....  164

ORBITAL ENERGIES
----------------

  NO   OCC          E(Eh)            E(eV)
   0   2.0000     -91.998282     -2503.4005
   1   2.0000     -15.627469      -425.2450
   2   2.0000     -15.610792      -424.7913
   3   2.0000     -15.601403      -424.5358
   4   2.0000     -11.309649      -307.7512
   5   2.0000      -8.994000      -244.7392
   6   2.0000      -6.675574      -181.6516
   7   2.0000      -6.674234      -181.6151
   8   2.0000      -6.671350      -181.5367
   9   2.0000      -1.333825       -36.2952
  10   2.0000      -1.201345       -32.6903
  11   2.0000      -1.072033       -29.1715
  12   2.0000      -0.884499       -24.0684
  13   2.0000      -0.868934       -23.6449
  14   2.0000      -0.736804       -20.0495
  15   2.0000      -0.667762       -18.1707
  16   2.0000      -0.650762       -17.7081
  17   2.0000      -0.585608       -15.9352
  18   2.0000      -0.541178       -14.7262
  19   2.0000      -0.533066       -14.5055
  20   2.0000      -0.492223       -13.3941
  21   2.0000      -0.438720       -11.9382
  22   2.0000      -0.381885       -10.3916
  23   2.0000      -0.334665        -9.1067
  24   0.0000       0.027803         0.7566
  25   0.0000       0.045029         1.2253
  26   0.0000       0.052095         1.4176
  27   0.0000       0.056877         1.5477
  28   0.0000       0.069846         1.9006

MULLIKEN ATOMIC CHARGES
-----------------------
   0 S :    0.669519
   1 N :   -0.440515
   2 N :   -0.750240
   3 N :   -0.433522
   4 C :    1.038450
   5 H :    0.110042
   6 H :    0.045794
   7 H :    0.031443
   8 H :   -0.141538
   9 H :   -0.129434
Sum of atomic charges:    0.0000000

LOEWDIN ATOMIC CHARGES
----------------------
   0 S :    0.775145
   1 N :   -0.156375
   2 N :   -0.282790
   3 N :   -0.042352
   4 C :   -0.109159
   5 H :   -0.094014
   6 H :   -0.089112
   7 H :   -0.027716
   8 H :    0.008920
   9 H :    0.017453

  Mayer bond orders larger than 0.100000
B(  0-S ,  1-N ) :   0.6888 B(  0-S ,  2-N ) :   0.7832 B(  1-N ,  3-N ) :   0.8583
B(  1-N ,  5-H ) :   0.9684 B(  2-N ,  3-N ) :   0.1003 B(  2-N ,  4-C ) :   0.8835
B(  2-N ,  6-H ) :   1.0602 B(  3-N ,  4-C ) :   0.8289 B(  3-N ,  7-H ) :   1.0101
B(  4-C ,  8-H ) :   0.9412 B(  4-C ,  9-H ) :   0.9165 B(  8-H ,  9-H ) :  -0.1379

MP2 TOTAL ENERGY:     -602.417053604 Eh
FINAL SINGLE POINT ENERGY      -602.417053604011

DIPOLE MOMENT
-------------
                                X             Y             Z
Electronic contribution:      3.83548       0.74045      -0.40479
Nuclear contribution   :     -4.39442      -0.90575       1.49628
                        -----------------------------------------
Total Dipole Moment    :     -0.55894      -0.16530       1.09149
                        -----------------------------------------
Magnitude (a.u.)       :      1.23737
Magnitude (Debye)      :      3.14515

Rotational constants in cm-1:     0.225877     0.157772     0.101589
Rotational constants in MHz :  6771.625243  4729.872662  3045.558855

                             ****ORCA TERMINATED NORMALLY****
TOTAL RUN TIME: 0 days 0 hours 0 minutes 52 seconds 365 msec
