                         Program Version 5.0.3 -  RELEASE  -
|  1> !ri-mp2 aug-cc-pvdz aug-cc-pvdz/c tightscf
|  2> %pal nprocs 16 end
|  3>
|  4> * xyz 0 1
|  5> C      0.000000    0.000000    1.770041
|  6> C      0.000000    0.000000    0.257391
|  7> Cl     0.000000    1.689350   -0.363984
|  8> Cl     1.463020   -0.844675   -0.363984
|  9> Cl    -1.463020   -0.844675   -0.363984
| 10> H      0.000000   -1.025689    2.132856
| 11> H      0.888273    0.512844    2.132856
| 12> H     -0.888273    0.512844    2.132856
| 13> *
| 14>
| 15>                          ****END OF INPUT****

CARTESIAN COORDINATES (ANGSTROEM)
---------------------------------
  C      0.000000    0.000000    1.770041
  C      0.000000    0.000000    0.257391
  Cl     0.000000    1.689350   -0.363984
  Cl     1.463020   -0.844675   -0.363984
  Cl    -1.463020   -0.844675   -0.363984
  H      0.000000   -1.025689    2.132856
  H      0.888273    0.512844    2.132856
  H     -0.888273    0.512844    2.132856

 Total Charge           Charge          ....    0
 Multiplicity           Mult            ....    1
 Number of Electrons    NEL             ....   66
 Basis Dimension        Dim             ....  154

ORBITAL ENERGIES
----------------

  NO   OCC          E(Eh)            E(eV)
   0   2.0000    -104.858466     -2853.3439
   1   2.0000    -104.858466     -2853.3439
   2   2.0000    -104.858466     -2853.3439
   3   2.0000     -11.447030      -311.4895
   4   2.0000     -11.270869      -306.6959
   5   2.0000     -10.584661      -288.0233
   6   2.0000     -10.584661      -288.0233
   7   2.0000     -10.584632      -288.0225
   8   2.0000      -8.052284      -219.1138
   9   2.0000      -8.052284      -219.1138
  10   2.0000      -8.052281      -219.1137
  11   2.0000      -8.048725      -219.0169
  12   2.0000      -8.048724      -219.0169
  13   2.0000      -8.048724      -219.0169
  14   2.0000      -8.048713      -219.0166
  15   2.0000      -8.048713      -219.0166
  16   2.0000      -8.048711      -219.0166
  17   2.0000      -1.241157       -33.7736
  18   2.0000      -1.107878       -30.1469
  19   2.0000      -1.107878       -30.1469
  20   2.0000      -1.021312       -27.7913
  21   2.0000      -0.805655       -21.9230
  22   2.0000      -0.654743       -17.8165
  23   2.0000      -0.654743       -17.8165
  24   2.0000      -0.630619       -17.1600
  25   2.0000      -0.562126       -15.2962
  26   2.0000      -0.562126       -15.2962
  27   2.0000      -0.495637       -13.4870
  28   2.0000      -0.495637       -13.4870
  29   2.0000      -0.468121       -12.7382
  30   2.0000      -0.457762       -12.4563
  31   2.0000      -0.457762       -12.4563
  32   2.0000      -0.445847       -12.1321
  33   0.0000       0.036688         0.9983
  34   0.0000       0.058456         1.5907
  35   0.0000       0.058456         1.5907
  36   0.0000       0.071945         1.9577
  37   0.0000       0.092439         2.5154

MULLIKEN ATOMIC CHARGES
-----------------------
   0 C :    0.981660
   1 C :   -1.182932
   2 Cl:    0.055886
   3 Cl:    0.055887
   4 Cl:    0.055887
   5 H :    0.011204
   6 H :    0.011204
   7 H :    0.011204
Sum of atomic charges:   -0.0000000

LOEWDIN ATOMIC CHARGES
----------------------
   0 C :   -0.006829
   1 C :   -1.381101
   2 Cl:    0.481195
   3 Cl:    0.481195
   4 Cl:    0.481195
   5 H :   -0.018552
   6 H :   -0.018552
   7 H :   -0.018552

  Mayer bond orders larger than 0.100000
B(  0-C ,  1-C ) :   0.9781 B(  0-C ,  5-H ) :   0.9008 B(  0-C ,  6-H ) :   0.9008
B(  0-C ,  7-H ) :   0.9008 B(  1-C ,  2-Cl) :   1.1532 B(  1-C ,  3-Cl) :   1.1532
B(  1-C ,  4-Cl) :   1.1532

MP2 TOTAL ENERGY:    -1456.739889713 Eh
FINAL SINGLE POINT ENERGY     -1456.739889712805

DIPOLE MOMENT
-------------
                                X             Y             Z
Electronic contribution:      0.00000       0.00000      -6.59629
Nuclear contribution   :      0.00000      -0.00000       7.39673
                        -----------------------------------------
Total Dipole Moment    :      0.00000      -0.00000       0.80044
                        -----------------------------------------
Magnitude (a.u.)       :      0.80044
Magnitude (Debye)      :      2.03455

Rotational constants in cm-1:     0.076918     0.076918     0.054961
Rotational constants in MHz :  2305.935061  2305.935047  1647.691764

                             ****ORCA TERMINATED NORMALLY****
TOTAL RUN TIME: 0 days 0 hours 0 minutes 30 seconds 48 msec
