                         Program Version 5.0.3 -  RELEASE  -
|  1> !ri-mp2 aug-cc-pvdz aug-cc-pvdz/c tightscf
|  2> %pal nprocs 16 end
|  3>
|  4> * xyz 0 1
|  5> N      0.000000    1.151590    0.730933
|  6> N      0.000000    0.000000    1.376561
|  7> N      0.000000   -1.151590    0.730933
|  8> C      0.000000   -1.164165   -0.603698
|  9> C      0.000000    0.000000   -1.346005
| 10> C      0.000000    1.164165   -0.603698
| 11> H      0.000000   -2.145712   -1.060908
| 12> H      0.000000    0.000000   -2.426768
| 13> H      0.000000    2.145712   -1.060908
| 14> *
| 15>
| 16>                          ****END OF INPUT****

CARTESIAN COORDINATES (ANGSTROEM)
---------------------------------
  N      0.000000    1.151590    0.730933
  N      0.000000    0.000000    1.376561
  N      0.000000   -1.151590    0.730933
  C      0.000000   -1.164165   -0.603698
  C      0.000000    0.000000   -1.346005
  C      0.000000    1.164165   -0.603698
  H      0.000000   -2.145712   -1.060908
  H      0.000000    0.000000   -2.426768
  H      0.000000    2.145712   -1.060908

 Total Charge           Charge          ....    0
 Multiplicity           Mult            ....    1
 Number of Electrons    NEL             ....   42
 Basis Dimension        Dim             ....  165

ORBITAL ENERGIES
----------------

  NO   OCC          E(Eh)            E(eV)
   0   2.0000     -15.676096      -426.5683
   1   2.0000     -15.633135      -425.3992
   2   2.0000     -15.633084      -425.3978
   3   2.0000     -11.319287      -308.0135
   4   2.0000     -11.319262      -308.0128
   5   2.0000     -11.289176      -307.1941
   6   2.0000      -1.418620       -38.6026
   7   2.0000      -1.227323       -33.3972
   8   2.0000      -1.145123       -31.1604
   9   2.0000      -0.952403       -25.9162
  10   2.0000      -0.931650       -25.3515
  11   2.0000      -0.748300       -20.3623
  12   2.0000      -0.744476       -20.2582
  13   2.0000      -0.669163       -18.2088
  14   2.0000      -0.617229       -16.7957
  15   2.0000      -0.616688       -16.7809
  16   2.0000      -0.576726       -15.6935
  17   2.0000      -0.438235       -11.9250
  18   2.0000      -0.437005       -11.8915
  19   2.0000      -0.433199       -11.7879
  20   2.0000      -0.420327       -11.4377
  21   0.0000       0.023690         0.6446
  22   0.0000       0.037243         1.0134
  23   0.0000       0.051642         1.4052
  24   0.0000       0.063577         1.7300
  25   0.0000       0.068366         1.8603

MULLIKEN ATOMIC CHARGES
-----------------------
   0 N :   -0.456844
   1 N :   -0.303262
   2 N :   -0.456844
   3 C :    0.713315
   4 C :    0.657547
   5 C :    0.713315
   6 H :   -0.252857
   7 H :   -0.361512
   8 H :   -0.252857
Sum of atomic charges:   -0.0000000

LOEWDIN ATOMIC CHARGES
----------------------
   0 N :   -0.005527
   1 N :   -0.019878
   2 N :   -0.005527
   3 C :   -0.015073
   4 C :    0.036136
   5 C :   -0.015073
   6 H :    0.008679
   7 H :    0.007582
   8 H :    0.008679

  Mayer bond orders larger than 0.100000
B(  0-N ,  1-N ) :   1.0485 B(  0-N ,  5-C ) :   1.0915 B(  1-N ,  2-N ) :   1.0485
B(  2-N ,  3-C ) :   1.0915 B(  3-C ,  4-C ) :   1.3069 B(  3-C ,  5-C ) :   0.2216
B(  3-C ,  6-H ) :   0.8517 B(  4-C ,  5-C ) :   1.3069 B(  4-C ,  7-H ) :   0.7829
B(  5-C ,  8-H ) :   0.8517

MP2 TOTAL ENERGY:     -279.551702620 Eh
FINAL SINGLE POINT ENERGY      -279.551702620028

DIPOLE MOMENT
-------------
                                X             Y             Z
Electronic contribution:     -0.00000       0.00000       2.37541
Nuclear contribution   :      0.00000       0.00000      -4.40901
                        -----------------------------------------
Total Dipole Moment    :     -0.00000       0.00000      -2.03361
                        -----------------------------------------
Magnitude (a.u.)       :      2.03361
Magnitude (Debye)      :      5.16902

Rotational constants in cm-1:     0.213417     0.210774     0.106044
Rotational constants in MHz :  6398.067243  6318.846995  3179.105183

                             ****ORCA TERMINATED NORMALLY****
TOTAL RUN TIME: 0 days 0 hours 0 minutes 52 seconds 847 msec
