                         Program Version 5.0.3 -  RELEASE  -
|  1> !ri-mp2 aug-cc-pvdz aug-cc-pvdz/c tightscf
|  2> %pal nprocs 16 end
|  3>
|  4> * xyz 0 1
|  5> C      0.430741    0.570041    0.000000
|  6> C     -0.305104    0.279695    1.300643
|  7> C     -0.305104    0.279695   -1.300643
|  8> Cl     0.726567    2.382023    0.000000
|  9> Cl    -0.305104   -1.475215   -1.736081
| 10> Cl    -0.305104   -1.475215    1.736081
| 11> H      1.416453    0.115060    0.000000
| 12> H      0.183833    0.788707   -2.122928
| 13> H      0.183833    0.788707    2.122928
| 14> H     -1.342701    0.596935   -1.244192
| 15> H     -1.342701    0.596935    1.244192
| 16> *
| 17>
| 18>                          ****END OF INPUT****

CARTESIAN COORDINATES (ANGSTROEM)
---------------------------------
  C      0.430741    0.570041    0.000000
  C     -0.305104    0.279695    1.300643
  C     -0.305104    0.279695   -1.300643
  Cl     0.726567    2.382023    0.000000
  Cl    -0.305104   -1.475215   -1.736081
  Cl    -0.305104   -1.475215    1.736081
  H      1.416453    0.115060    0.000000
  H      0.183833    0.788707   -2.122928
  H      0.183833    0.788707    2.122928
  H     -1.342701    0.596935   -1.244192
  H     -1.342701    0.596935    1.244192

 Total Charge           Charge          ....    0
 Multiplicity           Mult            ....    1
 Number of Electrons    NEL             ....   74
 Basis Dimension        Dim             ....  195

ORBITAL ENERGIES
----------------

  NO   OCC          E(Eh)            E(eV)
   0   2.0000    -104.848329     -2853.0681
   1   2.0000    -104.836066     -2852.7344
   2   2.0000    -104.836066     -2852.7344
   3   2.0000     -11.346414      -308.7516
   4   2.0000     -11.327205      -308.2289
   5   2.0000     -11.327178      -308.2282
   6   2.0000     -10.574149      -287.7372
   7   2.0000     -10.562008      -287.4068
   8   2.0000     -10.562004      -287.4067
   9   2.0000      -8.041651      -218.8244
  10   2.0000      -8.038635      -218.7424
  11   2.0000      -8.038530      -218.7395
  12   2.0000      -8.029652      -218.4980
  13   2.0000      -8.029652      -218.4979
  14   2.0000      -8.026428      -218.4102
  15   2.0000      -8.026427      -218.4102
  16   2.0000      -8.026333      -218.4076
  17   2.0000      -8.026332      -218.4076
  18   2.0000      -1.201755       -32.7014
  19   2.0000      -1.135966       -30.9112
  20   2.0000      -1.122577       -30.5469
  21   2.0000      -1.001473       -27.2515
  22   2.0000      -0.935997       -25.4698
  23   2.0000      -0.833208       -22.6728
  24   2.0000      -0.696133       -18.9427
  25   2.0000      -0.653129       -17.7725
  26   2.0000      -0.625869       -17.0308
  27   2.0000      -0.587911       -15.9979
  28   2.0000      -0.580249       -15.7894
  29   2.0000      -0.565881       -15.3984
  30   2.0000      -0.514421       -13.9981
  31   2.0000      -0.473634       -12.8882
  32   2.0000      -0.469169       -12.7667
  33   2.0000      -0.461283       -12.5522
  34   2.0000      -0.450495       -12.2586
  35   2.0000      -0.442991       -12.0544
  36   2.0000      -0.427869       -11.6429
  37   0.0000       0.037475         1.0197
  38   0.0000       0.046354         1.2614
  39   0.0000       0.046729         1.2715
  40   0.0000       0.063609         1.7309
  41   0.0000       0.069161         1.8820

MULLIKEN ATOMIC CHARGES
-----------------------
   0 C :   -0.276415
   1 C :    0.170001
   2 C :    0.170001
   3 Cl:   -0.112352
   4 Cl:   -0.090670
   5 Cl:   -0.090670
   6 H :   -0.072836
   7 H :    0.057206
   8 H :    0.057206
   9 H :    0.094265
  10 H :    0.094265
Sum of atomic charges:    0.0000000

LOEWDIN ATOMIC CHARGES
----------------------
   0 C :   -0.571052
   1 C :   -0.360939
   2 C :   -0.360939
   3 Cl:    0.515400
   4 Cl:    0.466758
   5 Cl:    0.466758
   6 H :   -0.010459
   7 H :   -0.044079
   8 H :   -0.044079
   9 H :   -0.028684
  10 H :   -0.028684

  Mayer bond orders larger than 0.100000
B(  0-C ,  1-C ) :   1.0692 B(  0-C ,  2-C ) :   1.0692 B(  0-C ,  3-Cl) :   1.1758
B(  0-C ,  4-Cl) :  -0.2024 B(  0-C ,  5-Cl) :  -0.2024 B(  0-C ,  6-H ) :   0.9573
B(  0-C ,  7-H ) :   0.1122 B(  0-C ,  8-H ) :   0.1122 B(  1-C ,  5-Cl) :   1.2180
B(  1-C ,  8-H ) :   0.8785 B(  1-C , 10-H ) :   0.9417 B(  2-C ,  4-Cl) :   1.2180
B(  2-C ,  7-H ) :   0.8785 B(  2-C ,  9-H ) :   0.9417

MP2 TOTAL ENERGY:    -1495.930810164 Eh
FINAL SINGLE POINT ENERGY     -1495.930810163875

DIPOLE MOMENT
-------------
                                X             Y             Z
Electronic contribution:      0.89107      -2.80952       0.00000
Nuclear contribution   :     -1.00652       3.48739       0.00000
                        -----------------------------------------
Total Dipole Moment    :     -0.11545       0.67787       0.00000
                        -----------------------------------------
Magnitude (a.u.)       :      0.68763
Magnitude (Debye)      :      1.74781

Rotational constants in cm-1:     0.060754     0.042287     0.025765
Rotational constants in MHz :  1821.350376  1267.740507   772.424780

                             ****ORCA TERMINATED NORMALLY****
TOTAL RUN TIME: 0 days 0 hours 0 minutes 55 seconds 469 msec
