                         Program Version 5.0.3 -  RELEASE  -
|  1> !ri-mp2 aug-cc-pvdz aug-cc-pvdz/c tightscf
|  2> %pal nprocs 16 end
|  3>
|  4> * xyz 0 1
|  5> C     -2.032028    1.358919        0.000000
|  6> C      0.000000    0.554262        0.000000
|  7> C     -0.943969   -0.466855        0.000000
|  8> C      0.643023   -2.033412        0.000000
|  9> C      1.406961    0.316403        0.000000
| 10> N     -2.208454    0.057574        0.000000
| 11> N     -0.625765   -1.795763        0.000000
| 12> N     -0.718202    1.721541        0.000000
| 13> N      1.625317   -1.077018        0.000000
| 14> O      2.326607    1.119304        0.000000
| 15> H     -2.822899    2.090916        0.000000
| 16> H      0.998377   -3.056608        0.000000
| 17> H     -0.336554    2.652448        0.000000
| 18> H      2.594034   -1.361433        0.000000
| 19> *
| 20>
| 21>                          ****END OF INPUT****

CARTESIAN COORDINATES (ANGSTROEM)
---------------------------------
  C     -2.032028    1.358919    0.000000
  C      0.000000    0.554262    0.000000
  C     -0.943969   -0.466855    0.000000
  C      0.643023   -2.033412    0.000000
  C      1.406961    0.316403    0.000000
  N     -2.208454    0.057574    0.000000
  N     -0.625765   -1.795763    0.000000
  N     -0.718202    1.721541    0.000000
  N      1.625317   -1.077018    0.000000
  O      2.326607    1.119304    0.000000
  H     -2.822899    2.090916    0.000000
  H      0.998377   -3.056608    0.000000
  H     -0.336554    2.652448    0.000000
  H      2.594034   -1.361433    0.000000

 Total Charge           Charge          ....    0
 Multiplicity           Mult            ....    1
 Number of Electrons    NEL             ....   70
 Basis Dimension        Dim             ....  266

ORBITAL ENERGIES
----------------

  NO   OCC          E(Eh)            E(eV)
   0   2.0000     -20.546632      -559.1023
   1   2.0000     -15.650710      -425.8775
   2   2.0000     -15.646865      -425.7729
   3   2.0000     -15.583931      -424.0603
   4   2.0000     -15.575597      -423.8335
   5   2.0000     -11.387908      -309.8807
   6   2.0000     -11.359530      -309.1085
   7   2.0000     -11.341521      -308.6185
   8   2.0000     -11.320101      -308.0356
   9   2.0000     -11.281828      -306.9941
  10   2.0000      -1.411059       -38.3969
  11   2.0000      -1.374918       -37.4134
  12   2.0000      -1.324020       -36.0284
  13   2.0000      -1.231281       -33.5049
  14   2.0000      -1.188305       -32.3354
  15   2.0000      -1.063037       -28.9267
  16   2.0000      -0.918827       -25.0025
  17   2.0000      -0.911782       -24.8108
  18   2.0000      -0.848574       -23.0909
  19   2.0000      -0.801572       -21.8119
  20   2.0000      -0.754792       -20.5389
  21   2.0000      -0.724092       -19.7035
  22   2.0000      -0.693786       -18.8789
  23   2.0000      -0.658309       -17.9135
  24   2.0000      -0.636010       -17.3067
  25   2.0000      -0.632333       -17.2066
  26   2.0000      -0.608673       -16.5628
  27   2.0000      -0.595736       -16.2108
  28   2.0000      -0.534225       -14.5370
  29   2.0000      -0.490375       -13.3438
  30   2.0000      -0.452871       -12.3232
  31   2.0000      -0.449350       -12.2274
  32   2.0000      -0.438707       -11.9378
  33   2.0000      -0.398925       -10.8553
  34   2.0000      -0.326780        -8.8921
  35   0.0000       0.026911         0.7323
  36   0.0000       0.028607         0.7784
  37   0.0000       0.051533         1.4023
  38   0.0000       0.056545         1.5387
  39   0.0000       0.072840         1.9821

MULLIKEN ATOMIC CHARGES
-----------------------
   0 C :    1.007329
   1 C :    0.753785
   2 C :    0.352960
   3 C :    0.920524
   4 C :    1.205559
   5 N :   -0.814254
   6 N :   -0.724316
   7 N :   -0.733646
   8 N :   -0.568203
   9 O :   -0.890751
  10 H :   -0.152213
  11 H :   -0.231174
  12 H :   -0.099662
  13 H :   -0.025937
Sum of atomic charges:   -0.0000000

LOEWDIN ATOMIC CHARGES
----------------------
   0 C :    0.020488
   1 C :   -0.091985
   2 C :   -0.245400
   3 C :    0.006559
   4 C :   -0.288127
   5 N :    0.083844
   6 N :    0.082381
   7 N :    0.138857
   8 N :    0.158933
   9 O :    0.011676
  10 H :    0.016803
  11 H :    0.023781
  12 H :    0.046161
  13 H :    0.036029

  Mayer bond orders larger than 0.100000
B(  0-C ,  2-C ) :  -0.1256 B(  0-C ,  5-N ) :   1.5383 B(  0-C ,  7-N ) :   1.1386
B(  0-C , 10-H ) :   0.8137 B(  0-C , 12-H ) :  -0.1141 B(  1-C ,  2-C ) :   1.2706
B(  1-C ,  4-C ) :   0.6290 B(  1-C ,  7-N ) :   0.7362 B(  1-C ,  8-N ) :   0.1385
B(  1-C ,  9-O ) :   0.1134 B(  1-C , 12-H ) :  -0.1651 B(  2-C ,  4-C ) :   0.2635
B(  2-C ,  5-N ) :   0.8971 B(  2-C ,  6-N ) :   0.9051 B(  3-C ,  4-C ) :  -0.1112
B(  3-C ,  6-N ) :   1.6945 B(  3-C ,  8-N ) :   0.8906 B(  3-C , 11-H ) :   0.9478
B(  3-C , 13-H ) :  -0.1397 B(  4-C ,  7-N ) :  -0.1923 B(  4-C ,  8-N ) :   0.7002
B(  4-C ,  9-O ) :   1.1016 B(  7-N , 12-H ) :   1.2685 B(  8-N , 13-H ) :   1.1630

MP2 TOTAL ENERGY:     -485.943134966 Eh
FINAL SINGLE POINT ENERGY      -485.943134965920

DIPOLE MOMENT
-------------
                                X             Y             Z
Electronic contribution:     -0.06150      -0.03098      -0.00000
Nuclear contribution   :      0.44267       0.32505       0.00000
                        -----------------------------------------
Total Dipole Moment    :      0.38116       0.29407      -0.00000
                        -----------------------------------------
Magnitude (a.u.)       :      0.48142
Magnitude (Debye)      :      1.22367

Rotational constants in cm-1:     0.080038     0.052007     0.031524
Rotational constants in MHz :  2399.476107  1559.134911   945.055463

                             ****ORCA TERMINATED NORMALLY****
TOTAL RUN TIME: 0 days 0 hours 1 minutes 25 seconds 673 msec
