                         Program Version 5.0.3 -  RELEASE  -
|  1> !ri-mp2 aug-cc-pvdz aug-cc-pvdz/c tightscf
|  2> %pal nprocs 16 end
|  3>
|  4> * xyz 0 1
|  5> C      2.841297    0.623378   -0.306532
|  6> C      2.814080   -0.667434    0.287849
|  7> C     -2.861574    0.594094    0.254885
|  8> C     -1.540425    1.066662    0.485810
|  9> C     -2.766925   -0.654559   -0.305131
| 10> C      1.541870    1.032508   -0.460978
| 11> C      1.498859   -1.002720    0.481775
| 12> C     -0.682616    0.087435    0.048268
| 13> N     -1.432507   -0.956411   -0.430976
| 14> N      0.716428    0.038300    0.020394
| 15> H      3.714040    1.183550   -0.595045
| 16> H      3.662216   -1.274837    0.553684
| 17> H     -3.776525    1.109760    0.489826
| 18> H     -1.248499    1.997823    0.938908
| 19> H     -3.525636   -1.349731   -0.616531
| 20> H      1.122489    1.926638   -0.885807
| 21> H      1.048662   -1.865483    0.939940
| 22> H     -1.051588   -1.777123   -0.866575
| 23> *
| 24>
| 25>                          ****END OF INPUT****

CARTESIAN COORDINATES (ANGSTROEM)
---------------------------------
  C      2.841297    0.623378   -0.306532
  C      2.814080   -0.667434    0.287849
  C     -2.861574    0.594094    0.254885
  C     -1.540425    1.066662    0.485810
  C     -2.766925   -0.654559   -0.305131
  C      1.541870    1.032508   -0.460978
  C      1.498859   -1.002720    0.481775
  C     -0.682616    0.087435    0.048268
  N     -1.432507   -0.956411   -0.430976
  N      0.716428    0.038300    0.020394
  H      3.714040    1.183550   -0.595045
  H      3.662216   -1.274837    0.553684
  H     -3.776525    1.109760    0.489826
  H     -1.248499    1.997823    0.938908
  H     -3.525636   -1.349731   -0.616531
  H      1.122489    1.926638   -0.885807
  H      1.048662   -1.865483    0.939940
  H     -1.051588   -1.777123   -0.866575

 Total Charge           Charge          ....    0
 Multiplicity           Mult            ....    1
 Number of Electrons    NEL             ....   70
 Basis Dimension        Dim             ....  302

ORBITAL ENERGIES
----------------

  NO   OCC          E(Eh)            E(eV)
   0   2.0000     -15.627551      -425.2473
   1   2.0000     -15.622565      -425.1116
   2   2.0000     -11.309878      -307.7574
   3   2.0000     -11.266311      -306.5719
   4   2.0000     -11.263783      -306.5031
   5   2.0000     -11.262939      -306.4802
   6   2.0000     -11.225406      -305.4588
   7   2.0000     -11.223835      -305.4161
   8   2.0000     -11.222930      -305.3914
   9   2.0000     -11.220536      -305.3263
  10   2.0000      -1.339716       -36.4555
  11   2.0000      -1.286275       -35.0013
  12   2.0000      -1.082943       -29.4684
  13   2.0000      -1.059098       -28.8195
  14   2.0000      -0.987623       -26.8746
  15   2.0000      -0.968632       -26.3578
  16   2.0000      -0.826493       -22.4900
  17   2.0000      -0.802293       -21.8315
  18   2.0000      -0.789531       -21.4842
  19   2.0000      -0.767728       -20.8909
  20   2.0000      -0.746136       -20.3034
  21   2.0000      -0.665048       -18.0969
  22   2.0000      -0.617697       -16.8084
  23   2.0000      -0.608899       -16.5690
  24   2.0000      -0.595862       -16.2142
  25   2.0000      -0.583956       -15.8902
  26   2.0000      -0.568900       -15.4806
  27   2.0000      -0.553621       -15.0648
  28   2.0000      -0.551673       -15.0118
  29   2.0000      -0.535538       -14.5727
  30   2.0000      -0.534243       -14.5375
  31   2.0000      -0.370504       -10.0819
  32   2.0000      -0.358840        -9.7645
  33   2.0000      -0.305645        -8.3170
  34   2.0000      -0.290968        -7.9176
  35   0.0000       0.031164         0.8480
  36   0.0000       0.041038         1.1167
  37   0.0000       0.041534         1.1302
  38   0.0000       0.048756         1.3267
  39   0.0000       0.053127         1.4457

MULLIKEN ATOMIC CHARGES
-----------------------
   0 C :    0.243147
   1 C :    0.297498
   2 C :    0.472647
   3 C :    0.947746
   4 C :    0.540394
   5 C :    0.676490
   6 C :    0.707677
   7 C :    0.027398
   8 N :   -0.472211
   9 N :   -0.563656
  10 H :   -0.340318
  11 H :   -0.344906
  12 H :   -0.332980
  13 H :   -0.455753
  14 H :   -0.318062
  15 H :   -0.455076
  16 H :   -0.501697
  17 H :   -0.128340
Sum of atomic charges:    0.0000000

LOEWDIN ATOMIC CHARGES
----------------------
   0 C :   -0.003751
   1 C :   -0.004812
   2 C :   -0.002326
   3 C :    0.054386
   4 C :    0.021475
   5 C :    0.053957
   6 C :    0.046570
   7 C :   -0.169716
   8 N :    0.112496
   9 N :   -0.094136
  10 H :   -0.013685
  11 H :   -0.013326
  12 H :   -0.012976
  13 H :   -0.003154
  14 H :   -0.008111
  15 H :    0.004425
  16 H :    0.000486
  17 H :    0.032198

  Mayer bond orders larger than 0.100000
B(  0-C ,  1-C ) :   1.6176 B(  0-C ,  5-C ) :   1.9736 B(  0-C ,  9-N ) :  -0.1271
B(  0-C , 10-H ) :   0.5820 B(  0-C , 11-H ) :   0.1509 B(  1-C ,  6-C ) :   1.9697
B(  1-C ,  9-N ) :  -0.1205 B(  1-C , 10-H ) :   0.1224 B(  1-C , 11-H ) :   0.5520
B(  2-C ,  3-C ) :   1.5638 B(  2-C ,  4-C ) :   1.5397 B(  2-C , 12-H ) :   0.5751
B(  3-C ,  7-C ) :   1.4019 B(  3-C , 12-H ) :   0.1504 B(  4-C ,  7-C ) :   0.1302
B(  4-C ,  8-N ) :   0.8194 B(  4-C , 14-H ) :   0.9330 B(  4-C , 17-H ) :  -0.1712
B(  5-C ,  9-N ) :   1.0770 B(  5-C , 10-H ) :   0.1126 B(  5-C , 15-H ) :   0.5790
B(  6-C ,  9-N ) :   1.0559 B(  6-C , 11-H ) :   0.1197 B(  6-C , 16-H ) :   0.5091
B(  7-C ,  8-N ) :   0.8639 B(  7-C ,  9-N ) :   0.7437 B(  7-C , 13-H ) :   0.6742
B(  7-C , 16-H ) :   0.1346 B(  7-C , 17-H ) :  -0.1471 B(  8-N , 14-H ) :  -0.1115
B(  8-N , 17-H ) :   1.2590

MP2 TOTAL ENERGY:     -417.946641777 Eh
FINAL SINGLE POINT ENERGY      -417.946641776751

DIPOLE MOMENT
-------------
                                X             Y             Z
Electronic contribution:     -0.25320      -0.45414      -0.21375
Nuclear contribution   :     -0.05873      -0.05450      -0.04378
                        -----------------------------------------
Total Dipole Moment    :     -0.31193      -0.50864      -0.25753
                        -----------------------------------------
Magnitude (a.u.)       :      0.64988
Magnitude (Debye)      :      1.65186

Rotational constants in cm-1:     0.151994     0.028728     0.025588
Rotational constants in MHz :  4556.673479   861.244717   767.109872

                             ****ORCA TERMINATED NORMALLY****
TOTAL RUN TIME: 0 days 0 hours 1 minutes 33 seconds 405 msec
