                         Program Version 5.0.3 -  RELEASE  -
|  1> !ri-mp2 aug-cc-pvdz aug-cc-pvdz/c tightscf
|  2> %pal nprocs 16 end
|  3>
|  4> * xyz 0 1
|  5> S     -1.333869   -0.074841   -0.191279
|  6> O     -0.280808   -1.189269    0.481817
|  7> N      1.033450   -1.218918   -0.164297
|  8> C     -0.367982    1.345481    0.076452
|  9> C      1.577197   -0.062059   -0.172578
| 10> C      0.965100    1.208069    0.174489
| 11> H     -0.880250    2.298065    0.110510
| 12> H      2.586562   -0.065980   -0.571412
| 13> H      1.602013    2.063015    0.346729
| 14> *
| 15>
| 16>                          ****END OF INPUT****

CARTESIAN COORDINATES (ANGSTROEM)
---------------------------------
  S     -1.333869   -0.074841   -0.191279
  O     -0.280808   -1.189269    0.481817
  N      1.033450   -1.218918   -0.164297
  C     -0.367982    1.345481    0.076452
  C      1.577197   -0.062059   -0.172578
  C      0.965100    1.208069    0.174489
  H     -0.880250    2.298065    0.110510
  H      2.586562   -0.065980   -0.571412
  H      1.602013    2.063015    0.346729

 Total Charge           Charge          ....    0
 Multiplicity           Mult            ....    1
 Number of Electrons    NEL             ....   52
 Basis Dimension        Dim             ....  169

ORBITAL ENERGIES
----------------

  NO   OCC          E(Eh)            E(eV)
   0   2.0000     -92.032452     -2504.3303
   1   2.0000     -20.633738      -561.4726
   2   2.0000     -15.648198      -425.8091
   3   2.0000     -11.312053      -307.8166
   4   2.0000     -11.311382      -307.7984
   5   2.0000     -11.272223      -306.7328
   6   2.0000      -9.028703      -245.6835
   7   2.0000      -6.710682      -182.6069
   8   2.0000      -6.708832      -182.5566
   9   2.0000      -6.706413      -182.4908
  10   2.0000      -1.427494       -38.8441
  11   2.0000      -1.193226       -32.4693
  12   2.0000      -1.123683       -30.5770
  13   2.0000      -0.952045       -25.9065
  14   2.0000      -0.885654       -24.0999
  15   2.0000      -0.740694       -20.1553
  16   2.0000      -0.698355       -19.0032
  17   2.0000      -0.688317       -18.7301
  18   2.0000      -0.634615       -17.2688
  19   2.0000      -0.606486       -16.5033
  20   2.0000      -0.561864       -15.2891
  21   2.0000      -0.499728       -13.5983
  22   2.0000      -0.492680       -13.4065
  23   2.0000      -0.455469       -12.3939
  24   2.0000      -0.422208       -11.4889
  25   2.0000      -0.335356        -9.1255
  26   0.0000       0.027990         0.7616
  27   0.0000       0.038413         1.0453
  28   0.0000       0.048777         1.3273
  29   0.0000       0.054602         1.4858
  30   0.0000       0.080869         2.2006

MULLIKEN ATOMIC CHARGES
-----------------------
   0 S :    0.784849
   1 O :   -0.960665
   2 N :   -0.245728
   3 C :    0.022944
   4 C :    0.465257
   5 C :    0.806087
   6 H :   -0.360528
   7 H :   -0.189281
   8 H :   -0.322936
Sum of atomic charges:    0.0000000

LOEWDIN ATOMIC CHARGES
----------------------
   0 S :    0.884020
   1 O :   -0.337464
   2 N :   -0.018460
   3 C :   -0.300011
   4 C :   -0.105125
   5 C :   -0.079428
   6 H :   -0.041310
   7 H :    0.008664
   8 H :   -0.010886

  Mayer bond orders larger than 0.100000
B(  0-S ,  1-O ) :   0.5895 B(  0-S ,  3-C ) :   0.9314 B(  0-S ,  6-H ) :  -0.1262
B(  1-O ,  2-N ) :   0.6655 B(  2-N ,  4-C ) :   1.4815 B(  3-C ,  4-C ) :   0.2083
B(  3-C ,  5-C ) :   1.7768 B(  3-C ,  6-H ) :   0.9549 B(  4-C ,  5-C ) :   1.0459
B(  4-C ,  7-H ) :   0.9115 B(  5-C ,  8-H ) :   0.7219

MP2 TOTAL ENERGY:     -643.005661221 Eh
FINAL SINGLE POINT ENERGY      -643.005661221260

DIPOLE MOMENT
-------------
                                X             Y             Z
Electronic contribution:     -2.90069      -2.51131      -0.06899
Nuclear contribution   :      3.23636       4.12522      -0.09816
                        -----------------------------------------
Total Dipole Moment    :      0.33567       1.61391      -0.16714
                        -----------------------------------------
Magnitude (a.u.)       :      1.65690
Magnitude (Debye)      :      4.21151

Rotational constants in cm-1:     0.170548     0.127215     0.077203
Rotational constants in MHz :  5112.897618  3813.810453  2314.493286

                             ****ORCA TERMINATED NORMALLY****
TOTAL RUN TIME: 0 days 0 hours 1 minutes 1 seconds 327 msec
