                         Program Version 5.0.3 -  RELEASE  -
|  1> !ri-mp2 aug-cc-pvdz aug-cc-pvdz/c tightscf
|  2> %pal nprocs 16 end
|  3>
|  4> * xyz 0 1
|  5> C     -1.364294   -0.257422    0.000000
|  6> Cl    -2.663967    1.000357    0.000000
|  7> C      0.000000    0.402791    0.000000
|  8> C      3.235965   -1.355048    0.000000
|  9> C      2.301786   -0.163749    0.000000
| 10> O      0.959835   -0.634578    0.000000
| 11> H      4.273451   -1.018738    0.000000
| 12> H     -1.508982   -0.865324    0.887556
| 13> H     -1.508982   -0.865324   -0.887556
| 14> H      0.111166    1.038659   -0.886420
| 15> H      0.111166    1.038659    0.886420
| 16> H      3.073565   -1.971524   -0.883887
| 17> H      3.073565   -1.971524    0.883887
| 18> H      2.471534    0.463118    0.884863
| 19> H      2.471534    0.463118   -0.884863
| 20> *
| 21>
| 22>                          ****END OF INPUT****

CARTESIAN COORDINATES (ANGSTROEM)
---------------------------------
  C     -1.364294   -0.257422    0.000000
  Cl    -2.663967    1.000357    0.000000
  C      0.000000    0.402791    0.000000
  C      3.235965   -1.355048    0.000000
  C      2.301786   -0.163749    0.000000
  O      0.959835   -0.634578    0.000000
  H      4.273451   -1.018738    0.000000
  H     -1.508982   -0.865324    0.887556
  H     -1.508982   -0.865324   -0.887556
  H      0.111166    1.038659   -0.886420
  H      0.111166    1.038659    0.886420
  H      3.073565   -1.971524   -0.883887
  H      3.073565   -1.971524    0.883887
  H      2.471534    0.463118    0.884863
  H      2.471534    0.463118   -0.884863

 Total Charge           Charge          ....    0
 Multiplicity           Mult            ....    1
 Number of Electrons    NEL             ....   58
 Basis Dimension        Dim             ....  223

ORBITAL ENERGIES
----------------

  NO   OCC          E(Eh)            E(eV)
   0   2.0000    -104.823191     -2852.3841
   1   2.0000     -20.576772      -559.9224
   2   2.0000     -11.300372      -307.4987
   3   2.0000     -11.297562      -307.4223
   4   2.0000     -11.290412      -307.2277
   5   2.0000     -11.227888      -305.5264
   6   2.0000     -10.549052      -287.0543
   7   2.0000      -8.016688      -218.1452
   8   2.0000      -8.013620      -218.0617
   9   2.0000      -8.013527      -218.0592
  10   2.0000      -1.390096       -37.8264
  11   2.0000      -1.136412       -30.9233
  12   2.0000      -1.041135       -28.3307
  13   2.0000      -0.969416       -26.3791
  14   2.0000      -0.846543       -23.0356
  15   2.0000      -0.842498       -22.9255
  16   2.0000      -0.696028       -18.9399
  17   2.0000      -0.675926       -18.3929
  18   2.0000      -0.636581       -17.3223
  19   2.0000      -0.622894       -16.9498
  20   2.0000      -0.566033       -15.4026
  21   2.0000      -0.552863       -15.0442
  22   2.0000      -0.539766       -14.6878
  23   2.0000      -0.515301       -14.0221
  24   2.0000      -0.507413       -13.8074
  25   2.0000      -0.488602       -13.2955
  26   2.0000      -0.436214       -11.8700
  27   2.0000      -0.435887       -11.8611
  28   2.0000      -0.432221       -11.7613
  29   0.0000       0.035082         0.9546
  30   0.0000       0.044874         1.2211
  31   0.0000       0.046076         1.2538
  32   0.0000       0.048935         1.3316
  33   0.0000       0.064754         1.7620

MULLIKEN ATOMIC CHARGES
-----------------------
   0 C :    0.030637
   1 Cl:   -0.123103
   2 C :    0.742956
   3 C :    0.280337
   4 C :    0.588689
   5 O :   -0.907253
   6 H :   -0.048537
   7 H :   -0.003686
   8 H :   -0.003686
   9 H :   -0.092210
  10 H :   -0.092210
  11 H :   -0.047275
  12 H :   -0.047275
  13 H :   -0.138693
  14 H :   -0.138693
Sum of atomic charges:   -0.0000000

LOEWDIN ATOMIC CHARGES
----------------------
   0 C :   -0.306589
   1 Cl:    0.443758
   2 C :   -0.114317
   3 C :    0.137790
   4 C :   -0.080654
   5 O :   -0.002782
   6 H :   -0.016394
   7 H :   -0.028556
   8 H :   -0.028556
   9 H :    0.006463
  10 H :    0.006463
  11 H :   -0.015884
  12 H :   -0.015884
  13 H :    0.007572
  14 H :    0.007572

  Mayer bond orders larger than 0.100000
B(  0-C ,  1-Cl) :   1.1989 B(  0-C ,  2-C ) :   1.2832 B(  0-C ,  7-H ) :   0.8705
B(  0-C ,  8-H ) :   0.8705 B(  1-Cl,  2-C ) :  -0.1499 B(  2-C ,  5-O ) :   0.6152
B(  2-C ,  7-H ) :   0.1511 B(  2-C ,  8-H ) :   0.1511 B(  2-C ,  9-H ) :   0.8794
B(  2-C , 10-H ) :   0.8794 B(  3-C ,  4-C ) :   1.2638 B(  3-C ,  6-H ) :   0.9066
B(  3-C , 11-H ) :   0.9495 B(  3-C , 12-H ) :   0.9495 B(  4-C ,  5-O ) :   0.6564
B(  4-C , 13-H ) :   0.8805 B(  4-C , 14-H ) :   0.8805

MP2 TOTAL ENERGY:     -692.039236007 Eh
FINAL SINGLE POINT ENERGY      -692.039236006875

DIPOLE MOMENT
-------------
                                X             Y             Z
Electronic contribution:    -15.52279       5.03074      -0.00000
Nuclear contribution   :     16.44876      -5.14707       0.00000
                        -----------------------------------------
Total Dipole Moment    :      0.92598      -0.11633      -0.00000
                        -----------------------------------------
Magnitude (a.u.)       :      0.93325
Magnitude (Debye)      :      2.37215

Rotational constants in cm-1:     0.553980     0.028473     0.027643
Rotational constants in MHz : 16607.902970   853.586367   828.701890

                             ****ORCA TERMINATED NORMALLY****
TOTAL RUN TIME: 0 days 0 hours 0 minutes 42 seconds 181 msec
