                         Program Version 5.0.3 -  RELEASE  -
|  1> !ri-mp2 aug-cc-pvdz aug-cc-pvdz/c tightscf
|  2> %pal nprocs 16 end
|  3>
|  4> * xyz 0 1
|  5> C      1.780721   -1.390068        0.000000
|  6> C      2.244479   -0.063173        0.000000
|  7> C      0.427376   -1.674703        0.000000
|  8> C      1.363098    1.004249        0.000000
|  9> C     -1.922320   -0.531592        0.000000
| 10> C     -2.246341    0.794059        0.000000
| 11> C     -0.491170   -0.616487        0.000000
| 12> C      0.000000    0.713959        0.000000
| 13> N     -1.093515    1.551035        0.000000
| 14> H      2.498544   -2.199111        0.000000
| 15> H      3.309164    0.126774        0.000000
| 16> H      0.081991   -2.700230        0.000000
| 17> H      1.723021    2.024849        0.000000
| 18> H     -2.621351   -1.350213        0.000000
| 19> H     -3.211971    1.269781        0.000000
| 20> H     -1.059845    2.553449        0.000000
| 21> *
| 22>
| 23>                          ****END OF INPUT****

CARTESIAN COORDINATES (ANGSTROEM)
---------------------------------
  C      1.780721   -1.390068    0.000000
  C      2.244479   -0.063173    0.000000
  C      0.427376   -1.674703    0.000000
  C      1.363098    1.004249    0.000000
  C     -1.922320   -0.531592    0.000000
  C     -2.246341    0.794059    0.000000
  C     -0.491170   -0.616487    0.000000
  C      0.000000    0.713959    0.000000
  N     -1.093515    1.551035    0.000000
  H      2.498544   -2.199111    0.000000
  H      3.309164    0.126774    0.000000
  H      0.081991   -2.700230    0.000000
  H      1.723021    2.024849    0.000000
  H     -2.621351   -1.350213    0.000000
  H     -3.211971    1.269781    0.000000
  H     -1.059845    2.553449    0.000000

 Total Charge           Charge          ....    0
 Multiplicity           Mult            ....    1
 Number of Electrons    NEL             ....   62
 Basis Dimension        Dim             ....  270

ORBITAL ENERGIES
----------------

  NO   OCC          E(Eh)            E(eV)
   0   2.0000     -15.610496      -424.7832
   1   2.0000     -11.277032      -306.8636
   2   2.0000     -11.270335      -306.6814
   3   2.0000     -11.236407      -305.7582
   4   2.0000     -11.234735      -305.7127
   5   2.0000     -11.233563      -305.6808
   6   2.0000     -11.230180      -305.5887
   7   2.0000     -11.225613      -305.4645
   8   2.0000     -11.222319      -305.3748
   9   2.0000      -1.300632       -35.3920
  10   2.0000      -1.134667       -30.8759
  11   2.0000      -1.060626       -28.8611
  12   2.0000      -1.001281       -27.2462
  13   2.0000      -0.979537       -26.6546
  14   2.0000      -0.846135       -23.0245
  15   2.0000      -0.809646       -22.0316
  16   2.0000      -0.791888       -21.5484
  17   2.0000      -0.731095       -19.8941
  18   2.0000      -0.663478       -18.0541
  19   2.0000      -0.650520       -17.7016
  20   2.0000      -0.604157       -16.4399
  21   2.0000      -0.597599       -16.2615
  22   2.0000      -0.584066       -15.8932
  23   2.0000      -0.577724       -15.7207
  24   2.0000      -0.551023       -14.9941
  25   2.0000      -0.509074       -13.8526
  26   2.0000      -0.482771       -13.1369
  27   2.0000      -0.466073       -12.6825
  28   2.0000      -0.386090       -10.5060
  29   2.0000      -0.301616        -8.2074
  30   2.0000      -0.284240        -7.7346
  31   0.0000       0.029748         0.8095
  32   0.0000       0.038466         1.0467
  33   0.0000       0.041424         1.1272
  34   0.0000       0.052906         1.4396
  35   0.0000       0.054203         1.4749

MULLIKEN ATOMIC CHARGES
-----------------------
   0 C :    0.543194
   1 C :    0.327995
   2 C :    1.106757
   3 C :    0.899571
   4 C :    0.586461
   5 C :    0.680607
   6 C :    0.099794
   7 C :   -0.651612
   8 N :   -0.726548
   9 H :   -0.488283
  10 H :   -0.473297
  11 H :   -0.478843
  12 H :   -0.538840
  13 H :   -0.421891
  14 H :   -0.332397
  15 H :   -0.132667
Sum of atomic charges:    0.0000000

LOEWDIN ATOMIC CHARGES
----------------------
   0 C :   -0.005139
   1 C :   -0.000242
   2 C :    0.052805
   3 C :    0.054548
   4 C :    0.051304
   5 C :    0.036783
   6 C :   -0.157904
   7 C :   -0.146311
   8 N :    0.104736
   9 H :   -0.007359
  10 H :   -0.004406
  11 H :    0.003743
  12 H :    0.000457
  13 H :   -0.008139
  14 H :    0.000748
  15 H :    0.024375

  Mayer bond orders larger than 0.100000
B(  0-C ,  1-C ) :   1.7306 B(  0-C ,  2-C ) :   1.5385 B(  0-C ,  4-C ) :   0.1006
B(  0-C ,  7-C ) :  -0.1439 B(  0-C ,  9-H ) :   0.1907 B(  0-C , 10-H ) :   0.2459
B(  0-C , 12-H ) :  -0.1393 B(  1-C ,  3-C ) :   1.7427 B(  1-C ,  4-C ) :   0.1051
B(  1-C ,  7-C ) :   0.1982 B(  1-C ,  9-H ) :   0.2297 B(  1-C , 10-H ) :   0.2611
B(  1-C , 12-H ) :   0.1993 B(  2-C ,  4-C ) :  -0.3183 B(  2-C ,  5-C ) :   0.1472
B(  2-C ,  6-C ) :   1.6689 B(  2-C ,  7-C ) :  -0.4471 B(  2-C ,  9-H ) :   0.2728
B(  2-C , 11-H ) :  -0.1071 B(  3-C ,  4-C ) :   0.1159 B(  3-C ,  6-C ) :  -0.3001
B(  3-C ,  7-C ) :   1.6902 B(  3-C ,  8-N ) :  -0.1899 B(  3-C , 10-H ) :   0.2139
B(  3-C , 12-H ) :  -0.4940 B(  4-C ,  5-C ) :   1.4021 B(  4-C ,  6-C ) :   1.5213
B(  4-C , 13-H ) :   0.1073 B(  4-C , 14-H ) :  -0.1436 B(  5-C ,  8-N ) :   0.8383
B(  5-C , 14-H ) :   0.7845 B(  5-C , 15-H ) :  -0.1724 B(  6-C ,  7-C ) :   1.5859
B(  6-C , 11-H ) :   0.7623 B(  6-C , 12-H ) :  -0.1240 B(  6-C , 13-H ) :   0.7202
B(  6-C , 14-H ) :   0.1099 B(  7-C ,  8-N ) :   0.9279 B(  7-C , 12-H ) :   1.1866
B(  7-C , 14-H ) :   0.1131 B(  7-C , 15-H ) :  -0.1526 B(  8-N , 12-H ) :  -0.1212
B(  8-N , 15-H ) :   1.2859

MP2 TOTAL ENERGY:     -362.760854740 Eh
FINAL SINGLE POINT ENERGY      -362.760854740035

DIPOLE MOMENT
-------------
                                X             Y             Z
Electronic contribution:     -1.05488       1.00473       0.00000
Nuclear contribution   :      0.70881      -0.26399       0.00000
                        -----------------------------------------
Total Dipole Moment    :     -0.34607       0.74074       0.00000
                        -----------------------------------------
Magnitude (a.u.)       :      0.81760
Magnitude (Debye)      :      2.07817

Rotational constants in cm-1:     0.130238     0.054749     0.038546
Rotational constants in MHz :  3904.431572  1641.340721  1155.565391

                             ****ORCA TERMINATED NORMALLY****
TOTAL RUN TIME: 0 days 0 hours 1 minutes 35 seconds 267 msec
