                         Program Version 5.0.3 -  RELEASE  -
|  1> !ri-mp2 aug-cc-pvdz aug-cc-pvdz/c tightscf
|  2> %pal nprocs 16 end
|  3> %maxcore 3800
|  4>
|  5> * xyz 0 1
|  6> C    -0.128603     0.754635    1.257237
|  7> C     0.128603    -0.754635    1.257237
|  8> C    -0.128603     0.754635   -1.257237
|  9> C     0.128603    -0.754635   -1.257237
| 10> C     0.420511     1.441390    0.000000
| 11> C    -0.420511    -1.441390    0.000000
| 12> C     0.128603     2.941424    0.000000
| 13> C    -0.128603    -2.941424    0.000000
| 14> H    -1.207697     0.938689    1.316247
| 15> H     0.309333     1.209266    2.149736
| 16> H     1.207697    -0.938689    1.316247
| 17> H    -0.309333    -1.209266    2.149736
| 18> H     0.309333     1.209266   -2.149736
| 19> H    -1.207697     0.938689   -1.316247
| 20> H    -0.309333    -1.209266   -2.149736
| 21> H     1.207697    -0.938689   -1.316247
| 22> H     1.509662     1.308301    0.000000
| 23> H    -1.509662    -1.308301    0.000000
| 24> H     0.549005     3.428483   -0.881999
| 25> H    -0.948008     3.128721    0.000000
| 26> H     0.549005     3.428483    0.881999
| 27> H     0.948008    -3.128721    0.000000
| 28> H    -0.549005    -3.428483    0.881999
| 29> H    -0.549005    -3.428483   -0.881999
| 30> *
| 31>
| 32>                          ****END OF INPUT****

CARTESIAN COORDINATES (ANGSTROEM)
---------------------------------
  C     -0.128603    0.754635    1.257237
  C      0.128603   -0.754635    1.257237
  C     -0.128603    0.754635   -1.257237
  C      0.128603   -0.754635   -1.257237
  C      0.420511    1.441390    0.000000
  C     -0.420511   -1.441390    0.000000
  C      0.128603    2.941424    0.000000
  C     -0.128603   -2.941424    0.000000
  H     -1.207697    0.938689    1.316247
  H      0.309333    1.209266    2.149736
  H      1.207697   -0.938689    1.316247
  H     -0.309333   -1.209266    2.149736
  H      0.309333    1.209266   -2.149736
  H     -1.207697    0.938689   -1.316247
  H     -0.309333   -1.209266   -2.149736
  H      1.207697   -0.938689   -1.316247
  H      1.509662    1.308301    0.000000
  H     -1.509662   -1.308301    0.000000
  H      0.549005    3.428483   -0.881999
  H     -0.948008    3.128721    0.000000
  H      0.549005    3.428483    0.881999
  H      0.948008   -3.128721    0.000000
  H     -0.549005   -3.428483    0.881999
  H     -0.549005   -3.428483   -0.881999

 Total Charge           Charge          ....    0
 Multiplicity           Mult            ....    1
 Number of Electrons    NEL             ....   64
 Basis Dimension        Dim             ....  328

ORBITAL ENERGIES
----------------

  NO   OCC          E(Eh)            E(eV)
   0   2.0000     -11.222611      -305.3828
   1   2.0000     -11.222607      -305.3826
   2   2.0000     -11.216015      -305.2033
   3   2.0000     -11.215972      -305.2021
   4   2.0000     -11.215413      -305.1869
   5   2.0000     -11.215380      -305.1860
   6   2.0000     -11.213243      -305.1279
   7   2.0000     -11.213243      -305.1278
   8   2.0000      -1.123443       -30.5704
   9   2.0000      -1.049932       -28.5701
  10   2.0000      -0.999737       -27.2042
  11   2.0000      -0.954678       -25.9781
  12   2.0000      -0.877799       -23.8861
  13   2.0000      -0.831933       -22.6381
  14   2.0000      -0.780120       -21.2281
  15   2.0000      -0.747938       -20.3524
  16   2.0000      -0.635498       -17.2928
  17   2.0000      -0.602326       -16.3901
  18   2.0000      -0.598875       -16.2962
  19   2.0000      -0.598408       -16.2835
  20   2.0000      -0.582242       -15.8436
  21   2.0000      -0.549237       -14.9455
  22   2.0000      -0.536926       -14.6105
  23   2.0000      -0.518961       -14.1216
  24   2.0000      -0.510579       -13.8936
  25   2.0000      -0.496014       -13.4972
  26   2.0000      -0.479241       -13.0408
  27   2.0000      -0.466464       -12.6931
  28   2.0000      -0.455781       -12.4024
  29   2.0000      -0.444361       -12.0917
  30   2.0000      -0.421615       -11.4727
  31   2.0000      -0.415277       -11.3003
  32   0.0000       0.038416         1.0454
  33   0.0000       0.041207         1.1213
  34   0.0000       0.043643         1.1876
  35   0.0000       0.044291         1.2052
  36   0.0000       0.057492         1.5644

MULLIKEN ATOMIC CHARGES
-----------------------
   0 C :    0.692537
   1 C :    0.692537
   2 C :    0.692537
   3 C :    0.692537
   4 C :   -1.250959
   5 C :   -1.250959
   6 C :    0.901320
   7 C :    0.901320
   8 H :   -0.117423
   9 H :   -0.178913
  10 H :   -0.117423
  11 H :   -0.178913
  12 H :   -0.178913
  13 H :   -0.117423
  14 H :   -0.178913
  15 H :   -0.117423
  16 H :   -0.280546
  17 H :   -0.280546
  18 H :   -0.059927
  19 H :   -0.042365
  20 H :   -0.059927
  21 H :   -0.042365
  22 H :   -0.059927
  23 H :   -0.059927
Sum of atomic charges:    0.0000000

LOEWDIN ATOMIC CHARGES
----------------------
   0 C :    0.000893
   1 C :    0.000893
   2 C :    0.000893
   3 C :    0.000893
   4 C :   -0.249586
   5 C :   -0.249586
   6 C :    0.160866
   7 C :    0.160866
   8 H :    0.023875
   9 H :    0.018642
  10 H :    0.023875
  11 H :    0.018642
  12 H :    0.018642
  13 H :    0.023875
  14 H :    0.018642
  15 H :    0.023875
  16 H :    0.043578
  17 H :    0.043578
  18 H :   -0.014980
  19 H :   -0.011717
  20 H :   -0.014980
  21 H :   -0.011717
  22 H :   -0.014980
  23 H :   -0.014980

  Mayer bond orders larger than 0.100000
B(  0-C ,  1-C ) :   1.2378 B(  0-C ,  2-C ) :  -0.1029 B(  0-C ,  4-C ) :   1.1971
B(  0-C ,  6-C ) :  -0.1822 B(  0-C ,  8-H ) :   0.7371 B(  0-C ,  9-H ) :   0.6527
B(  0-C , 13-H ) :  -0.1065 B(  1-C ,  3-C ) :  -0.1029 B(  1-C ,  5-C ) :   1.1971
B(  1-C ,  7-C ) :  -0.1822 B(  1-C , 10-H ) :   0.7371 B(  1-C , 11-H ) :   0.6527
B(  1-C , 15-H ) :  -0.1065 B(  2-C ,  3-C ) :   1.2378 B(  2-C ,  4-C ) :   1.1971
B(  2-C ,  6-C ) :  -0.1822 B(  2-C ,  8-H ) :  -0.1065 B(  2-C , 12-H ) :   0.6527
B(  2-C , 13-H ) :   0.7371 B(  3-C ,  5-C ) :   1.1971 B(  3-C ,  7-C ) :  -0.1822
B(  3-C , 10-H ) :  -0.1065 B(  3-C , 14-H ) :   0.6527 B(  3-C , 15-H ) :   0.7371
B(  4-C ,  6-C ) :   1.3422 B(  4-C ,  8-H ) :   0.1973 B(  4-C ,  9-H ) :   0.1485
B(  4-C , 12-H ) :   0.1485 B(  4-C , 13-H ) :   0.1973 B(  4-C , 16-H ) :   0.4721
B(  4-C , 18-H ) :   0.1607 B(  4-C , 19-H ) :   0.1536 B(  4-C , 20-H ) :   0.1607
B(  5-C ,  7-C ) :   1.3422 B(  5-C , 10-H ) :   0.1973 B(  5-C , 11-H ) :   0.1485
B(  5-C , 14-H ) :   0.1485 B(  5-C , 15-H ) :   0.1973 B(  5-C , 17-H ) :   0.4721
B(  5-C , 21-H ) :   0.1536 B(  5-C , 22-H ) :   0.1607 B(  5-C , 23-H ) :   0.1607
B(  6-C , 18-H ) :   0.7719 B(  6-C , 19-H ) :   0.8931 B(  6-C , 20-H ) :   0.7719
B(  7-C , 21-H ) :   0.8931 B(  7-C , 22-H ) :   0.7719 B(  7-C , 23-H ) :   0.7719
B(  8-H ,  9-H ) :  -0.1536 B( 10-H , 11-H ) :  -0.1536 B( 12-H , 13-H ) :  -0.1536
B( 14-H , 15-H ) :  -0.1536 B( 18-H , 20-H ) :  -0.1070 B( 22-H , 23-H ) :  -0.1070

MP2 TOTAL ENERGY:     -313.504558175 Eh
FINAL SINGLE POINT ENERGY      -313.504558174510

DIPOLE MOMENT
-------------
                                X             Y             Z
Electronic contribution:      0.00000       0.00000      -0.00000
Nuclear contribution   :      0.00000       0.00000       0.00000
                        -----------------------------------------
Total Dipole Moment    :      0.00000       0.00000      -0.00000
                        -----------------------------------------
Magnitude (a.u.)       :      0.00000
Magnitude (Debye)      :      0.00000

Rotational constants in cm-1:     0.137400     0.043847     0.035779
Rotational constants in MHz :  4119.136534  1314.511380  1072.621317

                             ****ORCA TERMINATED NORMALLY****
TOTAL RUN TIME: 0 days 0 hours 1 minutes 38 seconds 574 msec
