                         Program Version 5.0.3 -  RELEASE  -
|  1> !ri-mp2 aug-cc-pvdz aug-cc-pvdz/c tightscf
|  2> %pal nprocs 16 end
|  3>
|  4> * xyz 0 1
|  5> C     -1.485209    1.351731    0.043199
|  6> C     -2.539465   -0.658118    0.027515
|  7> C     -0.256809    0.716701   -0.007150
|  8> C     -0.286056   -0.686804   -0.018776
|  9> C      2.255116   -0.024473    0.324269
| 10> N     -2.633772    0.663232    0.061234
| 11> N     -1.410366   -1.376466   -0.006097
| 12> S      1.321935    1.487762   -0.135275
| 13> S      1.275421   -1.509989   -0.105022
| 14> H     -1.560648    2.432329    0.064669
| 15> H     -3.465024   -1.219915    0.032889
| 16> H      3.180774   -0.038600   -0.242667
| 17> H      2.470711   -0.019781    1.389566
| 18> *
| 19>
| 20>                          ****END OF INPUT****

CARTESIAN COORDINATES (ANGSTROEM)
---------------------------------
  C     -1.485209    1.351731    0.043199
  C     -2.539465   -0.658118    0.027515
  C     -0.256809    0.716701   -0.007150
  C     -0.286056   -0.686804   -0.018776
  C      2.255116   -0.024473    0.324269
  N     -2.633772    0.663232    0.061234
  N     -1.410366   -1.376466   -0.006097
  S      1.321935    1.487762   -0.135275
  S      1.275421   -1.509989   -0.105022
  H     -1.560648    2.432329    0.064669
  H     -3.465024   -1.219915    0.032889
  H      3.180774   -0.038600   -0.242667
  H      2.470711   -0.019781    1.389566

 Total Charge           Charge          ....    0
 Multiplicity           Mult            ....    1
 Number of Electrons    NEL             ....   80
 Basis Dimension        Dim             ....  251

ORBITAL ENERGIES
----------------

  NO   OCC          E(Eh)            E(eV)
   0   2.0000     -91.993663     -2503.2748
   1   2.0000     -91.991981     -2503.2291
   2   2.0000     -15.594314      -424.3429
   3   2.0000     -15.588815      -424.1932
   4   2.0000     -11.347792      -308.7891
   5   2.0000     -11.329875      -308.3016
   6   2.0000     -11.323977      -308.1411
   7   2.0000     -11.315639      -307.9142
   8   2.0000     -11.294895      -307.3497
   9   2.0000      -8.995718      -244.7859
  10   2.0000      -8.993756      -244.7325
  11   2.0000      -6.677402      -181.7014
  12   2.0000      -6.676234      -181.6696
  13   2.0000      -6.675636      -181.6533
  14   2.0000      -6.674442      -181.6208
  15   2.0000      -6.673998      -181.6087
  16   2.0000      -6.672071      -181.5563
  17   2.0000      -1.333712       -36.2921
  18   2.0000      -1.218132       -33.1471
  19   2.0000      -1.158797       -31.5325
  20   2.0000      -1.057238       -28.7689
  21   2.0000      -1.008437       -27.4410
  22   2.0000      -0.918764       -25.0008
  23   2.0000      -0.866443       -23.5771
  24   2.0000      -0.840042       -22.8587
  25   2.0000      -0.733389       -19.9565
  26   2.0000      -0.706388       -19.2218
  27   2.0000      -0.651415       -17.7259
  28   2.0000      -0.611773       -16.6472
  29   2.0000      -0.600484       -16.3400
  30   2.0000      -0.595011       -16.1911
  31   2.0000      -0.558686       -15.2026
  32   2.0000      -0.549431       -14.9508
  33   2.0000      -0.483371       -13.1532
  34   2.0000      -0.468270       -12.7423
  35   2.0000      -0.459901       -12.5145
  36   2.0000      -0.442322       -12.0362
  37   2.0000      -0.422115       -11.4863
  38   2.0000      -0.378840       -10.3088
  39   2.0000      -0.320842        -8.7306
  40   0.0000       0.034103         0.9280
  41   0.0000       0.039476         1.0742
  42   0.0000       0.047985         1.3057
  43   0.0000       0.049822         1.3557
  44   0.0000       0.071542         1.9468

MULLIKEN ATOMIC CHARGES
-----------------------
   0 C :    0.469473
   1 C :    0.717036
   2 C :    0.221666
   3 C :   -0.046388
   4 C :   -0.271471
   5 N :   -0.716032
   6 N :   -0.836529
   7 S :    0.395281
   8 S :    0.595073
   9 H :   -0.269879
  10 H :   -0.215650
  11 H :   -0.008520
  12 H :   -0.034060
Sum of atomic charges:   -0.0000000

LOEWDIN ATOMIC CHARGES
----------------------
   0 C :   -0.039983
   1 C :   -0.066474
   2 C :   -0.508302
   3 C :   -0.555429
   4 C :   -0.500074
   5 N :    0.032492
   6 N :    0.006814
   7 S :    0.875614
   8 S :    0.907866
   9 H :    0.006507
  10 H :    0.004189
  11 H :   -0.082347
  12 H :   -0.080871

  Mayer bond orders larger than 0.100000
B(  0-C ,  1-C ) :  -0.1245 B(  0-C ,  2-C ) :   1.1661 B(  0-C ,  3-C ) :   0.1689
B(  0-C ,  5-N ) :   1.1693 B(  0-C ,  9-H ) :   0.7946 B(  1-C ,  2-C ) :   0.1144
B(  1-C ,  3-C ) :  -0.1593 B(  1-C ,  5-N ) :   1.3986 B(  1-C ,  6-N ) :   1.3200
B(  1-C , 10-H ) :   0.9819 B(  2-C ,  3-C ) :   1.2667 B(  2-C ,  7-S ) :   1.0654
B(  3-C ,  6-N ) :   1.1020 B(  3-C ,  7-S ) :  -0.1606 B(  3-C ,  8-S ) :   1.0219
B(  4-C ,  7-S ) :   0.9352 B(  4-C ,  8-S ) :   0.9218 B(  4-C , 11-H ) :   0.9448
B(  4-C , 12-H ) :   1.0019

MP2 TOTAL ENERGY:    -1096.942862501 Eh
FINAL SINGLE POINT ENERGY     -1096.942862501223

DIPOLE MOMENT
-------------
                                X             Y             Z
Electronic contribution:      0.37559      -0.73531      -0.96618
Nuclear contribution   :      0.50197       1.10653       1.20430
                        -----------------------------------------
Total Dipole Moment    :      0.87756       0.37121       0.23812
                        -----------------------------------------
Magnitude (a.u.)       :      0.98215
Magnitude (Debye)      :      2.49642

Rotational constants in cm-1:     0.074103     0.038734     0.025771
Rotational constants in MHz :  2221.556837  1161.223627   772.583270

                             ****ORCA TERMINATED NORMALLY****
TOTAL RUN TIME: 0 days 0 hours 1 minutes 4 seconds 206 msec
