                         Program Version 5.0.3 -  RELEASE  -
|  1> !ri-mp2 aug-cc-pvdz aug-cc-pvdz/c tightscf
|  2> %pal nprocs 16 end
|  3>
|  4> * xyz 0 1
|  5> F     -0.174377   -1.959003   -0.132114
|  6> F     -2.700777   -1.150004   -0.078605
|  7> O      2.821157    0.734982   -0.401394
|  8> O      2.306279   -1.197619    0.437397
|  9> N      2.021435   -0.091571    0.012142
| 10> C      0.601826    0.299791    0.013607
| 11> C     -0.410428   -0.657728   -0.033324
| 12> C     -1.733657   -0.226270   -0.015537
| 13> C      0.291444    1.653903    0.071365
| 14> C     -2.054339    1.114433    0.058602
| 15> C     -1.032431    2.057202    0.104097
| 16> H      1.101788    2.365330    0.093910
| 17> H     -3.095956    1.401601    0.074126
| 18> H     -1.273459    3.108243    0.162559
| 19> *
| 20>
| 21>                          ****END OF INPUT****

CARTESIAN COORDINATES (ANGSTROEM)
---------------------------------
  F     -0.174377   -1.959003   -0.132114
  F     -2.700777   -1.150004   -0.078605
  O      2.821157    0.734982   -0.401394
  O      2.306279   -1.197619    0.437397
  N      2.021435   -0.091571    0.012142
  C      0.601826    0.299791    0.013607
  C     -0.410428   -0.657728   -0.033324
  C     -1.733657   -0.226270   -0.015537
  C      0.291444    1.653903    0.071365
  C     -2.054339    1.114433    0.058602
  C     -1.032431    2.057202    0.104097
  H      1.101788    2.365330    0.093910
  H     -3.095956    1.401601    0.074126
  H     -1.273459    3.108243    0.162559

 Total Charge           Charge          ....    0
 Multiplicity           Mult            ....    1
 Number of Electrons    NEL             ....   80
 Basis Dimension        Dim             ....  280

ORBITAL ENERGIES
----------------

  NO   OCC          E(Eh)            E(eV)
   0   2.0000     -26.364659      -717.4188
   1   2.0000     -26.359133      -717.2685
   2   2.0000     -20.628304      -561.3247
   3   2.0000     -20.625004      -561.2349
   4   2.0000     -15.878910      -432.0871
   5   2.0000     -11.395822      -310.0961
   6   2.0000     -11.377793      -309.6055
   7   2.0000     -11.344797      -308.7076
   8   2.0000     -11.301013      -307.5162
   9   2.0000     -11.299475      -307.4744
  10   2.0000     -11.291589      -307.2598
  11   2.0000      -1.683982       -45.8235
  12   2.0000      -1.665910       -45.3317
  13   2.0000      -1.628993       -44.3272
  14   2.0000      -1.421955       -38.6934
  15   2.0000      -1.229326       -33.4516
  16   2.0000      -1.122430       -30.5429
  17   2.0000      -1.076197       -29.2848
  18   2.0000      -0.992644       -27.0112
  19   2.0000      -0.903550       -24.5868
  20   2.0000      -0.882711       -24.0198
  21   2.0000      -0.813128       -22.1263
  22   2.0000      -0.792107       -21.5543
  23   2.0000      -0.782981       -21.3060
  24   2.0000      -0.751879       -20.4597
  25   2.0000      -0.741138       -20.1674
  26   2.0000      -0.734910       -19.9979
  27   2.0000      -0.725470       -19.7410
  28   2.0000      -0.715875       -19.4799
  29   2.0000      -0.693839       -18.8803
  30   2.0000      -0.692244       -18.8369
  31   2.0000      -0.635181       -17.2842
  32   2.0000      -0.588678       -16.0187
  33   2.0000      -0.583745       -15.8845
  34   2.0000      -0.552983       -15.0474
  35   2.0000      -0.511001       -13.9050
  36   2.0000      -0.507113       -13.7992
  37   2.0000      -0.465800       -12.6751
  38   2.0000      -0.400524       -10.8988
  39   2.0000      -0.380429       -10.3520
  40   0.0000       0.023560         0.6411
  41   0.0000       0.026754         0.7280
  42   0.0000       0.038094         1.0366
  43   0.0000       0.050723         1.3803
  44   0.0000       0.076083         2.0703

MULLIKEN ATOMIC CHARGES
-----------------------
   0 F :   -0.749895
   1 F :   -0.808985
   2 O :   -0.787360
   3 O :   -0.743789
   4 N :    0.375858
   5 C :    1.043071
   6 C :    0.721203
   7 C :    1.067807
   8 C :    0.181339
   9 C :    0.276608
  10 C :    0.681794
  11 H :   -0.446080
  12 H :   -0.409460
  13 H :   -0.402111
Sum of atomic charges:   -0.0000000

LOEWDIN ATOMIC CHARGES
----------------------
   0 F :    0.114281
   1 F :    0.090171
   2 O :    0.093808
   3 O :    0.114774
   4 N :   -0.336668
   5 C :   -0.068739
   6 C :   -0.097035
   7 C :   -0.145871
   8 C :    0.074524
   9 C :    0.081266
  10 C :    0.036223
  11 H :    0.011155
  12 H :    0.022494
  13 H :    0.009615

  Mayer bond orders larger than 0.100000
B(  0-F ,  5-C ) :   0.5500 B(  0-F ,  6-C ) :  -0.6745 B(  0-F ,  7-C ) :   0.2687
B(  1-F ,  6-C ) :   0.3982 B(  1-F ,  7-C ) :  -0.4886 B(  1-F ,  9-C ) :   0.2283
B(  2-O ,  3-O ) :   0.2086 B(  2-O ,  4-N ) :   1.1884 B(  2-O ,  5-C ) :  -0.1681
B(  3-O ,  4-N ) :   1.2174 B(  3-O ,  5-C ) :  -0.1657 B(  4-N ,  5-C ) :   0.3321
B(  4-N ,  6-C ) :  -0.1164 B(  5-C ,  6-C ) :   1.0505 B(  5-C ,  8-C ) :   1.3649
B(  5-C ,  9-C ) :  -0.1336 B(  5-C , 11-H ) :   0.3547 B(  6-C ,  7-C ) :   1.2988
B(  6-C ,  8-C ) :   0.2934 B(  6-C ,  9-C ) :   0.2865 B(  7-C ,  8-C ) :   0.1135
B(  7-C ,  9-C ) :   1.5978 B(  7-C , 12-H ) :   0.2520 B(  8-C ,  9-C ) :   0.3665
B(  8-C , 10-C ) :   1.8193 B(  8-C , 11-H ) :   0.3097 B(  8-C , 13-H ) :   0.3268
B(  9-C , 10-C ) :   1.6673 B(  9-C , 12-H ) :   0.4131 B(  9-C , 13-H ) :   0.1156
B( 10-C , 13-H ) :   0.3226

MP2 TOTAL ENERGY:     -633.713588932 Eh
FINAL SINGLE POINT ENERGY      -633.713588931952

DIPOLE MOMENT
-------------
                                X             Y             Z
Electronic contribution:     -1.17299      -7.83307      -0.42985
Nuclear contribution   :     -0.31681       9.38525       0.50935
                        -----------------------------------------
Total Dipole Moment    :     -1.48980       1.55218       0.07951
                        -----------------------------------------
Magnitude (a.u.)       :      2.15292
Magnitude (Debye)      :      5.47230

Rotational constants in cm-1:     0.065324     0.031509     0.021604
Rotational constants in MHz :  1958.367466   944.630315   647.666569

                             ****ORCA TERMINATED NORMALLY****
TOTAL RUN TIME: 0 days 0 hours 1 minutes 21 seconds 152 msec
