                         Program Version 5.0.3 -  RELEASE  -
|  1> !ri-mp2 aug-cc-pvdz aug-cc-pvdz/c tightscf
|  2> %pal nprocs 16 end
|  3>
|  4> * xyz 0 1
|  5> N     0.000000    1.086138    0.759003
|  6> C     0.000000    0.000000    1.598098
|  7> S     0.000000    0.000000    3.259399
|  8> C     0.000000    0.701967   -0.573500
|  9> C     0.000000    1.422352   -1.756178
| 10> C     0.000000    0.697607   -2.946432
| 11> C     0.000000   -0.697607   -2.946432
| 12> C     0.000000   -1.422352   -1.756178
| 13> C     0.000000   -0.701967   -0.573500
| 14> N     0.000000   -1.086138    0.759003
| 15> H     0.000000    2.023318    1.120645
| 16> H     0.000000    2.503243   -1.758725
| 17> H     0.000000    1.228712   -3.887766
| 18> H     0.000000   -1.228712   -3.887766
| 19> H     0.000000   -2.503243   -1.758725
| 20> H     0.000000   -2.023318    1.120645
| 21> *
| 22>
| 23>                          ****END OF INPUT****

CARTESIAN COORDINATES (ANGSTROEM)
---------------------------------
  N      0.000000    1.086138    0.759003
  C      0.000000    0.000000    1.598098
  S      0.000000    0.000000    3.259399
  C      0.000000    0.701967   -0.573500
  C      0.000000    1.422352   -1.756178
  C      0.000000    0.697607   -2.946432
  C      0.000000   -0.697607   -2.946432
  C      0.000000   -1.422352   -1.756178
  C      0.000000   -0.701967   -0.573500
  N      0.000000   -1.086138    0.759003
  H      0.000000    2.023318    1.120645
  H      0.000000    2.503243   -1.758725
  H      0.000000    1.228712   -3.887766
  H      0.000000   -1.228712   -3.887766
  H      0.000000   -2.503243   -1.758725
  H      0.000000   -2.023318    1.120645

 Total Charge           Charge          ....    0
 Multiplicity           Mult            ....    1
 Number of Electrons    NEL             ....   78
 Basis Dimension        Dim             ....  288

ORBITAL ENERGIES
----------------

  NO   OCC          E(Eh)            E(eV)
   0   2.0000     -91.899164     -2500.7034
   1   2.0000     -15.641454      -425.6256
   2   2.0000     -15.641424      -425.6248
   3   2.0000     -11.388930      -309.9085
   4   2.0000     -11.308008      -307.7065
   5   2.0000     -11.306843      -307.6748
   6   2.0000     -11.266979      -306.5901
   7   2.0000     -11.266964      -306.5897
   8   2.0000     -11.259206      -306.3786
   9   2.0000     -11.258022      -306.3464
  10   2.0000      -8.902293      -242.2437
  11   2.0000      -6.584942      -179.1854
  12   2.0000      -6.581621      -179.0950
  13   2.0000      -6.580973      -179.0774
  14   2.0000      -1.389446       -37.8087
  15   2.0000      -1.234956       -33.6049
  16   2.0000      -1.174116       -31.9493
  17   2.0000      -1.057612       -28.7791
  18   2.0000      -1.042470       -28.3670
  19   2.0000      -0.961917       -26.1751
  20   2.0000      -0.900547       -24.5051
  21   2.0000      -0.858063       -23.3491
  22   2.0000      -0.833516       -22.6811
  23   2.0000      -0.752883       -20.4870
  24   2.0000      -0.730584       -19.8802
  25   2.0000      -0.687801       -18.7160
  26   2.0000      -0.653366       -17.7790
  27   2.0000      -0.652164       -17.7463
  28   2.0000      -0.636286       -17.3142
  29   2.0000      -0.629115       -17.1191
  30   2.0000      -0.548177       -14.9167
  31   2.0000      -0.528477       -14.3806
  32   2.0000      -0.521727       -14.1969
  33   2.0000      -0.508734       -13.8434
  34   2.0000      -0.494903       -13.4670
  35   2.0000      -0.377863       -10.2822
  36   2.0000      -0.348632        -9.4868
  37   2.0000      -0.330117        -8.9829
  38   2.0000      -0.291813        -7.9406
  39   0.0000       0.026978         0.7341
  40   0.0000       0.031489         0.8568
  41   0.0000       0.038114         1.0371
  42   0.0000       0.051091         1.3903
  43   0.0000       0.063026         1.7150

MULLIKEN ATOMIC CHARGES
-----------------------
   0 N :   -0.757209
   1 C :    0.445853
   2 S :   -0.017273
   3 C :   -0.053978
   4 C :    1.107289
   5 C :    0.568061
   6 C :    0.568061
   7 C :    1.107289
   8 C :   -0.053978
   9 N :   -0.757209
  10 H :   -0.120443
  11 H :   -0.485527
  12 H :   -0.472484
  13 H :   -0.472484
  14 H :   -0.485527
  15 H :   -0.120443
Sum of atomic charges:    0.0000000

LOEWDIN ATOMIC CHARGES
----------------------
   0 N :    0.111768
   1 C :   -0.686261
   2 S :    0.467049
   3 C :   -0.129819
   4 C :    0.073573
   5 C :    0.010445
   6 C :    0.010445
   7 C :    0.073573
   8 C :   -0.129819
   9 N :    0.111768
  10 H :    0.036399
  11 H :    0.007388
  12 H :   -0.000148
  13 H :   -0.000148
  14 H :    0.007388
  15 H :    0.036399

  Mayer bond orders larger than 0.100000
B(  0-N ,  1-C ) :   1.0353 B(  0-N ,  3-C ) :   0.7943 B(  0-N ,  4-C ) :  -0.2978
B(  0-N , 10-H ) :   1.2942 B(  1-C ,  2-S ) :   1.8294 B(  1-C ,  3-C ) :  -0.1104
B(  1-C ,  8-C ) :  -0.1104 B(  1-C ,  9-N ) :   1.0353 B(  1-C , 10-H ) :  -0.1095
B(  1-C , 15-H ) :  -0.1095 B(  3-C ,  4-C ) :   1.5647 B(  3-C ,  7-C ) :  -0.1293
B(  3-C ,  8-C ) :   1.7492 B(  3-C , 10-H ) :  -0.1472 B(  3-C , 11-H ) :   1.0652
B(  4-C ,  5-C ) :   1.6301 B(  4-C ,  7-C ) :   0.3720 B(  4-C ,  8-C ) :  -0.1293
B(  4-C , 11-H ) :  -0.2947 B(  4-C , 12-H ) :   0.2349 B(  5-C ,  6-C ) :   1.8289
B(  5-C , 12-H ) :   0.2381 B(  5-C , 13-H ) :   0.2509 B(  6-C ,  7-C ) :   1.6301
B(  6-C , 12-H ) :   0.2509 B(  6-C , 13-H ) :   0.2381 B(  7-C ,  8-C ) :   1.5647
B(  7-C ,  9-N ) :  -0.2978 B(  7-C , 13-H ) :   0.2349 B(  7-C , 14-H ) :  -0.2947
B(  8-C ,  9-N ) :   0.7943 B(  8-C , 14-H ) :   1.0652 B(  8-C , 15-H ) :  -0.1472
B(  9-N , 15-H ) :   1.2942

MP2 TOTAL ENERGY:     -776.491405819 Eh
FINAL SINGLE POINT ENERGY      -776.491405819401

DIPOLE MOMENT
-------------
                                X             Y             Z
Electronic contribution:      0.00000       0.00000       6.86932
Nuclear contribution   :      0.00000      -0.00000      -8.91755
                        -----------------------------------------
Total Dipole Moment    :      0.00000       0.00000      -2.04824
                        -----------------------------------------
Magnitude (a.u.)       :      2.04824
Magnitude (Debye)      :      5.20620

Rotational constants in cm-1:     0.130575     0.023523     0.019933
Rotational constants in MHz :  3914.530299   705.214284   597.561756

                             ****ORCA TERMINATED NORMALLY****
TOTAL RUN TIME: 0 days 0 hours 1 minutes 25 seconds 801 msec
