                         Program Version 5.0.3 -  RELEASE  -
|  1> !ri-mp2 aug-cc-pvdz aug-cc-pvdz/c tightscf
|  2> %pal nprocs 16 end
|  3>
|  4> * xyz 0 1
|  5> C     -0.531875   -1.845904        0.000000
|  6> N      0.771404   -1.348773        0.000000
|  7> C      1.003562   -0.002016        0.000000
|  8> C      0.000000    0.950259        0.000000
|  9> C      0.690256    2.188187        0.000000
| 10> N      1.994421    2.015793        0.000000
| 11> N      2.175035    0.654328        0.000000
| 12> N     -1.513744   -0.871250        0.000000
| 13> C     -1.384929    0.539209        0.000000
| 14> O     -0.763178   -3.034653        0.000000
| 15> O     -2.371414    1.243358        0.000000
| 16> H     -2.459834   -1.224597        0.000000
| 17> H      1.502564   -2.040445        0.000000
| 18> H      3.109527    0.285765        0.000000
| 19> H      0.272581    3.180547        0.000000
| 20> *
| 21>
| 22>                          ****END OF INPUT****

CARTESIAN COORDINATES (ANGSTROEM)
---------------------------------
  C     -0.531875   -1.845904    0.000000
  N      0.771404   -1.348773    0.000000
  C      1.003562   -0.002016    0.000000
  C      0.000000    0.950259    0.000000
  C      0.690256    2.188187    0.000000
  N      1.994421    2.015793    0.000000
  N      2.175035    0.654328    0.000000
  N     -1.513744   -0.871250    0.000000
  C     -1.384929    0.539209    0.000000
  O     -0.763178   -3.034653    0.000000
  O     -2.371414    1.243358    0.000000
  H     -2.459834   -1.224597    0.000000
  H      1.502564   -2.040445    0.000000
  H      3.109527    0.285765    0.000000
  H      0.272581    3.180547    0.000000

 Total Charge           Charge          ....    0
 Multiplicity           Mult            ....    1
 Number of Electrons    NEL             ....   78
 Basis Dimension        Dim             ....  289

ORBITAL ENERGIES
----------------

  NO   OCC          E(Eh)            E(eV)
   0   2.0000     -20.567002      -559.6566
   1   2.0000     -20.558997      -559.4388
   2   2.0000     -15.680833      -426.6972
   3   2.0000     -15.663724      -426.2316
   4   2.0000     -15.638559      -425.5468
   5   2.0000     -15.625083      -425.1801
   6   2.0000     -11.439242      -311.2776
   7   2.0000     -11.398606      -310.1718
   8   2.0000     -11.381805      -309.7147
   9   2.0000     -11.302095      -307.5456
  10   2.0000     -11.257490      -306.3319
  11   2.0000      -1.452764       -39.5317
  12   2.0000      -1.417782       -38.5798
  13   2.0000      -1.412373       -38.4326
  14   2.0000      -1.317804       -35.8593
  15   2.0000      -1.254647       -34.1407
  16   2.0000      -1.142881       -31.0994
  17   2.0000      -1.102023       -29.9876
  18   2.0000      -0.932998       -25.3882
  19   2.0000      -0.914136       -24.8749
  20   2.0000      -0.870924       -23.6990
  21   2.0000      -0.834846       -22.7173
  22   2.0000      -0.785327       -21.3698
  23   2.0000      -0.749122       -20.3846
  24   2.0000      -0.692961       -18.8564
  25   2.0000      -0.691064       -18.8048
  26   2.0000      -0.674529       -18.3549
  27   2.0000      -0.648053       -17.6344
  28   2.0000      -0.641733       -17.4624
  29   2.0000      -0.632535       -17.2122
  30   2.0000      -0.604501       -16.4493
  31   2.0000      -0.583258       -15.8713
  32   2.0000      -0.509801       -13.8724
  33   2.0000      -0.500370       -13.6158
  34   2.0000      -0.492341       -13.3973
  35   2.0000      -0.452481       -12.3126
  36   2.0000      -0.443007       -12.0548
  37   2.0000      -0.409132       -11.1330
  38   2.0000      -0.355404        -9.6710
  39   0.0000       0.016473         0.4483
  40   0.0000       0.043201         1.1756
  41   0.0000       0.045711         1.2439
  42   0.0000       0.055502         1.5103
  43   0.0000       0.066571         1.8115

MULLIKEN ATOMIC CHARGES
-----------------------
   0 C :    1.082507
   1 N :   -0.592165
   2 C :    0.597672
   3 C :    0.426240
   4 C :    1.135187
   5 N :   -0.820566
   6 N :   -0.337682
   7 N :   -0.634047
   8 C :    1.189002
   9 O :   -0.722307
  10 O :   -0.862274
  11 H :   -0.034993
  12 H :   -0.103402
  13 H :   -0.012438
  14 H :   -0.310734
Sum of atomic charges:    0.0000000

LOEWDIN ATOMIC CHARGES
----------------------
   0 C :   -0.315921
   1 N :    0.197434
   2 C :   -0.120288
   3 C :   -0.089071
   4 C :    0.041331
   5 N :    0.048602
   6 N :    0.088159
   7 N :    0.197046
   8 C :   -0.275218
   9 O :    0.046476
  10 O :    0.045932
  11 H :    0.040906
  12 H :    0.043687
  13 H :    0.033882
  14 H :    0.017043

  Mayer bond orders larger than 0.100000
B(  0-C ,  1-N ) :   1.0361 B(  0-C ,  7-N ) :   1.0280 B(  0-C ,  9-O ) :   1.4791
B(  1-N ,  2-C ) :   0.7660 B(  1-N ,  3-C ) :  -0.1735 B(  1-N , 12-H ) :   1.2291
B(  2-C ,  3-C ) :   1.0322 B(  2-C ,  4-C ) :  -0.4151 B(  2-C ,  5-N ) :  -0.2161
B(  2-C ,  6-N ) :   0.9238 B(  2-C , 12-H ) :  -0.1559 B(  2-C , 13-H ) :  -0.1136
B(  2-C , 14-H ) :   0.1236 B(  3-C ,  4-C ) :   1.3301 B(  3-C ,  5-N ) :   0.3607
B(  3-C ,  8-C ) :   0.5672 B(  3-C , 14-H ) :   0.2824 B(  4-C ,  5-N ) :   1.3857
B(  4-C ,  6-N ) :  -0.2483 B(  4-C ,  8-C ) :  -0.2519 B(  4-C , 14-H ) :   0.3875
B(  5-N ,  6-N ) :   1.1550 B(  5-N , 13-H ) :  -0.1204 B(  5-N , 14-H ) :   0.1258
B(  6-N , 13-H ) :   1.1501 B(  7-N ,  8-C ) :   0.5744 B(  7-N , 11-H ) :   1.1810
B(  8-C , 10-O ) :   1.1507

MP2 TOTAL ENERGY:     -561.014492262 Eh
FINAL SINGLE POINT ENERGY      -561.014492261593

DIPOLE MOMENT
-------------
                                X             Y             Z
Electronic contribution:     -0.63934      -0.64328       0.00000
Nuclear contribution   :      2.30698       0.16918       0.00000
                        -----------------------------------------
Total Dipole Moment    :      1.66765      -0.47410       0.00000
                        -----------------------------------------
Magnitude (a.u.)       :      1.73373
Magnitude (Debye)      :      4.40678

Rotational constants in cm-1:     0.064375     0.036480     0.023285
Rotational constants in MHz :  1929.903203  1093.643165   698.062867

                             ****ORCA TERMINATED NORMALLY****
TOTAL RUN TIME: 0 days 0 hours 1 minutes 33 seconds 213 msec
