                         Program Version 5.0.3 -  RELEASE  -
|  1> !ri-mp2 aug-cc-pvdz aug-cc-pvdz/c tightscf
|  2> %pal nprocs 16 end
|  3>
|  4> * xyz 0 1
|  5> C      3.289623   -0.683161    0.151762
|  6> C      2.227943    0.295481   -0.346814
|  7> C      0.848628    0.047344    0.264611
|  8> C     -0.212368    1.027510   -0.233040
|  9> C     -1.589905    0.838545    0.373045
| 10> Cl    -2.363950   -0.734686   -0.125608
| 11> H      3.018596   -1.713424   -0.086887
| 12> H      3.409472   -0.616939    1.235067
| 13> H      4.260930   -0.481964   -0.301814
| 14> H      2.544221    1.319704   -0.126280
| 15> H      2.154297    0.228978   -1.436338
| 16> H      0.918418    0.115557    1.355563
| 17> H      0.530695   -0.973458    0.040898
| 18> H     -0.289842    0.977813   -1.321766
| 19> H      0.095882    2.051249    0.008963
| 20> H     -1.558172    0.815998    1.459589
| 21> H     -2.280876    1.611830    0.050962
| 22> *
| 23>
| 24>                          ****END OF INPUT****

CARTESIAN COORDINATES (ANGSTROEM)
---------------------------------
  C      3.289623   -0.683161    0.151762
  C      2.227943    0.295481   -0.346814
  C      0.848628    0.047344    0.264611
  C     -0.212368    1.027510   -0.233040
  C     -1.589905    0.838545    0.373045
  Cl    -2.363950   -0.734686   -0.125608
  H      3.018596   -1.713424   -0.086887
  H      3.409472   -0.616939    1.235067
  H      4.260930   -0.481964   -0.301814
  H      2.544221    1.319704   -0.126280
  H      2.154297    0.228978   -1.436338
  H      0.918418    0.115557    1.355563
  H      0.530695   -0.973458    0.040898
  H     -0.289842    0.977813   -1.321766
  H      0.095882    2.051249    0.008963
  H     -1.558172    0.815998    1.459589
  H     -2.280876    1.611830    0.050962

 Total Charge           Charge          ....    0
 Multiplicity           Mult            ....    1
 Number of Electrons    NEL             ....   58
 Basis Dimension        Dim             ....  241

ORBITAL ENERGIES
----------------

  NO   OCC          E(Eh)            E(eV)
   0   2.0000    -104.814883     -2852.1580
   1   2.0000     -11.299577      -307.4771
   2   2.0000     -11.242145      -305.9143
   3   2.0000     -11.228220      -305.5354
   4   2.0000     -11.227478      -305.5152
   5   2.0000     -11.220513      -305.3257
   6   2.0000     -10.540858      -286.8313
   7   2.0000      -8.008424      -217.9203
   8   2.0000      -8.005436      -217.8390
   9   2.0000      -8.005365      -217.8370
  10   2.0000      -1.135358       -30.8947
  11   2.0000      -1.075353       -29.2618
  12   2.0000      -1.007655       -27.4197
  13   2.0000      -0.918685       -24.9987
  14   2.0000      -0.826802       -22.4984
  15   2.0000      -0.794999       -21.6330
  16   2.0000      -0.657340       -17.8871
  17   2.0000      -0.634585       -17.2679
  18   2.0000      -0.603919       -16.4335
  19   2.0000      -0.580652       -15.8004
  20   2.0000      -0.571909       -15.5624
  21   2.0000      -0.536169       -14.5899
  22   2.0000      -0.515494       -14.0273
  23   2.0000      -0.489385       -13.3169
  24   2.0000      -0.475208       -12.9311
  25   2.0000      -0.472066       -12.8456
  26   2.0000      -0.467968       -12.7341
  27   2.0000      -0.428168       -11.6511
  28   2.0000      -0.425825       -11.5873
  29   0.0000       0.034783         0.9465
  30   0.0000       0.040231         1.0948
  31   0.0000       0.044582         1.2131
  32   0.0000       0.051114         1.3909
  33   0.0000       0.061572         1.6755

MULLIKEN ATOMIC CHARGES
-----------------------
   0 C :    0.484132
   1 C :    0.279265
   2 C :    0.140461
   3 C :    0.273401
   4 C :    0.210423
   5 Cl:   -0.152690
   6 H :   -0.084087
   7 H :   -0.080884
   8 H :   -0.067150
   9 H :   -0.187080
  10 H :   -0.171482
  11 H :   -0.197735
  12 H :   -0.177705
  13 H :   -0.169983
  14 H :   -0.122386
  15 H :    0.001723
  16 H :    0.021776
Sum of atomic charges:    0.0000000

LOEWDIN ATOMIC CHARGES
----------------------
   0 C :    0.132677
   1 C :   -0.073426
   2 C :   -0.053232
   3 C :   -0.097754
   4 C :   -0.296101
   5 Cl:    0.435947
   6 H :   -0.018769
   7 H :   -0.019818
   8 H :   -0.021506
   9 H :    0.010431
  10 H :    0.011982
  11 H :    0.016602
  12 H :    0.002279
  13 H :    0.014965
  14 H :    0.020209
  15 H :   -0.031007
  16 H :   -0.033480

  Mayer bond orders larger than 0.100000
B(  0-C ,  1-C ) :   1.1789 B(  0-C ,  6-H ) :   0.9265 B(  0-C ,  7-H ) :   0.9277
B(  0-C ,  8-H ) :   0.8984 B(  1-C ,  2-C ) :   1.2135 B(  1-C ,  9-H ) :   0.7700
B(  1-C , 10-H ) :   0.7712 B(  2-C ,  3-C ) :   1.2306 B(  2-C , 11-H ) :   0.8165
B(  2-C , 12-H ) :   0.8207 B(  3-C ,  4-C ) :   1.2630 B(  3-C ,  5-Cl) :  -0.1565
B(  3-C , 13-H ) :   0.8432 B(  3-C , 14-H ) :   0.7849 B(  3-C , 16-H ) :   0.1602
B(  4-C ,  5-Cl) :   1.1494 B(  4-C , 15-H ) :   0.8732 B(  4-C , 16-H ) :   0.8290

MP2 TOTAL ENERGY:     -656.179730080 Eh
FINAL SINGLE POINT ENERGY      -656.179730080108

DIPOLE MOMENT
-------------
                                X             Y             Z
Electronic contribution:    -15.99613      -3.70821      -0.88526
Nuclear contribution   :     16.53975       4.48240       1.08080
                        -----------------------------------------
Total Dipole Moment    :      0.54361       0.77419       0.19554
                        -----------------------------------------
Magnitude (a.u.)       :      0.96598
Magnitude (Debye)      :      2.45532

Rotational constants in cm-1:     0.221340     0.033751     0.030886
Rotational constants in MHz :  6635.612852  1011.841360   925.929488

                             ****ORCA TERMINATED NORMALLY****
TOTAL RUN TIME: 0 days 0 hours 0 minutes 50 seconds 272 msec
