                         Program Version 5.0.3 -  RELEASE  -
|  1> !ri-mp2 aug-cc-pvdz aug-cc-pvdz/c tightscf
|  2> %pal nprocs 16 end
|  3>
|  4> * xyz 0 1
|  5> C     -0.310382    1.216690   -0.089709
|  6> C     -1.007899    0.083990    0.004985
|  7> C      1.192425    1.294994   -0.102231
|  8> C     -0.326807   -1.262539    0.080273
|  9> C      1.847130   -0.015210    0.343539
| 10> C      1.153813   -1.212625   -0.305738
| 11> C     -2.509324    0.066544    0.050173
| 12> H     -0.847383    2.157642   -0.160153
| 13> H      1.536186    1.559736   -1.109789
| 14> H      1.519991    2.116878    0.540709
| 15> H     -0.437051   -1.659080    1.097370
| 16> H     -0.858397   -1.969943   -0.563834
| 17> H      2.911702   -0.007513    0.101968
| 18> H      1.771087   -0.104427    1.431482
| 19> H      1.646877   -2.144880   -0.023372
| 20> H      1.239620   -1.129025   -1.393390
| 21> H     -2.926173    1.072864    0.023793
| 22> H     -2.868014   -0.426133    0.959054
| 23> H     -2.922178   -0.497189   -0.791594
| 24> *
| 25>
| 26>                          ****END OF INPUT****

CARTESIAN COORDINATES (ANGSTROEM)
---------------------------------
  C     -0.310382    1.216690   -0.089709
  C     -1.007899    0.083990    0.004985
  C      1.192425    1.294994   -0.102231
  C     -0.326807   -1.262539    0.080273
  C      1.847130   -0.015210    0.343539
  C      1.153813   -1.212625   -0.305738
  C     -2.509324    0.066544    0.050173
  H     -0.847383    2.157642   -0.160153
  H      1.536186    1.559736   -1.109789
  H      1.519991    2.116878    0.540709
  H     -0.437051   -1.659080    1.097370
  H     -0.858397   -1.969943   -0.563834
  H      2.911702   -0.007513    0.101968
  H      1.771087   -0.104427    1.431482
  H      1.646877   -2.144880   -0.023372
  H      1.239620   -1.129025   -1.393390
  H     -2.926173    1.072864    0.023793
  H     -2.868014   -0.426133    0.959054
  H     -2.922178   -0.497189   -0.791594

 Total Charge           Charge          ....    0
 Multiplicity           Mult            ....    1
 Number of Electrons    NEL             ....   54
 Basis Dimension        Dim             ....  269

ORBITAL ENERGIES
----------------

  NO   OCC          E(Eh)            E(eV)
   0   2.0000     -11.228755      -305.5500
   1   2.0000     -11.223675      -305.4117
   2   2.0000     -11.222330      -305.3751
   3   2.0000     -11.220678      -305.3302
   4   2.0000     -11.220194      -305.3170
   5   2.0000     -11.219169      -305.2891
   6   2.0000     -11.215297      -305.1837
   7   2.0000      -1.124108       -30.5885
   8   2.0000      -1.033893       -28.1336
   9   2.0000      -1.000708       -27.2306
  10   2.0000      -0.922851       -25.1120
  11   2.0000      -0.844006       -22.9666
  12   2.0000      -0.801302       -21.8045
  13   2.0000      -0.687630       -18.7114
  14   2.0000      -0.643248       -17.5037
  15   2.0000      -0.609874       -16.5955
  16   2.0000      -0.586754       -15.9664
  17   2.0000      -0.583981       -15.8909
  18   2.0000      -0.558964       -15.2102
  19   2.0000      -0.543451       -14.7880
  20   2.0000      -0.517119       -14.0715
  21   2.0000      -0.512324       -13.9410
  22   2.0000      -0.504258       -13.7216
  23   2.0000      -0.460331       -12.5262
  24   2.0000      -0.446856       -12.1596
  25   2.0000      -0.431228       -11.7343
  26   2.0000      -0.328672        -8.9436
  27   0.0000       0.037258         1.0139
  28   0.0000       0.042053         1.1443
  29   0.0000       0.044266         1.2045
  30   0.0000       0.047769         1.2999
  31   0.0000       0.058604         1.5947

MULLIKEN ATOMIC CHARGES
-----------------------
   0 C :    0.314198
   1 C :   -0.805935
   2 C :    0.158122
   3 C :    0.016691
   4 C :    0.525666
   5 C :    0.527598
   6 C :    0.387050
   7 H :   -0.567318
   8 H :    0.027767
   9 H :    0.008333
  10 H :    0.033188
  11 H :   -0.006541
  12 H :   -0.082961
  13 H :   -0.176380
  14 H :   -0.093742
  15 H :   -0.175647
  16 H :   -0.188169
  17 H :    0.048130
  18 H :    0.049949
Sum of atomic charges:   -0.0000000

LOEWDIN ATOMIC CHARGES
----------------------
   0 C :    0.030620
   1 C :   -0.236610
   2 C :   -0.025451
   3 C :    0.001966
   4 C :   -0.021942
   5 C :   -0.017585
   6 C :    0.164724
   7 H :   -0.002257
   8 H :    0.016570
   9 H :    0.013647
  10 H :    0.024618
  11 H :    0.019806
  12 H :    0.013952
  13 H :    0.020106
  14 H :    0.014021
  15 H :    0.020591
  16 H :   -0.016241
  17 H :   -0.009281
  18 H :   -0.011251

  Mayer bond orders larger than 0.100000
B(  0-C ,  1-C ) :   1.7572 B(  0-C ,  2-C ) :   1.1604 B(  0-C ,  3-C ) :  -0.1580
B(  0-C ,  7-H ) :   0.1634 B(  0-C , 16-H ) :  -0.1288 B(  1-C ,  2-C ) :  -0.3215
B(  1-C ,  3-C ) :   1.2795 B(  1-C ,  6-C ) :   1.3121 B(  1-C ,  7-H ) :   0.4625
B(  1-C , 10-H ) :   0.1744 B(  1-C , 11-H ) :   0.2879 B(  1-C , 16-H ) :   0.3859
B(  1-C , 17-H ) :   0.1544 B(  1-C , 18-H ) :   0.1601 B(  2-C ,  3-C ) :   0.1315
B(  2-C ,  4-C ) :   1.2477 B(  2-C ,  8-H ) :   0.7503 B(  2-C ,  9-H ) :   0.7043
B(  3-C ,  5-C ) :   1.2496 B(  3-C ,  6-C ) :  -0.1265 B(  3-C , 10-H ) :   0.7762
B(  3-C , 11-H ) :   0.5885 B(  4-C ,  5-C ) :   1.1923 B(  4-C , 12-H ) :   0.7528
B(  4-C , 13-H ) :   0.7899 B(  5-C , 14-H ) :   0.7336 B(  5-C , 15-H ) :   0.8184
B(  6-C , 16-H ) :   0.6900 B(  6-C , 17-H ) :   0.8720 B(  6-C , 18-H ) :   0.8932
B(  8-H ,  9-H ) :  -0.1260 B( 10-H , 11-H ) :  -0.1373 B( 12-H , 13-H ) :  -0.1290
B( 14-H , 15-H ) :  -0.1295

MP2 TOTAL ENERGY:     -273.097749019 Eh
FINAL SINGLE POINT ENERGY      -273.097749019483

DIPOLE MOMENT
-------------
                                X             Y             Z
Electronic contribution:      0.27875       0.98335      -0.10872
Nuclear contribution   :     -0.24648      -1.08728       0.11836
                        -----------------------------------------
Total Dipole Moment    :      0.03227      -0.10393       0.00964
                        -----------------------------------------
Magnitude (a.u.)       :      0.10925
Magnitude (Debye)      :      0.27769

Rotational constants in cm-1:     0.150126     0.075335     0.053869
Rotational constants in MHz :  4500.660578  2258.492781  1614.939113

                             ****ORCA TERMINATED NORMALLY****
TOTAL RUN TIME: 0 days 0 hours 1 minutes 12 seconds 168 msec
