                         Program Version 5.0.3 -  RELEASE  -
|  1> !ri-mp2 aug-cc-pvdz aug-cc-pvdz/c tightscf
|  2> %pal nprocs 16 end
|  3>
|  4> * xyz 0 1
|  5> F      0.000000    1.080780   -0.696531
|  6> F      0.000000   -1.080780   -0.696531
|  7> C      0.000000    0.000000    0.067620
|  8> C      0.000000    0.000000    1.382761
|  9> H      0.000000    0.934350    1.917633
| 10> H      0.000000   -0.934350    1.917633
| 11> *
| 12>
| 13>                          ****END OF INPUT****

CARTESIAN COORDINATES (ANGSTROEM)
---------------------------------
  F      0.000000    1.080780   -0.696531
  F      0.000000   -1.080780   -0.696531
  C      0.000000    0.000000    0.067620
  C      0.000000    0.000000    1.382761
  H      0.000000    0.934350    1.917633
  H      0.000000   -0.934350    1.917633

 Total Charge           Charge          ....    0
 Multiplicity           Mult            ....    1
 Number of Electrons    NEL             ....   32
 Basis Dimension        Dim             ....  110

ORBITAL ENERGIES
----------------

  NO   OCC          E(Eh)            E(eV)
   0   2.0000     -26.360153      -717.2962
   1   2.0000     -26.360132      -717.2957
   2   2.0000     -11.438807      -311.2658
   3   2.0000     -11.253953      -306.2356
   4   2.0000      -1.709483       -46.5174
   5   2.0000      -1.644616       -44.7523
   6   2.0000      -1.077655       -29.3245
   7   2.0000      -0.889648       -24.2086
   8   2.0000      -0.805210       -21.9109
   9   2.0000      -0.763228       -20.7685
  10   2.0000      -0.753835       -20.5129
  11   2.0000      -0.690186       -18.7809
  12   2.0000      -0.668057       -18.1788
  13   2.0000      -0.640731       -17.4352
  14   2.0000      -0.600261       -16.3339
  15   2.0000      -0.395895       -10.7729
  16   0.0000       0.037233         1.0132
  17   0.0000       0.051651         1.4055
  18   0.0000       0.073507         2.0002
  19   0.0000       0.100518         2.7352
  20   0.0000       0.117855         3.2070

MULLIKEN ATOMIC CHARGES
-----------------------
   0 F :   -0.590853
   1 F :   -0.590853
   2 C :    1.354469
   3 C :    0.263776
   4 H :   -0.218270
   5 H :   -0.218270
Sum of atomic charges:   -0.0000000

LOEWDIN ATOMIC CHARGES
----------------------
   0 F :    0.081951
   1 F :    0.081951
   2 C :   -0.286893
   3 C :    0.195217
   4 H :   -0.036113
   5 H :   -0.036113

  Mayer bond orders larger than 0.100000
B(  0-F ,  2-C ) :   0.3079 B(  0-F ,  3-C ) :   0.1675 B(  1-F ,  2-C ) :   0.3079
B(  1-F ,  3-C ) :   0.1675 B(  2-C ,  3-C ) :   1.9415 B(  3-C ,  4-H ) :   0.9329
B(  3-C ,  5-H ) :   0.9329 B(  4-H ,  5-H ) :  -0.1285

MP2 TOTAL ENERGY:     -276.450125019 Eh
FINAL SINGLE POINT ENERGY      -276.450125019462

DIPOLE MOMENT
-------------
                                X             Y             Z
Electronic contribution:      0.00000      -0.00000      -4.26076
Nuclear contribution   :      0.00000       0.00000       4.89076
                        -----------------------------------------
Total Dipole Moment    :      0.00000      -0.00000       0.62999
                        -----------------------------------------
Magnitude (a.u.)       :      0.62999
Magnitude (Debye)      :      1.60132

Rotational constants in cm-1:     0.365338     0.347947     0.178215
Rotational constants in MHz : 10952.566714 10431.193372  5342.762024

                             ****ORCA TERMINATED NORMALLY****
TOTAL RUN TIME: 0 days 0 hours 0 minutes 24 seconds 827 msec
