                         Program Version 5.0.3 -  RELEASE  -
|  1> !ri-mp2 aug-cc-pvdz aug-cc-pvdz/c tightscf
|  2> %pal nprocs 16 end
|  3> %maxcore 3800
|  4>
|  5> * xyz 0 1
|  6> C      3.802935   -0.490610    0.000000
|  7> C      2.559112    0.396474    0.000000
|  8> C      1.251338   -0.396094    0.000000
|  9> C      0.000000    0.482704    0.000000
| 10> C     -1.308018   -0.309699    0.000000
| 11> C     -2.556134    0.578683    0.000000
| 12> N     -3.845546   -0.114188    0.000000
| 13> H      4.717679    0.103723    0.000000
| 14> H      3.826861   -1.135787    0.880692
| 15> H      3.826861   -1.135787   -0.880692
| 16> H      2.580491    1.054451    0.873988
| 17> H      2.580491    1.054451   -0.873988
| 18> H      1.230295   -1.055016    0.874553
| 19> H      1.230295   -1.055016   -0.874553
| 20> H      0.022835    1.141535   -0.874500
| 21> H      0.022835    1.141535    0.874500
| 22> H     -1.338505   -0.966435    0.876192
| 23> H     -1.338505   -0.966435   -0.876192
| 24> H     -2.533944    1.235791    0.873348
| 25> H     -2.533944    1.235791   -0.873348
| 26> H     -3.935161   -0.711119    0.813635
| 27> H     -3.935161   -0.711119   -0.813635
| 28> *
| 29>
| 30>                          ****END OF INPUT****

CARTESIAN COORDINATES (ANGSTROEM)
---------------------------------
  C      3.802935   -0.490610    0.000000
  C      2.559112    0.396474    0.000000
  C      1.251338   -0.396094    0.000000
  C      0.000000    0.482704    0.000000
  C     -1.308018   -0.309699    0.000000
  C     -2.556134    0.578683    0.000000
  N     -3.845546   -0.114188    0.000000
  H      4.717679    0.103723    0.000000
  H      3.826861   -1.135787    0.880692
  H      3.826861   -1.135787   -0.880692
  H      2.580491    1.054451    0.873988
  H      2.580491    1.054451   -0.873988
  H      1.230295   -1.055016    0.874553
  H      1.230295   -1.055016   -0.874553
  H      0.022835    1.141535   -0.874500
  H      0.022835    1.141535    0.874500
  H     -1.338505   -0.966435    0.876192
  H     -1.338505   -0.966435   -0.876192
  H     -2.533944    1.235791    0.873348
  H     -2.533944    1.235791   -0.873348
  H     -3.935161   -0.711119    0.813635
  H     -3.935161   -0.711119   -0.813635

 Total Charge           Charge          ....    0
 Multiplicity           Mult            ....    1
 Number of Electrons    NEL             ....   58
 Basis Dimension        Dim             ....  296

ORBITAL ENERGIES
----------------

  NO   OCC          E(Eh)            E(eV)
   0   2.0000     -15.544268      -422.9810
   1   2.0000     -11.249166      -306.1054
   2   2.0000     -11.222553      -305.3812
   3   2.0000     -11.222440      -305.3781
   4   2.0000     -11.221061      -305.3406
   5   2.0000     -11.220886      -305.3358
   6   2.0000     -11.217441      -305.2421
   7   2.0000      -1.175985       -32.0002
   8   2.0000      -1.083881       -29.4939
   9   2.0000      -1.027002       -27.9461
  10   2.0000      -0.946222       -25.7480
  11   2.0000      -0.860204       -23.4073
  12   2.0000      -0.802534       -21.8381
  13   2.0000      -0.788809       -21.4646
  14   2.0000      -0.676104       -18.3977
  15   2.0000      -0.643755       -17.5175
  16   2.0000      -0.601859       -16.3774
  17   2.0000      -0.597294       -16.2532
  18   2.0000      -0.580219       -15.7886
  19   2.0000      -0.558568       -15.1994
  20   2.0000      -0.542153       -14.7527
  21   2.0000      -0.532727       -14.4962
  22   2.0000      -0.494375       -13.4526
  23   2.0000      -0.487339       -13.2612
  24   2.0000      -0.467690       -12.7265
  25   2.0000      -0.466723       -12.7002
  26   2.0000      -0.460152       -12.5214
  27   2.0000      -0.459256       -12.4970
  28   2.0000      -0.379501       -10.3267
  29   0.0000       0.036177         0.9844
  30   0.0000       0.039543         1.0760
  31   0.0000       0.044361         1.2071
  32   0.0000       0.044454         1.2096
  33   0.0000       0.055748         1.5170

MULLIKEN ATOMIC CHARGES
-----------------------
   0 C :    0.536466
   1 C :    0.405125
   2 C :    0.118958
   3 C :    0.219277
   4 C :    0.357559
   5 C :    0.986682
   6 N :   -0.451648
   7 H :   -0.078944
   8 H :   -0.091804
   9 H :   -0.091804
  10 H :   -0.183385
  11 H :   -0.183385
  12 H :   -0.222408
  13 H :   -0.222408
  14 H :   -0.207717
  15 H :   -0.207717
  16 H :   -0.163508
  17 H :   -0.163508
  18 H :   -0.174295
  19 H :   -0.174295
  20 H :   -0.003621
  21 H :   -0.003621
Sum of atomic charges:    0.0000000

LOEWDIN ATOMIC CHARGES
----------------------
   0 C :    0.130184
   1 C :   -0.073222
   2 C :   -0.043329
   3 C :   -0.037954
   4 C :   -0.034857
   5 C :   -0.073309
   6 N :    0.173046
   7 H :   -0.022268
   8 H :   -0.020443
   9 H :   -0.020443
  10 H :    0.010789
  11 H :    0.010789
  12 H :    0.015895
  13 H :    0.015895
  14 H :    0.016380
  15 H :    0.016380
  16 H :    0.013896
  17 H :    0.013896
  18 H :    0.010210
  19 H :    0.010210
  20 H :   -0.055872
  21 H :   -0.055872

  Mayer bond orders larger than 0.100000
B(  0-C ,  1-C ) :   1.1598 B(  0-C ,  7-H ) :   0.9112 B(  0-C ,  8-H ) :   0.9145
B(  0-C ,  9-H ) :   0.9145 B(  1-C ,  2-C ) :   1.2338 B(  1-C , 10-H ) :   0.7401
B(  1-C , 11-H ) :   0.7401 B(  2-C ,  3-C ) :   1.3862 B(  2-C , 10-H ) :   0.1066
B(  2-C , 11-H ) :   0.1066 B(  2-C , 12-H ) :   0.7828 B(  2-C , 13-H ) :   0.7828
B(  3-C ,  4-C ) :   1.3022 B(  3-C ,  5-C ) :  -0.1075 B(  3-C , 14-H ) :   0.7764
B(  3-C , 15-H ) :   0.7764 B(  4-C ,  5-C ) :   1.1101 B(  4-C , 16-H ) :   0.7563
B(  4-C , 17-H ) :   0.7563 B(  5-C ,  6-N ) :   0.8016 B(  5-C , 18-H ) :   0.8356
B(  5-C , 19-H ) :   0.8356 B(  6-N , 20-H ) :   1.0593 B(  6-N , 21-H ) :   1.0593

MP2 TOTAL ENERGY:     -291.513002422 Eh
FINAL SINGLE POINT ENERGY      -291.513002422424

DIPOLE MOMENT
-------------
                                X             Y             Z
Electronic contribution:     -4.29677       0.48574       0.00000
Nuclear contribution   :      4.73725      -0.82897       0.00000
                        -----------------------------------------
Total Dipole Moment    :      0.44049      -0.34324       0.00000
                        -----------------------------------------
Magnitude (a.u.)       :      0.55843
Magnitude (Debye)      :      1.41941

Rotational constants in cm-1:     0.420566     0.023911     0.023288
Rotational constants in MHz : 12608.242234   716.837983   698.152744

                             ****ORCA TERMINATED NORMALLY****
TOTAL RUN TIME: 0 days 0 hours 1 minutes 31 seconds 78 msec
