                         Program Version 5.0.3 -  RELEASE  -
|  1> !ri-mp2 aug-cc-pvdz aug-cc-pvdz/c tightscf
|  2> %pal nprocs 16 end
|  3>
|  4> * xyz 0 1
|  5> O     -0.557524   -1.069370    0.000000
|  6> O      0.138457   -0.482273    1.115905
|  7> O      0.138457   -0.482273   -1.115905
|  8> C      0.138457    0.901420    0.775632
|  9> C      0.138457    0.901420   -0.775632
| 10> H      1.040255    1.327083    1.210950
| 11> H      1.040255    1.327083   -1.210950
| 12> H     -0.748557    1.400059    1.169152
| 13> H     -0.748557    1.400059   -1.169152
| 14> *
| 15>
| 16>                          ****END OF INPUT****

CARTESIAN COORDINATES (ANGSTROEM)
---------------------------------
  O     -0.557524   -1.069370    0.000000
  O      0.138457   -0.482273    1.115905
  O      0.138457   -0.482273   -1.115905
  C      0.138457    0.901420    0.775632
  C      0.138457    0.901420   -0.775632
  H      1.040255    1.327083    1.210950
  H      1.040255    1.327083   -1.210950
  H     -0.748557    1.400059    1.169152
  H     -0.748557    1.400059   -1.169152

 Total Charge           Charge          ....    0
 Multiplicity           Mult            ....    1
 Number of Electrons    NEL             ....   40
 Basis Dimension        Dim             ....  151

ORBITAL ENERGIES
----------------

  NO   OCC          E(Eh)            E(eV)
   0   2.0000     -20.701718      -563.3224
   1   2.0000     -20.654144      -562.0278
   2   2.0000     -20.654107      -562.0268
   3   2.0000     -11.315262      -307.9039
   4   2.0000     -11.314702      -307.8887
   5   2.0000      -1.562590       -42.5202
   6   2.0000      -1.369467       -37.2651
   7   2.0000      -1.197378       -32.5823
   8   2.0000      -0.982208       -26.7272
   9   2.0000      -0.878935       -23.9170
  10   2.0000      -0.735859       -20.0237
  11   2.0000      -0.727100       -19.7854
  12   2.0000      -0.675682       -18.3862
  13   2.0000      -0.654360       -17.8060
  14   2.0000      -0.609337       -16.5809
  15   2.0000      -0.551400       -15.0043
  16   2.0000      -0.548473       -14.9247
  17   2.0000      -0.528867       -14.3912
  18   2.0000      -0.479891       -13.0585
  19   2.0000      -0.454424       -12.3655
  20   0.0000       0.031184         0.8486
  21   0.0000       0.045704         1.2437
  22   0.0000       0.046687         1.2704
  23   0.0000       0.068510         1.8642
  24   0.0000       0.084972         2.3122

MULLIKEN ATOMIC CHARGES
-----------------------
   0 O :   -0.180349
   1 O :   -0.503893
   2 O :   -0.503893
   3 C :    0.895505
   4 C :    0.895505
   5 H :   -0.148759
   6 H :   -0.148759
   7 H :   -0.152678
   8 H :   -0.152678
Sum of atomic charges:   -0.0000000

LOEWDIN ATOMIC CHARGES
----------------------
   0 O :    0.023871
   1 O :    0.002675
   2 O :    0.002675
   3 C :   -0.017175
   4 C :   -0.017175
   5 H :    0.001536
   6 H :    0.001536
   7 H :    0.001028
   8 H :    0.001028

  Mayer bond orders larger than 0.100000
B(  0-O ,  1-O ) :   0.8223 B(  0-O ,  2-O ) :   0.8223 B(  1-O ,  3-C ) :   0.5592
B(  2-O ,  4-C ) :   0.5592 B(  3-C ,  4-C ) :   1.2347 B(  3-C ,  5-H ) :   0.9262
B(  3-C ,  7-H ) :   0.8927 B(  4-C ,  6-H ) :   0.9262 B(  4-C ,  8-H ) :   0.8927

MP2 TOTAL ENERGY:     -303.361414938 Eh
FINAL SINGLE POINT ENERGY      -303.361414938158

DIPOLE MOMENT
-------------
                                X             Y             Z
Electronic contribution:     -0.45257      -3.86481       0.00000
Nuclear contribution   :      0.57191       5.35605       0.00000
                        -----------------------------------------
Total Dipole Moment    :      0.11933       1.49124       0.00000
                        -----------------------------------------
Magnitude (a.u.)       :      1.49601
Magnitude (Debye)      :      3.80255

Rotational constants in cm-1:     0.273080     0.252738     0.146525
Rotational constants in MHz :  8186.746133  7576.894148  4392.716739

                             ****ORCA TERMINATED NORMALLY****
TOTAL RUN TIME: 0 days 0 hours 0 minutes 52 seconds 937 msec
