                         Program Version 5.0.3 -  RELEASE  -
|  1> !ri-mp2 aug-cc-pvdz aug-cc-pvdz/c tightscf
|  2> %pal nprocs 16 end
|  3>
|  4> * xyz 0 1
|  5> C     -2.772926   -0.745430    0.127040
|  6> C     -2.835748    0.657366   -0.109605
|  7> C      2.860308    0.583052    0.103711
|  8> C      1.551119    1.154181    0.212862
|  9> C     -1.451987   -1.096859    0.185131
| 10> C     -1.550872    1.119466   -0.190721
| 11> C      2.691852   -0.736863   -0.133470
| 12> C      0.685887    0.123810    0.019734
| 13> N     -0.697666    0.046430   -0.010764
| 14> O      1.353226   -1.035205   -0.194701
| 15> H     -3.604798   -1.419043    0.239788
| 16> H     -3.724063    1.255180   -0.219283
| 17> H      3.800352    1.097381    0.201917
| 18> H      1.298133    2.176815    0.425961
| 19> H     -0.974196   -2.044614    0.349051
| 20> H     -1.163532    2.103939   -0.379320
| 21> H      3.360167   -1.565371   -0.273248
| 22> *
| 23>
| 24>                          ****END OF INPUT****

CARTESIAN COORDINATES (ANGSTROEM)
---------------------------------
  C     -2.772926   -0.745430    0.127040
  C     -2.835748    0.657366   -0.109605
  C      2.860308    0.583052    0.103711
  C      1.551119    1.154181    0.212862
  C     -1.451987   -1.096859    0.185131
  C     -1.550872    1.119466   -0.190721
  C      2.691852   -0.736863   -0.133470
  C      0.685887    0.123810    0.019734
  N     -0.697666    0.046430   -0.010764
  O      1.353226   -1.035205   -0.194701
  H     -3.604798   -1.419043    0.239788
  H     -3.724063    1.255180   -0.219283
  H      3.800352    1.097381    0.201917
  H      1.298133    2.176815    0.425961
  H     -0.974196   -2.044614    0.349051
  H     -1.163532    2.103939   -0.379320
  H      3.360167   -1.565371   -0.273248

 Total Charge           Charge          ....    0
 Multiplicity           Mult            ....    1
 Number of Electrons    NEL             ....   70
 Basis Dimension        Dim             ....  293

ORBITAL ENERGIES
----------------

  NO   OCC          E(Eh)            E(eV)
   0   2.0000     -20.643456      -561.7370
   1   2.0000     -15.635252      -425.4568
   2   2.0000     -11.350734      -308.8692
   3   2.0000     -11.296624      -307.3968
   4   2.0000     -11.268174      -306.6226
   5   2.0000     -11.267331      -306.5997
   6   2.0000     -11.245821      -306.0144
   7   2.0000     -11.237657      -305.7922
   8   2.0000     -11.227384      -305.5126
   9   2.0000     -11.225257      -305.4548
  10   2.0000      -1.481780       -40.3213
  11   2.0000      -1.321991       -35.9732
  12   2.0000      -1.106379       -30.1061
  13   2.0000      -1.090085       -29.6627
  14   2.0000      -0.993506       -27.0347
  15   2.0000      -0.987553       -26.8727
  16   2.0000      -0.841680       -22.9033
  17   2.0000      -0.828288       -22.5389
  18   2.0000      -0.773517       -21.0485
  19   2.0000      -0.765106       -20.8196
  20   2.0000      -0.751937       -20.4612
  21   2.0000      -0.677781       -18.4433
  22   2.0000      -0.663164       -18.0456
  23   2.0000      -0.618095       -16.8192
  24   2.0000      -0.597892       -16.2695
  25   2.0000      -0.585169       -15.9232
  26   2.0000      -0.579302       -15.7636
  27   2.0000      -0.573479       -15.6052
  28   2.0000      -0.563013       -15.3203
  29   2.0000      -0.548305       -14.9201
  30   2.0000      -0.538214       -14.6456
  31   2.0000      -0.413366       -11.2483
  32   2.0000      -0.388284       -10.5657
  33   2.0000      -0.310260        -8.4426
  34   2.0000      -0.293204        -7.9785
  35   0.0000       0.033470         0.9108
  36   0.0000       0.039541         1.0760
  37   0.0000       0.041162         1.1201
  38   0.0000       0.050891         1.3848
  39   0.0000       0.053375         1.4524

MULLIKEN ATOMIC CHARGES
-----------------------
   0 C :    0.231314
   1 C :    0.344268
   2 C :    0.507492
   3 C :    0.898034
   4 C :    0.901737
   5 C :    0.558319
   6 C :    0.665863
   7 C :    0.096535
   8 N :   -0.675659
   9 O :   -0.766857
  10 H :   -0.337174
  11 H :   -0.337672
  12 H :   -0.319723
  13 H :   -0.462727
  14 H :   -0.453240
  15 H :   -0.487046
  16 H :   -0.363466
Sum of atomic charges:    0.0000000

LOEWDIN ATOMIC CHARGES
----------------------
   0 C :    0.001788
   1 C :    0.002505
   2 C :    0.000370
   3 C :    0.050048
   4 C :    0.065350
   5 C :    0.055895
   6 C :    0.018317
   7 C :   -0.171389
   8 N :   -0.091253
   9 O :    0.113526
  10 H :   -0.011786
  11 H :   -0.010941
  12 H :   -0.005773
  13 H :   -0.006530
  14 H :    0.001897
  15 H :    0.000889
  16 H :   -0.012911

  Mayer bond orders larger than 0.100000
B(  0-C ,  1-C ) :   1.5395 B(  0-C ,  4-C ) :   1.9694 B(  0-C ,  5-C ) :   0.1299
B(  0-C ,  8-N ) :  -0.1347 B(  0-C , 10-H ) :   0.6150 B(  0-C , 11-H ) :   0.1146
B(  1-C ,  5-C ) :   2.0237 B(  1-C ,  8-N ) :  -0.1146 B(  1-C , 11-H ) :   0.5321
B(  2-C ,  3-C ) :   1.4970 B(  2-C ,  6-C ) :   1.7092 B(  2-C , 12-H ) :   0.6012
B(  3-C ,  7-C ) :   1.5174 B(  3-C ,  8-N ) :  -0.1549 B(  4-C ,  7-C ) :  -0.1045
B(  4-C ,  8-N ) :   1.0846 B(  4-C , 14-H ) :   0.4576 B(  5-C ,  8-N ) :   1.0556
B(  5-C , 11-H ) :   0.1685 B(  5-C , 15-H ) :   0.5616 B(  6-C ,  7-C ) :   0.1528
B(  6-C ,  9-O ) :   0.6736 B(  6-C , 16-H ) :   0.9226 B(  7-C ,  8-N ) :   0.9405
B(  7-C ,  9-O ) :   0.5914 B(  7-C , 13-H ) :   0.6256 B(  7-C , 15-H ) :   0.1733
B(  7-C , 16-H ) :   0.1665 B(  9-O , 16-H ) :  -0.1614

MP2 TOTAL ENERGY:     -437.775862408 Eh
FINAL SINGLE POINT ENERGY      -437.775862407514

DIPOLE MOMENT
-------------
                                X             Y             Z
Electronic contribution:      1.42800      -1.32268      -0.27463
Nuclear contribution   :     -0.97816       1.56814       0.33741
                        -----------------------------------------
Total Dipole Moment    :      0.44984       0.24547       0.06278
                        -----------------------------------------
Magnitude (a.u.)       :      0.51628
Magnitude (Debye)      :      1.31229

Rotational constants in cm-1:     0.154064     0.030129     0.025456
Rotational constants in MHz :  4618.715325   903.258249   763.165918

                             ****ORCA TERMINATED NORMALLY****
TOTAL RUN TIME: 0 days 0 hours 1 minutes 26 seconds 377 msec
