                         Program Version 5.0.3 -  RELEASE  -
|  1> !ri-mp2 aug-cc-pvdz aug-cc-pvdz/c tightscf
|  2> %pal nprocs 16 end
|  3>
|  4> * xyz 0 1
|  5> Cl   -2.745853    0.000000   -0.458741
|  6> N    -0.811909   -0.000003    1.816306
|  7> N     2.136126    2.181527   -0.641085
|  8> N     2.136127   -2.181525   -0.641088
|  9> C    -0.235309    0.000000    0.701571
| 10> C     1.323138    0.000000    0.550801
| 11> C    -0.970811    0.000001   -0.614246
| 12> C     1.796864    1.210768   -0.129504
| 13> C     1.796865   -1.210767   -0.129506
| 14> H    -0.172445   -0.000004    2.608644
| 15> H     1.744862   -0.000001    1.558684
| 16> H    -0.689901    0.880301   -1.191176
| 17> H    -0.689901   -0.880298   -1.191179
| 18> *
| 19>
| 20>                          ****END OF INPUT****

CARTESIAN COORDINATES (ANGSTROEM)
---------------------------------
  Cl    -2.745853    0.000000   -0.458741
  N     -0.811909   -0.000003    1.816306
  N      2.136126    2.181527   -0.641085
  N      2.136127   -2.181525   -0.641088
  C     -0.235309    0.000000    0.701571
  C      1.323138    0.000000    0.550801
  C     -0.970811    0.000001   -0.614246
  C      1.796864    1.210768   -0.129504
  C      1.796865   -1.210767   -0.129506
  H     -0.172445   -0.000004    2.608644
  H      1.744862   -0.000001    1.558684
  H     -0.689901    0.880301   -1.191176
  H     -0.689901   -0.880298   -1.191179

 Total Charge           Charge          ....    0
 Multiplicity           Mult            ....    1
 Number of Electrons    NEL             ....   72
 Basis Dimension        Dim             ....  247

ORBITAL ENERGIES
----------------

  NO   OCC          E(Eh)            E(eV)
   0   2.0000    -104.844729     -2852.9701
   1   2.0000     -15.633718      -425.4151
   2   2.0000     -15.633717      -425.4151
   3   2.0000     -15.618246      -424.9941
   4   2.0000     -11.389805      -309.9323
   5   2.0000     -11.368349      -309.3485
   6   2.0000     -11.338285      -308.5304
   7   2.0000     -11.333882      -308.4106
   8   2.0000     -11.333871      -308.4103
   9   2.0000     -10.570450      -287.6366
  10   2.0000      -8.038227      -218.7313
  11   2.0000      -8.034747      -218.6366
  12   2.0000      -8.034737      -218.6363
  13   2.0000      -1.301831       -35.4246
  14   2.0000      -1.275431       -34.7062
  15   2.0000      -1.270894       -34.5828
  16   2.0000      -1.155639       -31.4465
  17   2.0000      -1.135597       -30.9012
  18   2.0000      -0.990694       -26.9582
  19   2.0000      -0.821696       -22.3595
  20   2.0000      -0.818615       -22.2756
  21   2.0000      -0.765318       -20.8254
  22   2.0000      -0.731348       -19.9010
  23   2.0000      -0.667392       -18.1607
  24   2.0000      -0.643498       -17.5105
  25   2.0000      -0.608519       -16.5587
  26   2.0000      -0.603302       -16.4167
  27   2.0000      -0.569331       -15.4923
  28   2.0000      -0.540382       -14.7046
  29   2.0000      -0.527042       -14.3415
  30   2.0000      -0.511987       -13.9319
  31   2.0000      -0.511297       -13.9131
  32   2.0000      -0.492196       -13.3933
  33   2.0000      -0.465591       -12.6694
  34   2.0000      -0.455306       -12.3895
  35   2.0000      -0.452991       -12.3265
  36   0.0000       0.018566         0.5052
  37   0.0000       0.044600         1.2136
  38   0.0000       0.048148         1.3102
  39   0.0000       0.054507         1.4832
  40   0.0000       0.077345         2.1047

MULLIKEN ATOMIC CHARGES
-----------------------
   0 Cl:    0.015991
   1 N :   -0.545200
   2 N :   -0.307826
   3 N :   -0.307825
   4 C :    0.308840
   5 C :    0.874323
   6 C :   -0.101033
   7 C :   -0.184936
   8 C :   -0.184939
   9 H :    0.015401
  10 H :    0.045225
  11 H :    0.185990
  12 H :    0.185991
Sum of atomic charges:    0.0000000

LOEWDIN ATOMIC CHARGES
----------------------
   0 Cl:    0.527999
   1 N :    0.210567
   2 N :    0.125912
   3 N :    0.125912
   4 C :   -0.291636
   5 C :   -0.161865
   6 C :   -0.294341
   7 C :   -0.102885
   8 C :   -0.102885
   9 H :   -0.060606
  10 H :    0.058865
  11 H :   -0.017519
  12 H :   -0.017519

  Mayer bond orders larger than 0.100000
B(  0-Cl,  4-C ) :  -0.2320 B(  0-Cl,  5-C ) :   0.1045 B(  0-Cl,  6-C ) :   1.3050
B(  0-Cl, 11-H ) :  -0.1153 B(  0-Cl, 12-H ) :  -0.1153 B(  1-N ,  4-C ) :   1.6989
B(  1-N ,  9-H ) :   1.0075 B(  2-N ,  5-C ) :  -0.1638 B(  2-N ,  7-C ) :   2.7334
B(  3-N ,  5-C ) :  -0.1638 B(  3-N ,  8-C ) :   2.7333 B(  4-C ,  5-C ) :   0.9722
B(  4-C ,  6-C ) :   1.1327 B(  4-C ,  7-C ) :   0.1397 B(  4-C ,  8-C ) :   0.1397
B(  4-C , 10-H ) :   0.1906 B(  5-C ,  7-C ) :   0.3794 B(  5-C ,  8-C ) :   0.3794
B(  5-C , 10-H ) :   0.5119 B(  6-C , 11-H ) :   0.8148 B(  6-C , 12-H ) :   0.8148
B(  7-C ,  8-C ) :   0.3733

MP2 TOTAL ENERGY:     -815.822579279 Eh
FINAL SINGLE POINT ENERGY      -815.822579279016

DIPOLE MOMENT
-------------
                                X             Y             Z
Electronic contribution:     -3.56799       0.00000      -1.38281
Nuclear contribution   :      3.95583      -0.00000       2.33494
                        -----------------------------------------
Total Dipole Moment    :      0.38784      -0.00000       0.95213
                        -----------------------------------------
Magnitude (a.u.)       :      1.02809
Magnitude (Debye)      :      2.61320

Rotational constants in cm-1:     0.064370     0.027605     0.024467
Rotational constants in MHz :  1929.757856   827.568463   733.510039

                             ****ORCA TERMINATED NORMALLY****
TOTAL RUN TIME: 0 days 0 hours 0 minutes 58 seconds 304 msec
