                         Program Version 5.0.3 -  RELEASE  -
|  1> !ri-mp2 aug-cc-pvdz aug-cc-pvdz/c tightscf
|  2> %pal nprocs 16 end
|  3>
|  4> * xyz 0 1
|  5> N      0.000000    1.355099   -0.047558
|  6> N      0.000000    0.655407   -1.178699
|  7> N      0.000000   -0.655407   -1.178699
|  8> N      0.000000   -1.355099   -0.047558
|  9> C      0.000000   -0.693285    1.096489
| 10> C      0.000000    0.693285    1.096489
| 11> H      0.000000   -1.283068    2.004868
| 12> H      0.000000    1.283068    2.004868
| 13> *
| 14>
| 15>                          ****END OF INPUT****

CARTESIAN COORDINATES (ANGSTROEM)
---------------------------------
  N      0.000000    1.355099   -0.047558
  N      0.000000    0.655407   -1.178699
  N      0.000000   -0.655407   -1.178699
  N      0.000000   -1.355099   -0.047558
  C      0.000000   -0.693285    1.096489
  C      0.000000    0.693285    1.096489
  H      0.000000   -1.283068    2.004868
  H      0.000000    1.283068    2.004868

 Total Charge           Charge          ....    0
 Multiplicity           Mult            ....    1
 Number of Electrons    NEL             ....   42
 Basis Dimension        Dim             ....  156

ORBITAL ENERGIES
----------------

  NO   OCC          E(Eh)            E(eV)
   0   2.0000     -15.688826      -426.9147
   1   2.0000     -15.687892      -426.8892
   2   2.0000     -15.664950      -426.2650
   3   2.0000     -15.664930      -426.2644
   4   2.0000     -11.337651      -308.5132
   5   2.0000     -11.336415      -308.4795
   6   2.0000      -1.467719       -39.9387
   7   2.0000      -1.309456       -35.6321
   8   2.0000      -1.214866       -33.0582
   9   2.0000      -0.989119       -26.9153
  10   2.0000      -0.988846       -26.9079
  11   2.0000      -0.790135       -21.5007
  12   2.0000      -0.755157       -20.5489
  13   2.0000      -0.693961       -18.8836
  14   2.0000      -0.650671       -17.7056
  15   2.0000      -0.603300       -16.4166
  16   2.0000      -0.550387       -14.9768
  17   2.0000      -0.483480       -13.1562
  18   2.0000      -0.463579       -12.6146
  19   2.0000      -0.446361       -12.1461
  20   2.0000      -0.433910       -11.8073
  21   0.0000       0.023281         0.6335
  22   0.0000       0.037235         1.0132
  23   0.0000       0.041527         1.1300
  24   0.0000       0.054862         1.4929
  25   0.0000       0.081753         2.2246

MULLIKEN ATOMIC CHARGES
-----------------------
   0 N :   -0.456003
   1 N :   -0.178604
   2 N :   -0.178604
   3 N :   -0.456003
   4 C :    0.857248
   5 C :    0.857248
   6 H :   -0.222640
   7 H :   -0.222640
Sum of atomic charges:   -0.0000000

LOEWDIN ATOMIC CHARGES
----------------------
   0 N :    0.012575
   1 N :   -0.022410
   2 N :   -0.022410
   3 N :    0.012575
   4 C :   -0.000912
   5 C :   -0.000912
   6 H :    0.010747
   7 H :    0.010747

  Mayer bond orders larger than 0.100000
B(  0-N ,  1-N ) :   0.9062 B(  0-N ,  2-N ) :   0.1508 B(  0-N ,  5-C ) :   1.1723
B(  1-N ,  2-N ) :   0.9179 B(  1-N ,  3-N ) :   0.1508 B(  2-N ,  3-N ) :   0.9062
B(  3-N ,  4-C ) :   1.1723 B(  4-C ,  5-C ) :   1.4229 B(  4-C ,  6-H ) :   0.7997
B(  5-C ,  7-H ) :   0.7997

MP2 TOTAL ENERGY:     -295.545738794 Eh
FINAL SINGLE POINT ENERGY      -295.545738793637

DIPOLE MOMENT
-------------
                                X             Y             Z
Electronic contribution:      0.00000       0.00000      -1.95065
Nuclear contribution   :      0.00000       0.00000       3.84019
                        -----------------------------------------
Total Dipole Moment    :      0.00000       0.00000       1.88954
                        -----------------------------------------
Magnitude (a.u.)       :      1.88954
Magnitude (Debye)      :      4.80283

Rotational constants in cm-1:     0.222465     0.215184     0.109382
Rotational constants in MHz :  6669.330867  6451.065423  3279.191329

                             ****ORCA TERMINATED NORMALLY****
TOTAL RUN TIME: 0 days 0 hours 0 minutes 36 seconds 559 msec
