                         Program Version 5.0.3 -  RELEASE  -
|  1> !ri-mp2 aug-cc-pvdz aug-cc-pvdz/c tightscf
|  2> %pal nprocs 16 end
|  3>
|  4> * xyz 0 1
|  5> C     -2.057620   -0.570893    0.000000
|  6> C     -1.349473   -1.765667    0.000000
|  7> C     -1.385262    0.643953    0.000000
|  8> C      0.722393   -0.566463    0.000000
|  9> C      0.048829   -1.783697    0.000000
| 10> C      0.000000    0.619586    0.000000
| 11> C      0.801538   -3.087682    0.000000
| 12> N      0.736402    1.899710    0.000000
| 13> O      0.081540    2.932000    0.000000
| 14> O      1.958229    1.853894    0.000000
| 15> H     -3.138638   -0.583862    0.000000
| 16> H     -1.890749   -2.703493    0.000000
| 17> H     -1.907623    1.587184    0.000000
| 18> H      1.800839   -0.524533    0.000000
| 19> H      1.877726   -2.925062    0.000000
| 20> H      0.551524   -3.685088    0.878569
| 21> H      0.551524   -3.685088   -0.878569
| 22> *
| 23>
| 24>                          ****END OF INPUT****

CARTESIAN COORDINATES (ANGSTROEM)
---------------------------------
  C     -2.057620   -0.570893    0.000000
  C     -1.349473   -1.765667    0.000000
  C     -1.385262    0.643953    0.000000
  C      0.722393   -0.566463    0.000000
  C      0.048829   -1.783697    0.000000
  C      0.000000    0.619586    0.000000
  C      0.801538   -3.087682    0.000000
  N      0.736402    1.899710    0.000000
  O      0.081540    2.932000    0.000000
  O      1.958229    1.853894    0.000000
  H     -3.138638   -0.583862    0.000000
  H     -1.890749   -2.703493    0.000000
  H     -1.907623    1.587184    0.000000
  H      1.800839   -0.524533    0.000000
  H      1.877726   -2.925062    0.000000
  H      0.551524   -3.685088    0.878569
  H      0.551524   -3.685088   -0.878569

 Total Charge           Charge          ....    0
 Multiplicity           Mult            ....    1
 Number of Electrons    NEL             ....   72
 Basis Dimension        Dim             ....  293

ORBITAL ENERGIES
----------------

  NO   OCC          E(Eh)            E(eV)
   0   2.0000     -20.610848      -560.8497
   1   2.0000     -20.610786      -560.8480
   2   2.0000     -15.860030      -431.5734
   3   2.0000     -11.313449      -307.8546
   4   2.0000     -11.275334      -306.8174
   5   2.0000     -11.274495      -306.7946
   6   2.0000     -11.272359      -306.7365
   7   2.0000     -11.270730      -306.6922
   8   2.0000     -11.267882      -306.6147
   9   2.0000     -11.250252      -306.1349
  10   2.0000      -1.611338       -43.8467
  11   2.0000      -1.403960       -38.2037
  12   2.0000      -1.203250       -32.7421
  13   2.0000      -1.103150       -30.0182
  14   2.0000      -1.069228       -29.0952
  15   2.0000      -0.970908       -26.4197
  16   2.0000      -0.957388       -26.0519
  17   2.0000      -0.851255       -23.1638
  18   2.0000      -0.821231       -22.3468
  19   2.0000      -0.768584       -20.9142
  20   2.0000      -0.729385       -19.8476
  21   2.0000      -0.718821       -19.5601
  22   2.0000      -0.705505       -19.1978
  23   2.0000      -0.668245       -18.1839
  24   2.0000      -0.637297       -17.3417
  25   2.0000      -0.603951       -16.4343
  26   2.0000      -0.597674       -16.2635
  27   2.0000      -0.565989       -15.4014
  28   2.0000      -0.543293       -14.7838
  29   2.0000      -0.522633       -14.2216
  30   2.0000      -0.521039       -14.1782
  31   2.0000      -0.492931       -13.4133
  32   2.0000      -0.491876       -13.3846
  33   2.0000      -0.454102       -12.3567
  34   2.0000      -0.373458       -10.1623
  35   2.0000      -0.356783        -9.7085
  36   0.0000       0.027228         0.7409
  37   0.0000       0.034965         0.9514
  38   0.0000       0.036875         1.0034
  39   0.0000       0.044675         1.2157
  40   0.0000       0.050789         1.3820

MULLIKEN ATOMIC CHARGES
-----------------------
   0 C :    0.177365
   1 C :    0.882530
   2 C :    0.227072
   3 C :    0.573209
   4 C :   -0.165584
   5 C :    1.124399
   6 C :    0.480617
   7 N :    0.438358
   8 O :   -0.819416
   9 O :   -0.808952
  10 H :   -0.452867
  11 H :   -0.607588
  12 H :   -0.448248
  13 H :   -0.563821
  14 H :   -0.195232
  15 H :    0.079079
  16 H :    0.079079
Sum of atomic charges:   -0.0000000

LOEWDIN ATOMIC CHARGES
----------------------
   0 C :    0.031488
   1 C :    0.065470
   2 C :    0.073336
   3 C :    0.104495
   4 C :   -0.199339
   5 C :   -0.111915
   6 C :    0.181876
   7 N :   -0.332510
   8 O :    0.087756
   9 O :    0.087602
  10 H :    0.006402
  11 H :    0.015223
  12 H :    0.006082
  13 H :    0.007620
  14 H :   -0.012494
  15 H :   -0.005546
  16 H :   -0.005546

  Mayer bond orders larger than 0.100000
B(  0-C ,  1-C ) :   1.9834 B(  0-C ,  2-C ) :   2.2260 B(  0-C ,  3-C ) :  -0.1053
B(  0-C ,  4-C ) :  -0.4174 B(  0-C ,  5-C ) :  -0.2163 B(  0-C ,  6-C ) :   0.3379
B(  0-C , 10-H ) :   0.1513 B(  0-C , 11-H ) :   0.2635 B(  0-C , 12-H ) :   0.2073
B(  1-C ,  3-C ) :  -0.6244 B(  1-C ,  4-C ) :   1.5319 B(  1-C ,  5-C ) :   0.2337
B(  1-C ,  6-C ) :  -0.7741 B(  1-C , 10-H ) :   0.2746 B(  1-C , 11-H ) :  -0.1286
B(  2-C ,  4-C ) :   0.2275 B(  2-C ,  5-C ) :   1.3671 B(  2-C , 10-H ) :   0.3828
B(  2-C , 12-H ) :   0.2299 B(  3-C ,  4-C ) :   2.4569 B(  3-C ,  5-C ) :   0.9481
B(  3-C ,  6-C ) :  -0.4981 B(  3-C ,  7-N ) :  -0.1295 B(  3-C , 14-H ) :  -0.1384
B(  4-C ,  5-C ) :  -0.2030 B(  4-C ,  6-C ) :   1.6963 B(  4-C ,  7-N ) :   0.1326
B(  4-C , 10-H ) :  -0.1038 B(  4-C , 11-H ) :   0.4664 B(  4-C , 13-H ) :   0.3558
B(  4-C , 14-H ) :   0.4751 B(  4-C , 15-H ) :   0.2052 B(  4-C , 16-H ) :   0.2052
B(  5-C ,  6-C ) :   0.6042 B(  5-C ,  7-N ) :   0.2721 B(  5-C , 12-H ) :   0.2734
B(  5-C , 13-H ) :   0.2305 B(  6-C , 11-H ) :   0.1088 B(  6-C , 14-H ) :   0.5575
B(  6-C , 15-H ) :   0.8382 B(  6-C , 16-H ) :   0.8382 B(  7-N ,  8-O ) :   1.0361
B(  7-N ,  9-O ) :   1.0584 B(  8-O ,  9-O ) :   0.2234

MP2 TOTAL ENERGY:     -474.809364908 Eh
FINAL SINGLE POINT ENERGY      -474.809364907888

DIPOLE MOMENT
-------------
                                X             Y             Z
Electronic contribution:      1.16842      10.30080      -0.00000
Nuclear contribution   :     -2.08930     -12.25957       0.00000
                        -----------------------------------------
Total Dipole Moment    :     -0.92088      -1.95877      -0.00000
                        -----------------------------------------
Magnitude (a.u.)       :      2.16444
Magnitude (Debye)      :      5.50157

Rotational constants in cm-1:     0.089344     0.032804     0.024101
Rotational constants in MHz :  2678.477999   983.428006   722.522786

                             ****ORCA TERMINATED NORMALLY****
TOTAL RUN TIME: 0 days 0 hours 1 minutes 27 seconds 188 msec
