                         Program Version 5.0.3 -  RELEASE  -
|  1> !ri-mp2 aug-cc-pvdz aug-cc-pvdz/c tightscf
|  2> %pal nprocs 16 end
|  3>
|  4> * xyz 0 1
|  5> O     2.804747    0.017257   -0.101685
|  6> N    -0.501813   -1.172528    0.046451
|  7> N    -0.518237    1.148566    0.064488
|  8> N    -1.829526   -0.691292   -0.149633
|  9> C     0.336696    0.001975    0.169153
| 10> C    -1.784183    0.580024   -0.127805
| 11> C     1.635206    0.015429   -0.087720
| 12> H    -0.507329   -1.788898    0.852503
| 13> H    -0.455507    1.869545    0.772931
| 14> H    -2.654421    1.203511   -0.262863
| 15> *
| 16>
| 17>                          ****END OF INPUT****

CARTESIAN COORDINATES (ANGSTROEM)
---------------------------------
  O      2.804747    0.017257   -0.101685
  N     -0.501813   -1.172528    0.046451
  N     -0.518237    1.148566    0.064488
  N     -1.829526   -0.691292   -0.149633
  C      0.336696    0.001975    0.169153
  C     -1.784183    0.580024   -0.127805
  C      1.635206    0.015429   -0.087720
  H     -0.507329   -1.788898    0.852503
  H     -0.455507    1.869545    0.772931
  H     -2.654421    1.203511   -0.262863

 Total Charge           Charge          ....    0
 Multiplicity           Mult            ....    1
 Number of Electrons    NEL             ....   50
 Basis Dimension        Dim             ....  188

ORBITAL ENERGIES
----------------

  NO   OCC          E(Eh)            E(eV)
   0   2.0000     -20.639180      -561.6206
   1   2.0000     -15.622017      -425.0967
   2   2.0000     -15.620568      -425.0573
   3   2.0000     -15.610835      -424.7924
   4   2.0000     -11.383622      -309.7641
   5   2.0000     -11.332429      -308.3711
   6   2.0000     -11.325006      -308.1691
   7   2.0000      -1.471078       -40.0301
   8   2.0000      -1.384067       -37.6624
   9   2.0000      -1.221205       -33.2307
  10   2.0000      -1.137148       -30.9434
  11   2.0000      -0.987695       -26.8765
  12   2.0000      -0.836843       -22.7717
  13   2.0000      -0.808908       -22.0115
  14   2.0000      -0.739033       -20.1101
  15   2.0000      -0.691027       -18.8038
  16   2.0000      -0.669539       -18.2191
  17   2.0000      -0.652506       -17.7556
  18   2.0000      -0.629215       -17.1218
  19   2.0000      -0.591258       -16.0890
  20   2.0000      -0.582054       -15.8385
  21   2.0000      -0.477781       -13.0011
  22   2.0000      -0.469259       -12.7692
  23   2.0000      -0.428120       -11.6497
  24   2.0000      -0.301641        -8.2081
  25   0.0000       0.025382         0.6907
  26   0.0000       0.045038         1.2255
  27   0.0000       0.047130         1.2825
  28   0.0000       0.066194         1.8012
  29   0.0000       0.091495         2.4897

MULLIKEN ATOMIC CHARGES
-----------------------
   0 O :   -0.435214
   1 N :   -0.518879
   2 N :   -0.619577
   3 N :   -0.417311
   4 C :    1.206426
   5 C :    0.898121
   6 C :   -0.068410
   7 H :    0.088229
   8 H :   -0.003550
   9 H :   -0.129834
Sum of atomic charges:   -0.0000000

LOEWDIN ATOMIC CHARGES
----------------------
   0 O :    0.095753
   1 N :    0.053669
   2 N :    0.093073
   3 N :    0.026288
   4 C :   -0.219709
   5 C :   -0.041779
   6 C :   -0.010238
   7 H :   -0.017161
   8 H :    0.005468
   9 H :    0.014636

  Mayer bond orders larger than 0.100000
B(  0-O ,  6-C ) :   1.8739 B(  1-N ,  3-N ) :   0.8517 B(  1-N ,  4-C ) :   0.7692
B(  1-N ,  6-C ) :   0.1043 B(  1-N ,  7-H ) :   0.9982 B(  2-N ,  4-C ) :   0.8417
B(  2-N ,  5-C ) :   0.9178 B(  2-N ,  6-C ) :   0.1165 B(  2-N ,  8-H ) :   1.0706
B(  3-N ,  5-C ) :   1.7011 B(  4-C ,  6-C ) :   1.0805 B(  5-C ,  9-H ) :   0.9444

MP2 TOTAL ENERGY:     -354.585499426 Eh
FINAL SINGLE POINT ENERGY      -354.585499425520

DIPOLE MOMENT
-------------
                                X             Y             Z
Electronic contribution:      2.87316      -0.31449      -0.45067
Nuclear contribution   :     -3.47242       1.23838       1.31626
                        -----------------------------------------
Total Dipole Moment    :     -0.59926       0.92390       0.86559
                        -----------------------------------------
Magnitude (a.u.)       :      1.40069
Magnitude (Debye)      :      3.56028

Rotational constants in cm-1:     0.284730     0.064388     0.053371
Rotational constants in MHz :  8535.980253  1930.292405  1600.034666

                             ****ORCA TERMINATED NORMALLY****
TOTAL RUN TIME: 0 days 0 hours 0 minutes 54 seconds 731 msec
