                         Program Version 5.0.3 -  RELEASE  -
|  1> !ri-mp2 aug-cc-pvdz aug-cc-pvdz/c tightscf
|  2> %pal nprocs 16 end
|  3>
|  4> * xyz 0 1
|  5> C     0.000000     3.930707   -0.592405
|  6> C     0.000000    -3.930707   -0.592405
|  7> C     0.000000     2.732696    0.357453
|  8> C     0.000000    -2.732696    0.357453
|  9> C     0.000000     1.402662   -0.390073
| 10> C     0.000000    -1.402662   -0.390073
| 11> S     0.000000     0.000000    0.786742
| 12> H    -0.881478     3.925924   -1.236374
| 13> H     0.000000     4.869546   -0.037529
| 14> H     0.881478     3.925924   -1.236374
| 15> H     0.881478    -3.925924   -1.236374
| 16> H     0.000000    -4.869546   -0.037529
| 17> H    -0.881478    -3.925924   -1.236374
| 18> H    -0.875086     2.778860    1.009600
| 19> H     0.875086     2.778860    1.009600
| 20> H     0.875086    -2.778860    1.009600
| 21> H    -0.875086    -2.778860    1.009600
| 22> H    -0.883620     1.324451   -1.026352
| 23> H     0.883620     1.324451   -1.026352
| 24> H     0.883620    -1.324451   -1.026352
| 25> H    -0.883620    -1.324451   -1.026352
| 26> *
| 27>
| 28>                          ****END OF INPUT****

CARTESIAN COORDINATES (ANGSTROEM)
---------------------------------
  C      0.000000    3.930707   -0.592405
  C      0.000000   -3.930707   -0.592405
  C      0.000000    2.732696    0.357453
  C      0.000000   -2.732696    0.357453
  C      0.000000    1.402662   -0.390073
  C      0.000000   -1.402662   -0.390073
  S      0.000000    0.000000    0.786742
  H     -0.881478    3.925924   -1.236374
  H      0.000000    4.869546   -0.037529
  H      0.881478    3.925924   -1.236374
  H      0.881478   -3.925924   -1.236374
  H      0.000000   -4.869546   -0.037529
  H     -0.881478   -3.925924   -1.236374
  H     -0.875086    2.778860    1.009600
  H      0.875086    2.778860    1.009600
  H      0.875086   -2.778860    1.009600
  H     -0.875086   -2.778860    1.009600
  H     -0.883620    1.324451   -1.026352
  H      0.883620    1.324451   -1.026352
  H      0.883620   -1.324451   -1.026352
  H     -0.883620   -1.324451   -1.026352

 Total Charge           Charge          ....    0
 Multiplicity           Mult            ....    1
 Number of Electrons    NEL             ....   66
 Basis Dimension        Dim             ....  291

ORBITAL ENERGIES
----------------

  NO   OCC          E(Eh)            E(eV)
   0   2.0000     -91.936251     -2501.7126
   1   2.0000     -11.256635      -306.3086
   2   2.0000     -11.256622      -306.3083
   3   2.0000     -11.231980      -305.6377
   4   2.0000     -11.231979      -305.6377
   5   2.0000     -11.223977      -305.4199
   6   2.0000     -11.223976      -305.4199
   7   2.0000      -8.937924      -243.2133
   8   2.0000      -6.619923      -180.1373
   9   2.0000      -6.618589      -180.1010
  10   2.0000      -6.616556      -180.0456
  11   2.0000      -1.094149       -29.7733
  12   2.0000      -1.065745       -29.0004
  13   2.0000      -0.995592       -27.0914
  14   2.0000      -0.929820       -25.3017
  15   2.0000      -0.848085       -23.0776
  16   2.0000      -0.802013       -21.8239
  17   2.0000      -0.784662       -21.3517
  18   2.0000      -0.648321       -17.6417
  19   2.0000      -0.635796       -17.3009
  20   2.0000      -0.589057       -16.0291
  21   2.0000      -0.588920       -16.0253
  22   2.0000      -0.566280       -15.4092
  23   2.0000      -0.562139       -15.2966
  24   2.0000      -0.541962       -14.7475
  25   2.0000      -0.525252       -14.2928
  26   2.0000      -0.497245       -13.5307
  27   2.0000      -0.485917       -13.2225
  28   2.0000      -0.482366       -13.1258
  29   2.0000      -0.475874       -12.9492
  30   2.0000      -0.441926       -12.0254
  31   2.0000      -0.419278       -11.4091
  32   2.0000      -0.329750        -8.9729
  33   0.0000       0.036305         0.9879
  34   0.0000       0.037973         1.0333
  35   0.0000       0.045859         1.2479
  36   0.0000       0.046968         1.2781
  37   0.0000       0.056757         1.5444

MULLIKEN ATOMIC CHARGES
-----------------------
   0 C :    0.501793
   1 C :    0.501793
   2 C :    0.358901
   3 C :    0.358901
   4 C :   -0.140717
   5 C :   -0.140717
   6 S :    0.359253
   7 H :   -0.089690
   8 H :   -0.088593
   9 H :   -0.089690
  10 H :   -0.089690
  11 H :   -0.088593
  12 H :   -0.089690
  13 H :   -0.142972
  14 H :   -0.142972
  15 H :   -0.142972
  16 H :   -0.142972
  17 H :   -0.172843
  18 H :   -0.172843
  19 H :   -0.172843
  20 H :   -0.172843
Sum of atomic charges:    0.0000000

LOEWDIN ATOMIC CHARGES
----------------------
   0 C :    0.128473
   1 C :    0.128473
   2 C :   -0.138354
   3 C :   -0.138354
   4 C :   -0.297645
   5 C :   -0.297645
   6 S :    0.842426
   7 H :   -0.020311
   8 H :   -0.020562
   9 H :   -0.020311
  10 H :   -0.020311
  11 H :   -0.020562
  12 H :   -0.020311
  13 H :    0.004061
  14 H :    0.004061
  15 H :    0.004061
  16 H :    0.004061
  17 H :   -0.030313
  18 H :   -0.030313
  19 H :   -0.030313
  20 H :   -0.030313

  Mayer bond orders larger than 0.100000
B(  0-C ,  2-C ) :   1.1219 B(  0-C ,  7-H ) :   0.9282 B(  0-C ,  8-H ) :   0.9065
B(  0-C ,  9-H ) :   0.9282 B(  1-C ,  3-C ) :   1.1219 B(  1-C , 10-H ) :   0.9282
B(  1-C , 11-H ) :   0.9065 B(  1-C , 12-H ) :   0.9282 B(  2-C ,  4-C ) :   1.3074
B(  2-C , 13-H ) :   0.7880 B(  2-C , 14-H ) :   0.7880 B(  3-C ,  5-C ) :   1.3074
B(  3-C , 15-H ) :   0.7880 B(  3-C , 16-H ) :   0.7880 B(  4-C ,  6-S ) :   1.0662
B(  4-C , 17-H ) :   0.9059 B(  4-C , 18-H ) :   0.9059 B(  5-C ,  6-S ) :   1.0662
B(  5-C , 19-H ) :   0.9059 B(  5-C , 20-H ) :   0.9059

MP2 TOTAL ENERGY:     -633.969668294 Eh
FINAL SINGLE POINT ENERGY      -633.969668294280

DIPOLE MOMENT
-------------
                                X             Y             Z
Electronic contribution:     -0.00000       0.00000       4.69040
Nuclear contribution   :      0.00000       0.00000      -5.35891
                        -----------------------------------------
Total Dipole Moment    :     -0.00000       0.00000      -0.66852
                        -----------------------------------------
Magnitude (a.u.)       :      0.66852
Magnitude (Debye)      :      1.69923

Rotational constants in cm-1:     0.287318     0.022318     0.021198
Rotational constants in MHz :  8613.575677   669.087498   635.488295

                             ****ORCA TERMINATED NORMALLY****
TOTAL RUN TIME: 0 days 0 hours 1 minutes 11 seconds 957 msec
