                         Program Version 5.0.3 -  RELEASE  -
|  1> !ri-mp2 aug-cc-pvdz aug-cc-pvdz/c tightscf
|  2> %pal nprocs 16 end
|  3>
|  4> * xyz 0 1
|  5> C      1.979205   -0.084993   -0.208488
|  6> C     -1.523606   -0.931315   -0.078157
|  7> C     -0.762496    1.356133    0.045941
|  8> N      0.728676   -0.487073    0.418360
|  9> N     -0.413231   -0.017131   -0.292792
| 10> H      2.801931   -0.442661    0.411618
| 11> H      2.096531    0.998915   -0.340160
| 12> H      2.053124   -0.556251   -1.187265
| 13> H     -1.223290   -1.932786   -0.375989
| 14> H     -2.371774   -0.616432   -0.686760
| 15> H     -1.848711   -0.963839    0.974835
| 16> H     -1.044241    1.465794    1.107744
| 17> H     -1.603731    1.682831   -0.565341
| 18> H      0.077866    2.017471   -0.159362
| 19> H      0.695565   -0.162564    1.385928
| 20> *
| 21>
| 22>                          ****END OF INPUT****

CARTESIAN COORDINATES (ANGSTROEM)
---------------------------------
  C      1.979205   -0.084993   -0.208488
  C     -1.523606   -0.931315   -0.078157
  C     -0.762496    1.356133    0.045941
  N      0.728676   -0.487073    0.418360
  N     -0.413231   -0.017131   -0.292792
  H      2.801931   -0.442661    0.411618
  H      2.096531    0.998915   -0.340160
  H      2.053124   -0.556251   -1.187265
  H     -1.223290   -1.932786   -0.375989
  H     -2.371774   -0.616432   -0.686760
  H     -1.848711   -0.963839    0.974835
  H     -1.044241    1.465794    1.107744
  H     -1.603731    1.682831   -0.565341
  H      0.077866    2.017471   -0.159362
  H      0.695565   -0.162564    1.385928

 Total Charge           Charge          ....    0
 Multiplicity           Mult            ....    1
 Number of Electrons    NEL             ....   42
 Basis Dimension        Dim             ....  205

ORBITAL ENERGIES
----------------

  NO   OCC          E(Eh)            E(eV)
   0   2.0000     -15.578890      -423.9231
   1   2.0000     -15.573828      -423.7854
   2   2.0000     -11.250386      -306.1386
   3   2.0000     -11.245531      -306.0065
   4   2.0000     -11.242989      -305.9373
   5   2.0000      -1.291517       -35.1440
   6   2.0000      -1.098363       -29.8880
   7   2.0000      -0.954858       -25.9830
   8   2.0000      -0.903941       -24.5975
   9   2.0000      -0.818663       -22.2770
  10   2.0000      -0.675159       -18.3720
  11   2.0000      -0.641766       -17.4633
  12   2.0000      -0.629374       -17.1261
  13   2.0000      -0.591391       -16.0926
  14   2.0000      -0.555299       -15.1104
  15   2.0000      -0.544390       -14.8136
  16   2.0000      -0.534530       -14.5453
  17   2.0000      -0.512407       -13.9433
  18   2.0000      -0.503721       -13.7069
  19   2.0000      -0.378248       -10.2927
  20   2.0000      -0.365084        -9.9344
  21   0.0000       0.036167         0.9841
  22   0.0000       0.046725         1.2715
  23   0.0000       0.049792         1.3549
  24   0.0000       0.051548         1.4027
  25   0.0000       0.066943         1.8216

MULLIKEN ATOMIC CHARGES
-----------------------
   0 C :    0.877249
   1 C :    0.854234
   2 C :    0.801959
   3 N :   -0.414197
   4 N :   -0.777999
   5 H :   -0.176984
   6 H :   -0.119445
   7 H :   -0.165483
   8 H :   -0.185261
   9 H :   -0.150235
  10 H :   -0.051251
  11 H :   -0.047182
  12 H :   -0.159931
  13 H :   -0.247439
  14 H :   -0.038034
Sum of atomic charges:   -0.0000000

LOEWDIN ATOMIC CHARGES
----------------------
   0 C :    0.127811
   1 C :    0.133015
   2 C :    0.135117
   3 N :    0.004654
   4 N :   -0.205551
   5 H :   -0.020851
   6 H :   -0.031172
   7 H :   -0.019326
   8 H :   -0.017377
   9 H :   -0.017749
  10 H :   -0.013267
  11 H :   -0.010947
  12 H :   -0.014961
  13 H :   -0.026458
  14 H :   -0.022941

  Mayer bond orders larger than 0.100000
B(  0-C ,  3-N ) :   0.8522 B(  0-C ,  4-N ) :  -0.1020 B(  0-C ,  5-H ) :   0.9720
B(  0-C ,  6-H ) :   0.9032 B(  0-C ,  7-H ) :   0.9733 B(  1-C ,  3-N ) :  -0.1636
B(  1-C ,  4-N ) :   0.9545 B(  1-C ,  8-H ) :   1.0288 B(  1-C ,  9-H ) :   0.9420
B(  1-C , 10-H ) :   0.8534 B(  2-C ,  4-N ) :   0.9486 B(  2-C , 11-H ) :   0.8734
B(  2-C , 12-H ) :   0.9534 B(  2-C , 13-H ) :   1.0233 B(  3-N ,  4-N ) :   0.7597
B(  3-N , 14-H ) :   1.1383 B(  4-N , 10-H ) :   0.1985 B(  4-N , 11-H ) :   0.1547
B(  8-H ,  9-H ) :  -0.1034 B( 12-H , 13-H ) :  -0.1073

MP2 TOTAL ENERGY:     -229.112116522 Eh
FINAL SINGLE POINT ENERGY      -229.112116522494

DIPOLE MOMENT
-------------
                                X             Y             Z
Electronic contribution:      0.32501      -1.13253      -0.27900
Nuclear contribution   :     -0.38827       1.58288       0.60227
                        -----------------------------------------
Total Dipole Moment    :     -0.06326       0.45035       0.32326
                        -----------------------------------------
Magnitude (a.u.)       :      0.55796
Magnitude (Debye)      :      1.41821

Rotational constants in cm-1:     0.268911     0.125587     0.096439
Rotational constants in MHz :  8061.734465  3764.991662  2891.168018

                             ****ORCA TERMINATED NORMALLY****
TOTAL RUN TIME: 0 days 0 hours 0 minutes 34 seconds 451 msec
