                         Program Version 5.0.3 -  RELEASE  -
|  1> !ri-mp2 aug-cc-pvdz aug-cc-pvdz/c tightscf
|  2> %pal nprocs 16 end
|  3>
|  4> * xyz 0 1
|  5> C      0.000000    0.000000    1.747016
|  6> C      0.000000    0.000000    0.425505
|  7> H      0.000000    0.930182    2.293878
|  8> H      0.000000   -0.930182    2.293878
|  9> Cl     0.000000    1.459069   -0.518320
| 10> Cl     0.000000   -1.459069   -0.518320
| 11> *
| 12>
| 13>                          ****END OF INPUT****

CARTESIAN COORDINATES (ANGSTROEM)
---------------------------------
  C      0.000000    0.000000    1.747016
  C      0.000000    0.000000    0.425505
  H      0.000000    0.930182    2.293878
  H      0.000000   -0.930182    2.293878
  Cl     0.000000    1.459069   -0.518320
  Cl     0.000000   -1.459069   -0.518320

 Total Charge           Charge          ....    0
 Multiplicity           Mult            ....    1
 Number of Electrons    NEL             ....   48
 Basis Dimension        Dim             ....  118

ORBITAL ENERGIES
----------------

  NO   OCC          E(Eh)            E(eV)
   0   2.0000    -104.861105     -2853.4157
   1   2.0000    -104.861104     -2853.4157
   2   2.0000     -11.374257      -309.5093
   3   2.0000     -11.269704      -306.6642
   4   2.0000     -10.587268      -288.0942
   5   2.0000     -10.587252      -288.0938
   6   2.0000      -8.055103      -219.1905
   7   2.0000      -8.055101      -219.1904
   8   2.0000      -8.051475      -219.0918
   9   2.0000      -8.051473      -219.0917
  10   2.0000      -8.051381      -219.0892
  11   2.0000      -8.051379      -219.0892
  12   2.0000      -1.217797       -33.1379
  13   2.0000      -1.113815       -30.3084
  14   2.0000      -1.026965       -27.9451
  15   2.0000      -0.772309       -21.0156
  16   2.0000      -0.666194       -18.1281
  17   2.0000      -0.644917       -17.5491
  18   2.0000      -0.564696       -15.3662
  19   2.0000      -0.550200       -14.9717
  20   2.0000      -0.493424       -13.4267
  21   2.0000      -0.478593       -13.0232
  22   2.0000      -0.457548       -12.4505
  23   2.0000      -0.377406       -10.2697
  24   0.0000       0.037239         1.0133
  25   0.0000       0.052868         1.4386
  26   0.0000       0.073874         2.0102
  27   0.0000       0.081330         2.2131
  28   0.0000       0.091814         2.4984

MULLIKEN ATOMIC CHARGES
-----------------------
   0 C :    0.956940
   1 C :   -0.272223
   2 H :   -0.172984
   3 H :   -0.172984
   4 Cl:   -0.169374
   5 Cl:   -0.169374
Sum of atomic charges:    0.0000000

LOEWDIN ATOMIC CHARGES
----------------------
   0 C :    0.071352
   1 C :   -1.028074
   2 H :   -0.042274
   3 H :   -0.042274
   4 Cl:    0.520636
   5 Cl:    0.520636

  Mayer bond orders larger than 0.100000
B(  0-C ,  1-C ) :   1.5037 B(  0-C ,  2-H ) :   0.8954 B(  0-C ,  3-H ) :   0.8954
B(  0-C ,  4-Cl) :  -0.1973 B(  0-C ,  5-Cl) :  -0.1973 B(  1-C ,  4-Cl) :   1.0629
B(  1-C ,  5-Cl) :   1.0629 B(  2-H ,  3-H ) :  -0.1270

MP2 TOTAL ENERGY:     -996.454001148 Eh
FINAL SINGLE POINT ENERGY      -996.454001148014

DIPOLE MOMENT
-------------
                                X             Y             Z
Electronic contribution:      0.00000       0.00000      -4.97925
Nuclear contribution   :      0.00000       0.00000       5.64522
                        -----------------------------------------
Total Dipole Moment    :      0.00000       0.00000       0.66597
                        -----------------------------------------
Magnitude (a.u.)       :      0.66597
Magnitude (Debye)      :      1.69276

Rotational constants in cm-1:     0.247489     0.110401     0.076345
Rotational constants in MHz :  7419.531549  3309.734880  2288.756881

                             ****ORCA TERMINATED NORMALLY****
TOTAL RUN TIME: 0 days 0 hours 0 minutes 26 seconds 466 msec
