                         Program Version 5.0.3 -  RELEASE  -
|  1> !ri-mp2 aug-cc-pvdz aug-cc-pvdz/c tightscf
|  2> %pal nprocs 16 end
|  3>
|  4> * xyz 0 1
|  5> N      0.000000    1.125330    0.353534
|  6> N      0.000000    0.000000    1.049856
|  7> N      0.000000   -1.125330    0.353534
|  8> C      0.000000   -0.700907   -0.908175
|  9> C      0.000000    0.700907   -0.908175
| 10> H      0.000000    0.000000    2.055597
| 11> H      0.000000   -1.396879   -1.727982
| 12> H      0.000000    1.396879   -1.727982
| 13> *
| 14>
| 15>                          ****END OF INPUT****

CARTESIAN COORDINATES (ANGSTROEM)
---------------------------------
  N      0.000000    1.125330    0.353534
  N      0.000000    0.000000    1.049856
  N      0.000000   -1.125330    0.353534
  C      0.000000   -0.700907   -0.908175
  C      0.000000    0.700907   -0.908175
  H      0.000000    0.000000    2.055597
  H      0.000000   -1.396879   -1.727982
  H      0.000000    1.396879   -1.727982

 Total Charge           Charge          ....    0
 Multiplicity           Mult            ....    1
 Number of Electrons    NEL             ....   36
 Basis Dimension        Dim             ....  142

ORBITAL ENERGIES
----------------

  NO   OCC          E(Eh)            E(eV)
   0   2.0000     -15.690875      -426.9704
   1   2.0000     -15.628460      -425.2720
   2   2.0000     -15.628393      -425.2702
   3   2.0000     -11.274982      -306.8078
   4   2.0000     -11.273836      -306.7767
   5   2.0000      -1.458826       -39.6967
   6   2.0000      -1.202275       -32.7156
   7   2.0000      -1.113456       -30.2987
   8   2.0000      -0.866154       -23.5693
   9   2.0000      -0.846727       -23.0406
  10   2.0000      -0.753224       -20.4963
  11   2.0000      -0.653149       -17.7731
  12   2.0000      -0.630986       -17.1700
  13   2.0000      -0.623250       -16.9595
  14   2.0000      -0.507733       -13.8161
  15   2.0000      -0.479314       -13.0428
  16   2.0000      -0.403886       -10.9903
  17   2.0000      -0.381589       -10.3836
  18   0.0000       0.035738         0.9725
  19   0.0000       0.043197         1.1754
  20   0.0000       0.049913         1.3582
  21   0.0000       0.099240         2.7005
  22   0.0000       0.101248         2.7551

MULLIKEN ATOMIC CHARGES
-----------------------
   0 N :   -0.529704
   1 N :    0.004311
   2 N :   -0.529704
   3 C :    0.718157
   4 C :    0.718157
   5 H :    0.062098
   6 H :   -0.221657
   7 H :   -0.221657
Sum of atomic charges:    0.0000000

LOEWDIN ATOMIC CHARGES
----------------------
   0 N :    0.053058
   1 N :   -0.045639
   2 N :    0.053058
   3 C :   -0.034773
   4 C :   -0.034773
   5 H :    0.030165
   6 H :   -0.010548
   7 H :   -0.010548

  Mayer bond orders larger than 0.100000
B(  0-N ,  1-N ) :   1.1578 B(  0-N ,  2-N ) :   0.1339 B(  0-N ,  4-C ) :   1.2889
B(  1-N ,  2-N ) :   1.1578 B(  1-N ,  5-H ) :   1.0679 B(  2-N ,  3-C ) :   1.2889
B(  3-C ,  4-C ) :   1.3613 B(  3-C ,  6-H ) :   0.8829 B(  4-C ,  7-H ) :   0.8829

MP2 TOTAL ENERGY:     -241.603172095 Eh
FINAL SINGLE POINT ENERGY      -241.603172094945

DIPOLE MOMENT
-------------
                                X             Y             Z
Electronic contribution:      0.00000      -0.00000       1.23113
Nuclear contribution   :      0.00000       0.00000      -1.36074
                        -----------------------------------------
Total Dipole Moment    :      0.00000      -0.00000      -0.12961
                        -----------------------------------------
Magnitude (a.u.)       :      0.12961
Magnitude (Debye)      :      0.32945

Rotational constants in cm-1:     0.344005     0.329180     0.168215
Rotational constants in MHz : 10313.019640  9868.555937  5042.946761

                             ****ORCA TERMINATED NORMALLY****
TOTAL RUN TIME: 0 days 0 hours 0 minutes 38 seconds 334 msec
