                         Program Version 5.0.3 -  RELEASE  -
|  1> !ri-mp2 aug-cc-pvdz aug-cc-pvdz/c tightscf
|  2> %pal nprocs 16 end
|  3>
|  4> * xyz 0 1
|  5> S    -1.960908   -0.984786   -0.704762
|  6> O    -0.911149    2.680262   -0.504844
|  7> O     3.424680   -0.179183   -0.597952
|  8> N    -0.053917    1.049338    0.982459
|  9> N     1.194387   -0.739778   -0.030324
| 10> C     0.229652   -0.361475    0.989131
| 11> C    -1.027868   -1.225362    0.844298
| 12> C    -0.515341    1.815052    0.167561
| 13> C     2.331372   -0.414621   -0.267512
| 14> H    -1.018139   -1.475813   -1.529627
| 15> H     0.662672   -0.584117    1.965684
| 16> H    -1.719705   -0.969386    1.644141
| 17> H    -0.748716   -2.271237    0.952542
| 18> *
| 19>
| 20>                          ****END OF INPUT****

CARTESIAN COORDINATES (ANGSTROEM)
---------------------------------
  S     -1.960908   -0.984786   -0.704762
  O     -0.911149    2.680262   -0.504844
  O      3.424680   -0.179183   -0.597952
  N     -0.053917    1.049338    0.982459
  N      1.194387   -0.739778   -0.030324
  C      0.229652   -0.361475    0.989131
  C     -1.027868   -1.225362    0.844298
  C     -0.515341    1.815052    0.167561
  C      2.331372   -0.414621   -0.267512
  H     -1.018139   -1.475813   -1.529627
  H      0.662672   -0.584117    1.965684
  H     -1.719705   -0.969386    1.644141
  H     -0.748716   -2.271237    0.952542

 Total Charge           Charge          ....    0
 Multiplicity           Mult            ....    1
 Number of Electrons    NEL             ....   74
 Basis Dimension        Dim             ....  247

ORBITAL ENERGIES
----------------

  NO   OCC          E(Eh)            E(eV)
   0   2.0000     -91.976937     -2502.8197
   1   2.0000     -20.640607      -561.6595
   2   2.0000     -20.632542      -561.4400
   3   2.0000     -15.614375      -424.8887
   4   2.0000     -15.608169      -424.7199
   5   2.0000     -11.434767      -311.1558
   6   2.0000     -11.429852      -311.0221
   7   2.0000     -11.385185      -309.8066
   8   2.0000     -11.300092      -307.4911
   9   2.0000      -8.978547      -244.3187
  10   2.0000      -6.660583      -181.2437
  11   2.0000      -6.659245      -181.2073
  12   2.0000      -6.657182      -181.1511
  13   2.0000      -1.488476       -40.5035
  14   2.0000      -1.481255       -40.3070
  15   2.0000      -1.329753       -36.1844
  16   2.0000      -1.267714       -34.4963
  17   2.0000      -1.104522       -30.0556
  18   2.0000      -1.002391       -27.2765
  19   2.0000      -0.881393       -23.9839
  20   2.0000      -0.824662       -22.4402
  21   2.0000      -0.748564       -20.3695
  22   2.0000      -0.738106       -20.0849
  23   2.0000      -0.720331       -19.6012
  24   2.0000      -0.687754       -18.7147
  25   2.0000      -0.662160       -18.0183
  26   2.0000      -0.655457       -17.8359
  27   2.0000      -0.639837       -17.4108
  28   2.0000      -0.623873       -16.9764
  29   2.0000      -0.612907       -16.6780
  30   2.0000      -0.547080       -14.8868
  31   2.0000      -0.508487       -13.8366
  32   2.0000      -0.481385       -13.0991
  33   2.0000      -0.460790       -12.5387
  34   2.0000      -0.447080       -12.1657
  35   2.0000      -0.435623       -11.8539
  36   2.0000      -0.381941       -10.3932
  37   0.0000       0.025352         0.6899
  38   0.0000       0.042711         1.1622
  39   0.0000       0.048275         1.3136
  40   0.0000       0.051501         1.4014
  41   0.0000       0.075911         2.0657

MULLIKEN ATOMIC CHARGES
-----------------------
   0 S :    0.206146
   1 O :   -0.423800
   2 O :   -0.449018
   3 N :   -0.353441
   4 N :   -0.305252
   5 C :    1.002583
   6 C :    0.175735
   7 C :    0.150594
   8 C :    0.097359
   9 H :    0.167793
  10 H :   -0.208310
  11 H :    0.001174
  12 H :   -0.061564
Sum of atomic charges:   -0.0000000

LOEWDIN ATOMIC CHARGES
----------------------
   0 S :    0.776941
   1 O :    0.116476
   2 O :    0.116751
   3 N :    0.062691
   4 N :    0.064819
   5 C :   -0.286922
   6 C :   -0.278450
   7 C :   -0.191246
   8 C :   -0.163435
   9 H :   -0.211884
  10 H :    0.039182
  11 H :   -0.022777
  12 H :   -0.022146

  Mayer bond orders larger than 0.100000
B(  0-S ,  6-C ) :   1.1308 B(  0-S ,  9-H ) :   0.9216 B(  0-S , 11-H ) :  -0.1016
B(  1-O ,  7-C ) :   1.9647 B(  2-O ,  8-C ) :   1.9930 B(  3-N ,  5-C ) :   0.7737
B(  3-N ,  7-C ) :   1.9696 B(  4-N ,  5-C ) :   0.6655 B(  4-N ,  8-C ) :   1.9330
B(  5-C ,  6-C ) :   1.0933 B(  5-C ,  7-C ) :  -0.1827 B(  5-C , 10-H ) :   0.8634
B(  5-C , 12-H ) :   0.1676 B(  6-C , 11-H ) :   0.8889 B(  6-C , 12-H ) :   0.8666

MP2 TOTAL ENERGY:     -811.414760474 Eh
FINAL SINGLE POINT ENERGY      -811.414760473886

DIPOLE MOMENT
-------------
                                X             Y             Z
Electronic contribution:      2.48214       3.98828      -2.01038
Nuclear contribution   :     -2.61960      -5.04136       2.93355
                        -----------------------------------------
Total Dipole Moment    :     -0.13746      -1.05308       0.92317
                        -----------------------------------------
Magnitude (a.u.)       :      1.40717
Magnitude (Debye)      :      3.57673

Rotational constants in cm-1:     0.054405     0.033604     0.025145
Rotational constants in MHz :  1631.019781  1007.426695   753.829319

                             ****ORCA TERMINATED NORMALLY****
TOTAL RUN TIME: 0 days 0 hours 0 minutes 47 seconds 585 msec
