                         Program Version 5.0.3 -  RELEASE  -
|  1> !ri-mp2 aug-cc-pvdz aug-cc-pvdz/c tightscf
|  2> %pal nprocs 16 end
|  3>
|  4> * xyz 0 1
|  5> Cl     1.571721   -0.909942    0.008496
|  6> N     -1.173896    0.820814   -0.448314
|  7> N     -1.762173   -0.193172   -0.081847
|  8> N     -2.396372   -1.096686    0.152096
|  9> C     -0.060470    1.285982    0.393333
| 10> C      1.295650    0.872078   -0.145488
| 11> H     -0.103030    2.376437    0.375286
| 12> H     -0.177806    0.958752    1.427891
| 13> H      2.090432    1.359964    0.413029
| 14> H      1.387147    1.108808   -1.201250
| 15> *
| 16>
| 17>                          ****END OF INPUT****

CARTESIAN COORDINATES (ANGSTROEM)
---------------------------------
  Cl     1.571721   -0.909942    0.008496
  N     -1.173896    0.820814   -0.448314
  N     -1.762173   -0.193172   -0.081847
  N     -2.396372   -1.096686    0.152096
  C     -0.060470    1.285982    0.393333
  C      1.295650    0.872078   -0.145488
  H     -0.103030    2.376437    0.375286
  H     -0.177806    0.958752    1.427891
  H      2.090432    1.359964    0.413029
  H      1.387147    1.108808   -1.201250

 Total Charge           Charge          ....    0
 Multiplicity           Mult            ....    1
 Number of Electrons    NEL             ....   54
 Basis Dimension        Dim             ....  178

ORBITAL ENERGIES
----------------

  NO   OCC          E(Eh)            E(eV)
   0   2.0000    -104.831102     -2852.5993
   1   2.0000     -15.795747      -429.8241
   2   2.0000     -15.679635      -426.6645
   3   2.0000     -15.619699      -425.0336
   4   2.0000     -11.315802      -307.9186
   5   2.0000     -11.307567      -307.6945
   6   2.0000     -10.557137      -287.2743
   7   2.0000      -8.024747      -218.3645
   8   2.0000      -8.021660      -218.2805
   9   2.0000      -8.021552      -218.2775
  10   2.0000      -1.516078       -41.2546
  11   2.0000      -1.304933       -35.5090
  12   2.0000      -1.147866       -31.2350
  13   2.0000      -1.035153       -28.1679
  14   2.0000      -0.886340       -24.1185
  15   2.0000      -0.756450       -20.5841
  16   2.0000      -0.716766       -19.5042
  17   2.0000      -0.705551       -19.1990
  18   2.0000      -0.677584       -18.4380
  19   2.0000      -0.628671       -17.1070
  20   2.0000      -0.620443       -16.8831
  21   2.0000      -0.582672       -15.8553
  22   2.0000      -0.525123       -14.2893
  23   2.0000      -0.455046       -12.3824
  24   2.0000      -0.445717       -12.1286
  25   2.0000      -0.439750       -11.9662
  26   2.0000      -0.384160       -10.4535
  27   0.0000       0.031111         0.8466
  28   0.0000       0.046591         1.2678
  29   0.0000       0.051757         1.4084
  30   0.0000       0.059055         1.6070
  31   0.0000       0.084696         2.3047

MULLIKEN ATOMIC CHARGES
-----------------------
   0 Cl:   -0.130401
   1 N :   -0.687750
   2 N :    0.486311
   3 N :   -0.328291
   4 C :    0.717744
   5 C :   -0.107456
   6 H :   -0.108820
   7 H :    0.019221
   8 H :    0.049906
   9 H :    0.089535
Sum of atomic charges:   -0.0000000

LOEWDIN ATOMIC CHARGES
----------------------
   0 Cl:    0.458078
   1 N :    0.035493
   2 N :   -0.292548
   3 N :    0.258613
   4 C :   -0.106868
   5 C :   -0.312843
   6 H :    0.009670
   7 H :    0.007809
   8 H :   -0.028866
   9 H :   -0.028538

  Mayer bond orders larger than 0.100000
B(  0-Cl,  4-C ) :  -0.1131 B(  0-Cl,  5-C ) :   1.1679 B(  1-N ,  2-N ) :   1.1991
B(  1-N ,  3-N ) :   0.1915 B(  1-N ,  4-C ) :   0.7438 B(  2-N ,  3-N ) :   1.8216
B(  4-C ,  5-C ) :   1.2385 B(  4-C ,  6-H ) :   0.8956 B(  4-C ,  7-H ) :   0.9026
B(  5-C ,  8-H ) :   0.8933 B(  5-C ,  9-H ) :   0.9251

MP2 TOTAL ENERGY:     -701.822363987 Eh
FINAL SINGLE POINT ENERGY      -701.822363987154

DIPOLE MOMENT
-------------
                                X             Y             Z
Electronic contribution:     -0.45106      -5.77194      -0.59193
Nuclear contribution   :      0.88113       6.82624       0.96159
                        -----------------------------------------
Total Dipole Moment    :      0.43006       1.05430       0.36967
                        -----------------------------------------
Magnitude (a.u.)       :      1.19715
Magnitude (Debye)      :      3.04291

Rotational constants in cm-1:     0.163124     0.063194     0.047913
Rotational constants in MHz :  4890.341066  1894.515256  1436.383820

                             ****ORCA TERMINATED NORMALLY****
TOTAL RUN TIME: 0 days 0 hours 0 minutes 36 seconds 272 msec
