                         Program Version 5.0.3 -  RELEASE  -
|  1> !ri-mp2 aug-cc-pvdz aug-cc-pvdz/c tightscf
|  2> %pal nprocs 16 end
|  3>
|  4> * xyz 0 1
|  5> C      0.000000    1.334824    0.178381
|  6> C      1.155992   -0.667412    0.178381
|  7> C     -1.155992   -0.667412    0.178381
|  8> O      1.164984    0.672604   -0.261238
|  9> O     -1.164984    0.672604   -0.261238
| 10> O      0.000000   -1.345208   -0.261238
| 11> H      0.000000    1.389553    1.278381
| 12> H      0.000000    2.328144   -0.258762
| 13> H      2.016232   -1.164072   -0.258762
| 14> H      1.203388   -0.694777    1.278381
| 15> H     -1.203388   -0.694777    1.278381
| 16> H     -2.016232   -1.164072   -0.258762
| 17> *
| 18>
| 19>                          ****END OF INPUT****

CARTESIAN COORDINATES (ANGSTROEM)
---------------------------------
  C      0.000000    1.334824    0.178381
  C      1.155992   -0.667412    0.178381
  C     -1.155992   -0.667412    0.178381
  O      1.164984    0.672604   -0.261238
  O     -1.164984    0.672604   -0.261238
  O      0.000000   -1.345208   -0.261238
  H      0.000000    1.389553    1.278381
  H      0.000000    2.328144   -0.258762
  H      2.016232   -1.164072   -0.258762
  H      1.203388   -0.694777    1.278381
  H     -1.203388   -0.694777    1.278381
  H     -2.016232   -1.164072   -0.258762

 Total Charge           Charge          ....    0
 Multiplicity           Mult            ....    1
 Number of Electrons    NEL             ....   48
 Basis Dimension        Dim             ....  192

ORBITAL ENERGIES
----------------

  NO   OCC          E(Eh)            E(eV)
   0   2.0000     -20.588721      -560.2476
   1   2.0000     -20.588721      -560.2476
   2   2.0000     -20.588692      -560.2468
   3   2.0000     -11.349678      -308.8404
   4   2.0000     -11.349678      -308.8404
   5   2.0000     -11.349649      -308.8397
   6   2.0000      -1.475839       -40.1596
   7   2.0000      -1.370833       -37.3023
   8   2.0000      -1.370833       -37.3022
   9   2.0000      -0.968105       -26.3435
  10   2.0000      -0.968105       -26.3435
  11   2.0000      -0.838501       -22.8168
  12   2.0000      -0.739442       -20.1212
  13   2.0000      -0.706388       -19.2218
  14   2.0000      -0.676383       -18.4053
  15   2.0000      -0.676383       -18.4053
  16   2.0000      -0.658735       -17.9251
  17   2.0000      -0.605516       -16.4769
  18   2.0000      -0.605515       -16.4769
  19   2.0000      -0.502265       -13.6673
  20   2.0000      -0.502265       -13.6673
  21   2.0000      -0.474111       -12.9012
  22   2.0000      -0.474110       -12.9012
  23   2.0000      -0.443293       -12.0626
  24   0.0000       0.035068         0.9542
  25   0.0000       0.048273         1.3136
  26   0.0000       0.048273         1.3136
  27   0.0000       0.049211         1.3391
  28   0.0000       0.069454         1.8899

MULLIKEN ATOMIC CHARGES
-----------------------
   0 C :    1.244013
   1 C :    1.244014
   2 C :    1.244014
   3 O :   -0.859958
   4 O :   -0.859958
   5 O :   -0.859959
   6 H :   -0.091298
   7 H :   -0.292757
   8 H :   -0.292758
   9 H :   -0.091298
  10 H :   -0.091298
  11 H :   -0.292758
Sum of atomic charges:    0.0000000

LOEWDIN ATOMIC CHARGES
----------------------
   0 C :   -0.025850
   1 C :   -0.025850
   2 C :   -0.025850
   3 O :    0.011176
   4 O :    0.011176
   5 O :    0.011176
   6 H :    0.009022
   7 H :    0.005652
   8 H :    0.005652
   9 H :    0.009022
  10 H :    0.009022
  11 H :    0.005652

  Mayer bond orders larger than 0.100000
B(  0-C ,  3-O ) :   0.6418 B(  0-C ,  4-O ) :   0.6418 B(  0-C ,  6-H ) :   0.8816
B(  0-C ,  7-H ) :   1.1408 B(  1-C ,  3-O ) :   0.6418 B(  1-C ,  5-O ) :   0.6418
B(  1-C ,  8-H ) :   1.1408 B(  1-C ,  9-H ) :   0.8816 B(  2-C ,  4-O ) :   0.6418
B(  2-C ,  5-O ) :   0.6418 B(  2-C , 10-H ) :   0.8816 B(  2-C , 11-H ) :   1.1408
B(  6-H ,  7-H ) :  -0.1617 B(  8-H ,  9-H ) :  -0.1617 B( 10-H , 11-H ) :  -0.1617

MP2 TOTAL ENERGY:     -342.718164168 Eh
FINAL SINGLE POINT ENERGY      -342.718164168258

DIPOLE MOMENT
-------------
                                X             Y             Z
Electronic contribution:      0.00000       0.00000      -2.12765
Nuclear contribution   :      0.00000      -0.00000       3.04885
                        -----------------------------------------
Total Dipole Moment    :      0.00000       0.00000       0.92121
                        -----------------------------------------
Magnitude (a.u.)       :      0.92121
Magnitude (Debye)      :      2.34152

Rotational constants in cm-1:     0.175403     0.175403     0.097282
Rotational constants in MHz :  5258.452225  5258.451977  2916.440825

                             ****ORCA TERMINATED NORMALLY****
TOTAL RUN TIME: 0 days 0 hours 0 minutes 55 seconds 223 msec
