                         Program Version 5.0.3 -  RELEASE  -
|  1> !ri-mp2 aug-cc-pvdz aug-cc-pvdz/c tightscf
|  2> %pal nprocs 16 end
|  3>
|  4> * xyz 0 1
|  5> O     0.569873    2.594176    0.155646
|  6> O    -2.539726   -0.757181    0.081104
|  7> O     2.008157   -1.846819    0.105094
|  8> N     0.242253    1.348825   -0.423189
|  9> N    -1.244557   -0.381906   -0.375129
| 10> N    -0.961120    0.888970    0.212235
| 11> C     1.064960   -0.864269    0.012715
| 12> C     1.310785    0.421165   -0.255557
| 13> C    -0.329937   -1.403053    0.142311
| 14> H     0.854272    2.424313    1.072480
| 15> H    -3.127779   -0.379891   -0.584305
| 16> H     2.891387   -1.470128    0.025779
| 17> H    -0.747833    0.743910    1.215313
| 18> H     2.292040    0.814411   -0.479160
| 19> H    -0.568583   -1.662971    1.182597
| 20> H    -0.430815   -2.305323   -0.461686
| 21> *
| 22>
| 23>                          ****END OF INPUT****

CARTESIAN COORDINATES (ANGSTROEM)
---------------------------------
  O      0.569873    2.594176    0.155646
  O     -2.539726   -0.757181    0.081104
  O      2.008157   -1.846819    0.105094
  N      0.242253    1.348825   -0.423189
  N     -1.244557   -0.381906   -0.375129
  N     -0.961120    0.888970    0.212235
  C      1.064960   -0.864269    0.012715
  C      1.310785    0.421165   -0.255557
  C     -0.329937   -1.403053    0.142311
  H      0.854272    2.424313    1.072480
  H     -3.127779   -0.379891   -0.584305
  H      2.891387   -1.470128    0.025779
  H     -0.747833    0.743910    1.215313
  H      2.292040    0.814411   -0.479160
  H     -0.568583   -1.662971    1.182597
  H     -0.430815   -2.305323   -0.461686

 Total Charge           Charge          ....    0
 Multiplicity           Mult            ....    1
 Number of Electrons    NEL             ....   70
 Basis Dimension        Dim             ....  270

ORBITAL ENERGIES
----------------

  NO   OCC          E(Eh)            E(eV)
   0   2.0000     -20.619945      -561.0972
   1   2.0000     -20.619000      -561.0715
   2   2.0000     -20.613639      -560.9256
   3   2.0000     -15.667979      -426.3474
   4   2.0000     -15.666102      -426.2963
   5   2.0000     -15.634022      -425.4234
   6   2.0000     -11.327123      -308.2267
   7   2.0000     -11.286167      -307.1122
   8   2.0000     -11.272787      -306.7481
   9   2.0000      -1.464639       -39.8549
  10   2.0000      -1.432413       -38.9779
  11   2.0000      -1.427537       -38.8453
  12   2.0000      -1.286683       -35.0124
  13   2.0000      -1.128714       -30.7139
  14   2.0000      -1.101044       -29.9609
  15   2.0000      -0.943240       -25.6669
  16   2.0000      -0.926315       -25.2063
  17   2.0000      -0.807432       -21.9713
  18   2.0000      -0.760108       -20.6836
  19   2.0000      -0.745135       -20.2762
  20   2.0000      -0.715730       -19.4760
  21   2.0000      -0.690824       -18.7983
  22   2.0000      -0.666600       -18.1391
  23   2.0000      -0.639967       -17.4144
  24   2.0000      -0.630012       -17.1435
  25   2.0000      -0.609256       -16.5787
  26   2.0000      -0.593178       -16.1412
  27   2.0000      -0.569249       -15.4901
  28   2.0000      -0.542158       -14.7529
  29   2.0000      -0.532138       -14.4802
  30   2.0000      -0.496349       -13.5063
  31   2.0000      -0.491706       -13.3800
  32   2.0000      -0.431229       -11.7343
  33   2.0000      -0.401227       -10.9179
  34   2.0000      -0.335203        -9.1213
  35   0.0000       0.026454         0.7199
  36   0.0000       0.040707         1.1077
  37   0.0000       0.043780         1.1913
  38   0.0000       0.051525         1.4021
  39   0.0000       0.062303         1.6954

MULLIKEN ATOMIC CHARGES
-----------------------
   0 O :   -0.592674
   1 O :   -0.571308
   2 O :   -0.848032
   3 N :   -0.377397
   4 N :   -0.245550
   5 N :    0.022913
   6 C :    0.316425
   7 C :    1.373472
   8 C :    0.856143
   9 H :    0.167271
  10 H :    0.177549
  11 H :    0.162128
  12 H :    0.119313
  13 H :   -0.415244
  14 H :   -0.004625
  15 H :   -0.140383
Sum of atomic charges:   -0.0000000

LOEWDIN ATOMIC CHARGES
----------------------
   0 O :    0.144839
   1 O :    0.147106
   2 O :    0.188150
   3 N :   -0.141365
   4 N :   -0.122104
   5 N :    0.062748
   6 C :   -0.237006
   7 C :    0.024882
   8 C :    0.026134
   9 H :   -0.060523
  10 H :   -0.049409
  11 H :   -0.030488
  12 H :   -0.013740
  13 H :    0.003946
  14 H :    0.028081
  15 H :    0.028748

  Mayer bond orders larger than 0.100000
B(  0-O ,  3-N ) :   0.7477 B(  0-O ,  5-N ) :  -0.1010 B(  0-O ,  7-C ) :  -0.1168
B(  0-O ,  9-H ) :   1.0360 B(  1-O ,  4-N ) :   0.7134 B(  1-O ,  5-N ) :  -0.1488
B(  1-O , 10-H ) :   1.0499 B(  2-O , 11-H ) :   1.0904 B(  3-N ,  5-N ) :   0.9590
B(  3-N ,  6-C ) :   0.1600 B(  3-N ,  7-C ) :   0.3224 B(  4-N ,  5-N ) :   0.8228
B(  4-N ,  7-C ) :  -0.1016 B(  4-N ,  8-C ) :   0.7150 B(  5-N , 12-H ) :   0.8723
B(  6-C ,  7-C ) :   1.9929 B(  6-C ,  8-C ) :   1.1029 B(  6-C , 13-H ) :   0.2738
B(  7-C ,  8-C ) :   0.1318 B(  7-C , 13-H ) :   0.3835 B(  8-C , 14-H ) :   0.8381
B(  8-C , 15-H ) :   0.8378 B( 14-H , 15-H ) :  -0.1102

MP2 TOTAL ENERGY:     -507.006713308 Eh
FINAL SINGLE POINT ENERGY      -507.006713307512

DIPOLE MOMENT
-------------
                                X             Y             Z
Electronic contribution:     -0.25664       1.29021      -1.29186
Nuclear contribution   :      1.13756      -1.80243       1.94863
                        -----------------------------------------
Total Dipole Moment    :      0.88092      -0.51222       0.65677
                        -----------------------------------------
Magnitude (a.u.)       :      1.21233
Magnitude (Debye)      :      3.08149

Rotational constants in cm-1:     0.061675     0.059869     0.031706
Rotational constants in MHz :  1848.983674  1794.818101   950.513653

                             ****ORCA TERMINATED NORMALLY****
TOTAL RUN TIME: 0 days 0 hours 1 minutes 13 seconds 925 msec
