                         Program Version 5.0.3 -  RELEASE  -
|  1> !ri-mp2 aug-cc-pvdz aug-cc-pvdz/c tightscf
|  2> %pal nprocs 16 end
|  3>
|  4> * xyz 0 1
|  5> C      0.016027    0.345002    0.000000
|  6> C     -1.158543    1.289602    0.000000
|  7> F      1.179679    1.042816    0.000000
|  8> Cl     0.016027   -0.698667    1.468731
|  9> Cl     0.016027   -0.698667   -1.468731
| 10> H     -2.090468    0.731884    0.000000
| 11> H     -1.108226    1.914914    0.889721
| 12> H     -1.108226    1.914914   -0.889721
| 13> *
| 14>
| 15>                          ****END OF INPUT****

CARTESIAN COORDINATES (ANGSTROEM)
---------------------------------
  C      0.016027    0.345002    0.000000
  C     -1.158543    1.289602    0.000000
  F      1.179679    1.042816    0.000000
  Cl     0.016027   -0.698667    1.468731
  Cl     0.016027   -0.698667   -1.468731
  H     -2.090468    0.731884    0.000000
  H     -1.108226    1.914914    0.889721
  H     -1.108226    1.914914   -0.889721

 Total Charge           Charge          ....    0
 Multiplicity           Mult            ....    1
 Number of Electrons    NEL             ....   58
 Basis Dimension        Dim             ....  150

ORBITAL ENERGIES
----------------

  NO   OCC          E(Eh)            E(eV)
   0   2.0000    -104.856047     -2853.2781
   1   2.0000    -104.856046     -2853.2781
   2   2.0000     -26.351648      -717.0648
   3   2.0000     -11.472558      -312.1842
   4   2.0000     -11.270370      -306.6824
   5   2.0000     -10.582544      -287.9657
   6   2.0000     -10.582523      -287.9651
   7   2.0000      -8.050159      -219.0559
   8   2.0000      -8.050156      -219.0559
   9   2.0000      -8.046672      -218.9611
  10   2.0000      -8.046670      -218.9610
  11   2.0000      -8.046657      -218.9607
  12   2.0000      -8.046656      -218.9606
  13   2.0000      -1.667185       -45.3664
  14   2.0000      -1.199016       -32.6269
  15   2.0000      -1.109000       -30.1774
  16   2.0000      -1.033877       -28.1332
  17   2.0000      -0.865428       -23.5495
  18   2.0000      -0.739463       -20.1218
  19   2.0000      -0.738412       -20.0932
  20   2.0000      -0.714867       -19.4525
  21   2.0000      -0.621114       -16.9014
  22   2.0000      -0.590572       -16.0703
  23   2.0000      -0.580065       -15.7844
  24   2.0000      -0.535761       -14.5788
  25   2.0000      -0.495544       -13.4844
  26   2.0000      -0.472973       -12.8703
  27   2.0000      -0.472906       -12.8684
  28   2.0000      -0.452679       -12.3180
  29   0.0000       0.035550         0.9674
  30   0.0000       0.056890         1.5480
  31   0.0000       0.057424         1.5626
  32   0.0000       0.077110         2.0983
  33   0.0000       0.093804         2.5525

MULLIKEN ATOMIC CHARGES
-----------------------
   0 C :    0.061772
   1 C :    0.628726
   2 F :   -0.620406
   3 Cl:   -0.056266
   4 Cl:   -0.056266
   5 H :    0.028748
   6 H :    0.006847
   7 H :    0.006847
Sum of atomic charges:   -0.0000000

LOEWDIN ATOMIC CHARGES
----------------------
   0 C :   -1.021662
   1 C :    0.065228
   2 F :   -0.008947
   3 Cl:    0.499653
   4 Cl:    0.499653
   5 H :   -0.013934
   6 H :   -0.009996
   7 H :   -0.009996

  Mayer bond orders larger than 0.100000
B(  0-C ,  1-C ) :   1.0770 B(  0-C ,  2-F ) :   0.2171 B(  0-C ,  3-Cl) :   1.1341
B(  0-C ,  4-Cl) :   1.1341 B(  1-C ,  2-F ) :   0.1589 B(  1-C ,  5-H ) :   0.9591
B(  1-C ,  6-H ) :   0.8855 B(  1-C ,  7-H ) :   0.8855

MP2 TOTAL ENERGY:    -1096.741370345 Eh
FINAL SINGLE POINT ENERGY     -1096.741370345160

DIPOLE MOMENT
-------------
                                X             Y             Z
Electronic contribution:      4.40753      -4.63952       0.00000
Nuclear contribution   :     -5.13934       5.15157       0.00000
                        -----------------------------------------
Total Dipole Moment    :     -0.73181       0.51205       0.00000
                        -----------------------------------------
Magnitude (a.u.)       :      0.89316
Magnitude (Debye)      :      2.27023

Rotational constants in cm-1:     0.126222     0.082743     0.070557
Rotational constants in MHz :  3784.047840  2480.560673  2115.233668

                             ****ORCA TERMINATED NORMALLY****
TOTAL RUN TIME: 0 days 0 hours 0 minutes 30 seconds 343 msec
