                         Program Version 5.0.3 -  RELEASE  -
|  1> !ri-mp2 aug-cc-pvdz aug-cc-pvdz/c tightscf
|  2> %pal nprocs 16 end
|  3>
|  4> * xyz 0 1
|  5> C      0.000000    0.000000   -0.140930
|  6> S      0.000000    0.000000    1.541614
|  7> N     -0.517952   -1.016530   -0.880814
|  8> N      0.517952    1.016530   -0.880814
|  9> C     -1.052435   -2.261346   -0.344065
| 10> C      1.052435    2.261346   -0.344065
| 11> H      1.838995    2.593560   -1.024235
| 12> H      1.512770    2.026931    0.612762
| 13> C      0.000000    3.353187   -0.170351
| 14> H     -1.838995   -2.593560   -1.024235
| 15> H     -1.512770   -2.026931    0.612762
| 16> C      0.000000   -3.353187   -0.170351
| 17> H      0.475134   -3.601948   -1.121155
| 18> H     -0.461950   -4.260562    0.222206
| 19> H      0.769069   -3.029798    0.529468
| 20> H      0.461950    4.260562    0.222206
| 21> H     -0.769069    3.029798    0.529468
| 22> H     -0.475134    3.601948   -1.121155
| 23> H     -0.367821   -0.990573   -1.876978
| 24> H      0.367821    0.990573   -1.876978
| 25> *
| 26>
| 27>                          ****END OF INPUT****

CARTESIAN COORDINATES (ANGSTROEM)
---------------------------------
  C      0.000000    0.000000   -0.140930
  S      0.000000    0.000000    1.541614
  N     -0.517952   -1.016530   -0.880814
  N      0.517952    1.016530   -0.880814
  C     -1.052435   -2.261346   -0.344065
  C      1.052435    2.261346   -0.344065
  H      1.838995    2.593560   -1.024235
  H      1.512770    2.026931    0.612762
  C      0.000000    3.353187   -0.170351
  H     -1.838995   -2.593560   -1.024235
  H     -1.512770   -2.026931    0.612762
  C      0.000000   -3.353187   -0.170351
  H      0.475134   -3.601948   -1.121155
  H     -0.461950   -4.260562    0.222206
  H      0.769069   -3.029798    0.529468
  H      0.461950    4.260562    0.222206
  H     -0.769069    3.029798    0.529468
  H     -0.475134    3.601948   -1.121155
  H     -0.367821   -0.990573   -1.876978
  H      0.367821    0.990573   -1.876978

 Total Charge           Charge          ....    0
 Multiplicity           Mult            ....    1
 Number of Electrons    NEL             ....   72
 Basis Dimension        Dim             ....  296

ORBITAL ENERGIES
----------------

  NO   OCC          E(Eh)            E(eV)
   0   2.0000     -91.881433     -2500.2209
   1   2.0000     -15.603051      -424.5806
   2   2.0000     -15.603020      -424.5798
   3   2.0000     -11.375817      -309.5517
   4   2.0000     -11.270821      -306.6946
   5   2.0000     -11.270819      -306.6946
   6   2.0000     -11.222911      -305.3909
   7   2.0000     -11.222911      -305.3909
   8   2.0000      -8.885087      -241.7755
   9   2.0000      -6.567676      -178.7156
  10   2.0000      -6.564539      -178.6302
  11   2.0000      -6.563895      -178.6127
  12   2.0000      -1.313761       -35.7493
  13   2.0000      -1.219406       -33.1817
  14   2.0000      -1.045481       -28.4490
  15   2.0000      -1.002122       -27.2691
  16   2.0000      -0.968830       -26.3632
  17   2.0000      -0.883344       -24.0370
  18   2.0000      -0.842245       -22.9187
  19   2.0000      -0.768184       -20.9034
  20   2.0000      -0.756097       -20.5744
  21   2.0000      -0.674132       -18.3441
  22   2.0000      -0.632347       -17.2070
  23   2.0000      -0.611018       -16.6267
  24   2.0000      -0.600706       -16.3460
  25   2.0000      -0.589766       -16.0484
  26   2.0000      -0.573958       -15.6182
  27   2.0000      -0.529511       -14.4087
  28   2.0000      -0.521914       -14.2020
  29   2.0000      -0.509568       -13.8661
  30   2.0000      -0.498253       -13.5582
  31   2.0000      -0.494422       -13.4539
  32   2.0000      -0.486727       -13.2445
  33   2.0000      -0.385581       -10.4922
  34   2.0000      -0.316910        -8.6235
  35   2.0000      -0.313747        -8.5375
  36   0.0000       0.023178         0.6307
  37   0.0000       0.038153         1.0382
  38   0.0000       0.043735         1.1901
  39   0.0000       0.047280         1.2866
  40   0.0000       0.056639         1.5412

MULLIKEN ATOMIC CHARGES
-----------------------
   0 C :    0.557801
   1 S :   -0.213159
   2 N :   -0.364933
   3 N :   -0.364933
   4 C :    0.447526
   5 C :    0.447526
   6 H :   -0.244794
   7 H :   -0.137643
   8 C :    0.450267
   9 H :   -0.244794
  10 H :   -0.137643
  11 C :    0.450267
  12 H :   -0.077993
  13 H :   -0.054526
  14 H :   -0.048031
  15 H :   -0.054526
  16 H :   -0.048031
  17 H :   -0.077993
  18 H :   -0.142194
  19 H :   -0.142194
Sum of atomic charges:   -0.0000000

LOEWDIN ATOMIC CHARGES
----------------------
   0 C :   -0.651596
   1 S :    0.538512
   2 N :    0.036477
   3 N :    0.036477
   4 C :   -0.055641
   5 C :   -0.055641
   6 H :    0.011955
   7 H :   -0.021557
   8 C :    0.141254
   9 H :    0.011955
  10 H :   -0.021557
  11 C :    0.141254
  12 H :   -0.021767
  13 H :   -0.017257
  14 H :   -0.021454
  15 H :   -0.017257
  16 H :   -0.021454
  17 H :   -0.021767
  18 H :    0.004533
  19 H :    0.004533

  Mayer bond orders larger than 0.100000
B(  0-C ,  1-S ) :   1.6819 B(  0-C ,  2-N ) :   0.9065 B(  0-C ,  3-N ) :   0.9065
B(  0-C , 18-H ) :  -0.1171 B(  0-C , 19-H ) :  -0.1171 B(  2-N ,  4-C ) :   0.9025
B(  2-N ,  9-H ) :  -0.1068 B(  2-N , 18-H ) :   1.1447 B(  3-N ,  5-C ) :   0.9025
B(  3-N ,  6-H ) :  -0.1068 B(  3-N , 19-H ) :   1.1447 B(  4-C ,  9-H ) :   1.0130
B(  4-C , 10-H ) :   0.9237 B(  4-C , 11-C ) :   1.2226 B(  5-C ,  6-H ) :   1.0130
B(  5-C ,  7-H ) :   0.9237 B(  5-C ,  8-C ) :   1.2226 B(  6-H ,  7-H ) :  -0.1167
B(  8-C , 15-H ) :   0.9070 B(  8-C , 16-H ) :   0.9744 B(  8-C , 17-H ) :   0.9200
B(  9-H , 10-H ) :  -0.1167 B( 11-C , 12-H ) :   0.9200 B( 11-C , 13-H ) :   0.9070
B( 11-C , 14-H ) :   0.9744

MP2 TOTAL ENERGY:     -704.039964412 Eh
FINAL SINGLE POINT ENERGY      -704.039964412496

DIPOLE MOMENT
-------------
                                X             Y             Z
Electronic contribution:      0.00000      -0.00000       3.41396
Nuclear contribution   :     -0.00000       0.00000      -5.49554
                        -----------------------------------------
Total Dipole Moment    :      0.00000      -0.00000      -2.08158
                        -----------------------------------------
Magnitude (a.u.)       :      2.08158
Magnitude (Debye)      :      5.29096

Rotational constants in cm-1:     0.113767     0.029324     0.025697
Rotational constants in MHz :  3410.654479   879.116418   770.368199

                             ****ORCA TERMINATED NORMALLY****
TOTAL RUN TIME: 0 days 0 hours 1 minutes 29 seconds 550 msec
