                         Program Version 5.0.3 -  RELEASE  -
|  1> !ri-mp2 aug-cc-pvdz aug-cc-pvdz/c tightscf
|  2> %pal nprocs 16 end
|  3>
|  4> * xyz 0 1
|  5> Cl     2.984399   -0.417879   -0.152987
|  6> O      0.545008    1.604346   -0.451726
|  7> N     -1.674474   -0.203357   -0.321610
|  8> N     -2.891489   -0.320120   -0.222649
|  9> N     -4.011018   -0.462784   -0.239944
| 10> C      0.486114    0.564884    0.505089
| 11> C     -0.961721    0.258054    0.891001
| 12> C      1.212507   -0.698086    0.052682
| 13> H      0.985966    0.954778    1.392928
| 14> H     -1.421537    1.170797    1.275391
| 15> H     -0.999608   -0.510498    1.668236
| 16> H      1.110587   -1.489064    0.791667
| 17> H      0.836499   -1.050422   -0.903648
| 18> H      0.010714    1.348290   -1.213192
| 19> *
| 20>
| 21>                          ****END OF INPUT****

CARTESIAN COORDINATES (ANGSTROEM)
---------------------------------
  Cl     2.984399   -0.417879   -0.152987
  O      0.545008    1.604346   -0.451726
  N     -1.674474   -0.203357   -0.321610
  N     -2.891489   -0.320120   -0.222649
  N     -4.011018   -0.462784   -0.239944
  C      0.486114    0.564884    0.505089
  C     -0.961721    0.258054    0.891001
  C      1.212507   -0.698086    0.052682
  H      0.985966    0.954778    1.392928
  H     -1.421537    1.170797    1.275391
  H     -0.999608   -0.510498    1.668236
  H      1.110587   -1.489064    0.791667
  H      0.836499   -1.050422   -0.903648
  H      0.010714    1.348290   -1.213192

 Total Charge           Charge          ....    0
 Multiplicity           Mult            ....    1
 Number of Electrons    NEL             ....   70
 Basis Dimension        Dim             ....  242

ORBITAL ENERGIES
----------------

  NO   OCC          E(Eh)            E(eV)
   0   2.0000    -104.822608     -2852.3682
   1   2.0000     -20.582078      -560.0668
   2   2.0000     -15.810435      -430.2238
   3   2.0000     -15.695184      -427.0877
   4   2.0000     -15.632779      -425.3895
   5   2.0000     -11.317815      -307.9734
   6   2.0000     -11.306916      -307.6768
   7   2.0000     -11.306298      -307.6600
   8   2.0000     -10.548442      -287.0377
   9   2.0000      -8.016102      -218.1292
  10   2.0000      -8.012954      -218.0436
  11   2.0000      -8.012875      -218.0414
  12   2.0000      -1.531105       -41.6635
  13   2.0000      -1.386381       -37.7253
  14   2.0000      -1.316727       -35.8300
  15   2.0000      -1.138221       -30.9726
  16   2.0000      -1.064764       -28.9737
  17   2.0000      -0.949050       -25.8250
  18   2.0000      -0.856136       -23.2966
  19   2.0000      -0.763253       -20.7692
  20   2.0000      -0.730177       -19.8691
  21   2.0000      -0.726289       -19.7633
  22   2.0000      -0.694149       -18.8887
  23   2.0000      -0.675895       -18.3920
  24   2.0000      -0.655757       -17.8440
  25   2.0000      -0.643048       -17.4982
  26   2.0000      -0.603498       -16.4220
  27   2.0000      -0.576277       -15.6813
  28   2.0000      -0.538449       -14.6519
  29   2.0000      -0.509595       -13.8668
  30   2.0000      -0.476793       -12.9742
  31   2.0000      -0.461553       -12.5595
  32   2.0000      -0.434765       -11.8306
  33   2.0000      -0.429469       -11.6864
  34   2.0000      -0.397809       -10.8249
  35   0.0000       0.031282         0.8512
  36   0.0000       0.043743         1.1903
  37   0.0000       0.045535         1.2391
  38   0.0000       0.055754         1.5171
  39   0.0000       0.068612         1.8670

MULLIKEN ATOMIC CHARGES
-----------------------
   0 Cl:   -0.122944
   1 O :   -0.764213
   2 N :   -0.705556
   3 N :    0.399468
   4 N :   -0.319638
   5 C :    0.745886
   6 C :    0.837315
   7 C :    0.048716
   8 H :   -0.152566
   9 H :   -0.080733
  10 H :   -0.135616
  11 H :    0.023961
  12 H :    0.070764
  13 H :    0.155155
Sum of atomic charges:   -0.0000000

LOEWDIN ATOMIC CHARGES
----------------------
   0 Cl:    0.468900
   1 O :    0.138671
   2 N :    0.046852
   3 N :   -0.279936
   4 N :    0.267382
   5 C :   -0.299216
   6 C :   -0.000939
   7 C :   -0.291761
   8 H :    0.033306
   9 H :    0.019450
  10 H :    0.015848
  11 H :   -0.026367
  12 H :   -0.028627
  13 H :   -0.063565

  Mayer bond orders larger than 0.100000
B(  0-Cl,  5-C ) :  -0.2112 B(  0-Cl,  7-C ) :   1.2528 B(  0-Cl, 12-H ) :  -0.1144
B(  1-O ,  5-C ) :   0.2527 B(  1-O , 13-H ) :   1.0664 B(  2-N ,  3-N ) :   1.1326
B(  2-N ,  4-N ) :   0.2378 B(  2-N ,  5-C ) :  -0.1546 B(  2-N ,  6-C ) :   0.7996
B(  3-N ,  4-N ) :   1.8410 B(  5-C ,  6-C ) :   1.3416 B(  5-C ,  7-C ) :   1.2051
B(  5-C ,  8-H ) :   0.7710 B(  5-C ,  9-H ) :   0.1611 B(  5-C , 11-H ) :   0.1428
B(  5-C , 12-H ) :   0.2088 B(  6-C ,  7-C ) :  -0.1000 B(  6-C ,  9-H ) :   0.8035
B(  6-C , 10-H ) :   0.8523 B(  7-C , 11-H ) :   0.8553 B(  7-C , 12-H ) :   0.7809

MP2 TOTAL ENERGY:     -816.078461198 Eh
FINAL SINGLE POINT ENERGY      -816.078461198464

DIPOLE MOMENT
-------------
                                X             Y             Z
Electronic contribution:      2.75097      -1.41581      -2.48248
Nuclear contribution   :     -3.67449       1.00982       3.12144
                        -----------------------------------------
Total Dipole Moment    :     -0.92352      -0.40599       0.63896
                        -----------------------------------------
Magnitude (a.u.)       :      1.19415
Magnitude (Debye)      :      3.03529

Rotational constants in cm-1:     0.169351     0.021931     0.020803
Rotational constants in MHz :  5077.000464   657.476579   623.669011

                             ****ORCA TERMINATED NORMALLY****
TOTAL RUN TIME: 0 days 0 hours 0 minutes 50 seconds 655 msec
