                         Program Version 5.0.3 -  RELEASE  -
|  1> !ri-mp2 aug-cc-pvdz aug-cc-pvdz/c tightscf
|  2> %pal nprocs 16 end
|  3> %maxcore 3800
|  4>
|  5> * xyz 0 1
|  6> C      3.765859    0.209204   -0.140016
|  7> C      2.871247    1.268614   -0.080295
|  8> C      3.285014   -1.096397   -0.096293
|  9> C      1.501209    1.040638    0.021750
| 10> C      1.922891   -1.340443   -0.004248
| 11> C      1.037573   -0.269346    0.047854
| 12> C     -1.259747    0.330131   -0.172330
| 13> C     -2.570202   -0.417612   -0.421522
| 14> O     -0.303784   -0.607745    0.144654
| 15> F     -1.447135    1.227529    0.863041
| 16> F     -3.502465    0.470307   -0.869796
| 17> F     -3.033392   -0.973051    0.723910
| 18> H      4.827889    0.396517   -0.213025
| 19> H      3.234180    2.287210   -0.099256
| 20> H      3.972559   -1.930152   -0.137897
| 21> H      0.820685    1.874043    0.108414
| 22> H      1.531930   -2.347555    0.026613
| 23> H     -0.988788    0.912792   -1.057218
| 24> H     -2.444324   -1.202689   -1.168659
| 25> *
| 26>
| 27>                          ****END OF INPUT****

CARTESIAN COORDINATES (ANGSTROEM)
---------------------------------
  C      3.765859    0.209204   -0.140016
  C      2.871247    1.268614   -0.080295
  C      3.285014   -1.096397   -0.096293
  C      1.501209    1.040638    0.021750
  C      1.922891   -1.340443   -0.004248
  C      1.037573   -0.269346    0.047854
  C     -1.259747    0.330131   -0.172330
  C     -2.570202   -0.417612   -0.421522
  O     -0.303784   -0.607745    0.144654
  F     -1.447135    1.227529    0.863041
  F     -3.502465    0.470307   -0.869796
  F     -3.033392   -0.973051    0.723910
  H      4.827889    0.396517   -0.213025
  H      3.234180    2.287210   -0.099256
  H      3.972559   -1.930152   -0.137897
  H      0.820685    1.874043    0.108414
  H      1.531930   -2.347555    0.026613
  H     -0.988788    0.912792   -1.057218
  H     -2.444324   -1.202689   -1.168659

 Total Charge           Charge          ....    0
 Multiplicity           Mult            ....    1
 Number of Electrons    NEL             ....   90
 Basis Dimension        Dim             ....  339

ORBITAL ENERGIES
----------------

  NO   OCC          E(Eh)            E(eV)
   0   2.0000     -26.337242      -716.6728
   1   2.0000     -26.334754      -716.6051
   2   2.0000     -26.323758      -716.3059
   3   2.0000     -20.631652      -561.4158
   4   2.0000     -11.435033      -311.1631
   5   2.0000     -11.412805      -310.5582
   6   2.0000     -11.326127      -308.1996
   7   2.0000     -11.258695      -306.3647
   8   2.0000     -11.258062      -306.3474
   9   2.0000     -11.254269      -306.2442
  10   2.0000     -11.251512      -306.1692
  11   2.0000     -11.247987      -306.0733
  12   2.0000      -1.680252       -45.7220
  13   2.0000      -1.632410       -44.4201
  14   2.0000      -1.617066       -44.0026
  15   2.0000      -1.454295       -39.5734
  16   2.0000      -1.172844       -31.9147
  17   2.0000      -1.073455       -29.2102
  18   2.0000      -1.038827       -28.2679
  19   2.0000      -1.012758       -27.5585
  20   2.0000      -0.918013       -24.9804
  21   2.0000      -0.855946       -23.2915
  22   2.0000      -0.845691       -23.0124
  23   2.0000      -0.802278       -21.8311
  24   2.0000      -0.787813       -21.4375
  25   2.0000      -0.778400       -21.1813
  26   2.0000      -0.751736       -20.4558
  27   2.0000      -0.738371       -20.0921
  28   2.0000      -0.704398       -19.1676
  29   2.0000      -0.682788       -18.5796
  30   2.0000      -0.674531       -18.3549
  31   2.0000      -0.669641       -18.2218
  32   2.0000      -0.645792       -17.5729
  33   2.0000      -0.641277       -17.4500
  34   2.0000      -0.624839       -17.0027
  35   2.0000      -0.617345       -16.7988
  36   2.0000      -0.605509       -16.4767
  37   2.0000      -0.581319       -15.8185
  38   2.0000      -0.569664       -15.5013
  39   2.0000      -0.537006       -14.6127
  40   2.0000      -0.517846       -14.0913
  41   2.0000      -0.507062       -13.7979
  42   2.0000      -0.500373       -13.6158
  43   2.0000      -0.355523        -9.6743
  44   2.0000      -0.338005        -9.1976
  45   0.0000       0.030553         0.8314
  46   0.0000       0.036374         0.9898
  47   0.0000       0.039045         1.0625
  48   0.0000       0.051830         1.4104
  49   0.0000       0.054662         1.4874

MULLIKEN ATOMIC CHARGES
-----------------------
   0 C :    0.442748
   1 C :    0.825124
   2 C :    0.740423
   3 C :   -0.055190
   4 C :    0.325561
   5 C :    0.981846
   6 C :    0.882881
   7 C :    1.867654
   8 O :   -1.165783
   9 F :   -0.669429
  10 F :   -0.636002
  11 F :   -0.640909
  12 H :   -0.441427
  13 H :   -0.455498
  14 H :   -0.433694
  15 H :   -0.654112
  16 H :   -0.536176
  17 H :   -0.211064
  18 H :   -0.166951
Sum of atomic charges:   -0.0000000

LOEWDIN ATOMIC CHARGES
----------------------
   0 C :    0.005876
   1 C :    0.017511
   2 C :    0.016016
   3 C :    0.049194
   4 C :    0.052716
   5 C :   -0.182348
   6 C :   -0.163391
   7 C :   -0.124817
   8 O :    0.085037
   9 F :    0.046043
  10 F :    0.046762
  11 F :    0.060620
  12 H :   -0.001527
  13 H :    0.004591
  14 H :    0.004299
  15 H :   -0.002488
  16 H :    0.010219
  17 H :    0.041965
  18 H :    0.033723

  Mayer bond orders larger than 0.100000
B(  0-C ,  1-C ) :   1.5528 B(  0-C ,  2-C ) :   1.6941 B(  0-C ,  3-C ) :   0.2568
B(  0-C ,  4-C ) :   0.1531 B(  0-C , 12-H ) :   0.3608 B(  0-C , 13-H ) :   0.1113
B(  0-C , 14-H ) :   0.1695 B(  1-C ,  2-C ) :  -0.1820 B(  1-C ,  3-C ) :   1.7407
B(  1-C ,  5-C ) :  -0.1737 B(  1-C ,  7-C ) :   0.1159 B(  1-C , 12-H ) :   0.2067
B(  1-C , 15-H ) :   0.1646 B(  2-C ,  3-C ) :   0.2841 B(  2-C ,  4-C ) :   1.8100
B(  2-C ,  5-C ) :  -0.2411 B(  2-C , 12-H ) :   0.1400 B(  2-C , 13-H ) :  -0.1205
B(  2-C , 14-H ) :   0.3080 B(  3-C ,  5-C ) :   1.3555 B(  3-C ,  8-O ) :   0.1282
B(  3-C , 13-H ) :   0.6289 B(  4-C ,  5-C ) :   1.6750 B(  4-C ,  8-O ) :   0.1124
B(  4-C , 14-H ) :   0.2807 B(  4-C , 16-H ) :   0.1034 B(  5-C , 15-H ) :   0.3737
B(  5-C , 16-H ) :   0.5295 B(  6-C ,  7-C ) :   1.0366 B(  6-C ,  8-O ) :   0.9010
B(  6-C ,  9-F ) :   0.2104 B(  6-C , 10-F ) :   0.1561 B(  6-C , 11-F ) :   0.1498
B(  6-C , 17-H ) :   0.7465 B(  7-C ,  8-O ) :  -0.1172 B(  7-C , 10-F ) :   0.2771
B(  7-C , 11-F ) :   0.2828 B(  7-C , 18-H ) :   0.8339 B(  8-O , 17-H ) :   0.1052

MP2 TOTAL ENERGY:     -682.157721317 Eh
FINAL SINGLE POINT ENERGY      -682.157721317123

DIPOLE MOMENT
-------------
                                X             Y             Z
Electronic contribution:    -16.93432       0.50216       2.13526
Nuclear contribution   :     18.07299      -0.70553      -3.11593
                        -----------------------------------------
Total Dipole Moment    :      1.13867      -0.20336      -0.98066
                        -----------------------------------------
Magnitude (a.u.)       :      1.51645
Magnitude (Debye)      :      3.85451

Rotational constants in cm-1:     0.086562     0.014876     0.013602
Rotational constants in MHz :  2595.071317   445.969914   407.765366

                             ****ORCA TERMINATED NORMALLY****
TOTAL RUN TIME: 0 days 0 hours 1 minutes 43 seconds 221 msec
