                         Program Version 5.0.3 -  RELEASE  -
|  1> !ri-mp2 aug-cc-pvdz aug-cc-pvdz/c tightscf
|  2> %pal nprocs 16 end
|  3> %maxcore 3800
|  4>
|  5> * xyz 0 1
|  6> C      1.146241    1.193842   -0.045431
|  7> C      1.145772   -1.192583   -0.047381
|  8> C     -0.230006    1.193850   -0.240696
|  9> C     -0.229569   -1.192065   -0.242263
| 10> C      1.860578    0.000971    0.058338
| 11> C     -0.945645    0.001362   -0.341139
| 12> C      3.348664   -0.001567    0.293250
| 13> C     -3.212526   -0.002676    0.806592
| 14> C     -2.443952    0.001078   -0.522341
| 15> H      1.673704    2.137762    0.019717
| 16> H      1.673111   -2.136822    0.016045
| 17> H     -0.753713    2.138576   -0.325696
| 18> H     -0.753659   -2.136478   -0.328520
| 19> H      3.832697   -0.827825   -0.228257
| 20> H      3.806428    0.927029   -0.047139
| 21> H      3.579777   -0.109506    1.356230
| 22> H     -2.964444   -0.884319    1.399104
| 23> H     -4.290020   -0.003069    0.634112
| 24> H     -2.965687    0.876560    1.403176
| 25> H     -2.738175    0.877564   -1.103946
| 26> H     -2.737362   -0.872740   -1.108399
| 27> *
| 28>
| 29>                          ****END OF INPUT****

CARTESIAN COORDINATES (ANGSTROEM)
---------------------------------
  C      1.146241    1.193842   -0.045431
  C      1.145772   -1.192583   -0.047381
  C     -0.230006    1.193850   -0.240696
  C     -0.229569   -1.192065   -0.242263
  C      1.860578    0.000971    0.058338
  C     -0.945645    0.001362   -0.341139
  C      3.348664   -0.001567    0.293250
  C     -3.212526   -0.002676    0.806592
  C     -2.443952    0.001078   -0.522341
  H      1.673704    2.137762    0.019717
  H      1.673111   -2.136822    0.016045
  H     -0.753713    2.138576   -0.325696
  H     -0.753659   -2.136478   -0.328520
  H      3.832697   -0.827825   -0.228257
  H      3.806428    0.927029   -0.047139
  H      3.579777   -0.109506    1.356230
  H     -2.964444   -0.884319    1.399104
  H     -4.290020   -0.003069    0.634112
  H     -2.965687    0.876560    1.403176
  H     -2.738175    0.877564   -1.103946
  H     -2.737362   -0.872740   -1.108399

 Total Charge           Charge          ....    0
 Multiplicity           Mult            ....    1
 Number of Electrons    NEL             ....   66
 Basis Dimension        Dim             ....  315

ORBITAL ENERGIES
----------------

  NO   OCC          E(Eh)            E(eV)
   0   2.0000     -11.239104      -305.8316
   1   2.0000     -11.235805      -305.7418
   2   2.0000     -11.231466      -305.6237
   3   2.0000     -11.231257      -305.6180
   4   2.0000     -11.230613      -305.6005
   5   2.0000     -11.230159      -305.5882
   6   2.0000     -11.230038      -305.5849
   7   2.0000     -11.227282      -305.5099
   8   2.0000     -11.220449      -305.3239
   9   2.0000      -1.157165       -31.4881
  10   2.0000      -1.073240       -29.2043
  11   2.0000      -1.010428       -27.4952
  12   2.0000      -1.007552       -27.4169
  13   2.0000      -0.929276       -25.2869
  14   2.0000      -0.847691       -23.0668
  15   2.0000      -0.826829       -22.4992
  16   2.0000      -0.777191       -21.1484
  17   2.0000      -0.668818       -18.1995
  18   2.0000      -0.649162       -17.6646
  19   2.0000      -0.627145       -17.0655
  20   2.0000      -0.587812       -15.9952
  21   2.0000      -0.584328       -15.9004
  22   2.0000      -0.577148       -15.7050
  23   2.0000      -0.571261       -15.5448
  24   2.0000      -0.536256       -14.5923
  25   2.0000      -0.534372       -14.5410
  26   2.0000      -0.513000       -13.9594
  27   2.0000      -0.491802       -13.3826
  28   2.0000      -0.472088       -12.8462
  29   2.0000      -0.472049       -12.8451
  30   2.0000      -0.468633       -12.7522
  31   2.0000      -0.331470        -9.0198
  32   2.0000      -0.311917        -8.4877
  33   0.0000       0.036057         0.9812
  34   0.0000       0.037757         1.0274
  35   0.0000       0.042260         1.1500
  36   0.0000       0.050494         1.3740
  37   0.0000       0.052166         1.4195

MULLIKEN ATOMIC CHARGES
-----------------------
   0 C :    0.410235
   1 C :    0.368071
   2 C :    0.005130
   3 C :    0.005246
   4 C :    0.072248
   5 C :    1.304913
   6 C :    0.535749
   7 C :    0.318182
   8 C :    0.157624
   9 H :   -0.617300
  10 H :   -0.619833
  11 H :   -0.662789
  12 H :   -0.666475
  13 H :   -0.037503
  14 H :   -0.109233
  15 H :    0.115609
  16 H :   -0.097925
  17 H :   -0.083136
  18 H :   -0.097452
  19 H :   -0.150836
  20 H :   -0.150526
Sum of atomic charges:    0.0000000

LOEWDIN ATOMIC CHARGES
----------------------
   0 C :    0.041504
   1 C :    0.042152
   2 C :    0.044766
   3 C :    0.044708
   4 C :   -0.220133
   5 C :   -0.188550
   6 C :    0.171091
   7 C :    0.144356
   8 C :   -0.035163
   9 H :    0.003682
  10 H :    0.005092
  11 H :    0.006974
  12 H :    0.007032
  13 H :   -0.014321
  14 H :   -0.016178
  15 H :   -0.007821
  16 H :   -0.017734
  17 H :   -0.020638
  18 H :   -0.017679
  19 H :    0.013424
  20 H :    0.013433

  Mayer bond orders larger than 0.100000
B(  0-C ,  1-C ) :  -0.5248 B(  0-C ,  2-C ) :   2.7291 B(  0-C ,  3-C ) :   0.4470
B(  0-C ,  4-C ) :   1.7251 B(  0-C ,  5-C ) :  -0.7458 B(  0-C ,  6-C ) :  -0.2866
B(  0-C ,  8-C ) :   0.1309 B(  0-C ,  9-H ) :  -0.4650 B(  0-C , 11-H ) :   0.3553
B(  0-C , 14-H ) :  -0.1411 B(  1-C ,  2-C ) :   0.4801 B(  1-C ,  3-C ) :   2.9348
B(  1-C ,  4-C ) :   1.5268 B(  1-C ,  5-C ) :  -0.8085 B(  1-C ,  6-C ) :  -0.4149
B(  1-C ,  8-C ) :   0.1238 B(  1-C , 10-H ) :  -0.4248 B(  1-C , 12-H ) :   0.3622
B(  1-C , 13-H ) :  -0.1318 B(  2-C ,  3-C ) :  -0.7164 B(  2-C ,  4-C ) :  -0.5035
B(  2-C ,  5-C ) :   1.8016 B(  2-C ,  6-C ) :   0.1935 B(  2-C ,  8-C ) :  -0.2852
B(  2-C ,  9-H ) :   0.3995 B(  2-C , 11-H ) :  -0.5248 B(  3-C ,  4-C ) :  -0.5563
B(  3-C ,  5-C ) :   1.7879 B(  3-C ,  6-C ) :   0.1350 B(  3-C ,  8-C ) :  -0.2804
B(  3-C , 10-H ) :   0.4347 B(  3-C , 12-H ) :  -0.5299 B(  4-C ,  5-C ) :   0.8305
B(  4-C ,  6-C ) :   1.4989 B(  4-C ,  9-H ) :   0.7043 B(  4-C , 10-H ) :   0.6641
B(  4-C , 11-H ) :  -0.2188 B(  4-C , 12-H ) :  -0.2214 B(  4-C , 13-H ) :   0.3512
B(  4-C , 14-H ) :   0.4206 B(  4-C , 15-H ) :   0.1928 B(  5-C ,  7-C ) :  -0.1914
B(  5-C ,  8-C ) :   1.2424 B(  5-C ,  9-H ) :  -0.1997 B(  5-C , 10-H ) :  -0.2129
B(  5-C , 11-H ) :   0.7981 B(  5-C , 12-H ) :   0.7956 B(  5-C , 16-H ) :  -0.1192
B(  5-C , 18-H ) :  -0.1151 B(  6-C , 13-H ) :   0.7500 B(  6-C , 14-H ) :   0.6634
B(  6-C , 15-H ) :   0.9424 B(  7-C ,  8-C ) :   1.2831 B(  7-C , 16-H ) :   0.9593
B(  7-C , 17-H ) :   0.9104 B(  7-C , 18-H ) :   0.9586 B(  8-C , 19-H ) :   0.7758
B(  8-C , 20-H ) :   0.7766

MP2 TOTAL ENERGY:     -349.111292108 Eh
FINAL SINGLE POINT ENERGY      -349.111292108317

DIPOLE MOMENT
-------------
                                X             Y             Z
Electronic contribution:      2.71560       0.00936      -1.71425
Nuclear contribution   :     -2.71980      -0.01368       1.73915
                        -----------------------------------------
Total Dipole Moment    :     -0.00419      -0.00432       0.02490
                        -----------------------------------------
Magnitude (a.u.)       :      0.02562
Magnitude (Debye)      :      0.06512

Rotational constants in cm-1:     0.146041     0.031223     0.027751
Rotational constants in MHz :  4378.192125   936.031987   831.961611

                             ****ORCA TERMINATED NORMALLY****
TOTAL RUN TIME: 0 days 0 hours 1 minutes 29 seconds 238 msec
