                         Program Version 5.0.3 -  RELEASE  -
|  1> !ri-mp2 aug-cc-pvdz aug-cc-pvdz/c tightscf
|  2> %pal nprocs 16 end
|  3>
|  4> * xyz 0 1
|  5> C      4.107657   -0.250205   -0.215211
|  6> C      2.717325   -0.521399    0.356513
|  7> C      1.636426    0.390420   -0.225173
|  8> C      0.242168    0.120079    0.340479
|  9> C     -0.829692    1.038232   -0.244879
| 10> C     -2.225201    0.823188    0.309411
| 11> Cl    -2.919780   -0.797045   -0.154599
| 12> H      4.124179   -0.394646   -1.297420
| 13> H      4.854124   -0.916596    0.218969
| 14> H      4.423588    0.775876   -0.015423
| 15> H      2.443823   -1.564425    0.172169
| 16> H      2.740755   -0.402685    1.443977
| 17> H      1.613418    0.271434   -1.313552
| 18> H      1.909906    1.435111   -0.040928
| 19> H      0.262024    0.239696    1.428936
| 20> H     -0.032215   -0.919987    0.150936
| 21> H     -0.857119    0.939470   -1.332660
| 22> H     -0.568928    2.082139   -0.035424
| 23> H     -2.240983    0.846311    1.396326
| 24> H     -2.928401    1.556175   -0.074565
| 25> *
| 26>
| 27>                          ****END OF INPUT****

CARTESIAN COORDINATES (ANGSTROEM)
---------------------------------
  C      4.107657   -0.250205   -0.215211
  C      2.717325   -0.521399    0.356513
  C      1.636426    0.390420   -0.225173
  C      0.242168    0.120079    0.340479
  C     -0.829692    1.038232   -0.244879
  C     -2.225201    0.823188    0.309411
  Cl    -2.919780   -0.797045   -0.154599
  H      4.124179   -0.394646   -1.297420
  H      4.854124   -0.916596    0.218969
  H      4.423588    0.775876   -0.015423
  H      2.443823   -1.564425    0.172169
  H      2.740755   -0.402685    1.443977
  H      1.613418    0.271434   -1.313552
  H      1.909906    1.435111   -0.040928
  H      0.262024    0.239696    1.428936
  H     -0.032215   -0.919987    0.150936
  H     -0.857119    0.939470   -1.332660
  H     -0.568928    2.082139   -0.035424
  H     -2.240983    0.846311    1.396326
  H     -2.928401    1.556175   -0.074565

 Total Charge           Charge          ....    0
 Multiplicity           Mult            ....    1
 Number of Electrons    NEL             ....   66
 Basis Dimension        Dim             ....  282

ORBITAL ENERGIES
----------------

  NO   OCC          E(Eh)            E(eV)
   0   2.0000    -104.814758     -2852.1546
   1   2.0000     -11.299415      -307.4727
   2   2.0000     -11.241959      -305.9093
   3   2.0000     -11.227453      -305.5145
   4   2.0000     -11.225443      -305.4598
   5   2.0000     -11.224638      -305.4379
   6   2.0000     -11.219084      -305.2868
   7   2.0000     -10.540727      -286.8278
   8   2.0000      -8.008294      -217.9167
   9   2.0000      -8.005308      -217.8355
  10   2.0000      -8.005236      -217.8336
  11   2.0000      -1.135314       -30.8935
  12   2.0000      -1.083469       -29.4827
  13   2.0000      -1.030151       -28.0318
  14   2.0000      -0.958662       -26.0865
  15   2.0000      -0.874436       -23.7946
  16   2.0000      -0.805748       -21.9255
  17   2.0000      -0.793171       -21.5833
  18   2.0000      -0.660099       -17.9622
  19   2.0000      -0.635418       -17.2906
  20   2.0000      -0.617286       -16.7972
  21   2.0000      -0.594257       -16.1706
  22   2.0000      -0.564430       -15.3589
  23   2.0000      -0.555405       -15.1133
  24   2.0000      -0.542682       -14.7671
  25   2.0000      -0.511261       -13.9121
  26   2.0000      -0.496272       -13.5042
  27   2.0000      -0.477944       -13.0055
  28   2.0000      -0.468562       -12.7502
  29   2.0000      -0.465252       -12.6601
  30   2.0000      -0.460049       -12.5186
  31   2.0000      -0.427876       -11.6431
  32   2.0000      -0.425077       -11.5669
  33   0.0000       0.034723         0.9449
  34   0.0000       0.038551         1.0490
  35   0.0000       0.043326         1.1790
  36   0.0000       0.049056         1.3349
  37   0.0000       0.056796         1.5455

MULLIKEN ATOMIC CHARGES
-----------------------
   0 C :    0.511474
   1 C :    0.394734
   2 C :    0.154515
   3 C :    0.241101
   4 C :    0.345995
   5 C :    0.251404
   6 Cl:   -0.152487
   7 H :   -0.090019
   8 H :   -0.073538
   9 H :   -0.091370
  10 H :   -0.177888
  11 H :   -0.181633
  12 H :   -0.215661
  13 H :   -0.224903
  14 H :   -0.204653
  15 H :   -0.189260
  16 H :   -0.179041
  17 H :   -0.128240
  18 H :   -0.006441
  19 H :    0.015912
Sum of atomic charges:    0.0000000

LOEWDIN ATOMIC CHARGES
----------------------
   0 C :    0.131067
   1 C :   -0.071756
   2 C :   -0.042403
   3 C :   -0.046141
   4 C :   -0.096459
   5 C :   -0.295622
   6 Cl:    0.436083
   7 H :   -0.019952
   8 H :   -0.021779
   9 H :   -0.020374
  10 H :    0.012152
  11 H :    0.011158
  12 H :    0.017236
  13 H :    0.015779
  14 H :    0.017249
  15 H :    0.002721
  16 H :    0.015086
  17 H :    0.020389
  18 H :   -0.030951
  19 H :   -0.033484

  Mayer bond orders larger than 0.100000
B(  0-C ,  1-C ) :   1.1696 B(  0-C ,  7-H ) :   0.9157 B(  0-C ,  8-H ) :   0.9140
B(  0-C ,  9-H ) :   0.9207 B(  1-C ,  2-C ) :   1.2125 B(  1-C , 10-H ) :   0.7393
B(  1-C , 11-H ) :   0.7473 B(  2-C ,  3-C ) :   1.3084 B(  2-C , 10-H ) :   0.1004
B(  2-C , 11-H ) :   0.1012 B(  2-C , 12-H ) :   0.7802 B(  2-C , 13-H ) :   0.7870
B(  3-C ,  4-C ) :   1.2342 B(  3-C , 14-H ) :   0.7852 B(  3-C , 15-H ) :   0.7997
B(  4-C ,  5-C ) :   1.2687 B(  4-C ,  6-Cl) :  -0.1639 B(  4-C , 16-H ) :   0.8280
B(  4-C , 17-H ) :   0.7651 B(  4-C , 19-H ) :   0.1477 B(  5-C ,  6-Cl) :   1.1408
B(  5-C , 18-H ) :   0.8595 B(  5-C , 19-H ) :   0.8391

MP2 TOTAL ENERGY:     -695.367470292 Eh
FINAL SINGLE POINT ENERGY      -695.367470291942

DIPOLE MOMENT
-------------
                                X             Y             Z
Electronic contribution:    -19.96369      -4.45357      -0.74156
Nuclear contribution   :     20.47130       5.22863       0.94799
                        -----------------------------------------
Total Dipole Moment    :      0.50761       0.77506       0.20643
                        -----------------------------------------
Magnitude (a.u.)       :      0.94921
Magnitude (Debye)      :      2.41269

Rotational constants in cm-1:     0.202957     0.020945     0.019798
Rotational constants in MHz :  6084.506732   627.914244   593.521199

                             ****ORCA TERMINATED NORMALLY****
TOTAL RUN TIME: 0 days 0 hours 1 minutes 15 seconds 517 msec
