                         Program Version 5.0.3 -  RELEASE  -
|  1> !ri-mp2 aug-cc-pvdz aug-cc-pvdz/c tightscf
|  2> %pal nprocs 16 end
|  3>
|  4> * xyz 0 1
|  5> C      0.682278   -2.011975        0.000000
|  6> N     -0.594186   -1.780881        0.000000
|  7> C     -0.879403   -0.454202        0.000000
|  8> C      0.000000    0.622440        0.000000
|  9> N     -0.689283    1.811813        0.000000
| 10> C     -1.948126    1.467994        0.000000
| 11> N     -2.127037    0.103915        0.000000
| 12> N      1.638326   -1.045896        0.000000
| 13> C      1.418524    0.367369        0.000000
| 14> H      1.040118   -3.033903        0.000000
| 15> H     -2.782873    2.149310        0.000000
| 16> H     -2.996743   -0.401694        0.000000
| 17> O      2.361664    1.128525        0.000000
| 18> H      2.611808   -1.314335        0.000000
| 19> *
| 20>
| 21>                          ****END OF INPUT****

CARTESIAN COORDINATES (ANGSTROEM)
---------------------------------
  C      0.682278   -2.011975    0.000000
  N     -0.594186   -1.780881    0.000000
  C     -0.879403   -0.454202    0.000000
  C      0.000000    0.622440    0.000000
  N     -0.689283    1.811813    0.000000
  C     -1.948126    1.467994    0.000000
  N     -2.127037    0.103915    0.000000
  N      1.638326   -1.045896    0.000000
  C      1.418524    0.367369    0.000000
  H      1.040118   -3.033903    0.000000
  H     -2.782873    2.149310    0.000000
  H     -2.996743   -0.401694    0.000000
  O      2.361664    1.128525    0.000000
  H      2.611808   -1.314335    0.000000

 Total Charge           Charge          ....    0
 Multiplicity           Mult            ....    1
 Number of Electrons    NEL             ....   70
 Basis Dimension        Dim             ....  266

ORBITAL ENERGIES
----------------

  NO   OCC          E(Eh)            E(eV)
   0   2.0000     -20.538917      -558.8923
   1   2.0000     -15.647256      -425.7835
   2   2.0000     -15.644473      -425.7077
   3   2.0000     -15.594268      -424.3416
   4   2.0000     -15.577401      -423.8826
   5   2.0000     -11.378495      -309.6246
   6   2.0000     -11.368743      -309.3592
   7   2.0000     -11.335120      -308.4443
   8   2.0000     -11.326994      -308.2232
   9   2.0000     -11.266998      -306.5906
  10   2.0000      -1.406146       -38.2632
  11   2.0000      -1.375741       -37.4358
  12   2.0000      -1.324704       -36.0470
  13   2.0000      -1.229187       -33.4479
  14   2.0000      -1.190828       -32.4041
  15   2.0000      -1.056343       -28.7446
  16   2.0000      -0.913984       -24.8708
  17   2.0000      -0.911761       -24.8103
  18   2.0000      -0.853617       -23.2281
  19   2.0000      -0.793069       -21.5805
  20   2.0000      -0.750167       -20.4131
  21   2.0000      -0.728220       -19.8159
  22   2.0000      -0.689445       -18.7608
  23   2.0000      -0.656582       -17.8665
  24   2.0000      -0.626688       -17.0531
  25   2.0000      -0.622273       -16.9329
  26   2.0000      -0.614061       -16.7095
  27   2.0000      -0.594534       -16.1781
  28   2.0000      -0.531228       -14.4555
  29   2.0000      -0.502451       -13.6724
  30   2.0000      -0.444646       -12.0994
  31   2.0000      -0.437751       -11.9118
  32   2.0000      -0.437729       -11.9112
  33   2.0000      -0.416253       -11.3268
  34   2.0000      -0.317074        -8.6280
  35   0.0000       0.023706         0.6451
  36   0.0000       0.027763         0.7555
  37   0.0000       0.047762         1.2997
  38   0.0000       0.056209         1.5295
  39   0.0000       0.071176         1.9368

MULLIKEN ATOMIC CHARGES
-----------------------
   0 C :    0.924610
   1 N :   -0.711426
   2 C :    0.523736
   3 C :    0.544388
   4 N :   -0.957092
   5 C :    1.016402
   6 N :   -0.551142
   7 N :   -0.558036
   8 C :    1.142970
   9 H :   -0.231442
  10 H :   -0.164064
  11 H :   -0.115098
  12 O :   -0.841390
  13 H :   -0.022417
Sum of atomic charges:   -0.0000000

LOEWDIN ATOMIC CHARGES
----------------------
   0 C :    0.006158
   1 N :    0.073361
   2 C :   -0.194982
   3 C :   -0.150505
   4 N :    0.082171
   5 C :    0.003222
   6 N :    0.144708
   7 N :    0.158713
   8 C :   -0.268162
   9 H :    0.026298
  10 H :    0.009747
  11 H :    0.042170
  12 O :    0.033478
  13 H :    0.033623

  Mayer bond orders larger than 0.100000
B(  0-C ,  1-N ) :   1.6927 B(  0-C ,  7-N ) :   0.9614 B(  0-C ,  9-H ) :   0.9394
B(  0-C , 13-H ) :  -0.1355 B(  1-N ,  2-C ) :   0.9453 B(  1-N ,  6-N ) :  -0.1512
B(  2-C ,  3-C ) :   1.2545 B(  2-C ,  5-C ) :  -0.1266 B(  2-C ,  6-N ) :   0.9437
B(  2-C ,  8-C ) :   0.3133 B(  2-C ,  9-H ) :   0.1046 B(  2-C , 11-H ) :  -0.1284
B(  3-C ,  4-N ) :   0.8412 B(  3-C ,  7-N ) :   0.1664 B(  3-C ,  8-C ) :   0.5732
B(  3-C , 10-H ) :   0.1616 B(  3-C , 12-O ) :   0.1372 B(  4-N ,  5-C ) :   1.6919
B(  5-C ,  6-N ) :   0.9190 B(  5-C , 10-H ) :   0.8203 B(  5-C , 11-H ) :  -0.1261
B(  6-N , 11-H ) :   1.2583 B(  7-N ,  8-C ) :   0.6180 B(  7-N , 13-H ) :   1.1638
B(  8-C , 12-O ) :   1.1243

MP2 TOTAL ENERGY:     -485.941532182 Eh
FINAL SINGLE POINT ENERGY      -485.941532182070

DIPOLE MOMENT
-------------
                                X             Y             Z
Electronic contribution:      0.71812       0.61332      -0.00000
Nuclear contribution   :     -2.02911      -2.49978       0.00000
                        -----------------------------------------
Total Dipole Moment    :     -1.31099      -1.88646      -0.00000
                        -----------------------------------------
Magnitude (a.u.)       :      2.29726
Magnitude (Debye)      :      5.83918

Rotational constants in cm-1:     0.080031     0.051728     0.031420
Rotational constants in MHz :  2399.280106  1550.765605   941.943799

                             ****ORCA TERMINATED NORMALLY****
TOTAL RUN TIME: 0 days 0 hours 1 minutes 24 seconds 913 msec
