                         Program Version 5.0.3 -  RELEASE  -
|  1> !ri-mp2 aug-cc-pvdz aug-cc-pvdz/c tightscf
|  2> %pal nprocs 16 end
|  3>
|  4> * xyz 0 1
|  5> C      0.000000    1.019263        0.000000
|  6> C      1.348969    0.492686        0.000000
|  7> C     -1.138067    0.325279        0.000000
|  8> C      2.440288    1.261794        0.000000
|  9> H     -0.108466    2.099001        0.000000
| 10> H      1.454409   -0.585078        0.000000
| 11> H     -2.111345    0.788809        0.000000
| 12> Cl    -1.232208   -1.416011        0.000000
| 13> H      3.432030    0.832553        0.000000
| 14> H      2.373763    2.342770        0.000000
| 15> *
| 16>
| 17>                          ****END OF INPUT****

CARTESIAN COORDINATES (ANGSTROEM)
---------------------------------
  C      0.000000    1.019263    0.000000
  C      1.348969    0.492686    0.000000
  C     -1.138067    0.325279    0.000000
  C      2.440288    1.261794    0.000000
  H     -0.108466    2.099001    0.000000
  H      1.454409   -0.585078    0.000000
  H     -2.111345    0.788809    0.000000
  Cl    -1.232208   -1.416011    0.000000
  H      3.432030    0.832553    0.000000
  H      2.373763    2.342770    0.000000

 Total Charge           Charge          ....    0
 Multiplicity           Mult            ....    1
 Number of Electrons    NEL             ....   46
 Basis Dimension        Dim             ....  164

ORBITAL ENERGIES
----------------

  NO   OCC          E(Eh)            E(eV)
   0   2.0000    -104.840699     -2852.8605
   1   2.0000     -11.305989      -307.6516
   2   2.0000     -11.262534      -306.4691
   3   2.0000     -11.253926      -306.2349
   4   2.0000     -11.248429      -306.0853
   5   2.0000     -10.566785      -287.5368
   6   2.0000      -8.034578      -218.6320
   7   2.0000      -8.031265      -218.5418
   8   2.0000      -8.031197      -218.5400
   9   2.0000      -1.164239       -31.6805
  10   2.0000      -1.087098       -29.5814
  11   2.0000      -0.997931       -27.1551
  12   2.0000      -0.837021       -22.7765
  13   2.0000      -0.752350       -20.4725
  14   2.0000      -0.682974       -18.5847
  15   2.0000      -0.638744       -17.3811
  16   2.0000      -0.584719       -15.9110
  17   2.0000      -0.554727       -15.0949
  18   2.0000      -0.517377       -14.0786
  19   2.0000      -0.510832       -13.9004
  20   2.0000      -0.453584       -12.3427
  21   2.0000      -0.436392       -11.8748
  22   2.0000      -0.329599        -8.9689
  23   0.0000       0.035482         0.9655
  24   0.0000       0.040654         1.1063
  25   0.0000       0.049577         1.3491
  26   0.0000       0.064629         1.7586
  27   0.0000       0.070665         1.9229

MULLIKEN ATOMIC CHARGES
-----------------------
   0 C :    1.199811
   1 C :    0.855146
   2 C :   -0.226852
   3 C :    0.433515
   4 H :   -0.502301
   5 H :   -0.468896
   6 H :   -0.396658
   7 Cl:   -0.313157
   8 H :   -0.279155
   9 H :   -0.301454
Sum of atomic charges:   -0.0000000

LOEWDIN ATOMIC CHARGES
----------------------
   0 C :   -0.101474
   1 C :   -0.084549
   2 C :   -0.362057
   3 C :    0.183330
   4 H :    0.003465
   5 H :   -0.019356
   6 H :   -0.056124
   7 Cl:    0.513566
   8 H :   -0.039873
   9 H :   -0.036927

  Mayer bond orders larger than 0.100000
B(  0-C ,  1-C ) :   1.3157 B(  0-C ,  2-C ) :   0.9492 B(  0-C ,  3-C ) :  -0.1245
B(  0-C ,  4-H ) :   0.5862 B(  0-C ,  7-Cl) :  -0.3594 B(  1-C ,  2-C ) :  -0.1411
B(  1-C ,  3-C ) :   1.8390 B(  1-C ,  5-H ) :   0.6054 B(  1-C ,  8-H ) :   0.1106
B(  2-C ,  3-C ) :   0.1803 B(  2-C ,  6-H ) :   0.8474 B(  2-C ,  7-Cl) :   1.1232
B(  3-C ,  8-H ) :   0.7736 B(  3-C ,  9-H ) :   0.9176 B(  8-H ,  9-H ) :  -0.1845

MP2 TOTAL ENERGY:     -614.559478376 Eh
FINAL SINGLE POINT ENERGY      -614.559478376463

DIPOLE MOMENT
-------------
                                X             Y             Z
Electronic contribution:     -6.43368      -6.64749      -0.00000
Nuclear contribution   :      6.63838       7.32203       0.00000
                        -----------------------------------------
Total Dipole Moment    :      0.20471       0.67453      -0.00000
                        -----------------------------------------
Magnitude (a.u.)       :      0.70491
Magnitude (Debye)      :      1.79174

Rotational constants in cm-1:     0.428880     0.063607     0.055392
Rotational constants in MHz : 12857.513416  1906.901362  1660.615081

                             ****ORCA TERMINATED NORMALLY****
TOTAL RUN TIME: 0 days 0 hours 0 minutes 42 seconds 623 msec
