                         Program Version 5.0.3 -  RELEASE  -
|  1> !ri-mp2 aug-cc-pvdz aug-cc-pvdz/c tightscf
|  2> %pal nprocs 16 end
|  3>
|  4> * xyz 0 1
|  5> O      0.667290    1.027732   -0.440985
|  6> O      1.225661    0.020424    0.440386
|  7> O     -1.225661   -0.020424    0.440386
|  8> O     -0.667290   -1.027732   -0.440985
|  9> C     -0.667290    1.205624    0.000454
| 10> C      0.667290   -1.205624    0.000454
| 11> H     -0.743907    1.858599    0.874591
| 12> H     -1.180482    1.619002   -0.872517
| 13> H      1.180482   -1.619002   -0.872517
| 14> H      0.743907   -1.858599    0.874591
| 15> *
| 16>
| 17>                          ****END OF INPUT****

CARTESIAN COORDINATES (ANGSTROEM)
---------------------------------
  O      0.667290    1.027732   -0.440985
  O      1.225661    0.020424    0.440386
  O     -1.225661   -0.020424    0.440386
  O     -0.667290   -1.027732   -0.440985
  C     -0.667290    1.205624    0.000454
  C      0.667290   -1.205624    0.000454
  H     -0.743907    1.858599    0.874591
  H     -1.180482    1.619002   -0.872517
  H      1.180482   -1.619002   -0.872517
  H      0.743907   -1.858599    0.874591

 Total Charge           Charge          ....    0
 Multiplicity           Mult            ....    1
 Number of Electrons    NEL             ....   48
 Basis Dimension        Dim             ....  174

ORBITAL ENERGIES
----------------

  NO   OCC          E(Eh)            E(eV)
   0   2.0000     -20.659232      -562.1663
   1   2.0000     -20.659208      -562.1656
   2   2.0000     -20.658922      -562.1578
   3   2.0000     -20.658916      -562.1577
   4   2.0000     -11.367504      -309.3255
   5   2.0000     -11.367501      -309.3254
   6   2.0000      -1.554524       -42.3007
   7   2.0000      -1.470211       -40.0065
   8   2.0000      -1.313874       -35.7523
   9   2.0000      -1.226099       -33.3639
  10   2.0000      -0.960716       -26.1424
  11   2.0000      -0.862012       -23.4565
  12   2.0000      -0.757429       -20.6107
  13   2.0000      -0.756312       -20.5803
  14   2.0000      -0.752853       -20.4862
  15   2.0000      -0.648427       -17.6446
  16   2.0000      -0.637414       -17.3449
  17   2.0000      -0.596894       -16.2423
  18   2.0000      -0.588907       -16.0250
  19   2.0000      -0.588901       -16.0248
  20   2.0000      -0.556264       -15.1367
  21   2.0000      -0.498922       -13.5764
  22   2.0000      -0.472525       -12.8581
  23   2.0000      -0.451813       -12.2945
  24   0.0000       0.037694         1.0257
  25   0.0000       0.044104         1.2001
  26   0.0000       0.049412         1.3446
  27   0.0000       0.061837         1.6827
  28   0.0000       0.089573         2.4374

MULLIKEN ATOMIC CHARGES
-----------------------
   0 O :   -0.581369
   1 O :   -0.581927
   2 O :   -0.581927
   3 O :   -0.581369
   4 C :    1.454891
   5 C :    1.454891
   6 H :   -0.145791
   7 H :   -0.145803
   8 H :   -0.145803
   9 H :   -0.145791
Sum of atomic charges:   -0.0000000

LOEWDIN ATOMIC CHARGES
----------------------
   0 O :    0.018270
   1 O :    0.018242
   2 O :    0.018242
   3 O :    0.018270
   4 C :   -0.043695
   5 C :   -0.043695
   6 H :    0.003592
   7 H :    0.003591
   8 H :    0.003591
   9 H :    0.003592

  Mayer bond orders larger than 0.100000
B(  0-O ,  1-O ) :   0.8317 B(  0-O ,  4-C ) :   0.5870 B(  0-O ,  5-C ) :  -0.1019
B(  1-O ,  4-C ) :  -0.1022 B(  1-O ,  5-C ) :   0.5868 B(  2-O ,  3-O ) :   0.8317
B(  2-O ,  4-C ) :   0.5868 B(  2-O ,  5-C ) :  -0.1022 B(  3-O ,  4-C ) :  -0.1019
B(  3-O ,  5-C ) :   0.5870 B(  4-C ,  6-H ) :   0.9808 B(  4-C ,  7-H ) :   0.9809
B(  5-C ,  8-H ) :   0.9809 B(  5-C ,  9-H ) :   0.9808

MP2 TOTAL ENERGY:     -378.408480910 Eh
FINAL SINGLE POINT ENERGY      -378.408480910125

DIPOLE MOMENT
-------------
                                X             Y             Z
Electronic contribution:      0.00000       0.00000      -0.00298
Nuclear contribution   :      0.00000      -0.00000       0.00404
                        -----------------------------------------
Total Dipole Moment    :      0.00000       0.00000       0.00106
                        -----------------------------------------
Magnitude (a.u.)       :      0.00106
Magnitude (Debye)      :      0.00270

Rotational constants in cm-1:     0.185942     0.171556     0.106752
Rotational constants in MHz :  5574.405066  5143.111721  3200.348112

                             ****ORCA TERMINATED NORMALLY****
TOTAL RUN TIME: 0 days 0 hours 0 minutes 56 seconds 855 msec
