                         Program Version 5.0.3 -  RELEASE  -
|  1> !ri-mp2 aug-cc-pvdz aug-cc-pvdz/c tightscf
|  2> %pal nprocs 16 end
|  3>
|  4> * xyz 0 1
|  5> Cl    0.166446    2.029748   -0.534405
|  6> Cl   -2.226375   -0.504117    0.180096
|  7> N    -0.509875   -0.569838    0.156783
|  8> N     1.549944    0.221170    0.996445
|  9> C     0.208766    0.520260    0.714401
| 10> C     0.106052   -1.471911   -0.652182
| 11> C     1.460676   -1.542010   -0.638384
| 12> C     2.129257   -0.705879    0.304895
| 13> H    -0.325278    0.953353    1.547915
| 14> H    -0.533226   -2.118979   -1.232017
| 15> H     1.984941   -2.262604   -1.244494
| 16> H     3.183372   -0.869602    0.506885
| 17> *
| 18>
| 19>                          ****END OF INPUT****

CARTESIAN COORDINATES (ANGSTROEM)
---------------------------------
  Cl     0.166446    2.029748   -0.534405
  Cl    -2.226375   -0.504117    0.180096
  N     -0.509875   -0.569838    0.156783
  N      1.549944    0.221170    0.996445
  C      0.208766    0.520260    0.714401
  C      0.106052   -1.471911   -0.652182
  C      1.460676   -1.542010   -0.638384
  C      2.129257   -0.705879    0.304895
  H     -0.325278    0.953353    1.547915
  H     -0.533226   -2.118979   -1.232017
  H      1.984941   -2.262604   -1.244494
  H      3.183372   -0.869602    0.506885

 Total Charge           Charge          ....    0
 Multiplicity           Mult            ....    1
 Number of Electrons    NEL             ....   76
 Basis Dimension        Dim             ....  228

ORBITAL ENERGIES
----------------

  NO   OCC          E(Eh)            E(eV)
   0   2.0000    -104.905556     -2854.6253
   1   2.0000    -104.793898     -2851.5869
   2   2.0000     -15.688268      -426.8995
   3   2.0000     -15.586004      -424.1167
   4   2.0000     -11.394729      -310.0663
   5   2.0000     -11.343830      -308.6813
   6   2.0000     -11.321431      -308.0718
   7   2.0000     -11.258720      -306.3653
   8   2.0000     -10.627813      -289.1975
   9   2.0000     -10.519877      -286.2604
  10   2.0000      -8.095907      -220.3008
  11   2.0000      -8.091628      -220.1844
  12   2.0000      -8.091167      -220.1718
  13   2.0000      -7.987048      -217.3386
  14   2.0000      -7.984411      -217.2669
  15   2.0000      -7.984372      -217.2658
  16   2.0000      -1.371458       -37.3193
  17   2.0000      -1.257232       -34.2110
  18   2.0000      -1.130902       -30.7734
  19   2.0000      -1.099296       -29.9134
  20   2.0000      -1.034878       -28.1605
  21   2.0000      -0.929598       -25.2956
  22   2.0000      -0.906385       -24.6640
  23   2.0000      -0.766408       -20.8550
  24   2.0000      -0.731228       -19.8977
  25   2.0000      -0.697772       -18.9873
  26   2.0000      -0.669632       -18.2216
  27   2.0000      -0.636092       -17.3089
  28   2.0000      -0.625982       -17.0338
  29   2.0000      -0.579335       -15.7645
  30   2.0000      -0.545640       -14.8476
  31   2.0000      -0.509580       -13.8664
  32   2.0000      -0.483948       -13.1689
  33   2.0000      -0.457901       -12.4601
  34   2.0000      -0.435411       -11.8481
  35   2.0000      -0.423555       -11.5255
  36   2.0000      -0.418066       -11.3762
  37   2.0000      -0.335274        -9.1233
  38   0.0000       0.027416         0.7460
  39   0.0000       0.038970         1.0604
  40   0.0000       0.047316         1.2875
  41   0.0000       0.056951         1.5497
  42   0.0000       0.058370         1.5883

MULLIKEN ATOMIC CHARGES
-----------------------
   0 Cl:   -0.195076
   1 Cl:    0.305203
   2 N :   -0.711004
   3 N :   -0.626880
   4 C :    0.569418
   5 C :    0.657216
   6 C :    0.755195
   7 C :    0.379376
   8 H :   -0.110830
   9 H :   -0.373255
  10 H :   -0.381223
  11 H :   -0.268139
Sum of atomic charges:   -0.0000000

LOEWDIN ATOMIC CHARGES
----------------------
   0 Cl:    0.295941
   1 Cl:    0.616806
   2 N :   -0.458699
   3 N :    0.005575
   4 C :   -0.449443
   5 C :   -0.004017
   6 C :    0.015085
   7 C :   -0.025081
   8 H :   -0.019048
   9 H :    0.013093
  10 H :   -0.006557
  11 H :    0.016346

  Mayer bond orders larger than 0.100000
B(  0-Cl,  4-C ) :   1.1006 B(  1-Cl,  2-N ) :   0.8217 B(  2-N ,  4-C ) :   0.9388
B(  2-N ,  5-C ) :   1.1012 B(  2-N ,  6-C ) :  -0.1003 B(  3-N ,  4-C ) :   0.9434
B(  3-N ,  7-C ) :   1.6458 B(  4-C ,  7-C ) :  -0.1308 B(  4-C ,  8-H ) :   0.9669
B(  5-C ,  6-C ) :   1.5815 B(  5-C ,  7-C ) :   0.2559 B(  5-C ,  9-H ) :   0.7067
B(  5-C , 10-H ) :   0.1232 B(  6-C ,  7-C ) :   0.9933 B(  6-C , 10-H ) :   0.6452
B(  7-C , 11-H ) :   0.9243

MP2 TOTAL ENERGY:    -1182.842803199 Eh
FINAL SINGLE POINT ENERGY     -1182.842803198520

DIPOLE MOMENT
-------------
                                X             Y             Z
Electronic contribution:     -7.01950       4.30631      -0.22730
Nuclear contribution   :      6.86554      -6.12781       0.08692
                        -----------------------------------------
Total Dipole Moment    :     -0.15396      -1.82150      -0.14038
                        -----------------------------------------
Magnitude (a.u.)       :      1.83338
Magnitude (Debye)      :      4.66007

Rotational constants in cm-1:     0.059626     0.047061     0.030957
Rotational constants in MHz :  1787.557231  1410.867086   928.082016

                             ****ORCA TERMINATED NORMALLY****
TOTAL RUN TIME: 0 days 0 hours 0 minutes 57 seconds 205 msec
