                         Program Version 5.0.3 -  RELEASE  -
|  1> !ri-mp2 aug-cc-pvdz aug-cc-pvdz/c tightscf
|  2> %pal nprocs 16 end
|  3>
|  4> * xyz 0 1
|  5> C      0.451706    0.483657   -0.467135
|  6> C     -0.861674   -0.168523   -0.001224
|  7> H      0.454491    0.558887   -1.551837
|  8> F      0.530176    1.727520    0.073771
|  9> Cl     1.858333   -0.488147    0.023923
| 10> F     -0.920875   -0.298900    1.324534
| 11> F     -1.892087    0.597920   -0.396345
| 12> F     -1.004585   -1.376672   -0.562482
| 13> *
| 14>
| 15>                          ****END OF INPUT****

CARTESIAN COORDINATES (ANGSTROEM)
---------------------------------
  C      0.451706    0.483657   -0.467135
  C     -0.861674   -0.168523   -0.001224
  H      0.454491    0.558887   -1.551837
  F      0.530176    1.727520    0.073771
  Cl     1.858333   -0.488147    0.023923
  F     -0.920875   -0.298900    1.324534
  F     -1.892087    0.597920   -0.396345
  F     -1.004585   -1.376672   -0.562482

 Total Charge           Charge          ....    0
 Multiplicity           Mult            ....    1
 Number of Electrons    NEL             ....   66
 Basis Dimension        Dim             ....  174

ORBITAL ENERGIES
----------------

  NO   OCC          E(Eh)            E(eV)
   0   2.0000    -104.871958     -2853.7111
   1   2.0000     -26.379287      -717.8169
   2   2.0000     -26.376829      -717.7500
   3   2.0000     -26.376704      -717.7466
   4   2.0000     -26.362698      -717.3655
   5   2.0000     -11.550992      -314.3185
   6   2.0000     -11.441965      -311.3517
   7   2.0000     -10.598355      -288.3959
   8   2.0000      -8.066086      -219.4894
   9   2.0000      -8.062549      -219.3931
  10   2.0000      -8.062440      -219.3901
  11   2.0000      -1.762306       -47.9548
  12   2.0000      -1.675257       -45.5861
  13   2.0000      -1.666585       -45.3501
  14   2.0000      -1.664339       -45.2890
  15   2.0000      -1.186909       -32.2974
  16   2.0000      -1.052249       -28.6332
  17   2.0000      -0.941849       -25.6290
  18   2.0000      -0.857691       -23.3390
  19   2.0000      -0.851956       -23.1829
  20   2.0000      -0.839509       -22.8442
  21   2.0000      -0.776340       -21.1253
  22   2.0000      -0.745747       -20.2928
  23   2.0000      -0.730118       -19.8675
  24   2.0000      -0.721728       -19.6392
  25   2.0000      -0.703495       -19.1431
  26   2.0000      -0.687670       -18.7125
  27   2.0000      -0.686829       -18.6896
  28   2.0000      -0.673020       -18.3138
  29   2.0000      -0.601297       -16.3621
  30   2.0000      -0.571511       -15.5516
  31   2.0000      -0.495263       -13.4768
  32   2.0000      -0.483749       -13.1635
  33   0.0000       0.035874         0.9762
  34   0.0000       0.072080         1.9614
  35   0.0000       0.078098         2.1252
  36   0.0000       0.091047         2.4775
  37   0.0000       0.110863         3.0167

MULLIKEN ATOMIC CHARGES
-----------------------
   0 C :    0.350220
   1 C :    2.046060
   2 H :    0.052943
   3 F :   -0.592637
   4 Cl:   -0.092086
   5 F :   -0.573260
   6 F :   -0.602354
   7 F :   -0.588887
Sum of atomic charges:    0.0000000

LOEWDIN ATOMIC CHARGES
----------------------
   0 C :   -0.446275
   1 C :   -0.412712
   2 H :   -0.001802
   3 F :    0.028046
   4 Cl:    0.561134
   5 F :    0.095143
   6 F :    0.091358
   7 F :    0.085109

  Mayer bond orders larger than 0.100000
B(  0-C ,  1-C ) :   1.1040 B(  0-C ,  2-H ) :   0.8672 B(  0-C ,  3-F ) :   0.3815
B(  0-C ,  4-Cl) :   1.2352 B(  0-C ,  6-F ) :   0.1251 B(  1-C ,  3-F ) :   0.1241
B(  1-C ,  4-Cl) :  -0.1123 B(  1-C ,  5-F ) :   0.3599 B(  1-C ,  6-F ) :   0.3095
B(  1-C ,  7-F ) :   0.3566

MP2 TOTAL ENERGY:     -934.865535566 Eh
FINAL SINGLE POINT ENERGY      -934.865535565603

DIPOLE MOMENT
-------------
                                X             Y             Z
Electronic contribution:     -0.74929      -0.56344       1.21682
Nuclear contribution   :      0.94678       0.55898      -1.83473
                        -----------------------------------------
Total Dipole Moment    :      0.19749      -0.00445      -0.61792
                        -----------------------------------------
Magnitude (a.u.)       :      0.64872
Magnitude (Debye)      :      1.64893

Rotational constants in cm-1:     0.104989     0.058112     0.047384
Rotational constants in MHz :  3147.505562  1742.165073  1420.548829

                             ****ORCA TERMINATED NORMALLY****
TOTAL RUN TIME: 0 days 0 hours 0 minutes 29 seconds 773 msec
