                         Program Version 5.0.3 -  RELEASE  -
|  1> !ri-mp2 aug-cc-pvdz aug-cc-pvdz/c tightscf
|  2> %pal nprocs 16 end
|  3>
|  4> * xyz 0 1
|  5> C      1.683448   -1.663575    0.000000
|  6> C      2.220125   -0.382943    0.000000
|  7> C      0.305726   -1.835687    0.000000
|  8> C      1.373807    0.717619    0.000000
|  9> C     -0.573870   -0.751190    0.000000
| 10> C      0.000000    0.522425    0.000000
| 11> C     -2.061411   -0.960930    0.000000
| 12> Cl    -1.036566    1.943162    0.000000
| 13> H      2.334268   -2.527315    0.000000
| 14> H      3.291363   -0.235053    0.000000
| 15> H     -0.108141   -2.835976    0.000000
| 16> H      1.769429    1.722783    0.000000
| 17> H     -2.526446   -0.504646    0.875379
| 18> H     -2.526446   -0.504646   -0.875379
| 19> H     -2.299351   -2.023197    0.000000
| 20> *
| 21>
| 22>                          ****END OF INPUT****

CARTESIAN COORDINATES (ANGSTROEM)
---------------------------------
  C      1.683448   -1.663575    0.000000
  C      2.220125   -0.382943    0.000000
  C      0.305726   -1.835687    0.000000
  C      1.373807    0.717619    0.000000
  C     -0.573870   -0.751190    0.000000
  C      0.000000    0.522425    0.000000
  C     -2.061411   -0.960930    0.000000
  Cl    -1.036566    1.943162    0.000000
  H      2.334268   -2.527315    0.000000
  H      3.291363   -0.235053    0.000000
  H     -0.108141   -2.835976    0.000000
  H      1.769429    1.722783    0.000000
  H     -2.526446   -0.504646    0.875379
  H     -2.526446   -0.504646   -0.875379
  H     -2.299351   -2.023197    0.000000

 Total Charge           Charge          ....    0
 Multiplicity           Mult            ....    1
 Number of Electrons    NEL             ....   66
 Basis Dimension        Dim             ....  251

ORBITAL ENERGIES
----------------

  NO   OCC          E(Eh)            E(eV)
   0   2.0000    -104.836284     -2852.7403
   1   2.0000     -11.304340      -307.6067
   2   2.0000     -11.263014      -306.4822
   3   2.0000     -11.253923      -306.2348
   4   2.0000     -11.249840      -306.1237
   5   2.0000     -11.248860      -306.0970
   6   2.0000     -11.247923      -306.0716
   7   2.0000     -11.236281      -305.7547
   8   2.0000     -10.562291      -287.4145
   9   2.0000      -8.030056      -218.5089
  10   2.0000      -8.026855      -218.4218
  11   2.0000      -8.026716      -218.4181
  12   2.0000      -1.194607       -32.5069
  13   2.0000      -1.118698       -30.4413
  14   2.0000      -1.061043       -28.8724
  15   2.0000      -1.003531       -27.3075
  16   2.0000      -0.943609       -25.6769
  17   2.0000      -0.836890       -22.7729
  18   2.0000      -0.808158       -21.9911
  19   2.0000      -0.696869       -18.9628
  20   2.0000      -0.661042       -17.9879
  21   2.0000      -0.636612       -17.3231
  22   2.0000      -0.590937       -16.0802
  23   2.0000      -0.588480       -16.0134
  24   2.0000      -0.578415       -15.7395
  25   2.0000      -0.550925       -14.9914
  26   2.0000      -0.522444       -14.2164
  27   2.0000      -0.511491       -13.9184
  28   2.0000      -0.500365       -13.6156
  29   2.0000      -0.467567       -12.7232
  30   2.0000      -0.452234       -12.3059
  31   2.0000      -0.343863        -9.3570
  32   2.0000      -0.332573        -9.0498
  33   0.0000       0.033608         0.9145
  34   0.0000       0.039404         1.0722
  35   0.0000       0.044631         1.2145
  36   0.0000       0.057021         1.5516
  37   0.0000       0.061487         1.6731

MULLIKEN ATOMIC CHARGES
-----------------------
   0 C :    0.076694
   1 C :    0.577799
   2 C :    0.852587
   3 C :    0.462586
   4 C :    0.506746
   5 C :   -0.679211
   6 C :    0.633459
   7 Cl:   -0.494756
   8 H :   -0.455809
   9 H :   -0.436574
  10 H :   -0.594462
  11 H :   -0.419059
  12 H :    0.087809
  13 H :    0.087809
  14 H :   -0.205615
Sum of atomic charges:    0.0000000

LOEWDIN ATOMIC CHARGES
----------------------
   0 C :    0.011645
   1 C :    0.005850
   2 C :    0.039092
   3 C :   -0.017970
   4 C :   -0.240526
   5 C :   -0.491334
   6 C :    0.153175
   7 Cl:    0.575350
   8 H :    0.001539
   9 H :    0.001359
  10 H :    0.004595
  11 H :   -0.002293
  12 H :   -0.011908
  13 H :   -0.011908
  14 H :   -0.016667

  Mayer bond orders larger than 0.100000
B(  0-C ,  1-C ) :   1.8593 B(  0-C ,  2-C ) :   1.4630 B(  0-C ,  4-C ) :  -0.2368
B(  0-C ,  5-C ) :   0.2194 B(  0-C ,  6-C ) :   0.3430 B(  0-C ,  8-H ) :   0.2994
B(  0-C ,  9-H ) :   0.2416 B(  0-C , 10-H ) :   0.2492 B(  1-C ,  2-C ) :  -0.1234
B(  1-C ,  3-C ) :   1.7961 B(  1-C ,  4-C ) :   0.4832 B(  1-C ,  5-C ) :  -0.2792
B(  1-C ,  8-H ) :   0.1727 B(  1-C ,  9-H ) :   0.2554 B(  1-C , 10-H ) :  -0.1436
B(  2-C ,  4-C ) :   2.0331 B(  2-C ,  5-C ) :  -1.0343 B(  2-C ,  6-C ) :  -0.3420
B(  2-C ,  7-Cl) :   0.1204 B(  2-C ,  8-H ) :   0.2292 B(  2-C , 10-H ) :  -0.3120
B(  2-C , 14-H ) :  -0.1471 B(  3-C ,  4-C ) :  -0.5695 B(  3-C ,  5-C ) :   1.8450
B(  3-C ,  6-C ) :   0.1224 B(  3-C ,  7-Cl) :  -0.4004 B(  3-C ,  9-H ) :   0.2728
B(  3-C , 10-H ) :   0.1538 B(  4-C ,  5-C ) :   0.7686 B(  4-C ,  6-C ) :   1.4318
B(  4-C ,  7-Cl) :  -0.4339 B(  4-C , 10-H ) :   0.6670 B(  4-C , 12-H ) :   0.2044
B(  4-C , 13-H ) :   0.2044 B(  4-C , 14-H ) :   0.4307 B(  5-C ,  6-C ) :  -0.2837
B(  5-C ,  7-Cl) :   1.3539 B(  5-C , 10-H ) :  -0.1076 B(  5-C , 11-H ) :   0.6002
B(  6-C , 12-H ) :   0.8390 B(  6-C , 13-H ) :   0.8390 B(  6-C , 14-H ) :   0.6499

MP2 TOTAL ENERGY:     -729.799889265 Eh
FINAL SINGLE POINT ENERGY      -729.799889264721

DIPOLE MOMENT
-------------
                                X             Y             Z
Electronic contribution:     -1.11158       8.83219       0.00000
Nuclear contribution   :      1.38816      -9.48652       0.00000
                        -----------------------------------------
Total Dipole Moment    :      0.27658      -0.65433       0.00000
                        -----------------------------------------
Magnitude (a.u.)       :      0.71038
Magnitude (Debye)      :      1.80564

Rotational constants in cm-1:     0.095114     0.050790     0.033312
Rotational constants in MHz :  2851.459600  1522.638078   998.662890

                             ****ORCA TERMINATED NORMALLY****
TOTAL RUN TIME: 0 days 0 hours 0 minutes 55 seconds 88 msec
