                         Program Version 5.0.3 -  RELEASE  -
|  1> !ri-mp2 aug-cc-pvdz aug-cc-pvdz/c tightscf
|  2> %pal nprocs 16 end
|  3>
|  4> * xyz 0 1
|  5> H     -2.225998   -0.334426    0.000000
|  6> C     -1.153291   -0.397233    0.000000
|  7> C      0.000000    0.177369    0.000000
|  8> H      0.299785   -1.863186    0.910841
|  9> H      0.299785   -1.863186   -0.910841
| 10> C      0.031359   -1.328906    0.000000
| 11> H      1.501616    1.388241    0.877063
| 12> H      0.254349    2.293402    0.000000
| 13> H      1.501616    1.388241   -0.877063
| 14> C      0.850074    1.380589    0.000000
| 15> *
| 16>
| 17>                          ****END OF INPUT****

CARTESIAN COORDINATES (ANGSTROEM)
---------------------------------
  H     -2.225998   -0.334426    0.000000
  C     -1.153291   -0.397233    0.000000
  C      0.000000    0.177369    0.000000
  H      0.299785   -1.863186    0.910841
  H      0.299785   -1.863186   -0.910841
  C      0.031359   -1.328906    0.000000
  H      1.501616    1.388241    0.877063
  H      0.254349    2.293402    0.000000
  H      1.501616    1.388241   -0.877063
  C      0.850074    1.380589    0.000000

 Total Charge           Charge          ....    0
 Multiplicity           Mult            ....    1
 Number of Electrons    NEL             ....   30
 Basis Dimension        Dim             ....  146

ORBITAL ENERGIES
----------------

  NO   OCC          E(Eh)            E(eV)
   0   2.0000     -11.249230      -306.1071
   1   2.0000     -11.243017      -305.9380
   2   2.0000     -11.235988      -305.7468
   3   2.0000     -11.235405      -305.7309
   4   2.0000      -1.161001       -31.5924
   5   2.0000      -0.989194       -26.9173
   6   2.0000      -0.813741       -22.1430
   7   2.0000      -0.725332       -19.7373
   8   2.0000      -0.634200       -17.2575
   9   2.0000      -0.604084       -16.4380
  10   2.0000      -0.587523       -15.9873
  11   2.0000      -0.558367       -15.1939
  12   2.0000      -0.469813       -12.7843
  13   2.0000      -0.405051       -11.0220
  14   2.0000      -0.342686        -9.3250
  15   0.0000       0.036512         0.9936
  16   0.0000       0.043310         1.1785
  17   0.0000       0.049317         1.3420
  18   0.0000       0.052349         1.4245
  19   0.0000       0.070459         1.9173

MULLIKEN ATOMIC CHARGES
-----------------------
   0 H :   -0.393301
   1 C :    0.412347
   2 C :   -0.437390
   3 H :   -0.222474
   4 H :   -0.222474
   5 C :    0.628431
   6 H :    0.043347
   7 H :   -0.001331
   8 H :    0.043347
   9 C :    0.149497
Sum of atomic charges:   -0.0000000

LOEWDIN ATOMIC CHARGES
----------------------
   0 H :   -0.030234
   1 C :    0.107451
   2 C :   -0.203306
   3 H :   -0.030020
   4 H :   -0.030020
   5 C :    0.043568
   6 H :   -0.008370
   7 H :   -0.011797
   8 H :   -0.008370
   9 C :    0.171099

  Mayer bond orders larger than 0.100000
B(  0-H ,  1-C ) :   0.4664 B(  0-H ,  2-C ) :   0.2739 B(  0-H ,  9-C ) :   0.1506
B(  1-C ,  2-C ) :   1.8642 B(  1-C ,  5-C ) :   1.1067 B(  2-C ,  5-C ) :   1.0651
B(  2-C ,  6-H ) :   0.1434 B(  2-C ,  8-H ) :   0.1434 B(  2-C ,  9-C ) :   1.0843
B(  3-H ,  4-H ) :  -0.1408 B(  3-H ,  5-C ) :   0.8157 B(  4-H ,  5-C ) :   0.8157
B(  6-H ,  9-C ) :   0.8531 B(  7-H ,  9-C ) :   0.9144 B(  8-H ,  9-C ) :   0.8531

MP2 TOTAL ENERGY:     -155.445559071 Eh
FINAL SINGLE POINT ENERGY      -155.445559071047

DIPOLE MOMENT
-------------
                                X             Y             Z
Electronic contribution:     -1.63692      -0.69487       0.00000
Nuclear contribution   :      1.69901       1.05106       0.00000
                        -----------------------------------------
Total Dipole Moment    :      0.06208       0.35619       0.00000
                        -----------------------------------------
Magnitude (a.u.)       :      0.36156
Magnitude (Debye)      :      0.91902

Rotational constants in cm-1:     0.692299     0.212960     0.173678
Rotational constants in MHz : 20754.590498  6384.365399  5206.741531

                             ****ORCA TERMINATED NORMALLY****
TOTAL RUN TIME: 0 days 0 hours 0 minutes 36 seconds 595 msec
