                         Program Version 5.0.3 -  RELEASE  -
|  1> !ri-mp2 aug-cc-pvdz aug-cc-pvdz/c tightscf
|  2> %pal nprocs 16 end
|  3> %maxcore 3800
|  4>
|  5> * xyz 0 1
|  6> C     -6.348463   -0.676838    0.000000
|  7> C     -5.115500    0.225307    0.000000
|  8> C     -3.797980   -0.550892    0.000000
|  9> C     -2.557416    0.342637    0.000000
| 10> C     -1.240689   -0.434878    0.000000
| 11> C      0.000000    0.458845    0.000000
| 12> C      1.316086   -0.319402    0.000000
| 13> C      2.556349    0.575341    0.000000
| 14> C      3.868290   -0.209696    0.000000
| 15> C      5.092393    0.687237    0.000000
| 16> O      6.258306   -0.139839    0.000000
| 17> H     -6.364365   -1.322364    0.880634
| 18> H     -6.364365   -1.322364   -0.880634
| 19> H     -7.270587   -0.093915    0.000000
| 20> H     -5.145071    0.883042   -0.873992
| 21> H     -5.145071    0.883042    0.873992
| 22> H     -3.769111   -1.209699    0.874515
| 23> H     -3.769111   -1.209699   -0.874515
| 24> H     -2.587308    1.001155    0.874567
| 25> H     -2.587308    1.001155   -0.874567
| 26> H     -1.210788   -1.093366    0.874472
| 27> H     -1.210788   -1.093366   -0.874472
| 28> H     -0.029832    1.117282    0.874617
| 29> H     -0.029832    1.117282   -0.874617
| 30> H      1.346921   -0.977463   -0.874449
| 31> H      1.346921   -0.977463    0.874449
| 32> H      2.524211    1.232959    0.875019
| 33> H      2.524211    1.232959   -0.875019
| 34> H      3.914692   -0.861511    0.876340
| 35> H      3.914692   -0.861511   -0.876340
| 36> H      5.083448    1.333838    0.885549
| 37> H      5.083448    1.333838   -0.885549
| 38> H      7.040122    0.418909    0.000000
| 39> *
| 40>
| 41>                          ****END OF INPUT****

CARTESIAN COORDINATES (ANGSTROEM)
---------------------------------
  C     -6.348463   -0.676838    0.000000
  C     -5.115500    0.225307    0.000000
  C     -3.797980   -0.550892    0.000000
  C     -2.557416    0.342637    0.000000
  C     -1.240689   -0.434878    0.000000
  C      0.000000    0.458845    0.000000
  C      1.316086   -0.319402    0.000000
  C      2.556349    0.575341    0.000000
  C      3.868290   -0.209696    0.000000
  C      5.092393    0.687237    0.000000
  O      6.258306   -0.139839    0.000000
  H     -6.364365   -1.322364    0.880634
  H     -6.364365   -1.322364   -0.880634
  H     -7.270587   -0.093915    0.000000
  H     -5.145071    0.883042   -0.873992
  H     -5.145071    0.883042    0.873992
  H     -3.769111   -1.209699    0.874515
  H     -3.769111   -1.209699   -0.874515
  H     -2.587308    1.001155    0.874567
  H     -2.587308    1.001155   -0.874567
  H     -1.210788   -1.093366    0.874472
  H     -1.210788   -1.093366   -0.874472
  H     -0.029832    1.117282    0.874617
  H     -0.029832    1.117282   -0.874617
  H      1.346921   -0.977463   -0.874449
  H      1.346921   -0.977463    0.874449
  H      2.524211    1.232959    0.875019
  H      2.524211    1.232959   -0.875019
  H      3.914692   -0.861511    0.876340
  H      3.914692   -0.861511   -0.876340
  H      5.083448    1.333838    0.885549
  H      5.083448    1.333838   -0.885549
  H      7.040122    0.418909    0.000000

 Total Charge           Charge          ....    0
 Multiplicity           Mult            ....    1
 Number of Electrons    NEL             ....   90
 Basis Dimension        Dim             ....  451

ORBITAL ENERGIES
----------------

  NO   OCC          E(Eh)            E(eV)
   0   2.0000     -20.563283      -559.5554
   1   2.0000     -11.277885      -306.8869
   2   2.0000     -11.223040      -305.3944
   3   2.0000     -11.220259      -305.3188
   4   2.0000     -11.220071      -305.3137
   5   2.0000     -11.219360      -305.2943
   6   2.0000     -11.219082      -305.2868
   7   2.0000     -11.218489      -305.2706
   8   2.0000     -11.218030      -305.2581
   9   2.0000     -11.217557      -305.2453
  10   2.0000     -11.215551      -305.1907
  11   2.0000      -1.356073       -36.9006
  12   2.0000      -1.096183       -29.8286
  13   2.0000      -1.075758       -29.2729
  14   2.0000      -1.041404       -28.3380
  15   2.0000      -0.995222       -27.0814
  16   2.0000      -0.939856       -25.5748
  17   2.0000      -0.879795       -23.9404
  18   2.0000      -0.824954       -22.4482
  19   2.0000      -0.794622       -21.6228
  20   2.0000      -0.786535       -21.4027
  21   2.0000      -0.783692       -21.3253
  22   2.0000      -0.687698       -18.7132
  23   2.0000      -0.664409       -18.0795
  24   2.0000      -0.650364       -17.6973
  25   2.0000      -0.626194       -17.0396
  26   2.0000      -0.593300       -16.1445
  27   2.0000      -0.590954       -16.0807
  28   2.0000      -0.587797       -15.9948
  29   2.0000      -0.560497       -15.2519
  30   2.0000      -0.555231       -15.1086
  31   2.0000      -0.549030       -14.9399
  32   2.0000      -0.525598       -14.3023
  33   2.0000      -0.517388       -14.0788
  34   2.0000      -0.499344       -13.5878
  35   2.0000      -0.486353       -13.2343
  36   2.0000      -0.485844       -13.2205
  37   2.0000      -0.471893       -12.8408
  38   2.0000      -0.466491       -12.6939
  39   2.0000      -0.463685       -12.6175
  40   2.0000      -0.458375       -12.4730
  41   2.0000      -0.456467       -12.4211
  42   2.0000      -0.454899       -12.3784
  43   2.0000      -0.439503       -11.9595
  44   2.0000      -0.425785       -11.5862
  45   0.0000       0.034481         0.9383
  46   0.0000       0.037015         1.0072
  47   0.0000       0.043177         1.1749
  48   0.0000       0.043943         1.1957
  49   0.0000       0.045199         1.2299

MULLIKEN ATOMIC CHARGES
-----------------------
   0 C :    0.594946
   1 C :    0.551722
   2 C :    0.306338
   3 C :    0.345735
   4 C :    0.351087
   5 C :    0.273764
   6 C :    0.296988
   7 C :    0.376434
   8 C :    0.410157
   9 C :    1.380931
  10 O :   -0.769102
  11 H :   -0.095542
  12 H :   -0.095542
  13 H :   -0.078678
  14 H :   -0.192873
  15 H :   -0.192873
  16 H :   -0.231233
  17 H :   -0.231233
  18 H :   -0.248413
  19 H :   -0.248413
  20 H :   -0.241479
  21 H :   -0.241479
  22 H :   -0.245693
  23 H :   -0.245693
  24 H :   -0.251085
  25 H :   -0.251085
  26 H :   -0.228034
  27 H :   -0.228034
  28 H :   -0.154866
  29 H :   -0.154866
  30 H :   -0.205799
  31 H :   -0.205799
  32 H :    0.149710
Sum of atomic charges:    0.0000000

LOEWDIN ATOMIC CHARGES
----------------------
   0 C :    0.129663
   1 C :   -0.073457
   2 C :   -0.042430
   3 C :   -0.035288
   4 C :   -0.033516
   5 C :   -0.033650
   6 C :   -0.033330
   7 C :   -0.034779
   8 C :   -0.036626
   9 C :   -0.054441
  10 O :    0.109348
  11 H :   -0.020501
  12 H :   -0.020501
  13 H :   -0.022522
  14 H :    0.010562
  15 H :    0.010562
  16 H :    0.016088
  17 H :    0.016088
  18 H :    0.016592
  19 H :    0.016592
  20 H :    0.017046
  21 H :    0.017046
  22 H :    0.016854
  23 H :    0.016854
  24 H :    0.017675
  25 H :    0.017675
  26 H :    0.015790
  27 H :    0.015790
  28 H :    0.019138
  29 H :    0.019138
  30 H :    0.003806
  31 H :    0.003806
  32 H :   -0.065074

  Mayer bond orders larger than 0.100000
B(  0-C ,  1-C ) :   1.1889 B(  0-C , 11-H ) :   0.9000 B(  0-C , 12-H ) :   0.9000
B(  0-C , 13-H ) :   0.9151 B(  1-C ,  2-C ) :   1.2736 B(  1-C ,  3-C ) :  -0.1838
B(  1-C ,  4-C ) :  -0.1185 B(  1-C , 14-H ) :   0.6889 B(  1-C , 15-H ) :   0.6889
B(  2-C ,  3-C ) :   1.3497 B(  2-C ,  4-C ) :  -0.1739 B(  2-C ,  5-C ) :  -0.1481
B(  2-C ,  7-C ) :   0.1038 B(  2-C , 16-H ) :   0.6922 B(  2-C , 17-H ) :   0.6922
B(  3-C ,  4-C ) :   1.5398 B(  3-C ,  5-C ) :  -0.1738 B(  3-C ,  6-C ) :  -0.1112
B(  3-C , 18-H ) :   0.6832 B(  3-C , 19-H ) :   0.6832 B(  4-C ,  5-C ) :   1.5377
B(  4-C ,  6-C ) :  -0.1684 B(  4-C ,  7-C ) :  -0.1410 B(  4-C , 20-H ) :   0.6469
B(  4-C , 21-H ) :   0.6469 B(  5-C ,  6-C ) :   1.5661 B(  5-C ,  7-C ) :  -0.1788
B(  5-C ,  8-C ) :  -0.1025 B(  5-C , 22-H ) :   0.6477 B(  5-C , 23-H ) :   0.6477
B(  6-C ,  7-C ) :   1.4142 B(  6-C ,  8-C ) :  -0.1413 B(  6-C , 24-H ) :   0.6788
B(  6-C , 25-H ) :   0.6788 B(  7-C ,  8-C ) :   1.2468 B(  7-C ,  9-C ) :  -0.1608
B(  7-C , 26-H ) :   0.6808 B(  7-C , 27-H ) :   0.6808 B(  8-C ,  9-C ) :   1.3051
B(  8-C , 28-H ) :   0.7590 B(  8-C , 29-H ) :   0.7590 B(  9-C , 10-O ) :   0.5563
B(  9-C , 30-H ) :   0.7627 B(  9-C , 31-H ) :   0.7627 B(  9-C , 32-H ) :  -0.1041
B( 10-O , 32-H ) :   1.1155

MP2 TOTAL ENERGY:     -468.113719346 Eh
FINAL SINGLE POINT ENERGY      -468.113719345754

DIPOLE MOMENT
-------------
                                X             Y             Z
Electronic contribution:     13.38069       0.08971      -0.00000
Nuclear contribution   :    -13.46170       0.56654       0.00000
                        -----------------------------------------
Total Dipole Moment    :     -0.08101       0.65625      -0.00000
                        -----------------------------------------
Magnitude (a.u.)       :      0.66123
Magnitude (Debye)      :      1.68072

Rotational constants in cm-1:     0.267259     0.006270     0.006196
Rotational constants in MHz :  8012.217886   187.978105   185.759793

                             ****ORCA TERMINATED NORMALLY****
TOTAL RUN TIME: 0 days 0 hours 2 minutes 59 seconds 496 msec
