                         Program Version 5.0.3 -  RELEASE  -
|  1> !ri-mp2 aug-cc-pvdz aug-cc-pvdz/c tightscf
|  2> %pal nprocs 16 end
|  3>
|  4> * xyz 0 1
|  5> C      2.920911   -0.389382    0.000288
|  6> H      2.911727   -0.857297    0.984172
|  7> H      3.712820    0.363693   -0.014052
|  8> H      3.197836   -1.147075   -0.737175
|  9> C      0.524673    0.206787    0.450874
| 10> H      1.523663    0.702405   -1.305710
| 11> C      1.597085    0.217659   -0.335522
| 12> H     -1.130829    1.516651    0.856898
| 13> H     -0.715930    1.362140   -0.864008
| 14> C     -0.765272    0.842040    0.087533
| 15> Cl    -2.101674   -0.407151   -0.091662
| 16> H      0.564791   -0.281572    1.419098
| 17> *
| 18>
| 19>                          ****END OF INPUT****

CARTESIAN COORDINATES (ANGSTROEM)
---------------------------------
  C      2.920911   -0.389382    0.000288
  H      2.911727   -0.857297    0.984172
  H      3.712820    0.363693   -0.014052
  H      3.197836   -1.147075   -0.737175
  C      0.524673    0.206787    0.450874
  H      1.523663    0.702405   -1.305710
  C      1.597085    0.217659   -0.335522
  H     -1.130829    1.516651    0.856898
  H     -0.715930    1.362140   -0.864008
  C     -0.765272    0.842040    0.087533
  Cl    -2.101674   -0.407151   -0.091662
  H      0.564791   -0.281572    1.419098

 Total Charge           Charge          ....    0
 Multiplicity           Mult            ....    1
 Number of Electrons    NEL             ....   48
 Basis Dimension        Dim             ....  182

ORBITAL ENERGIES
----------------

  NO   OCC          E(Eh)            E(eV)
   0   2.0000    -104.814789     -2852.1554
   1   2.0000     -11.305226      -307.6308
   2   2.0000     -11.254251      -306.2437
   3   2.0000     -11.245852      -306.0152
   4   2.0000     -11.238755      -305.8221
   5   2.0000     -10.540529      -286.8224
   6   2.0000      -8.008058      -217.9103
   7   2.0000      -8.005021      -217.8277
   8   2.0000      -8.004957      -217.8260
   9   2.0000      -1.136795       -30.9338
  10   2.0000      -1.076336       -29.2886
  11   2.0000      -0.978275       -26.6202
  12   2.0000      -0.878098       -23.8943
  13   2.0000      -0.769970       -20.9520
  14   2.0000      -0.645479       -17.5644
  15   2.0000      -0.641490       -17.4558
  16   2.0000      -0.581398       -15.8206
  17   2.0000      -0.570242       -15.5171
  18   2.0000      -0.548314       -14.9204
  19   2.0000      -0.527276       -14.3479
  20   2.0000      -0.509425       -13.8622
  21   2.0000      -0.433419       -11.7939
  22   2.0000      -0.428809       -11.6685
  23   2.0000      -0.364461        -9.9175
  24   0.0000       0.034420         0.9366
  25   0.0000       0.043491         1.1834
  26   0.0000       0.045468         1.2372
  27   0.0000       0.055836         1.5194
  28   0.0000       0.064760         1.7622

MULLIKEN ATOMIC CHARGES
-----------------------
   0 C :    0.162326
   1 H :   -0.125550
   2 H :    0.059358
   3 H :    0.061419
   4 C :    0.751996
   5 H :   -0.448650
   6 C :    0.226188
   7 H :    0.029133
   8 H :   -0.073540
   9 C :   -0.082933
  10 Cl:   -0.165562
  11 H :   -0.394184
Sum of atomic charges:   -0.0000000

LOEWDIN ATOMIC CHARGES
----------------------
   0 C :    0.138813
   1 H :   -0.016454
   2 H :   -0.015511
   3 H :   -0.014171
   4 C :   -0.089280
   5 H :    0.001754
   6 C :   -0.044050
   7 H :   -0.034300
   8 H :   -0.032760
   9 C :   -0.299364
  10 Cl:    0.406172
  11 H :   -0.000848

  Mayer bond orders larger than 0.100000
B(  0-C ,  1-H ) :   0.9615 B(  0-C ,  2-H ) :   0.8944 B(  0-C ,  3-H ) :   0.8980
B(  0-C ,  6-C ) :   1.2055 B(  4-C ,  6-C ) :   1.9910 B(  4-C ,  9-C ) :   0.9983
B(  4-C , 10-Cl) :  -0.1994 B(  4-C , 11-H ) :   0.7371 B(  5-H ,  6-C ) :   0.6697
B(  7-H ,  9-C ) :   0.9770 B(  8-H ,  9-C ) :   0.9813 B(  9-C , 10-Cl) :   1.1672
B(  9-C , 11-H ) :  -0.1133

MP2 TOTAL ENERGY:     -615.775049507 Eh
FINAL SINGLE POINT ENERGY      -615.775049506863

DIPOLE MOMENT
-------------
                                X             Y             Z
Electronic contribution:    -12.04038      -1.69239      -0.43187
Nuclear contribution   :     13.01232       2.23140       0.46825
                        -----------------------------------------
Total Dipole Moment    :      0.97194       0.53901       0.03638
                        -----------------------------------------
Magnitude (a.u.)       :      1.11199
Magnitude (Debye)      :      2.82645

Rotational constants in cm-1:     0.482032     0.048663     0.046863
Rotational constants in MHz : 14450.968875  1458.875176  1404.906158

                             ****ORCA TERMINATED NORMALLY****
TOTAL RUN TIME: 0 days 0 hours 0 minutes 35 seconds 975 msec
