                         Program Version 5.0.3 -  RELEASE  -
|  1> !ri-mp2 aug-cc-pvdz aug-cc-pvdz/c tightscf
|  2> %pal nprocs 16 end
|  3>
|  4> * xyz 0 1
|  5> S     -2.422026    1.676358    0.000000
|  6> H     -3.662177    1.155548    0.000000
|  7> C     -1.499663    0.079993    0.000000
|  8> H     -1.784672   -0.487365    0.884633
|  9> H     -1.784672   -0.487365   -0.884633
| 10> C      0.000000    0.354619    0.000000
| 11> H      0.257208    0.956252   -0.876062
| 12> H      0.257208    0.956252    0.876062
| 13> C      0.830343   -0.930799    0.000000
| 14> H      0.566953   -1.533496    0.875311
| 15> H      0.566953   -1.533496   -0.875311
| 16> C      2.338563   -0.676984    0.000000
| 17> H      2.601518   -0.074233    0.874144
| 18> H      2.601518   -0.074233   -0.874144
| 19> C      3.164445   -1.962117    0.000000
| 20> H      2.948285   -2.570045    0.880892
| 21> H      2.948285   -2.570045   -0.880892
| 22> H      4.233868   -1.747784    0.000000
| 23> *
| 24>
| 25>                          ****END OF INPUT****

CARTESIAN COORDINATES (ANGSTROEM)
---------------------------------
  S     -2.422026    1.676358    0.000000
  H     -3.662177    1.155548    0.000000
  C     -1.499663    0.079993    0.000000
  H     -1.784672   -0.487365    0.884633
  H     -1.784672   -0.487365   -0.884633
  C      0.000000    0.354619    0.000000
  H      0.257208    0.956252   -0.876062
  H      0.257208    0.956252    0.876062
  C      0.830343   -0.930799    0.000000
  H      0.566953   -1.533496    0.875311
  H      0.566953   -1.533496   -0.875311
  C      2.338563   -0.676984    0.000000
  H      2.601518   -0.074233    0.874144
  H      2.601518   -0.074233   -0.874144
  C      3.164445   -1.962117    0.000000
  H      2.948285   -2.570045    0.880892
  H      2.948285   -2.570045   -0.880892
  H      4.233868   -1.747784    0.000000

 Total Charge           Charge          ....    0
 Multiplicity           Mult            ....    1
 Number of Electrons    NEL             ....   58
 Basis Dimension        Dim             ....  250

ORBITAL ENERGIES
----------------

  NO   OCC          E(Eh)            E(eV)
   0   2.0000     -91.950563     -2502.1020
   1   2.0000     -11.265842      -306.5592
   2   2.0000     -11.234775      -305.7138
   3   2.0000     -11.229473      -305.5695
   4   2.0000     -11.227578      -305.5179
   5   2.0000     -11.221162      -305.3433
   6   2.0000      -8.952065      -243.5981
   7   2.0000      -6.634185      -180.5254
   8   2.0000      -6.632813      -180.4880
   9   2.0000      -6.630707      -180.4307
  10   2.0000      -1.099335       -29.9144
  11   2.0000      -1.046940       -28.4887
  12   2.0000      -0.972003       -26.4495
  13   2.0000      -0.887838       -24.1593
  14   2.0000      -0.812165       -22.1001
  15   2.0000      -0.796923       -21.6854
  16   2.0000      -0.661008       -17.9869
  17   2.0000      -0.612575       -16.6690
  18   2.0000      -0.605247       -16.4696
  19   2.0000      -0.578787       -15.7496
  20   2.0000      -0.546381       -14.8678
  21   2.0000      -0.541546       -14.7362
  22   2.0000      -0.518368       -14.1055
  23   2.0000      -0.490981       -13.3603
  24   2.0000      -0.474685       -12.9168
  25   2.0000      -0.468368       -12.7449
  26   2.0000      -0.460863       -12.5407
  27   2.0000      -0.439957       -11.9719
  28   2.0000      -0.352654        -9.5962
  29   0.0000       0.035966         0.9787
  30   0.0000       0.039503         1.0749
  31   0.0000       0.046340         1.2610
  32   0.0000       0.046735         1.2717
  33   0.0000       0.057780         1.5723

MULLIKEN ATOMIC CHARGES
-----------------------
   0 S :    0.296984
   1 H :    0.072980
   2 C :    0.149495
   3 H :   -0.180054
   4 H :   -0.180054
   5 C :    0.280848
   6 H :   -0.172541
   7 H :   -0.172541
   8 C :    0.118547
   9 H :   -0.219600
  10 H :   -0.219600
  11 C :    0.320934
  12 H :   -0.174039
  13 H :   -0.174039
  14 C :    0.498427
  15 H :   -0.086631
  16 H :   -0.086631
  17 H :   -0.072485
Sum of atomic charges:   -0.0000000

LOEWDIN ATOMIC CHARGES
----------------------
   0 S :    0.703641
   1 H :   -0.236516
   2 C :   -0.314706
   3 H :   -0.034075
   4 H :   -0.034075
   5 C :   -0.110687
   6 H :    0.009420
   7 H :    0.009420
   8 C :   -0.046321
   9 H :    0.016009
  10 H :    0.016009
  11 C :   -0.072030
  12 H :    0.011759
  13 H :    0.011759
  14 C :    0.131677
  15 H :   -0.019933
  16 H :   -0.019933
  17 H :   -0.021419

  Mayer bond orders larger than 0.100000
B(  0-S ,  1-H ) :   0.9685 B(  0-S ,  2-C ) :   1.2370 B(  0-S ,  3-H ) :  -0.1032
B(  0-S ,  4-H ) :  -0.1032 B(  0-S ,  5-C ) :  -0.1716 B(  2-C ,  3-H ) :   0.8932
B(  2-C ,  4-H ) :   0.8932 B(  2-C ,  5-C ) :   1.2451 B(  3-H ,  5-C ) :   0.1280
B(  4-H ,  5-C ) :   0.1280 B(  5-C ,  6-H ) :   0.8115 B(  5-C ,  7-H ) :   0.8115
B(  5-C ,  8-C ) :   1.3143 B(  8-C ,  9-H ) :   0.7954 B(  8-C , 10-H ) :   0.7954
B(  8-C , 11-C ) :   1.2425 B( 11-C , 12-H ) :   0.7684 B( 11-C , 13-H ) :   0.7684
B( 11-C , 14-C ) :   1.1734 B( 14-C , 15-H ) :   0.9230 B( 14-C , 16-H ) :   0.9230
B( 14-C , 17-H ) :   0.9115

MP2 TOTAL ENERGY:     -594.784649320 Eh
FINAL SINGLE POINT ENERGY      -594.784649319747

DIPOLE MOMENT
-------------
                                X             Y             Z
Electronic contribution:    -10.08365       7.70969       0.00000
Nuclear contribution   :     10.26975      -8.42666       0.00000
                        -----------------------------------------
Total Dipole Moment    :      0.18610      -0.71697       0.00000
                        -----------------------------------------
Magnitude (a.u.)       :      0.74073
Magnitude (Debye)      :      1.88277

Rotational constants in cm-1:     0.479168     0.026474     0.025682
Rotational constants in MHz : 14365.108929   793.661032   769.923435

                             ****ORCA TERMINATED NORMALLY****
TOTAL RUN TIME: 0 days 0 hours 0 minutes 49 seconds 693 msec
