                         Program Version 5.0.3 -  RELEASE  -
|  1> !ri-mp2 aug-cc-pvdz aug-cc-pvdz/c tightscf
|  2> %pal nprocs 16 end
|  3>
|  4> * xyz 0 1
|  5> C     -1.818641   -0.717279    0.144096
|  6> C     -1.150092    0.559242   -0.358350
|  7> C      0.172758    0.883165    0.310034
|  8> Cl     1.464599   -0.345613   -0.067396
|  9> H     -2.003786   -0.667711    1.219027
| 10> H     -2.776988   -0.872261   -0.351812
| 11> H     -1.195361   -1.589705   -0.048379
| 12> H     -1.001591    0.509688   -1.438752
| 13> H     -1.806916    1.416179   -0.174399
| 14> H      0.089223    0.894421    1.394122
| 15> H      0.573090    1.834040   -0.028754
| 16> *
| 17>
| 18>                          ****END OF INPUT****

CARTESIAN COORDINATES (ANGSTROEM)
---------------------------------
  C     -1.818641   -0.717279    0.144096
  C     -1.150092    0.559242   -0.358350
  C      0.172758    0.883165    0.310034
  Cl     1.464599   -0.345613   -0.067396
  H     -2.003786   -0.667711    1.219027
  H     -2.776988   -0.872261   -0.351812
  H     -1.195361   -1.589705   -0.048379
  H     -1.001591    0.509688   -1.438752
  H     -1.806916    1.416179   -0.174399
  H      0.089223    0.894421    1.394122
  H      0.573090    1.834040   -0.028754

 Total Charge           Charge          ....    0
 Multiplicity           Mult            ....    1
 Number of Electrons    NEL             ....   42
 Basis Dimension        Dim             ....  159

ORBITAL ENERGIES
----------------

  NO   OCC          E(Eh)            E(eV)
   0   2.0000    -104.815528     -2852.1755
   1   2.0000     -11.300157      -307.4929
   2   2.0000     -11.245559      -306.0072
   3   2.0000     -11.226704      -305.4941
   4   2.0000     -10.541536      -286.8498
   5   2.0000      -8.009104      -217.9388
   6   2.0000      -8.006102      -217.8571
   7   2.0000      -8.006036      -217.8553
   8   2.0000      -1.134419       -30.8691
   9   2.0000      -1.040182       -28.3048
  10   2.0000      -0.923572       -25.1317
  11   2.0000      -0.809831       -22.0366
  12   2.0000      -0.647288       -17.6136
  13   2.0000      -0.633287       -17.2326
  14   2.0000      -0.586381       -15.9562
  15   2.0000      -0.540290       -14.7020
  16   2.0000      -0.515761       -14.0346
  17   2.0000      -0.502534       -13.6746
  18   2.0000      -0.483325       -13.1519
  19   2.0000      -0.429418       -11.6851
  20   2.0000      -0.428258       -11.6535
  21   0.0000       0.034433         0.9370
  22   0.0000       0.045341         1.2338
  23   0.0000       0.047803         1.3008
  24   0.0000       0.056149         1.5279
  25   0.0000       0.070777         1.9259

MULLIKEN ATOMIC CHARGES
-----------------------
   0 C :    0.391585
   1 C :    0.123000
   2 C :   -0.046297
   3 Cl:   -0.166177
   4 H :   -0.068967
   5 H :   -0.079243
   6 H :   -0.047329
   7 H :   -0.093552
   8 H :   -0.057338
   9 H :    0.024890
  10 H :    0.019427
Sum of atomic charges:   -0.0000000

LOEWDIN ATOMIC CHARGES
----------------------
   0 C :    0.122224
   1 C :   -0.136124
   2 C :   -0.305865
   3 Cl:    0.432762
   4 H :   -0.019022
   5 H :   -0.019893
   6 H :   -0.031871
   7 H :    0.009351
   8 H :    0.014205
   9 H :   -0.031985
  10 H :   -0.033781

  Mayer bond orders larger than 0.100000
B(  0-C ,  1-C ) :   1.2556 B(  0-C ,  4-H ) :   0.9437 B(  0-C ,  5-H ) :   0.8987
B(  0-C ,  6-H ) :   0.9491 B(  1-C ,  2-C ) :   1.2776 B(  1-C ,  3-Cl) :  -0.1054
B(  1-C ,  7-H ) :   0.8661 B(  1-C ,  8-H ) :   0.8287 B(  1-C , 10-H ) :   0.1062
B(  2-C ,  3-Cl) :   1.1488 B(  2-C ,  9-H ) :   0.9192 B(  2-C , 10-H ) :   0.8725

MP2 TOTAL ENERGY:     -577.804282315 Eh
FINAL SINGLE POINT ENERGY      -577.804282314745

DIPOLE MOMENT
-------------
                                X             Y             Z
Electronic contribution:      9.49634      -1.45211      -0.53356
Nuclear contribution   :    -10.26151       2.02777       0.67034
                        -----------------------------------------
Total Dipole Moment    :     -0.76518       0.57566       0.13678
                        -----------------------------------------
Magnitude (a.u.)       :      0.96726
Magnitude (Debye)      :      2.45858

Rotational constants in cm-1:     0.397739     0.106991     0.092449
Rotational constants in MHz : 11923.912383  3207.499953  2771.555578

                             ****ORCA TERMINATED NORMALLY****
TOTAL RUN TIME: 0 days 0 hours 0 minutes 38 seconds 164 msec
