                         Program Version 5.0.3 -  RELEASE  -
|  1> !ri-mp2 aug-cc-pvdz aug-cc-pvdz/c tightscf
|  2> %pal nprocs 16 end
|  3>
|  4> * xyz 0 1
|  5> C      0.396763   -0.849410    1.557707
|  6> C     -1.307595    1.844297   -0.284042
|  7> C     -1.397054   -1.675296   -0.631754
|  8> C      2.299456    0.075180   -0.646213
|  9> C      0.083784   -0.016254    0.319117
| 10> O     -0.932476    0.864857    0.686795
| 11> O     -0.287293   -0.804780   -0.801289
| 12> O      1.175176    0.756275   -0.102867
| 13> H      1.120921   -1.627964    1.326124
| 14> H      0.801114   -0.194836    2.326325
| 15> H     -0.507613   -1.314379    1.943099
| 16> H     -0.521991    2.587274   -0.415187
| 17> H     -2.202110    2.321102    0.109521
| 18> H     -1.531943    1.383740   -1.247020
| 19> H     -1.666306   -2.024172   -1.626421
| 20> H     -2.250042   -1.156136   -0.190361
| 21> H     -1.144456   -2.540690   -0.013310
| 22> H      2.776750   -0.573021    0.093646
| 23> H      3.004868    0.850810   -0.935557
| 24> H      2.025435   -0.513636   -1.520874
| 25> *
| 26>
| 27>                          ****END OF INPUT****

CARTESIAN COORDINATES (ANGSTROEM)
---------------------------------
  C      0.396763   -0.849410    1.557707
  C     -1.307595    1.844297   -0.284042
  C     -1.397054   -1.675296   -0.631754
  C      2.299456    0.075180   -0.646213
  C      0.083784   -0.016254    0.319117
  O     -0.932476    0.864857    0.686795
  O     -0.287293   -0.804780   -0.801289
  O      1.175176    0.756275   -0.102867
  H      1.120921   -1.627964    1.326124
  H      0.801114   -0.194836    2.326325
  H     -0.507613   -1.314379    1.943099
  H     -0.521991    2.587274   -0.415187
  H     -2.202110    2.321102    0.109521
  H     -1.531943    1.383740   -1.247020
  H     -1.666306   -2.024172   -1.626421
  H     -2.250042   -1.156136   -0.190361
  H     -1.144456   -2.540690   -0.013310
  H      2.776750   -0.573021    0.093646
  H      3.004868    0.850810   -0.935557
  H      2.025435   -0.513636   -1.520874

 Total Charge           Charge          ....    0
 Multiplicity           Mult            ....    1
 Number of Electrons    NEL             ....   66
 Basis Dimension        Dim             ....  292

ORBITAL ENERGIES
----------------

  NO   OCC          E(Eh)            E(eV)
   0   2.0000     -20.569746      -559.7313
   1   2.0000     -20.567499      -559.6701
   2   2.0000     -20.567437      -559.6684
   3   2.0000     -11.393274      -310.0267
   4   2.0000     -11.279437      -306.9291
   5   2.0000     -11.274843      -306.8041
   6   2.0000     -11.268039      -306.6189
   7   2.0000     -11.223605      -305.4098
   8   2.0000      -1.452721       -39.5306
   9   2.0000      -1.348051       -36.6823
  10   2.0000      -1.347188       -36.6588
  11   2.0000      -1.025564       -27.9070
  12   2.0000      -0.952508       -25.9191
  13   2.0000      -0.929932       -25.3047
  14   2.0000      -0.918801       -25.0019
  15   2.0000      -0.780075       -21.2269
  16   2.0000      -0.707687       -19.2572
  17   2.0000      -0.703324       -19.1384
  18   2.0000      -0.677292       -18.4301
  19   2.0000      -0.637765       -17.3545
  20   2.0000      -0.621631       -16.9154
  21   2.0000      -0.598057       -16.2739
  22   2.0000      -0.584126       -15.8949
  23   2.0000      -0.577589       -15.7170
  24   2.0000      -0.560758       -15.2590
  25   2.0000      -0.549794       -14.9607
  26   2.0000      -0.534643       -14.5484
  27   2.0000      -0.516617       -14.0579
  28   2.0000      -0.489012       -13.3067
  29   2.0000      -0.475457       -12.9378
  30   2.0000      -0.445238       -12.1155
  31   2.0000      -0.439358       -11.9555
  32   2.0000      -0.427712       -11.6386
  33   0.0000       0.036029         0.9804
  34   0.0000       0.044648         1.2149
  35   0.0000       0.046012         1.2520
  36   0.0000       0.048306         1.3145
  37   0.0000       0.062575         1.7028

MULLIKEN ATOMIC CHARGES
-----------------------
   0 C :    0.749432
   1 C :    0.835397
   2 C :    0.987984
   3 C :    0.866620
   4 C :    1.145864
   5 O :   -1.024100
   6 O :   -1.057948
   7 O :   -1.079717
   8 H :   -0.017014
   9 H :   -0.045640
  10 H :   -0.069892
  11 H :   -0.067163
  12 H :   -0.243189
  13 H :   -0.065964
  14 H :   -0.260556
  15 H :   -0.058305
  16 H :   -0.136762
  17 H :   -0.134913
  18 H :   -0.240688
  19 H :   -0.083447
Sum of atomic charges:    0.0000000

LOEWDIN ATOMIC CHARGES
----------------------
   0 C :    0.195055
   1 C :    0.160229
   2 C :    0.146204
   3 C :    0.155477
   4 C :   -0.469794
   5 O :    0.024252
   6 O :    0.013733
   7 O :    0.028985
   8 H :   -0.010927
   9 H :    0.000632
  10 H :   -0.014064
  11 H :   -0.026943
  12 H :   -0.027491
  13 H :   -0.022984
  14 H :   -0.024473
  15 H :   -0.019517
  16 H :   -0.026498
  17 H :   -0.028430
  18 H :   -0.026039
  19 H :   -0.027405

  Mayer bond orders larger than 0.100000
B(  0-C ,  4-C ) :   1.3818 B(  0-C ,  8-H ) :   0.7613 B(  0-C ,  9-H ) :   0.8610
B(  0-C , 10-H ) :   0.8083 B(  0-C , 17-H ) :  -0.1068 B(  1-C ,  5-O ) :   0.7578
B(  1-C , 11-H ) :   0.9434 B(  1-C , 12-H ) :   0.9942 B(  1-C , 13-H ) :   0.9310
B(  2-C ,  6-O ) :   0.7517 B(  2-C , 14-H ) :   0.9828 B(  2-C , 15-H ) :   0.9367
B(  2-C , 16-H ) :   0.9140 B(  3-C ,  7-O ) :   0.7376 B(  3-C , 17-H ) :   0.9678
B(  3-C , 18-H ) :   0.9858 B(  3-C , 19-H ) :   0.9692 B(  4-C ,  5-O ) :   0.1540
B(  4-C ,  8-H ) :   0.1744 B(  4-C ,  9-H ) :   0.1175 B(  4-C , 10-H ) :   0.2221
B(  4-C , 16-H ) :   0.1273 B(  4-C , 17-H ) :   0.1601 B( 11-H , 12-H ) :  -0.1045
B( 14-H , 15-H ) :  -0.1047 B( 14-H , 16-H ) :  -0.1060 B( 18-H , 19-H ) :  -0.1038

MP2 TOTAL ENERGY:     -422.280307666 Eh
FINAL SINGLE POINT ENERGY      -422.280307665589

DIPOLE MOMENT
-------------
                                X             Y             Z
Electronic contribution:      0.07611       2.33594       0.03443
Nuclear contribution   :     -0.09912      -2.87736      -0.15830
                        -----------------------------------------
Total Dipole Moment    :     -0.02301      -0.54142      -0.12387
                        -----------------------------------------
Magnitude (a.u.)       :      0.55589
Magnitude (Debye)      :      1.41296

Rotational constants in cm-1:     0.075130     0.063773     0.050533
Rotational constants in MHz :  2252.332163  1911.871430  1514.956053

                             ****ORCA TERMINATED NORMALLY****
TOTAL RUN TIME: 0 days 0 hours 1 minutes 18 seconds 246 msec
