                         Program Version 5.0.3 -  RELEASE  -
|  1> !ri-mp2 aug-cc-pvdz aug-cc-pvdz/c tightscf
|  2> %pal nprocs 16 end
|  3>
|  4> * xyz 0 1
|  5> C     0.000000     1.297147    0.000000
|  6> C     0.000000     0.000000    0.783698
|  7> C     0.000000     0.000000   -0.783698
|  8> C    -1.123362    -0.648574    0.000000
|  9> C     1.123362    -0.648574    0.000000
| 10> H     0.913369     1.877008    0.000000
| 11> H    -0.913369     1.877008    0.000000
| 12> H    -2.082221    -0.147503    0.000000
| 13> H    -1.168852    -1.729505    0.000000
| 14> H     2.082221    -0.147503    0.000000
| 15> H     1.168852    -1.729505    0.000000
| 16> *
| 17>
| 18>                          ****END OF INPUT****

CARTESIAN COORDINATES (ANGSTROEM)
---------------------------------
  C      0.000000    1.297147    0.000000
  C      0.000000    0.000000    0.783698
  C      0.000000    0.000000   -0.783698
  C     -1.123362   -0.648574    0.000000
  C      1.123362   -0.648574    0.000000
  H      0.913369    1.877008    0.000000
  H     -0.913369    1.877008    0.000000
  H     -2.082221   -0.147503    0.000000
  H     -1.168852   -1.729505    0.000000
  H      2.082221   -0.147503    0.000000
  H      1.168852   -1.729505    0.000000

 Total Charge           Charge          ....    0
 Multiplicity           Mult            ....    1
 Number of Electrons    NEL             ....   36
 Basis Dimension        Dim             ....  169

ORBITAL ENERGIES
----------------

  NO   OCC          E(Eh)            E(eV)
   0   2.0000     -11.264980      -306.5357
   1   2.0000     -11.264228      -306.5152
   2   2.0000     -11.264227      -306.5152
   3   2.0000     -11.263607      -306.4983
   4   2.0000     -11.263385      -306.4923
   5   2.0000      -1.284180       -34.9443
   6   2.0000      -0.949847       -25.8466
   7   2.0000      -0.949847       -25.8466
   8   2.0000      -0.774779       -21.0828
   9   2.0000      -0.731572       -19.9071
  10   2.0000      -0.653059       -17.7706
  11   2.0000      -0.653059       -17.7706
  12   2.0000      -0.540754       -14.7147
  13   2.0000      -0.517646       -14.0859
  14   2.0000      -0.517646       -14.0859
  15   2.0000      -0.443358       -12.0644
  16   2.0000      -0.443358       -12.0644
  17   2.0000      -0.366799        -9.9811
  18   0.0000       0.038253         1.0409
  19   0.0000       0.045037         1.2255
  20   0.0000       0.045037         1.2255
  21   0.0000       0.066253         1.8028
  22   0.0000       0.066253         1.8028

MULLIKEN ATOMIC CHARGES
-----------------------
   0 C :    0.912258
   1 C :   -0.531238
   2 C :   -0.531238
   3 C :    0.912258
   4 C :    0.912258
   5 H :   -0.279050
   6 H :   -0.279050
   7 H :   -0.279049
   8 H :   -0.279051
   9 H :   -0.279049
  10 H :   -0.279051
Sum of atomic charges:    0.0000000

LOEWDIN ATOMIC CHARGES
----------------------
   0 C :    0.074693
   1 C :   -0.119737
   2 C :   -0.119737
   3 C :    0.074692
   4 C :    0.074692
   5 H :    0.002566
   6 H :    0.002566
   7 H :    0.002566
   8 H :    0.002566
   9 H :    0.002566
  10 H :    0.002566

  Mayer bond orders larger than 0.100000
B(  0-C ,  1-C ) :   0.9796 B(  0-C ,  2-C ) :   0.9796 B(  0-C ,  5-H ) :   0.8045
B(  0-C ,  6-H ) :   0.8045 B(  1-C ,  2-C ) :   0.4946 B(  1-C ,  3-C ) :   0.9796
B(  1-C ,  4-C ) :   0.9796 B(  2-C ,  3-C ) :   0.9796 B(  2-C ,  4-C ) :   0.9796
B(  3-C ,  7-H ) :   0.8045 B(  3-C ,  8-H ) :   0.8045 B(  4-C ,  9-H ) :   0.8045
B(  4-C , 10-H ) :   0.8045 B(  5-H ,  6-H ) :  -0.2542 B(  7-H ,  8-H ) :  -0.2542
B(  9-H , 10-H ) :  -0.2542

MP2 TOTAL ENERGY:     -193.424533656 Eh
FINAL SINGLE POINT ENERGY      -193.424533656274

DIPOLE MOMENT
-------------
                                X             Y             Z
Electronic contribution:      0.00000      -0.00000       0.00000
Nuclear contribution   :      0.00000       0.00000       0.00000
                        -----------------------------------------
Total Dipole Moment    :      0.00000       0.00000       0.00000
                        -----------------------------------------
Magnitude (a.u.)       :      0.00000
Magnitude (Debye)      :      0.00000

Rotational constants in cm-1:     0.289426     0.289426     0.193805
Rotational constants in MHz :  8676.779829  8676.775015  5810.138479

                             ****ORCA TERMINATED NORMALLY****
TOTAL RUN TIME: 0 days 0 hours 0 minutes 29 seconds 491 msec
