                         Program Version 5.0.3 -  RELEASE  -
|  1> !ri-mp2 aug-cc-pvdz aug-cc-pvdz/c tightscf
|  2> %pal nprocs 16 end
|  3>
|  4> * xyz 0 1
|  5> S      1.614785   -1.191862    0.001186
|  6> S     -3.692874   -0.024363   -0.096618
|  7> N      2.742645    1.118425   -0.006729
|  8> C      0.591906    0.228939    0.007977
|  9> C      1.399557    1.341512    0.002099
| 10> C      3.000380   -0.156035   -0.008147
| 11> C     -0.807791    0.156773    0.016980
| 12> C     -2.014959    0.076694    0.041513
| 13> H      1.022687    2.352845    0.003954
| 14> H      3.998149   -0.568105   -0.014777
| 15> H     -3.984497   -0.041414    1.222310
| 16> *
| 17>
| 18>                          ****END OF INPUT****

CARTESIAN COORDINATES (ANGSTROEM)
---------------------------------
  S      1.614785   -1.191862    0.001186
  S     -3.692874   -0.024363   -0.096618
  N      2.742645    1.118425   -0.006729
  C      0.591906    0.228939    0.007977
  C      1.399557    1.341512    0.002099
  C      3.000380   -0.156035   -0.008147
  C     -0.807791    0.156773    0.016980
  C     -2.014959    0.076694    0.041513
  H      1.022687    2.352845    0.003954
  H      3.998149   -0.568105   -0.014777
  H     -3.984497   -0.041414    1.222310

 Total Charge           Charge          ....    0
 Multiplicity           Mult            ....    1
 Number of Electrons    NEL             ....   72
 Basis Dimension        Dim             ....  219

ORBITAL ENERGIES
----------------

  NO   OCC          E(Eh)            E(eV)
   0   2.0000     -92.011615     -2503.7633
   1   2.0000     -92.007028     -2503.6385
   2   2.0000     -15.593993      -424.3341
   3   2.0000     -11.333309      -308.3950
   4   2.0000     -11.302547      -307.5579
   5   2.0000     -11.296810      -307.4018
   6   2.0000     -11.276433      -306.8473
   7   2.0000     -11.263380      -306.4922
   8   2.0000      -9.014012      -245.2837
   9   2.0000      -9.007291      -245.1008
  10   2.0000      -6.695428      -182.1919
  11   2.0000      -6.694596      -182.1692
  12   2.0000      -6.692768      -182.1195
  13   2.0000      -6.689638      -182.0343
  14   2.0000      -6.688042      -181.9909
  15   2.0000      -6.685911      -181.9329
  16   2.0000      -1.303619       -35.4733
  17   2.0000      -1.119309       -30.4579
  18   2.0000      -1.075873       -29.2760
  19   2.0000      -1.031999       -28.0821
  20   2.0000      -0.979995       -26.6670
  21   2.0000      -0.848457       -23.0877
  22   2.0000      -0.797897       -21.7119
  23   2.0000      -0.734267       -19.9804
  24   2.0000      -0.659734       -17.9523
  25   2.0000      -0.619316       -16.8524
  26   2.0000      -0.605490       -16.4762
  27   2.0000      -0.582104       -15.8398
  28   2.0000      -0.545002       -14.8303
  29   2.0000      -0.531988       -14.4761
  30   2.0000      -0.477773       -13.0009
  31   2.0000      -0.451949       -12.2982
  32   2.0000      -0.445372       -12.1192
  33   2.0000      -0.393984       -10.7208
  34   2.0000      -0.351021        -9.5518
  35   2.0000      -0.330505        -8.9935
  36   0.0000       0.034315         0.9338
  37   0.0000       0.037766         1.0277
  38   0.0000       0.049299         1.3415
  39   0.0000       0.060295         1.6407
  40   0.0000       0.071571         1.9476

MULLIKEN ATOMIC CHARGES
-----------------------
   0 S :    0.182013
   1 S :    0.141536
   2 N :   -0.742453
   3 C :   -0.357800
   4 C :    0.727960
   5 C :    0.246001
   6 C :    0.700781
   7 C :   -0.466487
   8 H :   -0.294001
   9 H :   -0.233451
  10 H :    0.095901
Sum of atomic charges:    0.0000000

LOEWDIN ATOMIC CHARGES
----------------------
   0 S :    1.007468
   1 S :    0.780778
   2 N :   -0.051393
   3 C :   -0.519346
   4 C :   -0.066894
   5 C :   -0.299632
   6 C :   -0.168724
   7 C :   -0.449272
   8 H :    0.005817
   9 H :   -0.044327
  10 H :   -0.194477

  Mayer bond orders larger than 0.100000
B(  0-S ,  3-C ) :   1.1446 B(  0-S ,  4-C ) :  -0.2341 B(  0-S ,  5-C ) :   1.0644
B(  0-S ,  6-C ) :  -0.4092 B(  0-S ,  9-H ) :  -0.1114 B(  1-S ,  3-C ) :  -0.1030
B(  1-S ,  6-C ) :   0.1670 B(  1-S ,  7-C ) :   1.0809 B(  1-S , 10-H ) :   0.9720
B(  2-N ,  4-C ) :   0.8975 B(  2-N ,  5-C ) :   1.6248 B(  3-C ,  4-C ) :   1.4976
B(  3-C ,  6-C ) :   1.4299 B(  3-C ,  7-C ) :   0.4341 B(  4-C ,  5-C ) :  -0.2082
B(  4-C ,  8-H ) :   0.9296 B(  5-C ,  9-H ) :   1.0231 B(  6-C ,  7-C ) :   1.8403

MP2 TOTAL ENERGY:    -1041.654427314 Eh
FINAL SINGLE POINT ENERGY     -1041.654427314292

DIPOLE MOMENT
-------------
                                X             Y             Z
Electronic contribution:     -1.17411      -2.07288      -0.82572
Nuclear contribution   :      1.06924       1.71166       1.16292
                        -----------------------------------------
Total Dipole Moment    :     -0.10487      -0.36122       0.33720
                        -----------------------------------------
Magnitude (a.u.)       :      0.50516
Magnitude (Debye)      :      1.28401

Rotational constants in cm-1:     0.179980     0.019748     0.017863
Rotational constants in MHz :  5395.665916   592.042949   535.531673

                             ****ORCA TERMINATED NORMALLY****
TOTAL RUN TIME: 0 days 0 hours 0 minutes 45 seconds 795 msec
