                         Program Version 5.0.3 -  RELEASE  -
|  1> !ri-mp2 aug-cc-pvdz aug-cc-pvdz/c tightscf
|  2> %pal nprocs 16 end
|  3>
|  4> * xyz 0 1
|  5> S     -2.641922   -0.576015    0.000004
|  6> S      2.636269   -0.592371   -0.000006
|  7> O      0.011190   -0.739778   -0.000001
|  8> N     -0.727198    1.331855    0.000004
|  9> C     -1.137706    0.051692    0.000002
| 10> C      1.141741    0.018753   -0.000002
| 11> C      0.712543    1.468811    0.000000
| 12> H     -1.390465    2.086210    0.000006
| 13> H      1.091158    1.983830    0.885264
| 14> H      1.091154    1.983833   -0.885262
| 15> *
| 16>
| 17>                          ****END OF INPUT****

CARTESIAN COORDINATES (ANGSTROEM)
---------------------------------
  S     -2.641922   -0.576015    0.000004
  S      2.636269   -0.592371   -0.000006
  O      0.011190   -0.739778   -0.000001
  N     -0.727198    1.331855    0.000004
  C     -1.137706    0.051692    0.000002
  C      1.141741    0.018753   -0.000002
  C      0.712543    1.468811    0.000000
  H     -1.390465    2.086210    0.000006
  H      1.091158    1.983830    0.885264
  H      1.091154    1.983833   -0.885262

 Total Charge           Charge          ....    0
 Multiplicity           Mult            ....    1
 Number of Electrons    NEL             ....   68
 Basis Dimension        Dim             ....  196

ORBITAL ENERGIES
----------------

  NO   OCC          E(Eh)            E(eV)
   0   2.0000     -91.959438     -2502.3435
   1   2.0000     -91.932088     -2501.5993
   2   2.0000     -20.683864      -562.8366
   3   2.0000     -15.655082      -425.9964
   4   2.0000     -11.440749      -311.3186
   5   2.0000     -11.421015      -310.7816
   6   2.0000     -11.342060      -308.6331
   7   2.0000      -8.962849      -243.8915
   8   2.0000      -8.935809      -243.1557
   9   2.0000      -6.644922      -180.8175
  10   2.0000      -6.642710      -180.7573
  11   2.0000      -6.640910      -180.7084
  12   2.0000      -6.618271      -180.0923
  13   2.0000      -6.615243      -180.0099
  14   2.0000      -6.614142      -179.9799
  15   2.0000      -1.527914       -41.5766
  16   2.0000      -1.309824       -35.6421
  17   2.0000      -1.138513       -30.9805
  18   2.0000      -1.029121       -28.0038
  19   2.0000      -0.981812       -26.7165
  20   2.0000      -0.880220       -23.9520
  21   2.0000      -0.852457       -23.1965
  22   2.0000      -0.728149       -19.8139
  23   2.0000      -0.720572       -19.6078
  24   2.0000      -0.687694       -18.7131
  25   2.0000      -0.632357       -17.2073
  26   2.0000      -0.620923       -16.8962
  27   2.0000      -0.564783       -15.3685
  28   2.0000      -0.550306       -14.9746
  29   2.0000      -0.530288       -14.4299
  30   2.0000      -0.398908       -10.8548
  31   2.0000      -0.377284       -10.2664
  32   2.0000      -0.361998        -9.8505
  33   2.0000      -0.357091        -9.7169
  34   0.0000       0.019340         0.5263
  35   0.0000       0.033531         0.9124
  36   0.0000       0.045579         1.2403
  37   0.0000       0.050545         1.3754
  38   0.0000       0.066451         1.8082

MULLIKEN ATOMIC CHARGES
-----------------------
   0 S :    0.139407
   1 S :    0.098742
   2 O :   -0.938179
   3 N :   -0.382434
   4 C :    0.434908
   5 C :    0.143590
   6 C :    0.625859
   7 H :   -0.108040
   8 H :   -0.006924
   9 H :   -0.006928
Sum of atomic charges:    0.0000000

LOEWDIN ATOMIC CHARGES
----------------------
   0 S :    0.570288
   1 S :    0.658749
   2 O :    0.035563
   3 N :    0.045946
   4 C :   -0.725943
   5 C :   -0.684231
   6 C :    0.013666
   7 H :    0.026680
   8 H :    0.029641
   9 H :    0.029640

  Mayer bond orders larger than 0.100000
B(  0-S ,  4-C ) :   1.9874 B(  1-S ,  5-C ) :   1.9665 B(  2-O ,  4-C ) :   0.6973
B(  2-O ,  5-C ) :   0.6603 B(  2-O ,  6-C ) :   0.1703 B(  3-N ,  4-C ) :   1.0115
B(  3-N ,  5-C ) :   0.1094 B(  3-N ,  6-C ) :   0.6306 B(  3-N ,  7-H ) :   1.2065
B(  5-C ,  6-C ) :   1.1053 B(  6-C ,  7-H ) :  -0.1399 B(  6-C ,  8-H ) :   0.9250
B(  6-C ,  9-H ) :   0.9250

MP2 TOTAL ENERGY:    -1040.791589860 Eh
FINAL SINGLE POINT ENERGY     -1040.791589860075

DIPOLE MOMENT
-------------
                                X             Y             Z
Electronic contribution:     -0.33742      -3.75199      -0.00001
Nuclear contribution   :      0.75554       5.83593       0.00001
                        -----------------------------------------
Total Dipole Moment    :      0.41813       2.08395       0.00000
                        -----------------------------------------
Magnitude (a.u.)       :      2.12548
Magnitude (Debye)      :      5.40254

Rotational constants in cm-1:     0.177338     0.033903     0.028615
Rotational constants in MHz :  5316.463190  1016.397769   857.846776

                             ****ORCA TERMINATED NORMALLY****
TOTAL RUN TIME: 0 days 0 hours 0 minutes 38 seconds 865 msec
