                         Program Version 5.0.3 -  RELEASE  -
|  1> !ri-mp2 aug-cc-pvdz aug-cc-pvdz/c tightscf
|  2> %pal nprocs 16 end
|  3>
|  4> * xyz 0 1
|  5> C      2.223779   -0.070950        0.000000
|  6> C      1.362423    1.015554        0.000000
|  7> C      0.000000    0.733827        0.000000
|  8> C     -0.501452   -0.584713        0.000000
|  9> N     -1.888696   -0.569217        0.000000
| 10> C     -2.211130    0.692186        0.000000
| 11> N     -1.126415    1.533371        0.000000
| 12> C      0.383372   -1.663536        0.000000
| 13> C      1.741213   -1.390393        0.000000
| 14> H      3.291494    0.100590        0.000000
| 15> H      1.739293    2.029395        0.000000
| 16> H     -3.218802    1.076717        0.000000
| 17> H     -1.153964    2.537179        0.000000
| 18> H      0.008732   -2.677482        0.000000
| 19> H      2.449793   -2.207335        0.000000
| 20> *
| 21>
| 22>                          ****END OF INPUT****

CARTESIAN COORDINATES (ANGSTROEM)
---------------------------------
  C      2.223779   -0.070950    0.000000
  C      1.362423    1.015554    0.000000
  C      0.000000    0.733827    0.000000
  C     -0.501452   -0.584713    0.000000
  N     -1.888696   -0.569217    0.000000
  C     -2.211130    0.692186    0.000000
  N     -1.126415    1.533371    0.000000
  C      0.383372   -1.663536    0.000000
  C      1.741213   -1.390393    0.000000
  H      3.291494    0.100590    0.000000
  H      1.739293    2.029395    0.000000
  H     -3.218802    1.076717    0.000000
  H     -1.153964    2.537179    0.000000
  H      0.008732   -2.677482    0.000000
  H      2.449793   -2.207335    0.000000

 Total Charge           Charge          ....    0
 Multiplicity           Mult            ....    1
 Number of Electrons    NEL             ....   62
 Basis Dimension        Dim             ....  261

ORBITAL ENERGIES
----------------

  NO   OCC          E(Eh)            E(eV)
   0   2.0000     -15.628589      -425.2755
   1   2.0000     -15.560118      -423.4123
   2   2.0000     -11.322610      -308.1039
   3   2.0000     -11.278771      -306.9110
   4   2.0000     -11.258942      -306.3714
   5   2.0000     -11.245958      -306.0181
   6   2.0000     -11.240203      -305.8615
   7   2.0000     -11.238117      -305.8047
   8   2.0000     -11.233495      -305.6790
   9   2.0000      -1.351317       -36.7712
  10   2.0000      -1.184199       -32.2237
  11   2.0000      -1.142463       -31.0880
  12   2.0000      -1.015528       -27.6339
  13   2.0000      -1.006113       -27.3777
  14   2.0000      -0.860515       -23.4158
  15   2.0000      -0.840217       -22.8635
  16   2.0000      -0.817203       -22.2372
  17   2.0000      -0.743013       -20.2184
  18   2.0000      -0.686641       -18.6845
  19   2.0000      -0.665692       -18.1144
  20   2.0000      -0.615882       -16.7590
  21   2.0000      -0.612789       -16.6748
  22   2.0000      -0.606329       -16.4990
  23   2.0000      -0.583932       -15.8896
  24   2.0000      -0.522948       -14.2301
  25   2.0000      -0.513324       -13.9682
  26   2.0000      -0.476546       -12.9675
  27   2.0000      -0.438147       -11.9226
  28   2.0000      -0.431279       -11.7357
  29   2.0000      -0.315939        -8.5971
  30   2.0000      -0.305879        -8.3234
  31   0.0000       0.025450         0.6925
  32   0.0000       0.036747         0.9999
  33   0.0000       0.043648         1.1877
  34   0.0000       0.053100         1.4449
  35   0.0000       0.060104         1.6355

MULLIKEN ATOMIC CHARGES
-----------------------
   0 C :    0.677872
   1 C :    0.898567
   2 C :    0.163605
   3 C :   -0.801674
   4 N :   -0.871699
   5 C :    0.869818
   6 N :   -0.713090
   7 C :    1.439338
   8 C :    0.563505
   9 H :   -0.471614
  10 H :   -0.506650
  11 H :   -0.175942
  12 H :   -0.118518
  13 H :   -0.481701
  14 H :   -0.471818
Sum of atomic charges:    0.0000000

LOEWDIN ATOMIC CHARGES
----------------------
   0 C :    0.001448
   1 C :    0.056136
   2 C :   -0.142221
   3 C :   -0.207709
   4 N :    0.065447
   5 C :   -0.005612
   6 N :    0.122388
   7 C :    0.066000
   8 C :    0.001609
   9 H :   -0.003908
  10 H :   -0.000061
  11 H :    0.012558
  12 H :    0.030505
  13 H :    0.008766
  14 H :   -0.005347

  Mayer bond orders larger than 0.100000
B(  0-C ,  1-C ) :   1.7139 B(  0-C ,  8-C ) :   1.7562 B(  0-C ,  9-H ) :   0.2377
B(  0-C , 13-H ) :  -0.1073 B(  0-C , 14-H ) :   0.2270 B(  1-C ,  2-C ) :   1.3448
B(  1-C ,  3-C ) :   0.1096 B(  1-C ,  5-C ) :   0.1608 B(  1-C ,  6-N ) :  -0.2112
B(  1-C ,  7-C ) :   0.1666 B(  1-C ,  9-H ) :   0.2477 B(  1-C , 10-H ) :  -0.2404
B(  2-C ,  3-C ) :   1.5107 B(  2-C ,  4-N ) :   0.1713 B(  2-C ,  5-C ) :  -0.1255
B(  2-C ,  6-N ) :   0.7371 B(  2-C , 10-H ) :   0.9426 B(  2-C , 12-H ) :  -0.1602
B(  3-C ,  4-N ) :   0.7721 B(  3-C ,  6-N ) :   0.1075 B(  3-C ,  7-C ) :   1.2416
B(  3-C ,  8-C ) :   0.1653 B(  3-C , 11-H ) :   0.1306 B(  3-C , 13-H ) :   1.0185
B(  4-N ,  5-C ) :   1.6813 B(  4-N ,  7-C ) :  -0.2657 B(  5-C ,  6-N ) :   0.9862
B(  5-C , 11-H ) :   0.8637 B(  5-C , 12-H ) :  -0.1279 B(  6-N , 11-H ) :  -0.1073
B(  6-N , 12-H ) :   1.2693 B(  7-C ,  8-C ) :   1.5393 B(  7-C , 13-H ) :  -0.3198
B(  7-C , 14-H ) :   0.2621 B(  8-C ,  9-H ) :   0.2487 B(  8-C , 10-H ) :  -0.1132
B(  8-C , 14-H ) :   0.2326

MP2 TOTAL ENERGY:     -378.798160288 Eh
FINAL SINGLE POINT ENERGY      -378.798160288010

DIPOLE MOMENT
-------------
                                X             Y             Z
Electronic contribution:     -2.93370       0.55665      -0.00000
Nuclear contribution   :      3.05430       0.85229       0.00000
                        -----------------------------------------
Total Dipole Moment    :      0.12060       1.40894      -0.00000
                        -----------------------------------------
Magnitude (a.u.)       :      1.41409
Magnitude (Debye)      :      3.59434

Rotational constants in cm-1:     0.132099     0.056169     0.039411
Rotational constants in MHz :  3960.220564  1683.916020  1181.523294

                             ****ORCA TERMINATED NORMALLY****
TOTAL RUN TIME: 0 days 0 hours 1 minutes 4 seconds 935 msec
