                         Program Version 5.0.3 -  RELEASE  -
|  1> !ri-mp2 aug-cc-pvdz aug-cc-pvdz/c tightscf
|  2> %pal nprocs 16 end
|  3> %maxcore 3800
|  4>
|  5> * xyz 0 1
|  6> C     -3.078529   -1.367977    1.210348
|  7> C     -2.305286   -0.296520    1.197245
|  8> S     -1.653876    0.347458   -0.339227
|  9> O     -2.103694   -0.521011   -1.422004
| 10> O     -1.949843    1.776690   -0.353711
| 11> C      0.119813    0.156743   -0.166060
| 12> C      0.875233    1.211605    0.329411
| 13> C      2.250170    1.058628    0.455227
| 14> C      2.880484   -0.132464    0.093069
| 15> C      4.367008   -0.302232    0.252868
| 16> C      2.095867   -1.173407   -0.412746
| 17> C      0.722573   -1.038461   -0.544117
| 18> H     -3.301679   -1.900515    0.295654
| 19> H     -3.514621   -1.728332    2.132549
| 20> H     -2.049479    0.296576    2.064631
| 21> H      0.392477    2.143116    0.587644
| 22> H      2.842356    1.882699    0.831571
| 23> H      4.794103   -0.860951   -0.579957
| 24> H      4.597393   -0.855973    1.166365
| 25> H      4.873811    0.659644    0.314839
| 26> H      2.568975   -2.098441   -0.716657
| 27> H      0.122971   -1.838083   -0.954756
| 28> *
| 29>
| 30>                          ****END OF INPUT****

CARTESIAN COORDINATES (ANGSTROEM)
---------------------------------
  C     -3.078529   -1.367977    1.210348
  C     -2.305286   -0.296520    1.197245
  S     -1.653876    0.347458   -0.339227
  O     -2.103694   -0.521011   -1.422004
  O     -1.949843    1.776690   -0.353711
  C      0.119813    0.156743   -0.166060
  C      0.875233    1.211605    0.329411
  C      2.250170    1.058628    0.455227
  C      2.880484   -0.132464    0.093069
  C      4.367008   -0.302232    0.252868
  C      2.095867   -1.173407   -0.412746
  C      0.722573   -1.038461   -0.544117
  H     -3.301679   -1.900515    0.295654
  H     -3.514621   -1.728332    2.132549
  H     -2.049479    0.296576    2.064631
  H      0.392477    2.143116    0.587644
  H      2.842356    1.882699    0.831571
  H      4.794103   -0.860951   -0.579957
  H      4.597393   -0.855973    1.166365
  H      4.873811    0.659644    0.314839
  H      2.568975   -2.098441   -0.716657
  H      0.122971   -1.838083   -0.954756

 Total Charge           Charge          ....    0
 Multiplicity           Mult            ....    1
 Number of Electrons    NEL             ....   96
 Basis Dimension        Dim             ....  370

ORBITAL ENERGIES
----------------

  NO   OCC          E(Eh)            E(eV)
   0   2.0000     -92.199966     -2508.8886
   1   2.0000     -20.551142      -559.2250
   2   2.0000     -20.549068      -559.1686
   3   2.0000     -11.283574      -307.0417
   4   2.0000     -11.278080      -306.8922
   5   2.0000     -11.276761      -306.8563
   6   2.0000     -11.274273      -306.7886
   7   2.0000     -11.269285      -306.6528
   8   2.0000     -11.269051      -306.6465
   9   2.0000     -11.255827      -306.2866
  10   2.0000     -11.255557      -306.2793
  11   2.0000     -11.247715      -306.0659
  12   2.0000      -9.171906      -249.5802
  13   2.0000      -6.857414      -186.5997
  14   2.0000      -6.856083      -186.5635
  15   2.0000      -6.855636      -186.5513
  16   2.0000      -1.448347       -39.4115
  17   2.0000      -1.335384       -36.3376
  18   2.0000      -1.187389       -32.3105
  19   2.0000      -1.098974       -29.9046
  20   2.0000      -1.078039       -29.3349
  21   2.0000      -1.042920       -28.3793
  22   2.0000      -0.977669       -26.6037
  23   2.0000      -0.911778       -24.8107
  24   2.0000      -0.857375       -23.3303
  25   2.0000      -0.829881       -22.5822
  26   2.0000      -0.783333       -21.3156
  27   2.0000      -0.728942       -19.8355
  28   2.0000      -0.692011       -18.8306
  29   2.0000      -0.672331       -18.2951
  30   2.0000      -0.657067       -17.8797
  31   2.0000      -0.653876       -17.7929
  32   2.0000      -0.628575       -17.1044
  33   2.0000      -0.618307       -16.8250
  34   2.0000      -0.611250       -16.6330
  35   2.0000      -0.594316       -16.1722
  36   2.0000      -0.572711       -15.5843
  37   2.0000      -0.559796       -15.2328
  38   2.0000      -0.531740       -14.4694
  39   2.0000      -0.520069       -14.1518
  40   2.0000      -0.511672       -13.9233
  41   2.0000      -0.493405       -13.4262
  42   2.0000      -0.486302       -13.2329
  43   2.0000      -0.466789       -12.7020
  44   2.0000      -0.434826       -11.8322
  45   2.0000      -0.420157       -11.4330
  46   2.0000      -0.359146        -9.7729
  47   2.0000      -0.353104        -9.6085
  48   0.0000       0.028673         0.7802
  49   0.0000       0.033487         0.9112
  50   0.0000       0.038353         1.0436
  51   0.0000       0.046455         1.2641
  52   0.0000       0.048440         1.3181

MULLIKEN ATOMIC CHARGES
-----------------------
   0 C :    0.480992
   1 C :    0.103045
   2 S :    3.300273
   3 O :   -1.303161
   4 O :   -1.292319
   5 C :    0.644326
   6 C :   -0.347099
   7 C :    0.956913
   8 C :   -0.462128
   9 C :    0.624823
  10 C :    0.825670
  11 C :   -0.156407
  12 H :   -0.253863
  13 H :   -0.230631
  14 H :   -0.440630
  15 H :   -0.601319
  16 H :   -0.610862
  17 H :   -0.015267
  18 H :    0.110163
  19 H :   -0.129866
  20 H :   -0.614253
  21 H :   -0.588398
Sum of atomic charges:   -0.0000000

LOEWDIN ATOMIC CHARGES
----------------------
   0 C :    0.162673
   1 C :   -0.126684
   2 S :    0.950466
   3 O :   -0.382017
   4 O :   -0.388193
   5 C :   -0.262069
   6 C :    0.021481
   7 C :    0.052879
   8 C :   -0.201093
   9 C :    0.182375
  10 C :    0.053421
  11 C :    0.023531
  12 H :   -0.035396
  13 H :   -0.028565
  14 H :   -0.026105
  15 H :    0.002968
  16 H :    0.007586
  17 H :   -0.008998
  18 H :   -0.002385
  19 H :   -0.012522
  20 H :    0.009788
  21 H :    0.006858

  Mayer bond orders larger than 0.100000
B(  0-C ,  1-C ) :   2.0481 B(  0-C ,  5-C ) :  -0.1172 B(  0-C , 12-H ) :   0.8609
B(  0-C , 13-H ) :   0.8441 B(  1-C ,  2-S ) :   0.5611 B(  1-C ,  3-O ) :   0.3004
B(  1-C ,  4-O ) :   0.2814 B(  1-C ,  5-C ) :   0.1545 B(  1-C , 14-H ) :   0.8507
B(  2-S ,  3-O ) :   0.4128 B(  2-S ,  4-O ) :   0.3724 B(  2-S ,  5-C ) :   0.8147
B(  2-S ,  7-C ) :  -0.1560 B(  2-S , 14-H ) :  -0.1513 B(  3-O ,  4-O ) :   0.1362
B(  3-O ,  5-C ) :   0.3398 B(  3-O ,  6-C ) :  -0.1752 B(  4-O ,  5-C ) :   0.4581
B(  4-O , 11-C ) :  -0.2619 B(  5-C ,  6-C ) :   1.0583 B(  5-C ,  7-C ) :  -0.1853
B(  5-C ,  8-C ) :   0.5227 B(  5-C ,  9-C ) :   0.1061 B(  5-C , 10-C ) :  -0.3717
B(  5-C , 11-C ) :   1.0670 B(  5-C , 15-H ) :   0.7506 B(  5-C , 16-H ) :  -0.2214
B(  5-C , 20-H ) :  -0.2330 B(  5-C , 21-H ) :   0.5839 B(  6-C ,  7-C ) :   2.1074
B(  6-C ,  8-C ) :  -0.3750 B(  6-C ,  9-C ) :   0.4989 B(  6-C , 11-C ) :   0.1532
B(  6-C , 15-H ) :  -0.2906 B(  6-C , 16-H ) :   0.4175 B(  7-C ,  8-C ) :   2.1909
B(  7-C ,  9-C ) :  -0.6151 B(  7-C , 10-C ) :  -0.4436 B(  7-C , 15-H ) :   0.2579
B(  7-C , 16-H ) :  -0.5051 B(  7-C , 19-H ) :  -0.1343 B(  8-C ,  9-C ) :   1.6628
B(  8-C , 10-C ) :   1.7824 B(  8-C , 11-C ) :  -0.5759 B(  8-C , 15-H ) :  -0.1481
B(  8-C , 16-H ) :   0.7349 B(  8-C , 17-H ) :   0.3700 B(  8-C , 18-H ) :   0.2654
B(  8-C , 19-H ) :   0.4877 B(  8-C , 20-H ) :   0.6762 B(  8-C , 21-H ) :  -0.1495
B(  9-C , 10-C ) :  -0.7422 B(  9-C , 11-C ) :   0.3765 B(  9-C , 17-H ) :   0.7522
B(  9-C , 18-H ) :   0.8507 B(  9-C , 19-H ) :   0.6192 B( 10-C , 11-C ) :   2.5963
B( 10-C , 17-H ) :  -0.1335 B( 10-C , 20-H ) :  -0.4019 B( 10-C , 21-H ) :   0.3885
B( 11-C , 20-H ) :   0.4172 B( 11-C , 21-H ) :  -0.2753 B( 12-H , 13-H ) :  -0.1905

MP2 TOTAL ENERGY:     -895.632204550 Eh
FINAL SINGLE POINT ENERGY      -895.632204550276

DIPOLE MOMENT
-------------
                                X             Y             Z
Electronic contribution:     -9.69705       3.20210      -3.52759
Nuclear contribution   :     11.19288      -4.24546       5.06975
                        -----------------------------------------
Total Dipole Moment    :      1.49583      -1.04335       1.54216
                        -----------------------------------------
Magnitude (a.u.)       :      2.38837
Magnitude (Debye)      :      6.07077

Rotational constants in cm-1:     0.063497     0.015875     0.014860
Rotational constants in MHz :  1903.584436   475.934403   445.483236

                             ****ORCA TERMINATED NORMALLY****
TOTAL RUN TIME: 0 days 0 hours 2 minutes 50 seconds 184 msec
