                         Program Version 5.0.3 -  RELEASE  -
|  1> !ri-mp2 aug-cc-pvdz aug-cc-pvdz/c tightscf
|  2> %pal nprocs 16 end
|  3>
|  4> * xyz 0 1
|  5> N      0.515491    1.391494   -0.213362
|  6> H     -0.258480    1.947494    0.128733
|  7> H      1.364140    1.866364    0.068915
|  8> N     -2.061342   -0.127690    0.037236
|  9> H     -2.181732    0.757797   -0.436282
| 10> H     -2.220834    0.015135    1.026891
| 11> C     -0.749795   -0.711690   -0.229148
| 12> H     -0.747392   -1.729706    0.168410
| 13> H     -0.635640   -0.788418   -1.312659
| 14> C      1.758237   -0.700957   -0.022941
| 15> H      1.744056   -1.722779    0.358287
| 16> H      1.887491   -0.735988   -1.105935
| 17> H      2.629221   -0.200050    0.404284
| 18> C      0.469629    0.030604    0.335268
| 19> H      0.371697    0.035781    1.433164
| 20> *
| 21>
| 22>                          ****END OF INPUT****

CARTESIAN COORDINATES (ANGSTROEM)
---------------------------------
  N      0.515491    1.391494   -0.213362
  H     -0.258480    1.947494    0.128733
  H      1.364140    1.866364    0.068915
  N     -2.061342   -0.127690    0.037236
  H     -2.181732    0.757797   -0.436282
  H     -2.220834    0.015135    1.026891
  C     -0.749795   -0.711690   -0.229148
  H     -0.747392   -1.729706    0.168410
  H     -0.635640   -0.788418   -1.312659
  C      1.758237   -0.700957   -0.022941
  H      1.744056   -1.722779    0.358287
  H      1.887491   -0.735988   -1.105935
  H      2.629221   -0.200050    0.404284
  C      0.469629    0.030604    0.335268
  H      0.371697    0.035781    1.433164

 Total Charge           Charge          ....    0
 Multiplicity           Mult            ....    1
 Number of Electrons    NEL             ....   42
 Basis Dimension        Dim             ....  205

ORBITAL ENERGIES
----------------

  NO   OCC          E(Eh)            E(eV)
   0   2.0000     -15.548574      -423.0982
   1   2.0000     -15.546260      -423.0352
   2   2.0000     -11.257448      -306.3307
   3   2.0000     -11.247878      -306.0703
   4   2.0000     -11.220733      -305.3317
   5   2.0000      -1.202122       -32.7114
   6   2.0000      -1.156805       -31.4783
   7   2.0000      -1.007436       -27.4137
   8   2.0000      -0.902175       -24.5494
   9   2.0000      -0.786623       -21.4051
  10   2.0000      -0.682866       -18.5817
  11   2.0000      -0.661552       -18.0017
  12   2.0000      -0.628660       -17.1067
  13   2.0000      -0.606991       -16.5171
  14   2.0000      -0.544653       -14.8208
  15   2.0000      -0.525089       -14.2884
  16   2.0000      -0.517686       -14.0870
  17   2.0000      -0.500708       -13.6249
  18   2.0000      -0.495139       -13.4734
  19   2.0000      -0.398977       -10.8567
  20   2.0000      -0.374660       -10.1950
  21   0.0000       0.032954         0.8967
  22   0.0000       0.044193         1.2025
  23   0.0000       0.047186         1.2840
  24   0.0000       0.050886         1.3847
  25   0.0000       0.067439         1.8351

MULLIKEN ATOMIC CHARGES
-----------------------
   0 N :   -0.309587
   1 H :   -0.018046
   2 H :   -0.027296
   3 N :   -0.483896
   4 H :    0.000800
   5 H :   -0.001906
   6 C :    1.051825
   7 H :   -0.110189
   8 H :   -0.079745
   9 C :    0.717702
  10 H :   -0.059062
  11 H :    0.022125
  12 H :   -0.097396
  13 C :   -0.460541
  14 H :   -0.144787
Sum of atomic charges:   -0.0000000

LOEWDIN ATOMIC CHARGES
----------------------
   0 N :    0.201354
   1 H :   -0.057844
   2 H :   -0.050140
   3 N :    0.178924
   4 H :   -0.058422
   5 H :   -0.052393
   6 C :   -0.047687
   7 H :    0.013463
   8 H :    0.019108
   9 C :    0.160649
  10 H :   -0.013347
  11 H :   -0.008060
  12 H :   -0.017452
  13 C :   -0.299229
  14 H :    0.031077

  Mayer bond orders larger than 0.100000
B(  0-N ,  1-H ) :   1.0212 B(  0-N ,  2-H ) :   1.0339 B(  0-N , 13-C ) :   0.7025
B(  3-N ,  4-H ) :   1.0485 B(  3-N ,  5-H ) :   1.0643 B(  3-N ,  6-C ) :   0.7573
B(  3-N , 13-C ) :   0.1477 B(  6-C ,  7-H ) :   0.8370 B(  6-C ,  8-H ) :   0.8733
B(  6-C ,  9-C ) :  -0.1353 B(  6-C , 13-C ) :   1.1748 B(  7-H ,  8-H ) :  -0.1212
B(  8-H , 13-C ) :   0.1082 B(  9-C , 10-H ) :   0.7988 B(  9-C , 11-H ) :   0.8861
B(  9-C , 12-H ) :   0.8640 B(  9-C , 13-C ) :   1.3087 B( 10-H , 13-C ) :   0.1217
B( 12-H , 13-C ) :   0.1439 B( 13-C , 14-H ) :   0.7478

MP2 TOTAL ENERGY:     -229.168623163 Eh
FINAL SINGLE POINT ENERGY      -229.168623162785

DIPOLE MOMENT
-------------
                                X             Y             Z
Electronic contribution:     -1.67211       0.94005      -0.10274
Nuclear contribution   :      2.06804      -0.58202       0.77975
                        -----------------------------------------
Total Dipole Moment    :      0.39593       0.35803       0.67701
                        -----------------------------------------
Magnitude (a.u.)       :      0.86214
Magnitude (Debye)      :      2.19139

Rotational constants in cm-1:     0.264809     0.115847     0.088413
Rotational constants in MHz :  7938.769574  3472.999486  2650.568036

                             ****ORCA TERMINATED NORMALLY****
TOTAL RUN TIME: 0 days 0 hours 0 minutes 57 seconds 249 msec
