                         Program Version 5.0.3 -  RELEASE  -
|  1> !ri-mp2 aug-cc-pvdz aug-cc-pvdz/c tightscf
|  2> %pal nprocs 16 end
|  3>
|  4> * xyz 0 1
|  5> C     -3.174894    0.221356    0.015832
|  6> C     -1.854161   -0.545307   -0.021865
|  7> C     -0.626182    0.365737    0.013037
|  8> C      0.699506   -0.395753   -0.027955
|  9> C      1.913737    0.523470    0.013334
| 10> O      3.154194   -0.175719   -0.081422
| 11> H     -3.256954    0.821962    0.924087
| 12> H     -3.261939    0.899200   -0.835780
| 13> H     -4.029566   -0.455825   -0.011540
| 14> H     -1.816621   -1.163702   -0.923412
| 15> H     -1.810925   -1.238981    0.823068
| 16> H     -0.670781    1.059963   -0.832589
| 17> H     -0.664660    0.985038    0.915426
| 18> H      0.754149   -1.005560   -0.933536
| 19> H      0.747184   -1.089540    0.819209
| 20> H      1.890619    1.140743    0.919619
| 21> H      1.902039    1.201994   -0.840618
| 22> H      3.235868   -0.766559    0.673146
| 23> *
| 24>
| 25>                          ****END OF INPUT****

CARTESIAN COORDINATES (ANGSTROEM)
---------------------------------
  C     -3.174894    0.221356    0.015832
  C     -1.854161   -0.545307   -0.021865
  C     -0.626182    0.365737    0.013037
  C      0.699506   -0.395753   -0.027955
  C      1.913737    0.523470    0.013334
  O      3.154194   -0.175719   -0.081422
  H     -3.256954    0.821962    0.924087
  H     -3.261939    0.899200   -0.835780
  H     -4.029566   -0.455825   -0.011540
  H     -1.816621   -1.163702   -0.923412
  H     -1.810925   -1.238981    0.823068
  H     -0.670781    1.059963   -0.832589
  H     -0.664660    0.985038    0.915426
  H      0.754149   -1.005560   -0.933536
  H      0.747184   -1.089540    0.819209
  H      1.890619    1.140743    0.919619
  H      1.902039    1.201994   -0.840618
  H      3.235868   -0.766559    0.673146

 Total Charge           Charge          ....    0
 Multiplicity           Mult            ....    1
 Number of Electrons    NEL             ....   50
 Basis Dimension        Dim             ....  246

ORBITAL ENERGIES
----------------

  NO   OCC          E(Eh)            E(eV)
   0   2.0000     -20.563522      -559.5619
   1   2.0000     -11.277907      -306.8874
   2   2.0000     -11.227528      -305.5166
   3   2.0000     -11.226567      -305.4904
   4   2.0000     -11.225912      -305.4726
   5   2.0000     -11.220213      -305.3175
   6   2.0000      -1.356649       -36.9163
   7   2.0000      -1.085093       -29.5269
   8   2.0000      -1.014203       -27.5979
   9   2.0000      -0.915684       -24.9170
  10   2.0000      -0.830427       -22.5971
  11   2.0000      -0.795757       -21.6536
  12   2.0000      -0.689064       -18.7504
  13   2.0000      -0.646450       -17.5908
  14   2.0000      -0.611808       -16.6482
  15   2.0000      -0.604318       -16.4443
  16   2.0000      -0.576353       -15.6834
  17   2.0000      -0.560231       -15.2447
  18   2.0000      -0.527220       -14.3464
  19   2.0000      -0.509850       -13.8737
  20   2.0000      -0.489846       -13.3294
  21   2.0000      -0.471770       -12.8375
  22   2.0000      -0.468695       -12.7538
  23   2.0000      -0.464321       -12.6348
  24   2.0000      -0.430439       -11.7128
  25   0.0000       0.035517         0.9665
  26   0.0000       0.041042         1.1168
  27   0.0000       0.044178         1.2021
  28   0.0000       0.048022         1.3067
  29   0.0000       0.061005         1.6600

MULLIKEN ATOMIC CHARGES
-----------------------
   0 C :    0.477417
   1 C :    0.282711
   2 C :    0.111973
   3 C :    0.193166
   4 C :    1.217362
   5 O :   -0.720544
   6 H :   -0.086747
   7 H :   -0.085821
   8 H :   -0.067800
   9 H :   -0.175682
  10 H :   -0.176530
  11 H :   -0.199430
  12 H :   -0.196065
  13 H :   -0.132194
  14 H :   -0.195336
  15 H :   -0.158295
  16 H :   -0.217832
  17 H :    0.129646
Sum of atomic charges:    0.0000000

LOEWDIN ATOMIC CHARGES
----------------------
   0 C :    0.131237
   1 C :   -0.073500
   2 C :   -0.043879
   3 C :   -0.038345
   4 C :   -0.050216
   5 O :    0.108567
   6 H :   -0.020153
   7 H :   -0.019895
   8 H :   -0.021707
   9 H :    0.011613
  10 H :    0.010803
  11 H :    0.016437
  12 H :    0.015267
  13 H :    0.018915
  14 H :    0.013407
  15 H :    0.004765
  16 H :    0.003808
  17 H :   -0.067122

  Mayer bond orders larger than 0.100000
B(  0-C ,  1-C ) :   1.1733 B(  0-C ,  6-H ) :   0.9269 B(  0-C ,  7-H ) :   0.9279
B(  0-C ,  8-H ) :   0.9046 B(  1-C ,  2-C ) :   1.2275 B(  1-C ,  9-H ) :   0.7726
B(  1-C , 10-H ) :   0.7733 B(  2-C ,  3-C ) :   1.2072 B(  2-C , 11-H ) :   0.8072
B(  2-C , 12-H ) :   0.8375 B(  3-C ,  4-C ) :   1.1507 B(  3-C , 13-H ) :   0.8001
B(  3-C , 14-H ) :   0.7604 B(  4-C ,  5-O ) :   0.4371 B(  4-C , 15-H ) :   0.8658
B(  4-C , 16-H ) :   0.8418 B(  5-O , 17-H ) :   1.0823 B( 15-H , 16-H ) :  -0.1014

MP2 TOTAL ENERGY:     -272.175058037 Eh
FINAL SINGLE POINT ENERGY      -272.175058037431

DIPOLE MOMENT
-------------
                                X             Y             Z
Electronic contribution:      6.80057      -0.50674      -0.27158
Nuclear contribution   :     -7.38431       0.41116       0.74121
                        -----------------------------------------
Total Dipole Moment    :     -0.58374      -0.09559       0.46963
                        -----------------------------------------
Magnitude (a.u.)       :      0.75528
Magnitude (Debye)      :      1.91977

Rotational constants in cm-1:     0.525550     0.037614     0.036364
Rotational constants in MHz : 15755.594698  1127.643160  1090.158324

                             ****ORCA TERMINATED NORMALLY****
TOTAL RUN TIME: 0 days 0 hours 0 minutes 49 seconds 758 msec
