                         Program Version 5.0.3 -  RELEASE  -
|  1> !ri-mp2 aug-cc-pvdz aug-cc-pvdz/c tightscf
|  2> %pal nprocs 16 end
|  3>
|  4> * xyz 0 1
|  5> C      2.201897   -1.170837    0.000000
|  6> C      1.510358    0.188385    0.000000
|  7> C     -0.014350    0.152620    0.000000
|  8> Cl    -0.646271    1.840726    0.000000
|  9> Cl    -0.646271   -0.685884    1.463336
| 10> Cl    -0.646271   -0.685884   -1.463336
| 11> H      1.942156   -1.751560   -0.883333
| 12> H      3.281345   -1.020850    0.000000
| 13> H      1.942156   -1.751560    0.883333
| 14> H      1.803357    0.765336   -0.877934
| 15> H      1.803357    0.765336    0.877934
| 16> *
| 17>
| 18>                          ****END OF INPUT****

CARTESIAN COORDINATES (ANGSTROEM)
---------------------------------
  C      2.201897   -1.170837    0.000000
  C      1.510358    0.188385    0.000000
  C     -0.014350    0.152620    0.000000
  Cl    -0.646271    1.840726    0.000000
  Cl    -0.646271   -0.685884    1.463336
  Cl    -0.646271   -0.685884   -1.463336
  H      1.942156   -1.751560   -0.883333
  H      3.281345   -1.020850    0.000000
  H      1.942156   -1.751560    0.883333
  H      1.803357    0.765336   -0.877934
  H      1.803357    0.765336    0.877934

 Total Charge           Charge          ....    0
 Multiplicity           Mult            ....    1
 Number of Electrons    NEL             ....   74
 Basis Dimension        Dim             ....  195

ORBITAL ENERGIES
----------------

  NO   OCC          E(Eh)            E(eV)
   0   2.0000    -104.856327     -2853.2857
   1   2.0000    -104.856326     -2853.2857
   2   2.0000    -104.855930     -2853.2749
   3   2.0000     -11.443431      -311.3916
   4   2.0000     -11.272905      -306.7513
   5   2.0000     -11.241519      -305.8973
   6   2.0000     -10.582528      -287.9652
   7   2.0000     -10.582509      -287.9647
   8   2.0000     -10.582022      -287.9515
   9   2.0000      -8.050143      -219.0555
  10   2.0000      -8.050141      -219.0555
  11   2.0000      -8.049644      -219.0419
  12   2.0000      -8.046625      -218.9598
  13   2.0000      -8.046623      -218.9598
  14   2.0000      -8.046615      -218.9595
  15   2.0000      -8.046613      -218.9595
  16   2.0000      -8.046121      -218.9461
  17   2.0000      -8.046118      -218.9460
  18   2.0000      -1.239320       -33.7236
  19   2.0000      -1.105906       -30.0932
  20   2.0000      -1.105294       -30.0766
  21   2.0000      -1.063378       -28.9360
  22   2.0000      -0.915243       -24.9050
  23   2.0000      -0.788245       -21.4492
  24   2.0000      -0.666830       -18.1454
  25   2.0000      -0.653418       -17.7804
  26   2.0000      -0.622981       -16.9522
  27   2.0000      -0.594285       -16.1713
  28   2.0000      -0.551447       -15.0056
  29   2.0000      -0.534548       -14.5458
  30   2.0000      -0.512610       -13.9488
  31   2.0000      -0.494576       -13.4581
  32   2.0000      -0.489502       -13.3200
  33   2.0000      -0.462966       -12.5979
  34   2.0000      -0.455884       -12.4052
  35   2.0000      -0.455184       -12.3862
  36   2.0000      -0.443379       -12.0649
  37   0.0000       0.035254         0.9593
  38   0.0000       0.050850         1.3837
  39   0.0000       0.053295         1.4502
  40   0.0000       0.058693         1.5971
  41   0.0000       0.072266         1.9665

MULLIKEN ATOMIC CHARGES
-----------------------
   0 C :    0.425619
   1 C :    0.674035
   2 C :   -0.992963
   3 Cl:    0.052971
   4 Cl:    0.023248
   5 Cl:    0.023248
   6 H :   -0.041822
   7 H :   -0.035100
   8 H :   -0.041822
   9 H :   -0.043707
  10 H :   -0.043707
Sum of atomic charges:   -0.0000000

LOEWDIN ATOMIC CHARGES
----------------------
   0 C :    0.116995
   1 C :   -0.213100
   2 C :   -1.320919
   3 Cl:    0.489580
   4 Cl:    0.499465
   5 Cl:    0.499465
   6 H :   -0.034469
   7 H :   -0.015169
   8 H :   -0.034469
   9 H :    0.006310
  10 H :    0.006310

  Mayer bond orders larger than 0.100000
B(  0-C ,  1-C ) :   1.2203 B(  0-C ,  2-C ) :  -0.1005 B(  0-C ,  6-H ) :   0.9517
B(  0-C ,  7-H ) :   0.8999 B(  0-C ,  8-H ) :   0.9517 B(  1-C ,  2-C ) :   0.9249
B(  1-C ,  9-H ) :   0.8780 B(  1-C , 10-H ) :   0.8780 B(  2-C ,  3-Cl) :   1.2351
B(  2-C ,  4-Cl) :   1.1240 B(  2-C ,  5-Cl) :   1.1240

MP2 TOTAL ENERGY:    -1495.929784107 Eh
FINAL SINGLE POINT ENERGY     -1495.929784107189

DIPOLE MOMENT
-------------
                                X             Y             Z
Electronic contribution:    -11.88564       3.37765       0.00000
Nuclear contribution   :     12.76933      -3.45409       0.00000
                        -----------------------------------------
Total Dipole Moment    :      0.88369      -0.07644       0.00000
                        -----------------------------------------
Magnitude (a.u.)       :      0.88699
Magnitude (Debye)      :      2.25456

Rotational constants in cm-1:     0.061473     0.050651     0.045745
Rotational constants in MHz :  1842.919088  1518.470500  1371.387332

                             ****ORCA TERMINATED NORMALLY****
TOTAL RUN TIME: 0 days 0 hours 0 minutes 34 seconds 87 msec
