                         Program Version 5.0.3 -  RELEASE  -
|  1> !ri-mp2 aug-cc-pvdz aug-cc-pvdz/c tightscf
|  2> %pal nprocs 16 end
|  3>
|  4> * xyz 0 1
|  5> C      1.161089    2.783469    0.000000
|  6> C      1.336413    1.265667    0.000000
|  7> C      0.000000    0.516511    0.000000
|  8> C      0.195757   -0.987200    0.000000
|  9> Cl    -1.389892   -1.875231    0.000000
| 10> H      0.609343    3.116554    0.880936
| 11> H      2.125518    3.292440    0.000000
| 12> H      0.609343    3.116554   -0.880936
| 13> H      1.921195    0.966651    0.874698
| 14> H      1.921195    0.966651   -0.874698
| 15> H     -0.585899    0.802883    0.876235
| 16> H     -0.585899    0.802883   -0.876235
| 17> H      0.726910   -1.328188    0.885109
| 18> H      0.726910   -1.328188   -0.885109
| 19> *
| 20>
| 21>                          ****END OF INPUT****

CARTESIAN COORDINATES (ANGSTROEM)
---------------------------------
  C      1.161089    2.783469    0.000000
  C      1.336413    1.265667    0.000000
  C      0.000000    0.516511    0.000000
  C      0.195757   -0.987200    0.000000
  Cl    -1.389892   -1.875231    0.000000
  H      0.609343    3.116554    0.880936
  H      2.125518    3.292440    0.000000
  H      0.609343    3.116554   -0.880936
  H      1.921195    0.966651    0.874698
  H      1.921195    0.966651   -0.874698
  H     -0.585899    0.802883    0.876235
  H     -0.585899    0.802883   -0.876235
  H      0.726910   -1.328188    0.885109
  H      0.726910   -1.328188   -0.885109

 Total Charge           Charge          ....    0
 Multiplicity           Mult            ....    1
 Number of Electrons    NEL             ....   50
 Basis Dimension        Dim             ....  200

ORBITAL ENERGIES
----------------

  NO   OCC          E(Eh)            E(eV)
   0   2.0000    -104.815812     -2852.1832
   1   2.0000     -11.298618      -307.4510
   2   2.0000     -11.240988      -305.8828
   3   2.0000     -11.239001      -305.8288
   4   2.0000     -11.228412      -305.5406
   5   2.0000     -10.541706      -286.8544
   6   2.0000      -8.009298      -217.9441
   7   2.0000      -8.006268      -217.8616
   8   2.0000      -8.006210      -217.8601
   9   2.0000      -1.135516       -30.8990
  10   2.0000      -1.068445       -29.0739
  11   2.0000      -0.973119       -26.4799
  12   2.0000      -0.859491       -23.3879
  13   2.0000      -0.810124       -22.0446
  14   2.0000      -0.668928       -18.2025
  15   2.0000      -0.608699       -16.5635
  16   2.0000      -0.605163       -16.4673
  17   2.0000      -0.575159       -15.6509
  18   2.0000      -0.540053       -14.6956
  19   2.0000      -0.525804       -14.3079
  20   2.0000      -0.497059       -13.5257
  21   2.0000      -0.481105       -13.0915
  22   2.0000      -0.478357       -13.0167
  23   2.0000      -0.428853       -11.6697
  24   2.0000      -0.426169       -11.5966
  25   0.0000       0.034372         0.9353
  26   0.0000       0.044025         1.1980
  27   0.0000       0.045999         1.2517
  28   0.0000       0.050286         1.3684
  29   0.0000       0.066238         1.8024

MULLIKEN ATOMIC CHARGES
-----------------------
   0 C :    0.390874
   1 C :    0.255466
   2 C :    0.239978
   3 C :    0.058686
   4 Cl:   -0.146358
   5 H :   -0.075776
   6 H :   -0.069259
   7 H :   -0.075776
   8 H :   -0.164053
   9 H :   -0.164053
  10 H :   -0.112606
  11 H :   -0.112606
  12 H :   -0.012258
  13 H :   -0.012258
Sum of atomic charges:   -0.0000000

LOEWDIN ATOMIC CHARGES
----------------------
   0 C :    0.134137
   1 C :   -0.074908
   2 C :   -0.103620
   3 C :   -0.312993
   4 Cl:    0.429357
   5 H :   -0.018222
   6 H :   -0.020139
   7 H :   -0.018222
   8 H :    0.010997
   9 H :    0.010997
  10 H :    0.012417
  11 H :    0.012417
  12 H :   -0.031109
  13 H :   -0.031109

  Mayer bond orders larger than 0.100000
B(  0-C ,  1-C ) :   1.1850 B(  0-C ,  5-H ) :   0.9370 B(  0-C ,  6-H ) :   0.9005
B(  0-C ,  7-H ) :   0.9370 B(  1-C ,  2-C ) :   1.2405 B(  1-C ,  3-C ) :  -0.1077
B(  1-C ,  8-H ) :   0.7907 B(  1-C ,  9-H ) :   0.7907 B(  2-C ,  3-C ) :   1.2380
B(  2-C ,  4-Cl) :  -0.2205 B(  2-C , 10-H ) :   0.8605 B(  2-C , 11-H ) :   0.8605
B(  2-C , 12-H ) :   0.1285 B(  2-C , 13-H ) :   0.1285 B(  3-C ,  4-Cl) :   1.2415
B(  3-C , 12-H ) :   0.8782 B(  3-C , 13-H ) :   0.8782

MP2 TOTAL ENERGY:     -616.991895058 Eh
FINAL SINGLE POINT ENERGY      -616.991895058164

DIPOLE MOMENT
-------------
                                X             Y             Z
Electronic contribution:     -8.75421     -12.66051       0.00000
Nuclear contribution   :      9.59342      13.27979       0.00000
                        -----------------------------------------
Total Dipole Moment    :      0.83921       0.61928       0.00000
                        -----------------------------------------
Magnitude (a.u.)       :      1.04297
Magnitude (Debye)      :      2.65103

Rotational constants in cm-1:     0.566297     0.043210     0.041375
Rotational constants in MHz : 16977.145669  1295.391348  1240.388657

                             ****ORCA TERMINATED NORMALLY****
TOTAL RUN TIME: 0 days 0 hours 0 minutes 38 seconds 52 msec
