                         Program Version 5.0.3 -  RELEASE  -
|  1> !ri-mp2 aug-cc-pvdz aug-cc-pvdz/c tightscf
|  2> %pal nprocs 16 end
|  3>
|  4> * xyz 0 1
|  5> N      0.000164    1.282141    0.000519
|  6> N     -0.000164   -1.282141    0.000519
|  7> C      0.000164    0.780285    1.382256
|  8> C     -1.196693    0.781006   -0.691218
|  9> C      1.196818    0.780687   -0.691334
| 10> C     -0.000164   -0.780285    1.382256
| 11> C      1.196693   -0.781006   -0.691218
| 12> C     -1.196818   -0.780687   -0.691334
| 13> H     -0.879522    1.179699    1.890037
| 14> H      0.880122    1.179356    1.889830
| 15> H     -1.194813    1.179661   -1.707165
| 16> H     -2.076388    1.180253   -0.183417
| 17> H      2.076725    1.179835   -0.183814
| 18> H      1.194755    1.179230   -1.707324
| 19> H      0.879522   -1.179699    1.890037
| 20> H     -0.880122   -1.179356    1.889830
| 21> H      1.194813   -1.179661   -1.707165
| 22> H      2.076388   -1.180253   -0.183417
| 23> H     -2.076725   -1.179835   -0.183814
| 24> H     -1.194755   -1.179230   -1.707324
| 25> *
| 26>
| 27>                          ****END OF INPUT****

CARTESIAN COORDINATES (ANGSTROEM)
---------------------------------
  N      0.000164    1.282141    0.000519
  N     -0.000164   -1.282141    0.000519
  C      0.000164    0.780285    1.382256
  C     -1.196693    0.781006   -0.691218
  C      1.196818    0.780687   -0.691334
  C     -0.000164   -0.780285    1.382256
  C      1.196693   -0.781006   -0.691218
  C     -1.196818   -0.780687   -0.691334
  H     -0.879522    1.179699    1.890037
  H      0.880122    1.179356    1.889830
  H     -1.194813    1.179661   -1.707165
  H     -2.076388    1.180253   -0.183417
  H      2.076725    1.179835   -0.183814
  H      1.194755    1.179230   -1.707324
  H      0.879522   -1.179699    1.890037
  H     -0.880122   -1.179356    1.889830
  H      1.194813   -1.179661   -1.707165
  H      2.076388   -1.180253   -0.183417
  H     -2.076725   -1.179835   -0.183814
  H     -1.194755   -1.179230   -1.707324

 Total Charge           Charge          ....    0
 Multiplicity           Mult            ....    1
 Number of Electrons    NEL             ....   62
 Basis Dimension        Dim             ....  292

ORBITAL ENERGIES
----------------

  NO   OCC          E(Eh)            E(eV)
   0   2.0000     -15.551651      -423.1820
   1   2.0000     -15.551630      -423.1814
   2   2.0000     -11.249050      -306.1022
   3   2.0000     -11.249032      -306.1017
   4   2.0000     -11.248942      -306.0993
   5   2.0000     -11.248521      -306.0878
   6   2.0000     -11.248511      -306.0875
   7   2.0000     -11.248418      -306.0850
   8   2.0000      -1.273084       -34.6424
   9   2.0000      -1.177132       -32.0314
  10   2.0000      -1.018037       -27.7022
  11   2.0000      -1.017769       -27.6949
  12   2.0000      -0.863031       -23.4843
  13   2.0000      -0.862890       -23.4804
  14   2.0000      -0.858517       -23.3614
  15   2.0000      -0.711057       -19.3488
  16   2.0000      -0.673203       -18.3188
  17   2.0000      -0.673099       -18.3160
  18   2.0000      -0.669354       -18.2141
  19   2.0000      -0.567663       -15.4469
  20   2.0000      -0.566563       -15.4170
  21   2.0000      -0.566416       -15.4130
  22   2.0000      -0.539278       -14.6745
  23   2.0000      -0.539018       -14.6674
  24   2.0000      -0.522964       -14.2306
  25   2.0000      -0.522646       -14.2219
  26   2.0000      -0.467464       -12.7203
  27   2.0000      -0.452883       -12.3236
  28   2.0000      -0.452651       -12.3173
  29   2.0000      -0.416754       -11.3405
  30   2.0000      -0.312322        -8.4987
  31   0.0000       0.037360         1.0166
  32   0.0000       0.045052         1.2259
  33   0.0000       0.045052         1.2259
  34   0.0000       0.050418         1.3719
  35   0.0000       0.061367         1.6699

MULLIKEN ATOMIC CHARGES
-----------------------
   0 N :   -0.772504
   1 N :   -0.772504
   2 C :    0.663268
   3 C :    0.662520
   4 C :    0.662469
   5 C :    0.663268
   6 C :    0.662520
   7 C :    0.662469
   8 H :   -0.202872
   9 H :   -0.202657
  10 H :   -0.202084
  11 H :   -0.203034
  12 H :   -0.203265
  13 H :   -0.201841
  14 H :   -0.202872
  15 H :   -0.202657
  16 H :   -0.202084
  17 H :   -0.203034
  18 H :   -0.203265
  19 H :   -0.201841
Sum of atomic charges:    0.0000000

LOEWDIN ATOMIC CHARGES
----------------------
   0 N :   -0.124022
   1 N :   -0.124022
   2 C :    0.014381
   3 C :    0.015065
   4 C :    0.015061
   5 C :    0.014381
   6 C :    0.015065
   7 C :    0.015061
   8 H :    0.013357
   9 H :    0.013357
  10 H :    0.013167
  11 H :    0.013233
  12 H :    0.013234
  13 H :    0.013167
  14 H :    0.013357
  15 H :    0.013357
  16 H :    0.013167
  17 H :    0.013233
  18 H :    0.013234
  19 H :    0.013167

  Mayer bond orders larger than 0.100000
B(  0-N ,  2-C ) :   0.8893 B(  0-N ,  3-C ) :   0.8902 B(  0-N ,  4-C ) :   0.8902
B(  1-N ,  5-C ) :   0.8893 B(  1-N ,  6-C ) :   0.8902 B(  1-N ,  7-C ) :   0.8902
B(  2-C ,  5-C ) :   1.1825 B(  2-C ,  8-H ) :   0.8828 B(  2-C ,  9-H ) :   0.8828
B(  3-C ,  7-C ) :   1.1823 B(  3-C , 10-H ) :   0.8820 B(  3-C , 11-H ) :   0.8833
B(  4-C ,  6-C ) :   1.1823 B(  4-C , 12-H ) :   0.8833 B(  4-C , 13-H ) :   0.8820
B(  5-C , 14-H ) :   0.8828 B(  5-C , 15-H ) :   0.8828 B(  6-C , 16-H ) :   0.8820
B(  6-C , 17-H ) :   0.8833 B(  7-C , 18-H ) :   0.8833 B(  7-C , 19-H ) :   0.8820
B(  8-H ,  9-H ) :  -0.2383 B( 10-H , 11-H ) :  -0.2384 B( 12-H , 13-H ) :  -0.2384
B( 14-H , 15-H ) :  -0.2383 B( 16-H , 17-H ) :  -0.2384 B( 18-H , 19-H ) :  -0.2384

MP2 TOTAL ENERGY:     -344.318331728 Eh
FINAL SINGLE POINT ENERGY      -344.318331727739

DIPOLE MOMENT
-------------
                                X             Y             Z
Electronic contribution:     -0.00000       0.00000       0.00304
Nuclear contribution   :      0.00000       0.00000      -0.00384
                        -----------------------------------------
Total Dipole Moment    :     -0.00000       0.00000      -0.00080
                        -----------------------------------------
Magnitude (a.u.)       :      0.00080
Magnitude (Debye)      :      0.00204

Rotational constants in cm-1:     0.088623     0.083505     0.083475
Rotational constants in MHz :  2656.840963  2503.403314  2502.506605

                             ****ORCA TERMINATED NORMALLY****
TOTAL RUN TIME: 0 days 0 hours 1 minutes 24 seconds 289 msec
