                         Program Version 5.0.3 -  RELEASE  -
|  1> !ri-mp2 aug-cc-pvdz aug-cc-pvdz/c tightscf
|  2> %pal nprocs 16 end
|  3> %maxcore 3800
|  4>
|  5> * xyz 0 1
|  6> C     -0.185454    3.476467    1.177678
|  7> C      0.185454   -3.476467    1.177678
|  8> C      0.448568    2.723875    0.026404
|  9> C     -0.448568   -2.723875    0.026404
| 10> C      0.330721    0.678899   -1.157349
| 11> C     -0.330721   -0.678899   -1.157349
| 12> O     -0.185454    1.462479   -0.100569
| 13> O      0.185454   -1.462479   -0.100569
| 14> H      0.289479    4.450910    1.299148
| 15> H     -1.249152    3.631512    0.997075
| 16> H     -0.073398    2.919207    2.107537
| 17> H     -0.289479   -4.450910    1.299148
| 18> H      1.249152   -3.631512    0.997075
| 19> H      0.073398   -2.919207    2.107537
| 20> H      1.523271    2.581941    0.202423
| 21> H      0.343221    3.289948   -0.909829
| 22> H     -1.523271   -2.581941    0.202423
| 23> H     -0.343221   -3.289948   -0.909829
| 24> H      0.140113    1.170529   -2.121857
| 25> H      1.415919    0.554537   -1.050343
| 26> H     -0.140113   -1.170529   -2.121857
| 27> H     -1.415919   -0.554537   -1.050343
| 28> *
| 29>
| 30>                          ****END OF INPUT****

CARTESIAN COORDINATES (ANGSTROEM)
---------------------------------
  C     -0.185454    3.476467    1.177678
  C      0.185454   -3.476467    1.177678
  C      0.448568    2.723875    0.026404
  C     -0.448568   -2.723875    0.026404
  C      0.330721    0.678899   -1.157349
  C     -0.330721   -0.678899   -1.157349
  O     -0.185454    1.462479   -0.100569
  O      0.185454   -1.462479   -0.100569
  H      0.289479    4.450910    1.299148
  H     -1.249152    3.631512    0.997075
  H     -0.073398    2.919207    2.107537
  H     -0.289479   -4.450910    1.299148
  H      1.249152   -3.631512    0.997075
  H      0.073398   -2.919207    2.107537
  H      1.523271    2.581941    0.202423
  H      0.343221    3.289948   -0.909829
  H     -1.523271   -2.581941    0.202423
  H     -0.343221   -3.289948   -0.909829
  H      0.140113    1.170529   -2.121857
  H      1.415919    0.554537   -1.050343
  H     -0.140113   -1.170529   -2.121857
  H     -1.415919   -0.554537   -1.050343

 Total Charge           Charge          ....    0
 Multiplicity           Mult            ....    1
 Number of Electrons    NEL             ....   66
 Basis Dimension        Dim             ....  310

ORBITAL ENERGIES
----------------

  NO   OCC          E(Eh)            E(eV)
   0   2.0000     -20.558382      -559.4220
   1   2.0000     -20.558381      -559.4220
   2   2.0000     -11.277766      -306.8836
   3   2.0000     -11.277109      -306.8657
   4   2.0000     -11.276909      -306.8603
   5   2.0000     -11.276909      -306.8603
   6   2.0000     -11.217151      -305.2342
   7   2.0000     -11.217151      -305.2342
   8   2.0000      -1.380719       -37.5713
   9   2.0000      -1.364341       -37.1256
  10   2.0000      -1.050110       -28.5749
  11   2.0000      -1.014068       -27.5942
  12   2.0000      -0.964589       -26.2478
  13   2.0000      -0.842623       -22.9289
  14   2.0000      -0.831695       -22.6316
  15   2.0000      -0.821416       -22.3519
  16   2.0000      -0.683612       -18.6020
  17   2.0000      -0.681368       -18.5410
  18   2.0000      -0.648905       -17.6576
  19   2.0000      -0.642660       -17.4877
  20   2.0000      -0.623798       -16.9744
  21   2.0000      -0.580893       -15.8069
  22   2.0000      -0.569106       -15.4862
  23   2.0000      -0.555506       -15.1161
  24   2.0000      -0.531564       -14.4646
  25   2.0000      -0.528518       -14.3817
  26   2.0000      -0.499334       -13.5876
  27   2.0000      -0.496316       -13.5054
  28   2.0000      -0.487782       -13.2732
  29   2.0000      -0.472031       -12.8446
  30   2.0000      -0.463831       -12.6215
  31   2.0000      -0.421232       -11.4623
  32   2.0000      -0.411298       -11.1920
  33   0.0000       0.037559         1.0220
  34   0.0000       0.041991         1.1426
  35   0.0000       0.045398         1.2354
  36   0.0000       0.047183         1.2839
  37   0.0000       0.056795         1.5455

MULLIKEN ATOMIC CHARGES
-----------------------
   0 C :    0.306676
   1 C :    0.306676
   2 C :    0.602476
   3 C :    0.602476
   4 C :    0.737592
   5 C :    0.737592
   6 O :   -0.903897
   7 O :   -0.903897
   8 H :   -0.055757
   9 H :   -0.056099
  10 H :   -0.041823
  11 H :   -0.055757
  12 H :   -0.056099
  13 H :   -0.041823
  14 H :   -0.148410
  15 H :   -0.142287
  16 H :   -0.148410
  17 H :   -0.142287
  18 H :   -0.137227
  19 H :   -0.161245
  20 H :   -0.137227
  21 H :   -0.161245
Sum of atomic charges:   -0.0000000

LOEWDIN ATOMIC CHARGES
----------------------
   0 C :    0.135941
   1 C :    0.135941
   2 C :   -0.087526
   3 C :   -0.087526
   4 C :   -0.044934
   5 C :   -0.044934
   6 O :    0.006051
   7 O :    0.006051
   8 H :   -0.018391
   9 H :   -0.017339
  10 H :   -0.016078
  11 H :   -0.018391
  12 H :   -0.017339
  13 H :   -0.016078
  14 H :    0.006765
  15 H :    0.006057
  16 H :    0.006765
  17 H :    0.006057
  18 H :    0.013626
  19 H :    0.015828
  20 H :    0.013626
  21 H :    0.015828

  Mayer bond orders larger than 0.100000
B(  0-C ,  2-C ) :   1.2601 B(  0-C ,  8-H ) :   0.8973 B(  0-C ,  9-H ) :   0.9466
B(  0-C , 10-H ) :   0.9451 B(  1-C ,  3-C ) :   1.2601 B(  1-C , 11-H ) :   0.8973
B(  1-C , 12-H ) :   0.9466 B(  1-C , 13-H ) :   0.9451 B(  2-C ,  6-O ) :   0.6941
B(  2-C , 14-H ) :   0.8743 B(  2-C , 15-H ) :   0.8872 B(  3-C ,  7-O ) :   0.6941
B(  3-C , 16-H ) :   0.8743 B(  3-C , 17-H ) :   0.8872 B(  4-C ,  5-C ) :   1.3077
B(  4-C ,  6-O ) :   0.7976 B(  4-C ,  7-O ) :  -0.1401 B(  4-C , 18-H ) :   0.7822
B(  4-C , 19-H ) :   1.0187 B(  4-C , 21-H ) :  -0.1217 B(  5-C ,  6-O ) :  -0.1401
B(  5-C ,  7-O ) :   0.7976 B(  5-C , 19-H ) :  -0.1217 B(  5-C , 20-H ) :   0.7822
B(  5-C , 21-H ) :   1.0187

MP2 TOTAL ENERGY:     -386.396578458 Eh
FINAL SINGLE POINT ENERGY      -386.396578458371

DIPOLE MOMENT
-------------
                                X             Y             Z
Electronic contribution:     -0.00000      -0.00000      -1.63884
Nuclear contribution   :      0.00000      -0.00000       1.09623
                        -----------------------------------------
Total Dipole Moment    :     -0.00000      -0.00000      -0.54261
                        -----------------------------------------
Magnitude (a.u.)       :      0.54261
Magnitude (Debye)      :      1.37921

Rotational constants in cm-1:     0.147142     0.024356     0.022064
Rotational constants in MHz :  4411.211861   730.185968   661.462974

                             ****ORCA TERMINATED NORMALLY****
TOTAL RUN TIME: 0 days 0 hours 1 minutes 13 seconds 303 msec
