                         Program Version 5.0.3 -  RELEASE  -
|  1> !ri-mp2 aug-cc-pvdz aug-cc-pvdz/c tightscf
|  2> %pal nprocs 16 end
|  3>
|  4> * xyz 0 1
|  5> H      0.551499   -2.301909    0.000000
|  6> H      1.666462   -0.888490    0.000000
|  7> C      0.613674   -1.217264    0.000000
|  8> O     -0.017447   -0.764404    1.171597
|  9> O     -0.017447   -0.764404   -1.171597
| 10> H     -0.553642    0.923256   -2.152989
| 11> H      1.017015    1.020150   -1.338331
| 12> C     -0.017447    0.661398   -1.242927
| 13> H      1.017015    1.020150    1.338331
| 14> H     -0.553642    0.923256    2.152989
| 15> C     -0.017447    0.661398    1.242927
| 16> H     -0.568831    2.344294    0.000000
| 17> H     -1.736457    1.016352    0.000000
| 18> C     -0.672158    1.256703    0.000000
| 19> *
| 20>
| 21>                          ****END OF INPUT****

CARTESIAN COORDINATES (ANGSTROEM)
---------------------------------
  H      0.551499   -2.301909    0.000000
  H      1.666462   -0.888490    0.000000
  C      0.613674   -1.217264    0.000000
  O     -0.017447   -0.764404    1.171597
  O     -0.017447   -0.764404   -1.171597
  H     -0.553642    0.923256   -2.152989
  H      1.017015    1.020150   -1.338331
  C     -0.017447    0.661398   -1.242927
  H      1.017015    1.020150    1.338331
  H     -0.553642    0.923256    2.152989
  C     -0.017447    0.661398    1.242927
  H     -0.568831    2.344294    0.000000
  H     -1.736457    1.016352    0.000000
  C     -0.672158    1.256703    0.000000

 Total Charge           Charge          ....    0
 Multiplicity           Mult            ....    1
 Number of Electrons    NEL             ....   48
 Basis Dimension        Dim             ....  210

ORBITAL ENERGIES
----------------

  NO   OCC          E(Eh)            E(eV)
   0   2.0000     -20.571349      -559.7749
   1   2.0000     -20.571331      -559.7744
   2   2.0000     -11.332764      -308.3802
   3   2.0000     -11.287702      -307.1540
   4   2.0000     -11.287695      -307.1538
   5   2.0000     -11.235284      -305.7276
   6   2.0000      -1.423547       -38.7367
   7   2.0000      -1.346560       -36.6418
   8   2.0000      -1.068872       -29.0855
   9   2.0000      -0.920363       -25.0444
  10   2.0000      -0.915167       -24.9030
  11   2.0000      -0.798600       -21.7310
  12   2.0000      -0.705933       -19.2094
  13   2.0000      -0.667551       -18.1650
  14   2.0000      -0.653707       -17.7883
  15   2.0000      -0.636085       -17.3088
  16   2.0000      -0.615438       -16.7469
  17   2.0000      -0.567553       -15.4439
  18   2.0000      -0.566386       -15.4121
  19   2.0000      -0.510781       -13.8991
  20   2.0000      -0.482650       -13.1336
  21   2.0000      -0.479106       -13.0371
  22   2.0000      -0.430328       -11.7098
  23   2.0000      -0.426729       -11.6119
  24   0.0000       0.034689         0.9439
  25   0.0000       0.045447         1.2367
  26   0.0000       0.047147         1.2829
  27   0.0000       0.049322         1.3421
  28   0.0000       0.065293         1.7767

MULLIKEN ATOMIC CHARGES
-----------------------
   0 H :   -0.332228
   1 H :   -0.058639
   2 C :    1.253800
   3 O :   -0.891801
   4 O :   -0.891801
   5 H :   -0.245052
   6 H :   -0.113059
   7 C :    0.818940
   8 H :   -0.113059
   9 H :   -0.245052
  10 C :    0.818940
  11 H :   -0.020529
  12 H :   -0.118814
  13 C :    0.138354
Sum of atomic charges:   -0.0000000

LOEWDIN ATOMIC CHARGES
----------------------
   0 H :    0.003770
   1 H :    0.010129
   2 C :   -0.038870
   3 O :    0.005686
   4 O :    0.005686
   5 H :    0.007866
   6 H :    0.011992
   7 C :   -0.023269
   8 H :    0.011992
   9 H :    0.007866
  10 C :   -0.023269
  11 H :    0.019842
  12 H :    0.020218
  13 C :   -0.019639

  Mayer bond orders larger than 0.100000
B(  0-H ,  1-H ) :  -0.1695 B(  0-H ,  2-C ) :   1.1905 B(  1-H ,  2-C ) :   0.8657
B(  2-C ,  3-O ) :   0.6374 B(  2-C ,  4-O ) :   0.6374 B(  3-O , 10-C ) :   0.5942
B(  4-O ,  7-C ) :   0.5942 B(  5-H ,  6-H ) :  -0.1441 B(  5-H ,  7-C ) :   0.9533
B(  6-H ,  7-C ) :   0.8580 B(  7-C , 13-C ) :   1.2626 B(  8-H ,  9-H ) :  -0.1441
B(  8-H , 10-C ) :   0.8580 B(  9-H , 10-C ) :   0.9533 B( 10-C , 13-C ) :   1.2626
B( 11-H , 13-C ) :   0.8209 B( 12-H , 13-C ) :   0.8596

MP2 TOTAL ENERGY:     -306.846670403 Eh
FINAL SINGLE POINT ENERGY      -306.846670402868

DIPOLE MOMENT
-------------
                                X             Y             Z
Electronic contribution:     -0.51422      -3.27460      -0.00000
Nuclear contribution   :      0.85831       4.12641       0.00000
                        -----------------------------------------
Total Dipole Moment    :      0.34408       0.85180      -0.00000
                        -----------------------------------------
Magnitude (a.u.)       :      0.91867
Magnitude (Debye)      :      2.33508

Rotational constants in cm-1:     0.166156     0.160341     0.091470
Rotational constants in MHz :  4981.225016  4806.893536  2742.199326

                             ****ORCA TERMINATED NORMALLY****
TOTAL RUN TIME: 0 days 0 hours 0 minutes 39 seconds 696 msec
