                         Program Version 5.0.3 -  RELEASE  -
|  1> !ri-mp2 aug-cc-pvdz aug-cc-pvdz/c tightscf
|  2> %pal nprocs 16 end
|  3>
|  4> * xyz 0 1
|  5> C     4.257269   -0.037794    0.000030
|  6> C    -3.949908   -0.598011    0.000036
|  7> C     2.887553    0.627975    0.000013
|  8> C    -1.167307   -0.413074   -0.000018
|  9> C     0.091194    0.440608   -0.000020
| 10> S    -2.645575    0.670998   -0.000005
| 11> S     1.568672   -0.643862   -0.000022
| 12> H     4.392436   -0.663324    0.882566
| 13> H     4.392468   -0.663306   -0.882513
| 14> H     5.042030    0.719953    0.000052
| 15> H    -3.889650   -1.219817   -0.891752
| 16> H    -4.901476   -0.070840    0.000059
| 17> H    -3.889600   -1.219808    0.891826
| 18> H     2.763247    1.254670   -0.883576
| 19> H     2.763215    1.254650    0.883612
| 20> H    -1.197075   -1.048863    0.885008
| 21> H    -1.197083   -1.048856   -0.885049
| 22> H     0.119565    1.076575   -0.884964
| 23> H     0.119567    1.076572    0.884926
| 24> *
| 25>
| 26>                          ****END OF INPUT****

CARTESIAN COORDINATES (ANGSTROEM)
---------------------------------
  C      4.257269   -0.037794    0.000030
  C     -3.949908   -0.598011    0.000036
  C      2.887553    0.627975    0.000013
  C     -1.167307   -0.413074   -0.000018
  C      0.091194    0.440608   -0.000020
  S     -2.645575    0.670998   -0.000005
  S      1.568672   -0.643862   -0.000022
  H      4.392436   -0.663324    0.882566
  H      4.392468   -0.663306   -0.882513
  H      5.042030    0.719953    0.000052
  H     -3.889650   -1.219817   -0.891752
  H     -4.901476   -0.070840    0.000059
  H     -3.889600   -1.219808    0.891826
  H      2.763247    1.254670   -0.883576
  H      2.763215    1.254650    0.883612
  H     -1.197075   -1.048863    0.885008
  H     -1.197083   -1.048856   -0.885049
  H      0.119565    1.076575   -0.884964
  H      0.119567    1.076572    0.884926

 Total Charge           Charge          ....    0
 Multiplicity           Mult            ....    1
 Number of Electrons    NEL             ....   74
 Basis Dimension        Dim             ....  277

ORBITAL ENERGIES
----------------

  NO   OCC          E(Eh)            E(eV)
   0   2.0000     -91.948153     -2502.0364
   1   2.0000     -91.944468     -2501.9362
   2   2.0000     -11.268761      -306.6386
   3   2.0000     -11.268062      -306.6196
   4   2.0000     -11.265161      -306.5406
   5   2.0000     -11.261057      -306.4289
   6   2.0000     -11.232397      -305.6491
   7   2.0000      -8.949600      -243.5310
   8   2.0000      -8.946170      -243.4377
   9   2.0000      -6.631648      -180.4563
  10   2.0000      -6.630239      -180.4180
  11   2.0000      -6.628165      -180.3616
  12   2.0000      -6.628158      -180.3614
  13   2.0000      -6.626802      -180.3245
  14   2.0000      -6.624742      -180.2684
  15   2.0000      -1.102861       -30.0104
  16   2.0000      -1.063866       -28.9493
  17   2.0000      -1.014841       -27.6152
  18   2.0000      -0.937006       -25.4972
  19   2.0000      -0.860866       -23.4253
  20   2.0000      -0.801710       -21.8156
  21   2.0000      -0.792506       -21.5652
  22   2.0000      -0.651305       -17.7229
  23   2.0000      -0.625376       -17.0173
  24   2.0000      -0.605942       -16.4885
  25   2.0000      -0.593483       -16.1495
  26   2.0000      -0.587039       -15.9741
  27   2.0000      -0.561987       -15.2924
  28   2.0000      -0.530765       -14.4428
  29   2.0000      -0.529723       -14.4145
  30   2.0000      -0.525720       -14.3056
  31   2.0000      -0.505720       -13.7613
  32   2.0000      -0.454348       -12.3634
  33   2.0000      -0.431353       -11.7377
  34   2.0000      -0.425213       -11.5706
  35   2.0000      -0.344525        -9.3750
  36   2.0000      -0.332486        -9.0474
  37   0.0000       0.036903         1.0042
  38   0.0000       0.037948         1.0326
  39   0.0000       0.049207         1.3390
  40   0.0000       0.049232         1.3397
  41   0.0000       0.054008         1.4696

MULLIKEN ATOMIC CHARGES
-----------------------
   0 C :    0.440055
   1 C :    0.169356
   2 C :   -0.046983
   3 C :    0.065724
   4 C :   -0.029012
   5 S :    0.363911
   6 S :    0.346791
   7 H :   -0.068846
   8 H :   -0.068849
   9 H :   -0.040645
  10 H :   -0.081226
  11 H :   -0.115799
  12 H :   -0.081230
  13 H :   -0.145165
  14 H :   -0.145164
  15 H :   -0.139802
  16 H :   -0.139801
  17 H :   -0.141659
  18 H :   -0.141658
Sum of atomic charges:   -0.0000000

LOEWDIN ATOMIC CHARGES
----------------------
   0 C :    0.066633
   1 C :   -0.139275
   2 C :   -0.324961
   3 C :   -0.365083
   4 C :   -0.360753
   5 S :    0.787097
   6 S :    0.832851
   7 H :   -0.024975
   8 H :   -0.024975
   9 H :   -0.021851
  10 H :   -0.068250
  11 H :   -0.072307
  12 H :   -0.068251
  13 H :   -0.035167
  14 H :   -0.035167
  15 H :   -0.036480
  16 H :   -0.036480
  17 H :   -0.036302
  18 H :   -0.036302

  Mayer bond orders larger than 0.100000
B(  0-C ,  2-C ) :   1.2071 B(  0-C ,  6-S ) :  -0.1010 B(  0-C ,  7-H ) :   0.9439
B(  0-C ,  8-H ) :   0.9439 B(  0-C ,  9-H ) :   0.9285 B(  1-C ,  5-S ) :   0.9847
B(  1-C , 10-H ) :   1.0034 B(  1-C , 11-H ) :   1.0020 B(  1-C , 12-H ) :   1.0034
B(  2-C ,  6-S ) :   1.0162 B(  2-C , 13-H ) :   0.9096 B(  2-C , 14-H ) :   0.9096
B(  3-C ,  4-C ) :   1.4240 B(  3-C ,  5-S ) :   1.0153 B(  3-C , 15-H ) :   0.9555
B(  3-C , 16-H ) :   0.9555 B(  4-C ,  6-S ) :   0.9925 B(  4-C , 17-H ) :   0.9677
B(  4-C , 18-H ) :   0.9677

MP2 TOTAL ENERGY:     -992.448348514 Eh
FINAL SINGLE POINT ENERGY      -992.448348513557

DIPOLE MOMENT
-------------
                                X             Y             Z
Electronic contribution:     -4.55304       0.57481      -0.00017
Nuclear contribution   :      4.64126      -0.56422       0.00020
                        -----------------------------------------
Total Dipole Moment    :      0.08822       0.01059       0.00002
                        -----------------------------------------
Magnitude (a.u.)       :      0.08885
Magnitude (Debye)      :      0.22584

Rotational constants in cm-1:     0.276937     0.017368     0.016598
Rotational constants in MHz :  8302.365049   520.680924   497.580564

                             ****ORCA TERMINATED NORMALLY****
TOTAL RUN TIME: 0 days 0 hours 0 minutes 57 seconds 709 msec
