                         Program Version 5.0.3 -  RELEASE  -
|  1> !ri-mp2 aug-cc-pvdz aug-cc-pvdz/c tightscf
|  2> %pal nprocs 16 end
|  3>
|  4> * xyz 0 1
|  5> O     -1.090936    0.355540        0.000000
|  6> N     -0.611357   -1.025671        0.000000
|  7> N      0.631549   -0.984727        0.000000
|  8> C      1.095265    0.310964        0.000000
|  9> C      0.000000    1.106756        0.000000
| 10> H      2.142317    0.547367        0.000000
| 11> H     -0.127759    2.174789        0.000000
| 12> *
| 13>
| 14>                          ****END OF INPUT****

CARTESIAN COORDINATES (ANGSTROEM)
---------------------------------
  O     -1.090936    0.355540    0.000000
  N     -0.611357   -1.025671    0.000000
  N      0.631549   -0.984727    0.000000
  C      1.095265    0.310964    0.000000
  C      0.000000    1.106756    0.000000
  H      2.142317    0.547367    0.000000
  H     -0.127759    2.174789    0.000000

 Total Charge           Charge          ....    0
 Multiplicity           Mult            ....    1
 Number of Electrons    NEL             ....   36
 Basis Dimension        Dim             ....  133

ORBITAL ENERGIES
----------------

  NO   OCC          E(Eh)            E(eV)
   0   2.0000     -20.674192      -562.5734
   1   2.0000     -15.708910      -427.4612
   2   2.0000     -15.657813      -426.0707
   3   2.0000     -11.344847      -308.7090
   4   2.0000     -11.287546      -307.1497
   5   2.0000      -1.535394       -41.7802
   6   2.0000      -1.336564       -36.3698
   7   2.0000      -1.108654       -30.1680
   8   2.0000      -0.885420       -24.0935
   9   2.0000      -0.865664       -23.5559
  10   2.0000      -0.761924       -20.7330
  11   2.0000      -0.684521       -18.6268
  12   2.0000      -0.657577       -17.8936
  13   2.0000      -0.601846       -16.3771
  14   2.0000      -0.561540       -15.2803
  15   2.0000      -0.507997       -13.8233
  16   2.0000      -0.478005       -13.0072
  17   2.0000      -0.388879       -10.5819
  18   0.0000       0.029040         0.7902
  19   0.0000       0.042986         1.1697
  20   0.0000       0.077398         2.1061
  21   0.0000       0.085027         2.3137
  22   0.0000       0.104114         2.8331

MULLIKEN ATOMIC CHARGES
-----------------------
   0 O :   -0.743062
   1 N :   -0.018760
   2 N :   -0.329203
   3 C :    0.595890
   4 C :    0.854005
   5 H :   -0.172230
   6 H :   -0.186640
Sum of atomic charges:    0.0000000

LOEWDIN ATOMIC CHARGES
----------------------
   0 O :    0.031465
   1 N :    0.054085
   2 N :   -0.040205
   3 C :   -0.037343
   4 C :    0.002396
   5 H :   -0.016104
   6 H :    0.005706

  Mayer bond orders larger than 0.100000
B(  0-O ,  1-N ) :   0.6763 B(  0-O ,  3-C ) :   0.1173 B(  0-O ,  4-C ) :   0.7285
B(  1-N ,  2-N ) :   1.1789 B(  2-N ,  3-C ) :   0.8100 B(  3-C ,  4-C ) :   1.7157
B(  3-C ,  5-H ) :   0.9127 B(  4-C ,  6-H ) :   0.9424

MP2 TOTAL ENERGY:     -261.412158805 Eh
FINAL SINGLE POINT ENERGY      -261.412158804976

DIPOLE MOMENT
-------------
                                X             Y             Z
Electronic contribution:     -1.27992      -1.36323       0.00000
Nuclear contribution   :      1.92789       2.62134       0.00000
                        -----------------------------------------
Total Dipole Moment    :      0.64798       1.25811       0.00000
                        -----------------------------------------
Magnitude (a.u.)       :      1.41517
Magnitude (Debye)      :      3.59708

Rotational constants in cm-1:     0.348754     0.326062     0.168513
Rotational constants in MHz : 10455.383115  9775.092106  5051.899762

                             ****ORCA TERMINATED NORMALLY****
TOTAL RUN TIME: 0 days 0 hours 0 minutes 52 seconds 283 msec
