                         Program Version 5.0.3 -  RELEASE  -
|  1> !ri-mp2 aug-cc-pvdz aug-cc-pvdz/c tightscf
|  2> %pal nprocs 16 end
|  3>
|  4> * xyz 0 1
|  5> C      3.803979   -0.333546   -0.007335
|  6> C      2.523952    0.499934    0.021358
|  7> C      1.251148   -0.346744   -0.014028
|  8> C     -0.035517    0.479205    0.013309
|  9> C     -1.306448   -0.371112   -0.025050
| 10> C     -2.580107    0.464187    0.009234
| 11> O     -3.770500   -0.317449   -0.083397
| 12> H      4.692588    0.298478    0.020787
| 13> H      3.852231   -1.011503    0.847324
| 14> H      3.858181   -0.941543   -0.912719
| 15> H      2.519811    1.190707   -0.827105
| 16> H      2.515487    1.124471    0.919783
| 17> H      1.255049   -1.037842    0.835498
| 18> H      1.259420   -0.972533   -0.912499
| 19> H     -0.037623    1.169441   -0.836563
| 20> H     -0.042076    1.104927    0.911889
| 21> H     -1.308490   -1.061289    0.826320
| 22> H     -1.317911   -0.988628   -0.926931
| 23> H     -2.600079    1.086487    0.912165
| 24> H     -2.612653    1.137348   -0.848433
| 25> H     -3.811971   -0.910475    0.672738
| 26> *
| 27>
| 28>                          ****END OF INPUT****

CARTESIAN COORDINATES (ANGSTROEM)
---------------------------------
  C      3.803979   -0.333546   -0.007335
  C      2.523952    0.499934    0.021358
  C      1.251148   -0.346744   -0.014028
  C     -0.035517    0.479205    0.013309
  C     -1.306448   -0.371112   -0.025050
  C     -2.580107    0.464187    0.009234
  O     -3.770500   -0.317449   -0.083397
  H      4.692588    0.298478    0.020787
  H      3.852231   -1.011503    0.847324
  H      3.858181   -0.941543   -0.912719
  H      2.519811    1.190707   -0.827105
  H      2.515487    1.124471    0.919783
  H      1.255049   -1.037842    0.835498
  H      1.259420   -0.972533   -0.912499
  H     -0.037623    1.169441   -0.836563
  H     -0.042076    1.104927    0.911889
  H     -1.308490   -1.061289    0.826320
  H     -1.317911   -0.988628   -0.926931
  H     -2.600079    1.086487    0.912165
  H     -2.612653    1.137348   -0.848433
  H     -3.811971   -0.910475    0.672738

 Total Charge           Charge          ....    0
 Multiplicity           Mult            ....    1
 Number of Electrons    NEL             ....   58
 Basis Dimension        Dim             ....  287

ORBITAL ENERGIES
----------------

  NO   OCC          E(Eh)            E(eV)
   0   2.0000     -20.563391      -559.5583
   1   2.0000     -11.277725      -306.8825
   2   2.0000     -11.227271      -305.5096
   3   2.0000     -11.225780      -305.4690
   4   2.0000     -11.224633      -305.4378
   5   2.0000     -11.223822      -305.4157
   6   2.0000     -11.218921      -305.2823
   7   2.0000      -1.356505       -36.9124
   8   2.0000      -1.090743       -29.6806
   9   2.0000      -1.038086       -28.2478
  10   2.0000      -0.958825       -26.0909
  11   2.0000      -0.872148       -23.7323
  12   2.0000      -0.811582       -22.0843
  13   2.0000      -0.792118       -21.5546
  14   2.0000      -0.689058       -18.7502
  15   2.0000      -0.651560       -17.7299
  16   2.0000      -0.619595       -16.8600
  17   2.0000      -0.603010       -16.4087
  18   2.0000      -0.588808       -16.0223
  19   2.0000      -0.571593       -15.5538
  20   2.0000      -0.547452       -14.8969
  21   2.0000      -0.530937       -14.4475
  22   2.0000      -0.501090       -13.6353
  23   2.0000      -0.493450       -13.4275
  24   2.0000      -0.478549       -13.0220
  25   2.0000      -0.466115       -12.6836
  26   2.0000      -0.463411       -12.6100
  27   2.0000      -0.460747       -12.5376
  28   2.0000      -0.427958       -11.6453
  29   0.0000       0.035635         0.9697
  30   0.0000       0.039464         1.0739
  31   0.0000       0.042883         1.1669
  32   0.0000       0.046081         1.2539
  33   0.0000       0.055980         1.5233

MULLIKEN ATOMIC CHARGES
-----------------------
   0 C :    0.531202
   1 C :    0.395899
   2 C :    0.117731
   3 C :    0.163834
   4 C :    0.329192
   5 C :    1.262921
   6 O :   -0.730953
   7 H :   -0.076766
   8 H :   -0.092485
   9 H :   -0.092124
  10 H :   -0.182101
  11 H :   -0.183938
  12 H :   -0.217288
  13 H :   -0.216319
  14 H :   -0.201731
  15 H :   -0.200382
  16 H :   -0.203821
  17 H :   -0.141283
  18 H :   -0.165785
  19 H :   -0.226570
  20 H :    0.130768
Sum of atomic charges:   -0.0000000

LOEWDIN ATOMIC CHARGES
----------------------
   0 C :    0.130821
   1 C :   -0.072862
   2 C :   -0.042540
   3 C :   -0.036712
   4 C :   -0.036895
   5 C :   -0.049887
   6 O :    0.108565
   7 H :   -0.022024
   8 H :   -0.020314
   9 H :   -0.020065
  10 H :    0.011060
  11 H :    0.010844
  12 H :    0.016092
  13 H :    0.016906
  14 H :    0.017044
  15 H :    0.015871
  16 H :    0.013537
  17 H :    0.019075
  18 H :    0.004792
  19 H :    0.003840
  20 H :   -0.067146

  Mayer bond orders larger than 0.100000
B(  0-C ,  1-C ) :   1.1597 B(  0-C ,  7-H ) :   0.9128 B(  0-C ,  8-H ) :   0.9158
B(  0-C ,  9-H ) :   0.9143 B(  1-C ,  2-C ) :   1.2305 B(  1-C , 10-H ) :   0.7427
B(  1-C , 11-H ) :   0.7418 B(  2-C ,  3-C ) :   1.3613 B(  2-C , 10-H ) :   0.1022
B(  2-C , 11-H ) :   0.1061 B(  2-C , 12-H ) :   0.7894 B(  2-C , 13-H ) :   0.7854
B(  3-C ,  4-C ) :   1.2254 B(  3-C , 14-H ) :   0.7893 B(  3-C , 15-H ) :   0.8177
B(  4-C ,  5-C ) :   1.1585 B(  4-C , 16-H ) :   0.7220 B(  4-C , 17-H ) :   0.7677
B(  5-C ,  6-O ) :   0.4485 B(  5-C , 18-H ) :   0.8522 B(  5-C , 19-H ) :   0.8222
B(  6-O , 20-H ) :   1.0821

MP2 TOTAL ENERGY:     -311.362747172 Eh
FINAL SINGLE POINT ENERGY      -311.362747172126

DIPOLE MOMENT
-------------
                                X             Y             Z
Electronic contribution:     -8.10626      -0.21815      -0.25580
Nuclear contribution   :      8.70185       0.19514       0.72593
                        -----------------------------------------
Total Dipole Moment    :      0.59560      -0.02302       0.47013
                        -----------------------------------------
Magnitude (a.u.)       :      0.75914
Magnitude (Debye)      :      1.92957

Rotational constants in cm-1:     0.431295     0.023870     0.023233
Rotational constants in MHz : 12929.912275   715.592409   696.521987

                             ****ORCA TERMINATED NORMALLY****
TOTAL RUN TIME: 0 days 0 hours 1 minutes 27 seconds 880 msec
