                         Program Version 5.0.3 -  RELEASE  -
|  1> !ri-mp2 aug-cc-pvdz aug-cc-pvdz/c tightscf
|  2> %pal nprocs 16 end
|  3>
|  4> * xyz 0 1
|  5> Cl   -0.676413    1.647673   -0.198839
|  6> O     2.973312   -0.003864   -0.788694
|  7> N     1.171490   -0.909893    0.447772
|  8> N    -2.183834   -1.569197   -1.071477
|  9> C     0.125081   -0.508516    1.336558
| 10> C    -1.098061    0.085661    0.622655
| 11> C    -1.695846   -0.827966   -0.341528
| 12> C     2.065665   -0.383032   -0.161385
| 13> H     0.479121    0.224746    2.062267
| 14> H    -0.217303   -1.388512    1.882361
| 15> H    -1.843922    0.340978    1.373321
| 16> *
| 17>
| 18>                          ****END OF INPUT****

CARTESIAN COORDINATES (ANGSTROEM)
---------------------------------
  Cl    -0.676413    1.647673   -0.198839
  O      2.973312   -0.003864   -0.788694
  N      1.171490   -0.909893    0.447772
  N     -2.183834   -1.569197   -1.071477
  C      0.125081   -0.508516    1.336558
  C     -1.098061    0.085661    0.622655
  C     -1.695846   -0.827966   -0.341528
  C      2.065665   -0.383032   -0.161385
  H      0.479121    0.224746    2.062267
  H     -0.217303   -1.388512    1.882361
  H     -1.843922    0.340978    1.373321

 Total Charge           Charge          ....    0
 Multiplicity           Mult            ....    1
 Number of Electrons    NEL             ....   66
 Basis Dimension        Dim             ....  215

ORBITAL ENERGIES
----------------

  NO   OCC          E(Eh)            E(eV)
   0   2.0000    -104.869778     -2853.6517
   1   2.0000     -20.633796      -561.4741
   2   2.0000     -15.615420      -424.9172
   3   2.0000     -15.611463      -424.8095
   4   2.0000     -11.431680      -311.0718
   5   2.0000     -11.385181      -309.8065
   6   2.0000     -11.349638      -308.8394
   7   2.0000     -11.309654      -307.7513
   8   2.0000     -10.595278      -288.3122
   9   2.0000      -8.062912      -219.4030
  10   2.0000      -8.059554      -219.3116
  11   2.0000      -8.059476      -219.3095
  12   2.0000      -1.482248       -40.3340
  13   2.0000      -1.307122       -35.5686
  14   2.0000      -1.256672       -34.1958
  15   2.0000      -1.187466       -32.3126
  16   2.0000      -1.069007       -29.0892
  17   2.0000      -0.960484       -26.1361
  18   2.0000      -0.797441       -21.6995
  19   2.0000      -0.742283       -20.1985
  20   2.0000      -0.710113       -19.3232
  21   2.0000      -0.696346       -18.9485
  22   2.0000      -0.685704       -18.6589
  23   2.0000      -0.645910       -17.5761
  24   2.0000      -0.631947       -17.1962
  25   2.0000      -0.592320       -16.1178
  26   2.0000      -0.576883       -15.6978
  27   2.0000      -0.503040       -13.6884
  28   2.0000      -0.498390       -13.5619
  29   2.0000      -0.480667       -13.0796
  30   2.0000      -0.476573       -12.9682
  31   2.0000      -0.461583       -12.5603
  32   2.0000      -0.444587       -12.0978
  33   0.0000       0.020577         0.5599
  34   0.0000       0.042288         1.1507
  35   0.0000       0.045371         1.2346
  36   0.0000       0.061807         1.6819
  37   0.0000       0.077207         2.1009

MULLIKEN ATOMIC CHARGES
-----------------------
   0 Cl:   -0.069316
   1 O :   -0.424254
   2 N :   -0.275234
   3 N :   -0.258255
   4 C :    0.976542
   5 C :    0.034630
   6 C :   -0.068495
   7 C :    0.156513
   8 H :   -0.015836
   9 H :   -0.123609
  10 H :    0.067315
Sum of atomic charges:    0.0000000

LOEWDIN ATOMIC CHARGES
----------------------
   0 Cl:    0.571427
   1 O :    0.112491
   2 N :    0.046012
   3 N :    0.101912
   4 C :   -0.052765
   5 C :   -0.491546
   6 C :   -0.170877
   7 C :   -0.179753
   8 H :    0.024755
   9 H :    0.026293
  10 H :    0.012052

  Mayer bond orders larger than 0.100000
B(  0-Cl,  5-C ) :   1.0714 B(  1-O ,  7-C ) :   1.9840 B(  2-N ,  4-C ) :   0.6888
B(  2-N ,  7-C ) :   2.0091 B(  3-N ,  5-C ) :  -0.1193 B(  3-N ,  6-C ) :   2.7172
B(  4-C ,  5-C ) :   1.2146 B(  4-C ,  7-C ) :  -0.1464 B(  4-C ,  8-H ) :   0.8242
B(  4-C ,  9-H ) :   0.9388 B(  5-C ,  6-C ) :   0.4982 B(  5-C , 10-H ) :   0.8373
B(  8-H ,  9-H ) :  -0.1151

MP2 TOTAL ENERGY:     -797.715437514 Eh
FINAL SINGLE POINT ENERGY      -797.715437514191

DIPOLE MOMENT
-------------
                                X             Y             Z
Electronic contribution:      0.28596       3.51486      -3.40445
Nuclear contribution   :     -0.54455      -3.03359       5.30468
                        -----------------------------------------
Total Dipole Moment    :     -0.25859       0.48128       1.90023
                        -----------------------------------------
Magnitude (a.u.)       :      1.97721
Magnitude (Debye)      :      5.02568

Rotational constants in cm-1:     0.074881     0.040578     0.033352
Rotational constants in MHz :  2244.866626  1216.504364   999.860818

                             ****ORCA TERMINATED NORMALLY****
TOTAL RUN TIME: 0 days 0 hours 0 minutes 52 seconds 643 msec
