                         Program Version 5.0.3 -  RELEASE  -
|  1> !ri-mp2 aug-cc-pvdz aug-cc-pvdz/c tightscf
|  2> %pal nprocs 16 end
|  3>
|  4> * xyz 0 1
|  5> C     -1.932966    1.927138        0.000000
|  6> C      0.000000    0.897330        0.000000
|  7> C     -1.047973    0.007447        0.000000
|  8> C      1.374607    0.492230        0.000000
|  9> C      0.451293   -1.869624        0.000000
| 10> N     -2.246899    0.640758        0.000000
| 11> N     -0.597110    2.140003        0.000000
| 12> N     -0.830130   -1.346171        0.000000
| 13> N      1.466665   -0.911751        0.000000
| 14> O      2.362098    1.204052        0.000000
| 15> O      0.680205   -3.060162        0.000000
| 16> H     -2.646470    2.733790        0.000000
| 17> H     -0.115294    3.023307        0.000000
| 18> H     -1.595394   -2.001005        0.000000
| 19> H      2.401286   -1.294218        0.000000
| 20> *
| 21>
| 22>                          ****END OF INPUT****

CARTESIAN COORDINATES (ANGSTROEM)
---------------------------------
  C     -1.932966    1.927138    0.000000
  C      0.000000    0.897330    0.000000
  C     -1.047973    0.007447    0.000000
  C      1.374607    0.492230    0.000000
  C      0.451293   -1.869624    0.000000
  N     -2.246899    0.640758    0.000000
  N     -0.597110    2.140003    0.000000
  N     -0.830130   -1.346171    0.000000
  N      1.466665   -0.911751    0.000000
  O      2.362098    1.204052    0.000000
  O      0.680205   -3.060162    0.000000
  H     -2.646470    2.733790    0.000000
  H     -0.115294    3.023307    0.000000
  H     -1.595394   -2.001005    0.000000
  H      2.401286   -1.294218    0.000000

 Total Charge           Charge          ....    0
 Multiplicity           Mult            ....    1
 Number of Electrons    NEL             ....   78
 Basis Dimension        Dim             ....  289

ORBITAL ENERGIES
----------------

  NO   OCC          E(Eh)            E(eV)
   0   2.0000     -20.558548      -559.4265
   1   2.0000     -20.552823      -559.2707
   2   2.0000     -15.667096      -426.3234
   3   2.0000     -15.641346      -425.6227
   4   2.0000     -15.633901      -425.4201
   5   2.0000     -15.596908      -424.4135
   6   2.0000     -11.426169      -310.9219
   7   2.0000     -11.398919      -310.1804
   8   2.0000     -11.359546      -309.1090
   9   2.0000     -11.350350      -308.8587
  10   2.0000     -11.288268      -307.1694
  11   2.0000      -1.439907       -39.1819
  12   2.0000      -1.410942       -38.3937
  13   2.0000      -1.393619       -37.9223
  14   2.0000      -1.304110       -35.4866
  15   2.0000      -1.250152       -34.0184
  16   2.0000      -1.208158       -32.8757
  17   2.0000      -1.070356       -29.1259
  18   2.0000      -0.928384       -25.2626
  19   2.0000      -0.909364       -24.7450
  20   2.0000      -0.870909       -23.6986
  21   2.0000      -0.838993       -22.8302
  22   2.0000      -0.784011       -21.3340
  23   2.0000      -0.731636       -19.9088
  24   2.0000      -0.696566       -18.9545
  25   2.0000      -0.683463       -18.5980
  26   2.0000      -0.681665       -18.5490
  27   2.0000      -0.646194       -17.5838
  28   2.0000      -0.638305       -17.3692
  29   2.0000      -0.625544       -17.0219
  30   2.0000      -0.625098       -17.0098
  31   2.0000      -0.579344       -15.7648
  32   2.0000      -0.505602       -13.7581
  33   2.0000      -0.499366       -13.5884
  34   2.0000      -0.481276       -13.0962
  35   2.0000      -0.449540       -12.2326
  36   2.0000      -0.438397       -11.9294
  37   2.0000      -0.426852       -11.6152
  38   2.0000      -0.336886        -9.1671
  39   0.0000       0.020677         0.5626
  40   0.0000       0.043063         1.1718
  41   0.0000       0.045145         1.2285
  42   0.0000       0.056028         1.5246
  43   0.0000       0.067088         1.8255

MULLIKEN ATOMIC CHARGES
-----------------------
   0 C :    1.015103
   1 C :    0.887279
   2 C :    0.438317
   3 C :    1.211234
   4 C :    1.118147
   5 N :   -0.799691
   6 N :   -0.732211
   7 N :   -0.583040
   8 N :   -0.570598
   9 O :   -0.870971
  10 O :   -0.734604
  11 H :   -0.151807
  12 H :   -0.090680
  13 H :   -0.098337
  14 H :   -0.038141
Sum of atomic charges:   -0.0000000

LOEWDIN ATOMIC CHARGES
----------------------
   0 C :    0.032449
   1 C :   -0.087897
   2 C :   -0.196618
   3 C :   -0.281871
   4 C :   -0.314335
   5 N :    0.086650
   6 N :    0.144436
   7 N :    0.189596
   8 N :    0.199635
   9 O :    0.031970
  10 O :    0.037950
  11 H :    0.019904
  12 H :    0.051114
  13 H :    0.047113
  14 H :    0.039905

  Mayer bond orders larger than 0.100000
B(  0-C ,  5-N ) :   1.4968 B(  0-C ,  6-N ) :   1.2126 B(  0-C , 11-H ) :   0.8101
B(  0-C , 12-H ) :  -0.1274 B(  1-C ,  2-C ) :   1.2520 B(  1-C ,  3-C ) :   0.5365
B(  1-C ,  6-N ) :   0.6571 B(  1-C ,  8-N ) :   0.1011 B(  1-C , 12-H ) :  -0.1670
B(  2-C ,  3-C ) :   0.2404 B(  2-C ,  5-N ) :   0.9257 B(  2-C ,  7-N ) :   0.8222
B(  2-C , 11-H ) :   0.1446 B(  2-C , 13-H ) :  -0.1003 B(  3-C ,  6-N ) :  -0.1607
B(  3-C ,  8-N ) :   0.6961 B(  3-C ,  9-O ) :   1.1297 B(  4-C ,  7-N ) :   1.0933
B(  4-C ,  8-N ) :   0.9536 B(  4-C , 10-O ) :   1.4279 B(  4-C , 14-H ) :  -0.1110
B(  5-N ,  7-N ) :  -0.1169 B(  6-N , 12-H ) :   1.2747 B(  7-N , 13-H ) :   1.2101
B(  8-N , 14-H ) :   1.1783

MP2 TOTAL ENERGY:     -561.042942523 Eh
FINAL SINGLE POINT ENERGY      -561.042942522772

DIPOLE MOMENT
-------------
                                X             Y             Z
Electronic contribution:      0.70285      -0.77740       0.00000
Nuclear contribution   :     -1.84986       2.34564       0.00000
                        -----------------------------------------
Total Dipole Moment    :     -1.14701       1.56824       0.00000
                        -----------------------------------------
Magnitude (a.u.)       :      1.94294
Magnitude (Debye)      :      4.93856

Rotational constants in cm-1:     0.064513     0.037375     0.023665
Rotational constants in MHz :  1934.061651  1120.468307   709.456058

                             ****ORCA TERMINATED NORMALLY****
TOTAL RUN TIME: 0 days 0 hours 1 minutes 26 seconds 502 msec
