                         Program Version 5.0.3 -  RELEASE  -
|  1> !ri-mp2 aug-cc-pvdz aug-cc-pvdz/c tightscf
|  2> %pal nprocs 16 end
|  3>
|  4> * xyz 0 1
|  5> H      1.227612   -0.261128    2.198784
|  6> C      0.724797   -0.096543    1.254344
|  7> H     -1.227612    0.261128    2.198784
|  8> C     -0.724797    0.096543    1.254344
|  9> H     -2.497556    0.149519    0.117407
| 10> C     -1.419944    0.043846    0.113143
| 11> H      2.497556   -0.149519    0.117407
| 12> C      1.419944   -0.043846    0.113143
| 13> H     -1.272086    0.182344   -2.028442
| 14> H     -0.737591   -1.338573   -1.350141
| 15> C     -0.724797   -0.251426   -1.190421
| 16> H      1.272086   -0.182344   -2.028442
| 17> H      0.737591    1.338573   -1.350141
| 18> C      0.724797    0.251426   -1.190421
| 19> *
| 20>
| 21>                          ****END OF INPUT****

CARTESIAN COORDINATES (ANGSTROEM)
---------------------------------
  H      1.227612   -0.261128    2.198784
  C      0.724797   -0.096543    1.254344
  H     -1.227612    0.261128    2.198784
  C     -0.724797    0.096543    1.254344
  H     -2.497556    0.149519    0.117407
  C     -1.419944    0.043846    0.113143
  H      2.497556   -0.149519    0.117407
  C      1.419944   -0.043846    0.113143
  H     -1.272086    0.182344   -2.028442
  H     -0.737591   -1.338573   -1.350141
  C     -0.724797   -0.251426   -1.190421
  H      1.272086   -0.182344   -2.028442
  H      0.737591    1.338573   -1.350141
  C      0.724797    0.251426   -1.190421

 Total Charge           Charge          ....    0
 Multiplicity           Mult            ....    1
 Number of Electrons    NEL             ....   44
 Basis Dimension        Dim             ....  210

ORBITAL ENERGIES
----------------

  NO   OCC          E(Eh)            E(eV)
   0   2.0000     -11.233651      -305.6832
   1   2.0000     -11.233624      -305.6825
   2   2.0000     -11.232309      -305.6467
   3   2.0000     -11.231740      -305.6312
   4   2.0000     -11.229465      -305.5693
   5   2.0000     -11.228685      -305.5480
   6   2.0000      -1.132226       -30.8094
   7   2.0000      -1.011268       -27.5180
   8   2.0000      -1.007141       -27.4057
   9   2.0000      -0.847209       -23.0537
  10   2.0000      -0.803831       -21.8734
  11   2.0000      -0.687591       -18.7103
  12   2.0000      -0.671269       -18.2661
  13   2.0000      -0.607650       -16.5350
  14   2.0000      -0.585663       -15.9367
  15   2.0000      -0.578392       -15.7388
  16   2.0000      -0.544604       -14.8194
  17   2.0000      -0.513484       -13.9726
  18   2.0000      -0.475234       -12.9318
  19   2.0000      -0.454433       -12.3658
  20   2.0000      -0.421966       -11.4823
  21   2.0000      -0.300274        -8.1709
  22   0.0000       0.036485         0.9928
  23   0.0000       0.043616         1.1869
  24   0.0000       0.043919         1.1951
  25   0.0000       0.053403         1.4532
  26   0.0000       0.058954         1.6042

MULLIKEN ATOMIC CHARGES
-----------------------
   0 H :   -0.433043
   1 C :    0.315710
   2 H :   -0.433043
   3 C :    0.315710
   4 H :   -0.419221
   5 C :    0.277179
   6 H :   -0.419221
   7 C :    0.277179
   8 H :   -0.004722
   9 H :   -0.030629
  10 C :    0.294726
  11 H :   -0.004722
  12 H :   -0.030629
  13 C :    0.294726
Sum of atomic charges:    0.0000000

LOEWDIN ATOMIC CHARGES
----------------------
   0 H :   -0.006147
   1 C :   -0.015338
   2 H :   -0.006147
   3 C :   -0.015338
   4 H :   -0.006379
   5 C :    0.011601
   6 H :   -0.006379
   7 C :    0.011601
   8 H :    0.013120
   9 H :    0.022712
  10 C :   -0.019569
  11 H :    0.013120
  12 H :    0.022712
  13 C :   -0.019569

  Mayer bond orders larger than 0.100000
B(  0-H ,  1-C ) :   0.4918 B(  0-H ,  3-C ) :   0.1297 B(  0-H ,  7-C ) :   0.1166
B(  1-C ,  2-H ) :   0.1297 B(  1-C ,  3-C ) :   1.4139 B(  1-C ,  6-H ) :   0.1729
B(  1-C ,  7-C ) :   2.2075 B(  1-C , 13-C ) :  -0.1553 B(  2-H ,  3-C ) :   0.4918
B(  2-H ,  5-C ) :   0.1166 B(  3-C ,  4-H ) :   0.1729 B(  3-C ,  5-C ) :   2.2075
B(  3-C , 10-C ) :  -0.1553 B(  4-H ,  5-C ) :   0.6293 B(  5-C ,  7-C ) :   0.2274
B(  5-C ,  9-H ) :   0.1044 B(  5-C , 10-C ) :   1.2238 B(  6-H ,  7-C ) :   0.6293
B(  7-C , 12-H ) :   0.1044 B(  7-C , 13-C ) :   1.2238 B(  8-H , 10-C ) :   0.7187
B(  9-H , 10-C ) :   0.8359 B( 10-C , 13-C ) :   1.2594 B( 11-H , 13-C ) :   0.7187
B( 12-H , 13-C ) :   0.8359

MP2 TOTAL ENERGY:     -232.690046583 Eh
FINAL SINGLE POINT ENERGY      -232.690046582975

DIPOLE MOMENT
-------------
                                X             Y             Z
Electronic contribution:     -0.00000      -0.00000       1.99130
Nuclear contribution   :      0.00000      -0.00000      -2.19122
                        -----------------------------------------
Total Dipole Moment    :     -0.00000      -0.00000      -0.19991
                        -----------------------------------------
Magnitude (a.u.)       :      0.19991
Magnitude (Debye)      :      0.50814

Rotational constants in cm-1:     0.169771     0.169485     0.089908
Rotational constants in MHz :  5089.616323  5081.027061  2695.367828

                             ****ORCA TERMINATED NORMALLY****
TOTAL RUN TIME: 0 days 0 hours 0 minutes 37 seconds 879 msec
