                         Program Version 5.0.3 -  RELEASE  -
|  1> !ri-mp2 aug-cc-pvdz aug-cc-pvdz/c tightscf
|  2> %pal nprocs 16 end
|  3>
|  4> * xyz 0 1
|  5> C     -0.828503    1.164117   -0.040476
|  6> C     -2.134122    0.751924   -0.019718
|  7> C     -0.858343   -1.090763    0.034212
|  8> C     -0.008337   -0.005922   -0.006066
|  9> C      1.460971   -0.144754   -0.008282
| 10> N     -2.135628   -0.622343    0.026759
| 11> N      2.177223    1.021662    0.019301
| 12> O      2.017893   -1.232462   -0.050329
| 13> H     -0.508559    2.191256   -0.090948
| 14> H     -3.051869    1.312081   -0.038511
| 15> H     -0.625407   -2.139469    0.067307
| 16> H     -2.958272   -1.197272    0.051277
| 17> H      1.744712    1.904010    0.219798
| 18> H      3.175101    0.946245    0.113271
| 19> *
| 20>
| 21>                          ****END OF INPUT****

CARTESIAN COORDINATES (ANGSTROEM)
---------------------------------
  C     -0.828503    1.164117   -0.040476
  C     -2.134122    0.751924   -0.019718
  C     -0.858343   -1.090763    0.034212
  C     -0.008337   -0.005922   -0.006066
  C      1.460971   -0.144754   -0.008282
  N     -2.135628   -0.622343    0.026759
  N      2.177223    1.021662    0.019301
  O      2.017893   -1.232462   -0.050329
  H     -0.508559    2.191256   -0.090948
  H     -3.051869    1.312081   -0.038511
  H     -0.625407   -2.139469    0.067307
  H     -2.958272   -1.197272    0.051277
  H      1.744712    1.904010    0.219798
  H      3.175101    0.946245    0.113271

 Total Charge           Charge          ....    0
 Multiplicity           Mult            ....    1
 Number of Electrons    NEL             ....   58
 Basis Dimension        Dim             ....  238

ORBITAL ENERGIES
----------------

  NO   OCC          E(Eh)            E(eV)
   0   2.0000     -20.515629      -558.2586
   1   2.0000     -15.633448      -425.4077
   2   2.0000     -15.582624      -424.0248
   3   2.0000     -11.355059      -308.9869
   4   2.0000     -11.281062      -306.9733
   5   2.0000     -11.275330      -306.8173
   6   2.0000     -11.238286      -305.8093
   7   2.0000     -11.231945      -305.6368
   8   2.0000      -1.373059       -37.3628
   9   2.0000      -1.316434       -35.8220
  10   2.0000      -1.203705       -32.7545
  11   2.0000      -1.072002       -29.1707
  12   2.0000      -1.005679       -27.3659
  13   2.0000      -0.873160       -23.7599
  14   2.0000      -0.807192       -21.9648
  15   2.0000      -0.762115       -20.7382
  16   2.0000      -0.758795       -20.6479
  17   2.0000      -0.706828       -19.2338
  18   2.0000      -0.639583       -17.4039
  19   2.0000      -0.601402       -16.3650
  20   2.0000      -0.600225       -16.3330
  21   2.0000      -0.595376       -16.2010
  22   2.0000      -0.580215       -15.7884
  23   2.0000      -0.554927       -15.1003
  24   2.0000      -0.547275       -14.8921
  25   2.0000      -0.420830       -11.4514
  26   2.0000      -0.405692       -11.0394
  27   2.0000      -0.365850        -9.9553
  28   2.0000      -0.315425        -8.5831
  29   0.0000       0.026106         0.7104
  30   0.0000       0.033779         0.9192
  31   0.0000       0.042898         1.1673
  32   0.0000       0.057679         1.5695
  33   0.0000       0.065114         1.7718

MULLIKEN ATOMIC CHARGES
-----------------------
   0 C :    0.516155
   1 C :    0.552013
   2 C :    0.698279
   3 C :    0.490874
   4 C :    0.924282
   5 N :   -0.685998
   6 N :   -0.257360
   7 O :   -0.856185
   8 H :   -0.572403
   9 H :   -0.278642
  10 H :   -0.409374
  11 H :   -0.102970
  12 H :   -0.033539
  13 H :    0.014867
Sum of atomic charges:    0.0000000

LOEWDIN ATOMIC CHARGES
----------------------
   0 C :    0.033760
   1 C :    0.028083
   2 C :    0.100955
   3 C :   -0.152693
   4 C :   -0.353621
   5 N :    0.074049
   6 N :    0.275300
   7 O :    0.004448
   8 H :   -0.010508
   9 H :   -0.005075
  10 H :    0.017753
  11 H :    0.029756
  12 H :   -0.033129
  13 H :   -0.009078

  Mayer bond orders larger than 0.100000
B(  0-C ,  1-C ) :   1.4862 B(  0-C ,  2-C ) :  -0.3472 B(  0-C ,  3-C ) :   1.6180
B(  0-C ,  4-C ) :  -0.2966 B(  0-C ,  8-H ) :   0.2453 B(  1-C ,  5-N ) :   0.9182
B(  1-C ,  9-H ) :   0.7879 B(  1-C , 11-H ) :  -0.1586 B(  2-C ,  3-C ) :   1.2894
B(  2-C ,  5-N ) :   0.9589 B(  2-C , 10-H ) :   0.7109 B(  2-C , 11-H ) :  -0.1971
B(  3-C ,  4-C ) :   0.4332 B(  3-C ,  8-H ) :   0.3924 B(  4-C ,  6-N ) :   0.7618
B(  4-C ,  7-O ) :   1.2722 B(  4-C , 12-H ) :  -0.1359 B(  5-N , 11-H ) :   1.2879
B(  6-N , 12-H ) :   1.1283 B(  6-N , 13-H ) :   1.0460 B( 12-H , 13-H ) :  -0.1007

MP2 TOTAL ENERGY:     -377.875032516 Eh
FINAL SINGLE POINT ENERGY      -377.875032515759

DIPOLE MOMENT
-------------
                                X             Y             Z
Electronic contribution:      0.70495      -2.00527      -0.09009
Nuclear contribution   :     -2.16859       2.96741       0.31820
                        -----------------------------------------
Total Dipole Moment    :     -1.46364       0.96214       0.22811
                        -----------------------------------------
Magnitude (a.u.)       :      1.76635
Magnitude (Debye)      :      4.48971

Rotational constants in cm-1:     0.170139     0.051830     0.039760
Rotational constants in MHz :  5100.634912  1553.836866  1191.975893

                             ****ORCA TERMINATED NORMALLY****
TOTAL RUN TIME: 0 days 0 hours 0 minutes 52 seconds 188 msec
