                         Program Version 5.0.3 -  RELEASE  -
|  1> !ri-mp2 aug-cc-pvdz aug-cc-pvdz/c tightscf
|  2> %pal nprocs 16 end
|  3>
|  4> * xyz 0 1
|  5> S     0.596501   -1.254311   -0.215908
|  6> N    -0.521489    0.078464   -0.630668
|  7> N     0.161630    1.335417   -0.521980
|  8> N    -2.690102    0.007425    0.617646
|  9> C     1.600362   -0.083701    0.655744
| 10> C     1.269049    1.169256    0.363538
| 11> C    -1.667835    0.056671    0.083610
| 12> H     0.450648    1.618461   -1.455320
| 13> H     2.392643   -0.412715    1.306776
| 14> H     1.752966    2.060731    0.730728
| 15> *
| 16>
| 17>                          ****END OF INPUT****

CARTESIAN COORDINATES (ANGSTROEM)
---------------------------------
  S      0.596501   -1.254311   -0.215908
  N     -0.521489    0.078464   -0.630668
  N      0.161630    1.335417   -0.521980
  N     -2.690102    0.007425    0.617646
  C      1.600362   -0.083701    0.655744
  C      1.269049    1.169256    0.363538
  C     -1.667835    0.056671    0.083610
  H      0.450648    1.618461   -1.455320
  H      2.392643   -0.412715    1.306776
  H      1.752966    2.060731    0.730728

 Total Charge           Charge          ....    0
 Multiplicity           Mult            ....    1
 Number of Electrons    NEL             ....   58
 Basis Dimension        Dim             ....  192

ORBITAL ENERGIES
----------------

  NO   OCC          E(Eh)            E(eV)
   0   2.0000     -92.031350     -2504.3003
   1   2.0000     -15.688730      -426.9121
   2   2.0000     -15.652587      -425.9285
   3   2.0000     -15.578130      -423.9025
   4   2.0000     -11.313817      -307.8646
   5   2.0000     -11.312065      -307.8169
   6   2.0000     -11.299502      -307.4751
   7   2.0000      -9.029466      -245.7043
   8   2.0000      -6.711179      -182.6205
   9   2.0000      -6.709657      -182.5790
  10   2.0000      -6.706966      -182.5058
  11   2.0000      -1.384546       -37.6754
  12   2.0000      -1.228890       -33.4398
  13   2.0000      -1.148889       -31.2629
  14   2.0000      -1.102753       -30.0074
  15   2.0000      -0.941677       -25.6243
  16   2.0000      -0.823733       -22.4149
  17   2.0000      -0.771858       -21.0033
  18   2.0000      -0.729083       -19.8394
  19   2.0000      -0.673613       -18.3299
  20   2.0000      -0.626087       -17.0367
  21   2.0000      -0.577216       -15.7069
  22   2.0000      -0.559722       -15.2308
  23   2.0000      -0.537999       -14.6397
  24   2.0000      -0.504999       -13.7417
  25   2.0000      -0.466257       -12.6875
  26   2.0000      -0.447767       -12.1843
  27   2.0000      -0.418123       -11.3777
  28   2.0000      -0.342429        -9.3180
  29   0.0000       0.024873         0.6768
  30   0.0000       0.036506         0.9934
  31   0.0000       0.044776         1.2184
  32   0.0000       0.068387         1.8609
  33   0.0000       0.073970         2.0128

MULLIKEN ATOMIC CHARGES
-----------------------
   0 S :    0.586409
   1 N :   -0.532170
   2 N :   -0.394089
   3 N :   -0.370614
   4 C :    0.162600
   5 C :    0.717531
   6 C :    0.320238
   7 H :    0.087034
   8 H :   -0.355259
   9 H :   -0.221679
Sum of atomic charges:   -0.0000000

LOEWDIN ATOMIC CHARGES
----------------------
   0 S :    0.925971
   1 N :   -0.354287
   2 N :    0.039530
   3 N :    0.077255
   4 C :   -0.275077
   5 C :   -0.083666
   6 C :   -0.282662
   7 H :   -0.000286
   8 H :   -0.048199
   9 H :    0.001421

  Mayer bond orders larger than 0.100000
B(  0-S ,  1-N ) :   0.7069 B(  0-S ,  2-N ) :  -0.1093 B(  0-S ,  4-C ) :   0.8434
B(  1-N ,  2-N ) :   1.0469 B(  1-N ,  5-C ) :  -0.1972 B(  1-N ,  6-C ) :   1.0954
B(  2-N ,  5-C ) :   0.9351 B(  2-N ,  6-C ) :  -0.1294 B(  2-N ,  7-H ) :   1.0128
B(  3-N ,  6-C ) :   2.6214 B(  4-C ,  5-C ) :   2.1236 B(  4-C ,  8-H ) :   0.8734
B(  5-C ,  8-H ) :   0.1352 B(  5-C ,  9-H ) :   0.8434

MP2 TOTAL ENERGY:     -677.188750630 Eh
FINAL SINGLE POINT ENERGY      -677.188750630437

DIPOLE MOMENT
-------------
                                X             Y             Z
Electronic contribution:     -2.13591      -2.77792      -0.96633
Nuclear contribution   :      4.39028       3.19023       0.56391
                        -----------------------------------------
Total Dipole Moment    :      2.25437       0.41231      -0.40242
                        -----------------------------------------
Magnitude (a.u.)       :      2.32683
Magnitude (Debye)      :      5.91432

Rotational constants in cm-1:     0.133462     0.071161     0.054644
Rotational constants in MHz :  4001.086701  2133.347500  1638.176507

                             ****ORCA TERMINATED NORMALLY****
TOTAL RUN TIME: 0 days 0 hours 1 minutes 0 seconds 270 msec
