                         Program Version 5.0.3 -  RELEASE  -
|  1> !ri-mp2 aug-cc-pvdz aug-cc-pvdz/c tightscf
|  2> %pal nprocs 16 end
|  3>
|  4> * xyz 0 1
|  5> C      3.083882   -0.164653   -0.435306
|  6> C      2.038689   -0.211887    0.381630
|  7> C     -3.012649   -0.378385   -0.169663
|  8> C      0.775189    0.578680    0.225667
|  9> C     -1.771338    0.499840   -0.023071
| 10> C     -0.474243   -0.302353    0.082056
| 11> H      3.964976   -0.769042   -0.266002
| 12> H      3.096130    0.483870   -1.303601
| 13> H      2.074756   -0.880467    1.238236
| 14> H     -2.952804   -0.999751   -1.065528
| 15> H     -3.919711    0.223030   -0.243990
| 16> H     -3.127075   -1.046179    0.686669
| 17> H      0.861213    1.241498   -0.639318
| 18> H      0.645805    1.223387    1.102645
| 19> H     -1.704688    1.181440   -0.876345
| 20> H     -1.875165    1.133412    0.863013
| 21> H     -0.537082   -0.981633    0.938389
| 22> H     -0.363539   -0.937015   -0.802044
| 23> *
| 24>
| 25>                          ****END OF INPUT****

CARTESIAN COORDINATES (ANGSTROEM)
---------------------------------
  C      3.083882   -0.164653   -0.435306
  C      2.038689   -0.211887    0.381630
  C     -3.012649   -0.378385   -0.169663
  C      0.775189    0.578680    0.225667
  C     -1.771338    0.499840   -0.023071
  C     -0.474243   -0.302353    0.082056
  H      3.964976   -0.769042   -0.266002
  H      3.096130    0.483870   -1.303601
  H      2.074756   -0.880467    1.238236
  H     -2.952804   -0.999751   -1.065528
  H     -3.919711    0.223030   -0.243990
  H     -3.127075   -1.046179    0.686669
  H      0.861213    1.241498   -0.639318
  H      0.645805    1.223387    1.102645
  H     -1.704688    1.181440   -0.876345
  H     -1.875165    1.133412    0.863013
  H     -0.537082   -0.981633    0.938389
  H     -0.363539   -0.937015   -0.802044

 Total Charge           Charge          ....    0
 Multiplicity           Mult            ....    1
 Number of Electrons    NEL             ....   48
 Basis Dimension        Dim             ....  246

ORBITAL ENERGIES
----------------

  NO   OCC          E(Eh)            E(eV)
   0   2.0000     -11.236234      -305.7535
   1   2.0000     -11.228447      -305.5416
   2   2.0000     -11.224166      -305.4251
   3   2.0000     -11.223565      -305.4087
   4   2.0000     -11.223306      -305.4017
   5   2.0000     -11.218084      -305.2596
   6   2.0000      -1.093670       -29.7603
   7   2.0000      -1.045326       -28.4448
   8   2.0000      -0.968896       -26.3650
   9   2.0000      -0.870896       -23.6983
  10   2.0000      -0.794806       -21.6278
  11   2.0000      -0.755598       -20.5609
  12   2.0000      -0.652634       -17.7591
  13   2.0000      -0.622972       -16.9519
  14   2.0000      -0.594842       -16.1865
  15   2.0000      -0.583145       -15.8682
  16   2.0000      -0.555423       -15.1138
  17   2.0000      -0.533607       -14.5202
  18   2.0000      -0.505516       -13.7558
  19   2.0000      -0.488386       -13.2896
  20   2.0000      -0.473517       -12.8851
  21   2.0000      -0.464232       -12.6324
  22   2.0000      -0.458391       -12.4735
  23   2.0000      -0.357494        -9.7279
  24   0.0000       0.037461         1.0194
  25   0.0000       0.041986         1.1425
  26   0.0000       0.044674         1.2156
  27   0.0000       0.048517         1.3202
  28   0.0000       0.057845         1.5740

MULLIKEN ATOMIC CHARGES
-----------------------
   0 C :    0.459762
   1 C :    0.881923
   2 C :    0.478143
   3 C :    0.346583
   4 C :    0.289801
   5 C :   -0.111709
   6 H :   -0.304692
   7 H :   -0.298609
   8 H :   -0.474417
   9 H :   -0.076441
  10 H :   -0.071444
  11 H :   -0.085344
  12 H :   -0.227395
  13 H :   -0.078980
  14 H :   -0.181728
  15 H :   -0.163763
  16 H :   -0.210069
  17 H :   -0.171621
Sum of atomic charges:    0.0000000

LOEWDIN ATOMIC CHARGES
----------------------
   0 C :    0.157138
   1 C :   -0.068484
   2 C :    0.130827
   3 C :   -0.040531
   4 C :   -0.074457
   5 C :   -0.042130
   6 H :   -0.046342
   7 H :   -0.040751
   8 H :   -0.000576
   9 H :   -0.019879
  10 H :   -0.022051
  11 H :   -0.020200
  12 H :    0.015543
  13 H :    0.017305
  14 H :    0.011319
  15 H :    0.010782
  16 H :    0.015007
  17 H :    0.017481

  Mayer bond orders larger than 0.100000
B(  0-C ,  1-C ) :   1.8745 B(  0-C ,  5-C ) :   0.1053 B(  0-C ,  6-H ) :   0.7134
B(  0-C ,  7-H ) :   0.8918 B(  1-C ,  3-C ) :   1.1857 B(  1-C ,  6-H ) :   0.1968
B(  1-C ,  8-H ) :   0.5161 B(  2-C ,  4-C ) :   1.1729 B(  2-C ,  9-H ) :   0.9291
B(  2-C , 10-H ) :   0.8964 B(  2-C , 11-H ) :   0.9293 B(  3-C ,  5-C ) :   1.2025
B(  3-C , 12-H ) :   0.7534 B(  3-C , 13-H ) :   0.8158 B(  4-C ,  5-C ) :   1.2126
B(  4-C , 14-H ) :   0.7654 B(  4-C , 15-H ) :   0.7929 B(  5-C , 12-H ) :   0.1805
B(  5-C , 16-H ) :   0.8351 B(  5-C , 17-H ) :   0.9152 B(  6-H ,  7-H ) :  -0.1944

MP2 TOTAL ENERGY:     -235.081854270 Eh
FINAL SINGLE POINT ENERGY      -235.081854270236

DIPOLE MOMENT
-------------
                                X             Y             Z
Electronic contribution:      3.93330       0.17699       0.43868
Nuclear contribution   :     -4.11008      -0.13651      -0.39404
                        -----------------------------------------
Total Dipole Moment    :     -0.17678       0.04047       0.04464
                        -----------------------------------------
Magnitude (a.u.)       :      0.18676
Magnitude (Debye)      :      0.47472

Rotational constants in cm-1:     0.457164     0.041388     0.040636
Rotational constants in MHz : 13705.420830  1240.769173  1218.224072

                             ****ORCA TERMINATED NORMALLY****
TOTAL RUN TIME: 0 days 0 hours 0 minutes 46 seconds 437 msec
