                         Program Version 5.0.3 -  RELEASE  -
|  1> !ri-mp2 aug-cc-pvdz aug-cc-pvdz/c tightscf
|  2> %pal nprocs 16 end
|  3>
|  4> * xyz 0 1
|  5> S      1.653853   -1.466360   -0.041522
|  6> S     -1.653853    1.466359   -0.041519
|  7> N      1.962540    2.243904    0.036069
|  8> N     -1.962540   -2.243904    0.036069
|  9> C      0.678815    0.016108    0.014810
| 10> C     -0.678816   -0.016108    0.014811
| 11> C      1.374141    1.251705    0.022854
| 12> C     -1.374142   -1.251705    0.022855
| 13> H      2.827783   -0.852149    0.185852
| 14> H     -2.827783    0.852148    0.185851
| 15> *
| 16>
| 17>                          ****END OF INPUT****

CARTESIAN COORDINATES (ANGSTROEM)
---------------------------------
  S      1.653853   -1.466360   -0.041522
  S     -1.653853    1.466359   -0.041519
  N      1.962540    2.243904    0.036069
  N     -1.962540   -2.243904    0.036069
  C      0.678815    0.016108    0.014810
  C     -0.678816   -0.016108    0.014811
  C      1.374141    1.251705    0.022854
  C     -1.374142   -1.251705    0.022855
  H      2.827783   -0.852149    0.185852
  H     -2.827783    0.852148    0.185851

 Total Charge           Charge          ....    0
 Multiplicity           Mult            ....    1
 Number of Electrons    NEL             ....   72
 Basis Dimension        Dim             ....  210

ORBITAL ENERGIES
----------------

  NO   OCC          E(Eh)            E(eV)
   0   2.0000     -92.023192     -2504.0784
   1   2.0000     -92.023192     -2504.0784
   2   2.0000     -15.627085      -425.2346
   3   2.0000     -15.627084      -425.2346
   4   2.0000     -11.370490      -309.4068
   5   2.0000     -11.369016      -309.3666
   6   2.0000     -11.323705      -308.1337
   7   2.0000     -11.323704      -308.1337
   8   2.0000      -9.024659      -245.5735
   9   2.0000      -9.024659      -245.5734
  10   2.0000      -6.706580      -182.4953
  11   2.0000      -6.706580      -182.4953
  12   2.0000      -6.705249      -182.4591
  13   2.0000      -6.705249      -182.4591
  14   2.0000      -6.702871      -182.3944
  15   2.0000      -6.702870      -182.3944
  16   2.0000      -1.275117       -34.6977
  17   2.0000      -1.264974       -34.4217
  18   2.0000      -1.191258       -32.4158
  19   2.0000      -1.081626       -29.4326
  20   2.0000      -0.980439       -26.6791
  21   2.0000      -0.943259       -25.6674
  22   2.0000      -0.779828       -21.2202
  23   2.0000      -0.702870       -19.1261
  24   2.0000      -0.612118       -16.6566
  25   2.0000      -0.604870       -16.4594
  26   2.0000      -0.601448       -16.3662
  27   2.0000      -0.592055       -16.1106
  28   2.0000      -0.557628       -15.1738
  29   2.0000      -0.552962       -15.0469
  30   2.0000      -0.531832       -14.4719
  31   2.0000      -0.506147       -13.7730
  32   2.0000      -0.480616       -13.0782
  33   2.0000      -0.467083       -12.7100
  34   2.0000      -0.445743       -12.1293
  35   2.0000      -0.350769        -9.5449
  36   0.0000       0.015559         0.4234
  37   0.0000       0.033347         0.9074
  38   0.0000       0.036470         0.9924
  39   0.0000       0.064027         1.7423
  40   0.0000       0.067521         1.8373

MULLIKEN ATOMIC CHARGES
-----------------------
   0 S :    0.302219
   1 S :    0.302220
   2 N :   -0.236082
   3 N :   -0.236081
   4 C :    0.792103
   5 C :    0.792103
   6 C :   -0.963217
   7 C :   -0.963218
   8 H :    0.104978
   9 H :    0.104977
Sum of atomic charges:   -0.0000000

LOEWDIN ATOMIC CHARGES
----------------------
   0 S :    0.883965
   1 S :    0.883966
   2 N :    0.113203
   3 N :    0.113204
   4 C :   -0.580431
   5 C :   -0.580432
   6 C :   -0.229213
   7 C :   -0.229213
   8 H :   -0.187525
   9 H :   -0.187525

  Mayer bond orders larger than 0.100000
B(  0-S ,  4-C ) :   0.8563 B(  0-S ,  6-C ) :   0.1053 B(  0-S ,  8-H ) :   0.9212
B(  1-S ,  5-C ) :   0.8563 B(  1-S ,  7-C ) :   0.1053 B(  1-S ,  9-H ) :   0.9212
B(  2-N ,  4-C ) :  -0.2025 B(  2-N ,  5-C ) :   0.1062 B(  2-N ,  6-C ) :   2.6365
B(  3-N ,  4-C ) :   0.1062 B(  3-N ,  5-C ) :  -0.2025 B(  3-N ,  7-C ) :   2.6365
B(  4-C ,  5-C ) :   2.2991 B(  4-C ,  6-C ) :   0.1734 B(  4-C ,  7-C ) :  -0.2995
B(  5-C ,  6-C ) :  -0.2995 B(  5-C ,  7-C ) :   0.1734 B(  6-C ,  7-C ) :   0.1912

MP2 TOTAL ENERGY:    -1057.707554514 Eh
FINAL SINGLE POINT ENERGY     -1057.707554514308

DIPOLE MOMENT
-------------
                                X             Y             Z
Electronic contribution:     -0.00000       0.00000      -0.26233
Nuclear contribution   :      0.00000      -0.00000       0.35632
                        -----------------------------------------
Total Dipole Moment    :     -0.00000      -0.00000       0.09398
                        -----------------------------------------
Magnitude (a.u.)       :      0.09398
Magnitude (Debye)      :      0.23888

Rotational constants in cm-1:     0.053059     0.047272     0.025016
Rotational constants in MHz :  1590.663811  1417.164891   749.974515

                             ****ORCA TERMINATED NORMALLY****
TOTAL RUN TIME: 0 days 0 hours 0 minutes 56 seconds 339 msec
