                         Program Version 5.0.3 -  RELEASE  -
|  1> !ri-mp2 aug-cc-pvdz aug-cc-pvdz/c tightscf
|  2> %pal nprocs 16 end
|  3>
|  4> * xyz 0 1
|  5> Cl   -3.572987   -0.567278   -0.510317
|  6> S     3.299035   -1.317260   -0.006901
|  7> N     2.079494    1.156701   -0.250864
|  8> C     0.857173    1.910593   -0.125215
|  9> C    -2.394964   -0.380030    0.871471
| 10> C    -0.304421    1.103913    0.230165
| 11> C    -1.256817    0.432000    0.515067
| 12> C     2.559311    0.073133   -0.131631
| 13> H     0.675175    2.422451   -1.072973
| 14> H     1.016661    2.691477    0.622020
| 15> H    -2.961711    0.058649    1.688357
| 16> H    -2.092050   -1.387238    1.145296
| 17> *
| 18>
| 19>                          ****END OF INPUT****

CARTESIAN COORDINATES (ANGSTROEM)
---------------------------------
  Cl    -3.572987   -0.567278   -0.510317
  S      3.299035   -1.317260   -0.006901
  N      2.079494    1.156701   -0.250864
  C      0.857173    1.910593   -0.125215
  C     -2.394964   -0.380030    0.871471
  C     -0.304421    1.103913    0.230165
  C     -1.256817    0.432000    0.515067
  C      2.559311    0.073133   -0.131631
  H      0.675175    2.422451   -1.072973
  H      1.016661    2.691477    0.622020
  H     -2.961711    0.058649    1.688357
  H     -2.092050   -1.387238    1.145296

 Total Charge           Charge          ....    0
 Multiplicity           Mult            ....    1
 Number of Electrons    NEL             ....   74
 Basis Dimension        Dim             ....  228

ORBITAL ENERGIES
----------------

  NO   OCC          E(Eh)            E(eV)
   0   2.0000    -104.838895     -2852.8114
   1   2.0000     -91.958566     -2502.3198
   2   2.0000     -15.623625      -425.1405
   3   2.0000     -11.391370      -309.9749
   4   2.0000     -11.348900      -308.8193
   5   2.0000     -11.342714      -308.6509
   6   2.0000     -11.272664      -306.7448
   7   2.0000     -11.268663      -306.6359
   8   2.0000     -10.564326      -287.4699
   9   2.0000      -8.961907      -243.8659
  10   2.0000      -8.031954      -218.5606
  11   2.0000      -8.028677      -218.4714
  12   2.0000      -8.028597      -218.4692
  13   2.0000      -6.644566      -180.8078
  14   2.0000      -6.640847      -180.7066
  15   2.0000      -6.640416      -180.6949
  16   2.0000      -1.309263       -35.6269
  17   2.0000      -1.157933       -31.5090
  18   2.0000      -1.104493       -30.0548
  19   2.0000      -1.050806       -28.5939
  20   2.0000      -1.009668       -27.4745
  21   2.0000      -0.944796       -25.7092
  22   2.0000      -0.778460       -21.1830
  23   2.0000      -0.706944       -19.2369
  24   2.0000      -0.678178       -18.4542
  25   2.0000      -0.674486       -18.3537
  26   2.0000      -0.657845       -17.9009
  27   2.0000      -0.601909       -16.3788
  28   2.0000      -0.577562       -15.7163
  29   2.0000      -0.552931       -15.0460
  30   2.0000      -0.542237       -14.7550
  31   2.0000      -0.458938       -12.4883
  32   2.0000      -0.455691       -12.4000
  33   2.0000      -0.417382       -11.3576
  34   2.0000      -0.409372       -11.1396
  35   2.0000      -0.373840       -10.1727
  36   2.0000      -0.361222        -9.8293
  37   0.0000       0.027957         0.7608
  38   0.0000       0.035912         0.9772
  39   0.0000       0.048413         1.3174
  40   0.0000       0.053047         1.4435
  41   0.0000       0.073586         2.0024

MULLIKEN ATOMIC CHARGES
-----------------------
   0 Cl:   -0.095510
   1 S :    0.171414
   2 N :   -0.409753
   3 C :    0.709493
   4 C :   -0.229217
   5 C :   -0.200413
   6 C :   -0.000617
   7 C :   -0.359356
   8 H :    0.031823
   9 H :    0.040451
  10 H :    0.164881
  11 H :    0.176805
Sum of atomic charges:    0.0000000

LOEWDIN ATOMIC CHARGES
----------------------
   0 Cl:    0.449789
   1 S :    0.602620
   2 N :   -0.012123
   3 C :   -0.034258
   4 C :   -0.322041
   5 C :    0.007328
   6 C :   -0.069101
   7 C :   -0.634518
   8 H :    0.028792
   9 H :    0.027855
  10 H :   -0.023225
  11 H :   -0.021118

  Mayer bond orders larger than 0.100000
B(  0-Cl,  4-C ) :   1.2914 B(  0-Cl,  5-C ) :   0.2131 B(  0-Cl,  6-C ) :  -0.4714
B(  1-S ,  7-C ) :   1.8459 B(  2-N ,  3-C ) :   0.6756 B(  2-N ,  5-C ) :   0.1081
B(  2-N ,  7-C ) :   1.9828 B(  3-C ,  5-C ) :   1.0421 B(  3-C ,  6-C ) :   0.2985
B(  3-C ,  7-C ) :  -0.1449 B(  3-C ,  8-H ) :   0.8136 B(  3-C ,  9-H ) :   0.7984
B(  4-C ,  5-C ) :   0.3396 B(  4-C ,  6-C ) :   1.0535 B(  4-C , 10-H ) :   0.8527
B(  4-C , 11-H ) :   0.8266 B(  5-C ,  6-C ) :   2.6104 B(  5-C ,  7-C ) :   0.1109
B(  5-C ,  8-H ) :   0.2219 B(  5-C ,  9-H ) :   0.2276 B(  5-C , 10-H ) :  -0.1148
B(  5-C , 11-H ) :  -0.1357 B(  6-C , 10-H ) :   0.2833 B(  6-C , 11-H ) :   0.3454

MP2 TOTAL ENERGY:    -1104.220418557 Eh
FINAL SINGLE POINT ENERGY     -1104.220418556941

DIPOLE MOMENT
-------------
                                X             Y             Z
Electronic contribution:     -2.00866      -3.52749      -2.33795
Nuclear contribution   :      1.58461       4.43289       2.96986
                        -----------------------------------------
Total Dipole Moment    :     -0.42406       0.90540       0.63190
                        -----------------------------------------
Magnitude (a.u.)       :      1.18274
Magnitude (Debye)      :      3.00629

Rotational constants in cm-1:     0.087648     0.015574     0.013854
Rotational constants in MHz :  2627.616892   466.899520   415.340395

                             ****ORCA TERMINATED NORMALLY****
TOTAL RUN TIME: 0 days 0 hours 0 minutes 57 seconds 805 msec
