                         Program Version 5.0.3 -  RELEASE  -
|  1> !ri-mp2 aug-cc-pvdz aug-cc-pvdz/c tightscf
|  2> %pal nprocs 16 end
|  3> %maxcore 3800
|  4>
|  5> * xyz 0 1
|  6> O     -1.061346   -2.675415    0.000027
|  7> C     -1.022143   -1.457090    0.000009
|  8> C      0.261151   -0.701650   -0.000016
|  9> C      0.261151    0.701650    0.000016
| 10> C     -1.022143    1.457090   -0.000009
| 11> O     -1.061346    2.675415   -0.000027
| 12> C     -2.274483    0.667940   -0.000007
| 13> C     -2.274483   -0.667940    0.000007
| 14> C      1.470163    1.394082    0.000035
| 15> C      2.669385    0.696780    0.000020
| 16> C      2.669385   -0.696780   -0.000020
| 17> C      1.470163   -1.394082   -0.000035
| 18> H     -3.189344    1.246182    0.000000
| 19> H     -3.189344   -1.246182   -0.000001
| 20> H      1.449164    2.474559    0.000078
| 21> H      3.606515    1.236642    0.000045
| 22> H      3.606515   -1.236642   -0.000045
| 23> H      1.449163   -2.474559   -0.000077
| 24> *
| 25>
| 26>                          ****END OF INPUT****

CARTESIAN COORDINATES (ANGSTROEM)
---------------------------------
  O     -1.061346   -2.675415    0.000027
  C     -1.022143   -1.457090    0.000009
  C      0.261151   -0.701650   -0.000016
  C      0.261151    0.701650    0.000016
  C     -1.022143    1.457090   -0.000009
  O     -1.061346    2.675415   -0.000027
  C     -2.274483    0.667940   -0.000007
  C     -2.274483   -0.667940    0.000007
  C      1.470163    1.394082    0.000035
  C      2.669385    0.696780    0.000020
  C      2.669385   -0.696780   -0.000020
  C      1.470163   -1.394082   -0.000035
  H     -3.189344    1.246182    0.000000
  H     -3.189344   -1.246182   -0.000001
  H      1.449164    2.474559    0.000078
  H      3.606515    1.236642    0.000045
  H      3.606515   -1.236642   -0.000045
  H      1.449163   -2.474559   -0.000077

 Total Charge           Charge          ....    0
 Multiplicity           Mult            ....    1
 Number of Electrons    NEL             ....   82
 Basis Dimension        Dim             ....  330

ORBITAL ENERGIES
----------------

  NO   OCC          E(Eh)            E(eV)
   0   2.0000     -20.580417      -560.0216
   1   2.0000     -20.580416      -560.0216
   2   2.0000     -11.363949      -309.2288
   3   2.0000     -11.363940      -309.2285
   4   2.0000     -11.285106      -307.0833
   5   2.0000     -11.283439      -307.0380
   6   2.0000     -11.276883      -306.8596
   7   2.0000     -11.275736      -306.8284
   8   2.0000     -11.270192      -306.6775
   9   2.0000     -11.269073      -306.6471
  10   2.0000     -11.267042      -306.5918
  11   2.0000     -11.266977      -306.5900
  12   2.0000      -1.413603       -38.4661
  13   2.0000      -1.411293       -38.4032
  14   2.0000      -1.196386       -32.5553
  15   2.0000      -1.132682       -30.8218
  16   2.0000      -1.056105       -28.7381
  17   2.0000      -1.054551       -28.6958
  18   2.0000      -0.952748       -25.9256
  19   2.0000      -0.884927       -24.0801
  20   2.0000      -0.873968       -23.7819
  21   2.0000      -0.806982       -21.9591
  22   2.0000      -0.740550       -20.1514
  23   2.0000      -0.739804       -20.1311
  24   2.0000      -0.701375       -19.0854
  25   2.0000      -0.670932       -18.2570
  26   2.0000      -0.657093       -17.8804
  27   2.0000      -0.630068       -17.1450
  28   2.0000      -0.626638       -17.0517
  29   2.0000      -0.606613       -16.5068
  30   2.0000      -0.602529       -16.3956
  31   2.0000      -0.600001       -16.3269
  32   2.0000      -0.554361       -15.0849
  33   2.0000      -0.548975       -14.9384
  34   2.0000      -0.525212       -14.2917
  35   2.0000      -0.513660       -13.9774
  36   2.0000      -0.456725       -12.4281
  37   2.0000      -0.436009       -11.8644
  38   2.0000      -0.411328       -11.1928
  39   2.0000      -0.366439        -9.9713
  40   2.0000      -0.361437        -9.8352
  41   0.0000       0.008609         0.2343
  42   0.0000       0.030085         0.8187
  43   0.0000       0.035243         0.9590
  44   0.0000       0.042574         1.1585
  45   0.0000       0.054250         1.4762

MULLIKEN ATOMIC CHARGES
-----------------------
   0 O :   -0.891115
   1 C :   -0.204382
   2 C :    1.813472
   3 C :    1.813472
   4 C :   -0.204382
   5 O :   -0.891114
   6 C :    0.771192
   7 C :    0.771192
   8 C :   -0.080057
   9 C :    0.158788
  10 C :    0.158788
  11 C :   -0.080057
  12 H :   -0.495089
  13 H :   -0.495089
  14 H :   -0.622609
  15 H :   -0.450201
  16 H :   -0.450201
  17 H :   -0.622609
Sum of atomic charges:   -0.0000000

LOEWDIN ATOMIC CHARGES
----------------------
   0 O :    0.065652
   1 C :   -0.235640
   2 C :   -0.087181
   3 C :   -0.087181
   4 C :   -0.235640
   5 O :    0.065652
   6 C :    0.099481
   7 C :    0.099481
   8 C :    0.079698
   9 C :    0.039460
  10 C :    0.039460
  11 C :    0.079698
  12 H :    0.017300
  13 H :    0.017300
  14 H :    0.013895
  15 H :    0.007335
  16 H :    0.007335
  17 H :    0.013895

  Mayer bond orders larger than 0.100000
B(  0-O ,  1-C ) :   1.2331 B(  0-O , 11-C ) :  -0.1576 B(  1-C ,  2-C ) :   1.0193
B(  1-C ,  3-C ) :  -0.8908 B(  1-C ,  6-C ) :   0.1042 B(  1-C ,  7-C ) :   1.2645
B(  1-C ,  8-C ) :   0.1889 B(  1-C ,  9-C ) :  -0.1180 B(  1-C , 10-C ) :   0.2569
B(  1-C , 11-C ) :  -1.5183 B(  1-C , 13-H ) :   0.5907 B(  1-C , 17-H ) :  -0.1731
B(  2-C ,  3-C ) :   4.1398 B(  2-C ,  4-C ) :  -0.8908 B(  2-C ,  6-C ) :  -0.2096
B(  2-C ,  7-C ) :  -0.5750 B(  2-C ,  8-C ) :  -1.8281 B(  2-C ,  9-C ) :  -0.6983
B(  2-C , 10-C ) :  -0.5269 B(  2-C , 16-H ) :   0.1897 B(  2-C , 17-H ) :   0.9482
B(  3-C ,  4-C ) :   1.0193 B(  3-C ,  6-C ) :  -0.5750 B(  3-C ,  7-C ) :  -0.2096
B(  3-C ,  9-C ) :  -0.5269 B(  3-C , 10-C ) :  -0.6983 B(  3-C , 11-C ) :  -1.8281
B(  3-C , 14-H ) :   0.9482 B(  3-C , 15-H ) :   0.1897 B(  4-C ,  5-O ) :   1.2331
B(  4-C ,  6-C ) :   1.2645 B(  4-C ,  7-C ) :   0.1042 B(  4-C ,  8-C ) :  -1.5183
B(  4-C ,  9-C ) :   0.2569 B(  4-C , 10-C ) :  -0.1180 B(  4-C , 11-C ) :   0.1889
B(  4-C , 12-H ) :   0.5907 B(  4-C , 14-H ) :  -0.1731 B(  5-O ,  8-C ) :  -0.1576
B(  6-C ,  7-C ) :   2.2987 B(  6-C ,  8-C ) :   0.4761 B(  6-C ,  9-C ) :   0.1328
B(  6-C , 10-C ) :   0.1269 B(  6-C , 13-H ) :   0.1897 B(  7-C ,  9-C ) :   0.1269
B(  7-C , 10-C ) :   0.1328 B(  7-C , 11-C ) :   0.4761 B(  7-C , 12-H ) :   0.1897
B(  8-C ,  9-C ) :   2.3173 B(  8-C , 10-C ) :   0.3506 B(  8-C , 11-C ) :   0.5592
B(  8-C , 14-H ) :  -0.3162 B(  8-C , 15-H ) :   0.4689 B(  9-C , 10-C ) :   2.1173
B(  9-C , 11-C ) :   0.3506 B(  9-C , 14-H ) :   0.2686 B(  9-C , 15-H ) :   0.1375
B(  9-C , 16-H ) :   0.1029 B(  9-C , 17-H ) :  -0.1152 B( 10-C , 11-C ) :   2.3173
B( 10-C , 14-H ) :  -0.1152 B( 10-C , 15-H ) :   0.1029 B( 10-C , 16-H ) :   0.1375
B( 10-C , 17-H ) :   0.2686 B( 11-C , 16-H ) :   0.4689 B( 11-C , 17-H ) :  -0.3162

MP2 TOTAL ENERGY:     -533.665402445 Eh
FINAL SINGLE POINT ENERGY      -533.665402444680

DIPOLE MOMENT
-------------
                                X             Y             Z
Electronic contribution:     -3.03863       0.00000      -0.00000
Nuclear contribution   :      3.60205      -0.00000      -0.00000
                        -----------------------------------------
Total Dipole Moment    :      0.56342       0.00000      -0.00000
                        -----------------------------------------
Magnitude (a.u.)       :      0.56342
Magnitude (Debye)      :      1.43210

Rotational constants in cm-1:     0.044422     0.036566     0.020056
Rotational constants in MHz :  1331.736669  1096.216287   601.276653

                             ****ORCA TERMINATED NORMALLY****
TOTAL RUN TIME: 0 days 0 hours 2 minutes 7 seconds 674 msec
