                         Program Version 5.0.3 -  RELEASE  -
|  1> !ri-mp2 aug-cc-pvdz aug-cc-pvdz/c tightscf
|  2> %pal nprocs 16 end
|  3>
|  4> * xyz 0 1
|  5> C     -2.173897    1.524699   -0.102751
|  6> H     -2.210085    1.552101   -1.191500
|  7> H     -3.180147    1.347902    0.271737
|  8> H     -1.838899    2.500384    0.255787
|  9> C     -1.216511    0.451803    0.380282
| 10> H     -1.222850    0.398251    1.467431
| 11> Cl    -1.855348   -1.193546   -0.136424
| 12> C      0.204566    0.645728   -0.135500
| 13> H      0.516270    1.656393    0.140769
| 14> H      0.207952    0.595476   -1.225135
| 15> C      1.199715   -0.350388    0.431283
| 16> H      1.239358   -0.310969    1.516948
| 17> H      0.984119   -1.365316    0.116205
| 18> Cl     2.880115    0.016766   -0.145466
| 19> *
| 20>
| 21>                          ****END OF INPUT****

CARTESIAN COORDINATES (ANGSTROEM)
---------------------------------
  C     -2.173897    1.524699   -0.102751
  H     -2.210085    1.552101   -1.191500
  H     -3.180147    1.347902    0.271737
  H     -1.838899    2.500384    0.255787
  C     -1.216511    0.451803    0.380282
  H     -1.222850    0.398251    1.467431
  Cl    -1.855348   -1.193546   -0.136424
  C      0.204566    0.645728   -0.135500
  H      0.516270    1.656393    0.140769
  H      0.207952    0.595476   -1.225135
  C      1.199715   -0.350388    0.431283
  H      1.239358   -0.310969    1.516948
  H      0.984119   -1.365316    0.116205
  Cl     2.880115    0.016766   -0.145466

 Total Charge           Charge          ....    0
 Multiplicity           Mult            ....    1
 Number of Electrons    NEL             ....   66
 Basis Dimension        Dim             ....  218

ORBITAL ENERGIES
----------------

  NO   OCC          E(Eh)            E(eV)
   0   2.0000    -104.824378     -2852.4163
   1   2.0000    -104.823743     -2852.3991
   2   2.0000     -11.321718      -308.0796
   3   2.0000     -11.306256      -307.6589
   4   2.0000     -11.261784      -306.4487
   5   2.0000     -11.249029      -306.1017
   6   2.0000     -10.550425      -287.0917
   7   2.0000     -10.549607      -287.0694
   8   2.0000      -8.017902      -218.1782
   9   2.0000      -8.017214      -218.1595
  10   2.0000      -8.015029      -218.1000
  11   2.0000      -8.014949      -218.0979
  12   2.0000      -8.014151      -218.0761
  13   2.0000      -8.014077      -218.0741
  14   2.0000      -1.167801       -31.7775
  15   2.0000      -1.127498       -30.6808
  16   2.0000      -1.035983       -28.1905
  17   2.0000      -0.991414       -26.9777
  18   2.0000      -0.872095       -23.7309
  19   2.0000      -0.811231       -22.0747
  20   2.0000      -0.679203       -18.4821
  21   2.0000      -0.640049       -17.4166
  22   2.0000      -0.618383       -16.8271
  23   2.0000      -0.603613       -16.4251
  24   2.0000      -0.556077       -15.1316
  25   2.0000      -0.544829       -14.8256
  26   2.0000      -0.533237       -14.5101
  27   2.0000      -0.510270       -13.8852
  28   2.0000      -0.494652       -13.4602
  29   2.0000      -0.449488       -12.2312
  30   2.0000      -0.440073       -11.9750
  31   2.0000      -0.435886       -11.8611
  32   2.0000      -0.428574       -11.6621
  33   0.0000       0.032062         0.8725
  34   0.0000       0.042722         1.1625
  35   0.0000       0.049496         1.3469
  36   0.0000       0.052717         1.4345
  37   0.0000       0.066093         1.7985

MULLIKEN ATOMIC CHARGES
-----------------------
   0 C :    0.655650
   1 H :   -0.008127
   2 H :   -0.045546
   3 H :   -0.031719
   4 C :   -0.517839
   5 H :   -0.103621
   6 Cl:   -0.219622
   7 C :    0.466142
   8 H :   -0.067509
   9 H :   -0.068708
  10 C :    0.056290
  11 H :   -0.003369
  12 H :    0.013007
  13 Cl:   -0.125030
Sum of atomic charges:    0.0000000

LOEWDIN ATOMIC CHARGES
----------------------
   0 C :    0.108588
   1 H :   -0.010256
   2 H :   -0.016111
   3 H :   -0.008989
   4 C :   -0.505222
   5 H :   -0.004338
   6 Cl:    0.487549
   7 C :   -0.132379
   8 H :    0.017675
   9 H :    0.017283
  10 C :   -0.319958
  11 H :   -0.029417
  12 H :   -0.047319
  13 Cl:    0.442894

  Mayer bond orders larger than 0.100000
B(  0-C ,  1-H ) :   0.9383 B(  0-C ,  2-H ) :   0.8845 B(  0-C ,  3-H ) :   0.8173
B(  0-C ,  4-C ) :   1.2427 B(  2-H ,  4-C ) :   0.1211 B(  4-C ,  5-H ) :   0.7770
B(  4-C ,  6-Cl) :   0.8903 B(  4-C ,  7-C ) :   1.1458 B(  7-C ,  8-H ) :   0.7979
B(  7-C ,  9-H ) :   0.8794 B(  7-C , 10-C ) :   1.1765 B(  7-C , 11-H ) :   0.1505
B(  7-C , 12-H ) :   0.1102 B(  7-C , 13-Cl) :  -0.2196 B( 10-C , 11-H ) :   0.8825
B( 10-C , 12-H ) :   0.8976 B( 10-C , 13-Cl) :   1.2454 B( 12-H , 13-Cl) :  -0.1010

MP2 TOTAL ENERGY:    -1076.063430317 Eh
FINAL SINGLE POINT ENERGY     -1076.063430316977

DIPOLE MOMENT
-------------
                                X             Y             Z
Electronic contribution:      6.20165      -7.10055      -1.25036
Nuclear contribution   :     -6.80238       7.86359       1.71322
                        -----------------------------------------
Total Dipole Moment    :     -0.60072       0.76303       0.46286
                        -----------------------------------------
Magnitude (a.u.)       :      1.07579
Magnitude (Debye)      :      2.73444

Rotational constants in cm-1:     0.146191     0.030936     0.026603
Rotational constants in MHz :  4382.690223   927.447978   797.552020

                             ****ORCA TERMINATED NORMALLY****
TOTAL RUN TIME: 0 days 0 hours 0 minutes 42 seconds 104 msec
