                         Program Version 5.0.3 -  RELEASE  -
|  1> !ri-mp2 aug-cc-pvdz aug-cc-pvdz/c tightscf
|  2> %pal nprocs 16 end
|  3>
|  4> * xyz 0 1
|  5> C      2.514552   -0.302534   -0.010159
|  6> C      1.228558    0.521535    0.028293
|  7> C     -0.036512   -0.336644   -0.027812
|  8> C     -1.316665    0.487981    0.016814
|  9> O     -2.500646   -0.301127   -0.092060
| 10> H      2.565348   -0.993371    0.833797
| 11> H      2.575280   -0.895054   -0.925011
| 12> H      3.397647    0.336304    0.030805
| 13> H      1.214362    1.130960    0.936793
| 14> H      1.223025    1.225237   -0.809202
| 15> H     -0.039872   -0.939383   -0.939874
| 16> H     -0.034575   -1.041035    0.812011
| 17> H     -1.343796    1.095071    0.929885
| 18> H     -1.352146    1.175054   -0.829661
| 19> H     -2.539703   -0.906796    0.654122
| 20> *
| 21>
| 22>                          ****END OF INPUT****

CARTESIAN COORDINATES (ANGSTROEM)
---------------------------------
  C      2.514552   -0.302534   -0.010159
  C      1.228558    0.521535    0.028293
  C     -0.036512   -0.336644   -0.027812
  C     -1.316665    0.487981    0.016814
  O     -2.500646   -0.301127   -0.092060
  H      2.565348   -0.993371    0.833797
  H      2.575280   -0.895054   -0.925011
  H      3.397647    0.336304    0.030805
  H      1.214362    1.130960    0.936793
  H      1.223025    1.225237   -0.809202
  H     -0.039872   -0.939383   -0.939874
  H     -0.034575   -1.041035    0.812011
  H     -1.343796    1.095071    0.929885
  H     -1.352146    1.175054   -0.829661
  H     -2.539703   -0.906796    0.654122

 Total Charge           Charge          ....    0
 Multiplicity           Mult            ....    1
 Number of Electrons    NEL             ....   42
 Basis Dimension        Dim             ....  205

ORBITAL ENERGIES
----------------

  NO   OCC          E(Eh)            E(eV)
   0   2.0000     -20.563766      -559.5685
   1   2.0000     -11.278136      -306.8937
   2   2.0000     -11.230162      -305.5882
   3   2.0000     -11.226232      -305.4813
   4   2.0000     -11.222479      -305.3792
   5   2.0000      -1.356913       -36.9235
   6   2.0000      -1.074992       -29.2520
   7   2.0000      -0.976836       -26.5811
   8   2.0000      -0.862569       -23.4717
   9   2.0000      -0.803017       -21.8512
  10   2.0000      -0.689478       -18.7616
  11   2.0000      -0.639643       -17.4056
  12   2.0000      -0.610368       -16.6090
  13   2.0000      -0.597595       -16.2614
  14   2.0000      -0.552900       -15.0452
  15   2.0000      -0.541619       -14.7382
  16   2.0000      -0.515609       -14.0304
  17   2.0000      -0.481570       -13.1042
  18   2.0000      -0.476801       -12.9744
  19   2.0000      -0.466898       -12.7050
  20   2.0000      -0.433339       -11.7918
  21   0.0000       0.035638         0.9697
  22   0.0000       0.042209         1.1486
  23   0.0000       0.046557         1.2669
  24   0.0000       0.050286         1.3683
  25   0.0000       0.064083         1.7438

MULLIKEN ATOMIC CHARGES
-----------------------
   0 C :    0.412869
   1 C :    0.167924
   2 C :    0.054264
   3 C :    1.141233
   4 O :   -0.708984
   5 H :   -0.078288
   6 H :   -0.073288
   7 H :   -0.078294
   8 H :   -0.147390
   9 H :   -0.151516
  10 H :   -0.125813
  11 H :   -0.184762
  12 H :   -0.148712
  13 H :   -0.207115
  14 H :    0.127872
Sum of atomic charges:   -0.0000000

LOEWDIN ATOMIC CHARGES
----------------------
   0 C :    0.130994
   1 C :   -0.074810
   2 C :   -0.045647
   3 C :   -0.051533
   4 O :    0.108472
   5 H :   -0.020123
   6 H :   -0.019209
   7 H :   -0.021415
   8 H :    0.010000
   9 H :    0.011203
  10 H :    0.018272
  11 H :    0.012744
  12 H :    0.004546
  13 H :    0.003622
  14 H :   -0.067113

  Mayer bond orders larger than 0.100000
B(  0-C ,  1-C ) :   1.2047 B(  0-C ,  5-H ) :   0.9343 B(  0-C ,  6-H ) :   0.9319
B(  0-C ,  7-H ) :   0.9043 B(  1-C ,  2-C ) :   1.2029 B(  1-C ,  8-H ) :   0.8189
B(  1-C ,  9-H ) :   0.7968 B(  2-C ,  3-C ) :   1.1617 B(  2-C ,  4-O ) :   0.1042
B(  2-C , 10-H ) :   0.8203 B(  2-C , 11-H ) :   0.7901 B(  3-C ,  4-O ) :   0.4309
B(  3-C , 12-H ) :   0.8768 B(  3-C , 13-H ) :   0.8693 B(  4-O , 14-H ) :   1.0808
B( 12-H , 13-H ) :  -0.1009

MP2 TOTAL ENERGY:     -232.987370029 Eh
FINAL SINGLE POINT ENERGY      -232.987370028937

DIPOLE MOMENT
-------------
                                X             Y             Z
Electronic contribution:     -5.40932      -0.22125      -0.26289
Nuclear contribution   :      5.98715       0.19393       0.73663
                        -----------------------------------------
Total Dipole Moment    :      0.57783      -0.02731       0.47374
                        -----------------------------------------
Magnitude (a.u.)       :      0.74770
Magnitude (Debye)      :      1.90051

Rotational constants in cm-1:     0.625282     0.064971     0.061784
Rotational constants in MHz : 18745.468122  1947.790401  1852.251282

                             ****ORCA TERMINATED NORMALLY****
TOTAL RUN TIME: 0 days 0 hours 0 minutes 44 seconds 332 msec
