                         Program Version 5.0.3 -  RELEASE  -
|  1> !ri-mp2 aug-cc-pvdz aug-cc-pvdz/c tightscf
|  2> %pal nprocs 16 end
|  3>
|  4> * xyz 0 1
|  5> C      0.604942    1.720376    0.000000
|  6> C      0.606915    3.019337    0.000000
|  7> C      0.604942    0.411180    0.000000
|  8> C     -0.604954   -0.411180    0.000000
|  9> C     -0.604953   -1.720376    0.000000
| 10> C     -0.606912   -3.019337    0.000000
| 11> H      0.608735    3.586335    0.924515
| 12> H      0.608735    3.586335   -0.924515
| 13> H      1.556375   -0.110823    0.000000
| 14> H     -1.556386    0.110823    0.000000
| 15> H     -0.608669   -3.586335   -0.924515
| 16> H     -0.608669   -3.586335    0.924515
| 17> *
| 18>
| 19>                          ****END OF INPUT****

CARTESIAN COORDINATES (ANGSTROEM)
---------------------------------
  C      0.604942    1.720376    0.000000
  C      0.606915    3.019337    0.000000
  C      0.604942    0.411180    0.000000
  C     -0.604954   -0.411180    0.000000
  C     -0.604953   -1.720376    0.000000
  C     -0.606912   -3.019337    0.000000
  H      0.608735    3.586335    0.924515
  H      0.608735    3.586335   -0.924515
  H      1.556375   -0.110823    0.000000
  H     -1.556386    0.110823    0.000000
  H     -0.608669   -3.586335   -0.924515
  H     -0.608669   -3.586335    0.924515

 Total Charge           Charge          ....    0
 Multiplicity           Mult            ....    1
 Number of Electrons    NEL             ....   42
 Basis Dimension        Dim             ....  192

ORBITAL ENERGIES
----------------

  NO   OCC          E(Eh)            E(eV)
   0   2.0000     -11.266107      -306.5664
   1   2.0000     -11.266103      -306.5663
   2   2.0000     -11.257863      -306.3420
   3   2.0000     -11.257084      -306.3208
   4   2.0000     -11.248158      -306.0779
   5   2.0000     -11.248157      -306.0779
   6   2.0000      -1.117958       -30.4212
   7   2.0000      -1.066338       -29.0165
   8   2.0000      -0.999197       -27.1895
   9   2.0000      -0.922493       -25.1023
  10   2.0000      -0.728814       -19.8320
  11   2.0000      -0.716483       -19.4965
  12   2.0000      -0.656056       -17.8522
  13   2.0000      -0.629554       -17.1310
  14   2.0000      -0.611975       -16.6527
  15   2.0000      -0.608487       -16.5578
  16   2.0000      -0.574276       -15.6268
  17   2.0000      -0.447628       -12.1806
  18   2.0000      -0.393167       -10.6986
  19   2.0000      -0.376997       -10.2586
  20   2.0000      -0.322949        -8.7879
  21   0.0000       0.036300         0.9878
  22   0.0000       0.040326         1.0973
  23   0.0000       0.050196         1.3659
  24   0.0000       0.050512         1.3745
  25   0.0000       0.058504         1.5920

MULLIKEN ATOMIC CHARGES
-----------------------
   0 C :   -0.683703
   1 C :    0.807035
   2 C :    0.750670
   3 C :    0.750664
   4 C :   -0.683708
   5 C :    0.807048
   6 H :   -0.219782
   7 H :   -0.219782
   8 H :   -0.434438
   9 H :   -0.434438
  10 H :   -0.219783
  11 H :   -0.219783
Sum of atomic charges:   -0.0000000

LOEWDIN ATOMIC CHARGES
----------------------
   0 C :   -0.064738
   1 C :    0.163962
   2 C :   -0.027059
   3 C :   -0.027060
   4 C :   -0.064738
   5 C :    0.163962
   6 H :   -0.038597
   7 H :   -0.038597
   8 H :    0.005030
   9 H :    0.005030
  10 H :   -0.038597
  11 H :   -0.038597

  Mayer bond orders larger than 0.100000
B(  0-C ,  1-C ) :   1.9888 B(  0-C ,  2-C ) :   2.0265 B(  0-C ,  3-C ) :  -0.1812
B(  0-C ,  4-C ) :   0.2115 B(  0-C ,  6-H ) :   0.2056 B(  0-C ,  7-H ) :   0.2056
B(  0-C ,  8-H ) :   0.1275 B(  1-C ,  2-C ) :   0.3218 B(  1-C ,  6-H ) :   0.6758
B(  1-C ,  7-H ) :   0.6758 B(  2-C ,  3-C ) :   1.3078 B(  2-C ,  4-C ) :  -0.1812
B(  2-C ,  8-H ) :   0.5039 B(  3-C ,  4-C ) :   2.0265 B(  3-C ,  5-C ) :   0.3218
B(  3-C ,  9-H ) :   0.5039 B(  4-C ,  5-C ) :   1.9888 B(  4-C ,  9-H ) :   0.1275
B(  4-C , 10-H ) :   0.2056 B(  4-C , 11-H ) :   0.2056 B(  5-C , 10-H ) :   0.6758
B(  5-C , 11-H ) :   0.6758 B(  6-H ,  7-H ) :  -0.1288 B( 10-H , 11-H ) :  -0.1288

MP2 TOTAL ENERGY:     -231.397176452 Eh
FINAL SINGLE POINT ENERGY      -231.397176451730

DIPOLE MOMENT
-------------
                                X             Y             Z
Electronic contribution:     -0.00008       0.00000      -0.00000
Nuclear contribution   :      0.00012       0.00000       0.00000
                        -----------------------------------------
Total Dipole Moment    :      0.00004       0.00000      -0.00000
                        -----------------------------------------
Magnitude (a.u.)       :      0.00004
Magnitude (Debye)      :      0.00010

Rotational constants in cm-1:     1.094018     0.045521     0.044498
Rotational constants in MHz : 32797.823596  1364.679694  1334.001773

                             ****ORCA TERMINATED NORMALLY****
TOTAL RUN TIME: 0 days 0 hours 0 minutes 52 seconds 557 msec
