                         Program Version 5.0.3 -  RELEASE  -
|  1> !ri-mp2 aug-cc-pvdz aug-cc-pvdz/c tightscf
|  2> %pal nprocs 16 end
|  3>
|  4> * xyz 0 1
|  5> S      1.790737   -0.475898   -0.000002
|  6> N      1.364374    1.134172   -0.000002
|  7> N     -3.240588   -0.146020   -0.000007
|  8> C     -0.672756    0.008613    0.000004
|  9> C      0.191251   -1.060988    0.000003
| 10> C      0.060358    1.235299    0.000002
| 11> C     -2.089661   -0.084352    0.000005
| 12> H     -0.056134   -2.109489    0.000004
| 13> H     -0.397308    2.215358    0.000003
| 14> *
| 15>
| 16>                          ****END OF INPUT****

CARTESIAN COORDINATES (ANGSTROEM)
---------------------------------
  S      1.790737   -0.475898   -0.000002
  N      1.364374    1.134172   -0.000002
  N     -3.240588   -0.146020   -0.000007
  C     -0.672756    0.008613    0.000004
  C      0.191251   -1.060988    0.000003
  C      0.060358    1.235299    0.000002
  C     -2.089661   -0.084352    0.000005
  H     -0.056134   -2.109489    0.000004
  H     -0.397308    2.215358    0.000003

 Total Charge           Charge          ....    0
 Multiplicity           Mult            ....    1
 Number of Electrons    NEL             ....   56
 Basis Dimension        Dim             ....  183

ORBITAL ENERGIES
----------------

  NO   OCC          E(Eh)            E(eV)
   0   2.0000     -92.049248     -2504.7874
   1   2.0000     -15.631058      -425.3427
   2   2.0000     -15.599817      -424.4926
   3   2.0000     -11.334471      -308.4266
   4   2.0000     -11.327104      -308.2262
   5   2.0000     -11.310882      -307.7847
   6   2.0000     -11.302997      -307.5702
   7   2.0000      -9.048663      -246.2266
   8   2.0000      -6.730232      -183.1389
   9   2.0000      -6.728870      -183.1019
  10   2.0000      -6.727146      -183.0550
  11   2.0000      -1.317106       -35.8403
  12   2.0000      -1.242416       -33.8079
  13   2.0000      -1.118645       -30.4399
  14   2.0000      -1.055067       -28.7098
  15   2.0000      -0.868615       -23.6362
  16   2.0000      -0.833620       -22.6839
  17   2.0000      -0.776151       -21.1201
  18   2.0000      -0.650274       -17.6949
  19   2.0000      -0.631094       -17.1729
  20   2.0000      -0.606366       -16.5000
  21   2.0000      -0.575303       -15.6548
  22   2.0000      -0.533069       -14.5055
  23   2.0000      -0.515135       -14.0175
  24   2.0000      -0.500170       -13.6103
  25   2.0000      -0.469295       -12.7702
  26   2.0000      -0.407765       -11.0958
  27   2.0000      -0.380645       -10.3579
  28   0.0000       0.029246         0.7958
  29   0.0000       0.041159         1.1200
  30   0.0000       0.048472         1.3190
  31   0.0000       0.064298         1.7496
  32   0.0000       0.076388         2.0786

MULLIKEN ATOMIC CHARGES
-----------------------
   0 S :    0.769536
   1 N :   -0.979589
   2 N :   -0.299481
   3 C :    1.339561
   4 C :   -0.233074
   5 C :    0.684876
   6 C :   -0.596857
   7 H :   -0.387746
   8 H :   -0.297225
Sum of atomic charges:   -0.0000000

LOEWDIN ATOMIC CHARGES
----------------------
   0 S :    0.985002
   1 N :   -0.292453
   2 N :    0.091991
   3 C :   -0.324480
   4 C :   -0.212470
   5 C :   -0.097640
   6 C :   -0.134826
   7 H :   -0.027375
   8 H :    0.012251

  Mayer bond orders larger than 0.100000
B(  0-S ,  1-N ) :   0.8994 B(  0-S ,  4-C ) :   1.1597 B(  1-N ,  3-C ) :   0.1533
B(  1-N ,  5-C ) :   1.3403 B(  2-N ,  6-C ) :   2.5014 B(  3-C ,  4-C ) :   1.3041
B(  3-C ,  5-C ) :   0.9585 B(  3-C ,  6-C ) :   0.3705 B(  3-C ,  8-H ) :  -0.1522
B(  4-C ,  5-C ) :  -0.2298 B(  4-C ,  6-C ) :  -0.1525 B(  4-C ,  7-H ) :   0.9584
B(  5-C ,  8-H ) :   0.9683

MP2 TOTAL ENERGY:     -660.060669622 Eh
FINAL SINGLE POINT ENERGY      -660.060669622432

DIPOLE MOMENT
-------------
                                X             Y             Z
Electronic contribution:      1.46237      -0.65205       0.00000
Nuclear contribution   :     -0.49630       0.12066       0.00001
                        -----------------------------------------
Total Dipole Moment    :      0.96607      -0.53139       0.00001
                        -----------------------------------------
Magnitude (a.u.)       :      1.10257
Magnitude (Debye)      :      2.80251

Rotational constants in cm-1:     0.251819     0.050396     0.041992
Rotational constants in MHz :  7549.356261  1510.828435  1258.890684

                             ****ORCA TERMINATED NORMALLY****
TOTAL RUN TIME: 0 days 0 hours 0 minutes 54 seconds 497 msec
