                         Program Version 5.0.3 -  RELEASE  -
|  1> !ri-mp2 aug-cc-pvdz aug-cc-pvdz/c tightscf
|  2> %pal nprocs 16 end
|  3>
|  4> * xyz 0 1
|  5> C      0.170671    2.748478   -0.443046
|  6> C     -0.170671   -2.748478   -0.443046
|  7> C     -0.170671    0.735400    0.732131
|  8> C      0.170671   -0.735400    0.732131
|  9> O      0.508228    1.383432   -0.325029
| 10> O     -0.508228   -1.383432   -0.325029
| 11> H      0.742895    3.152831   -1.275405
| 12> H      0.423122    3.306090    0.467816
| 13> H     -0.898648    2.880525   -0.647014
| 14> H      0.898648   -2.880525   -0.647014
| 15> H     -0.742895   -3.152831   -1.275405
| 16> H     -0.423122   -3.306090    0.467816
| 17> H      0.125486    1.172411    1.696274
| 18> H     -1.256057    0.857539    0.624047
| 19> H     -0.125486   -1.172411    1.696274
| 20> H      1.256057   -0.857539    0.624047
| 21> *
| 22>
| 23>                          ****END OF INPUT****

CARTESIAN COORDINATES (ANGSTROEM)
---------------------------------
  C      0.170671    2.748478   -0.443046
  C     -0.170671   -2.748478   -0.443046
  C     -0.170671    0.735400    0.732131
  C      0.170671   -0.735400    0.732131
  O      0.508228    1.383432   -0.325029
  O     -0.508228   -1.383432   -0.325029
  H      0.742895    3.152831   -1.275405
  H      0.423122    3.306090    0.467816
  H     -0.898648    2.880525   -0.647014
  H      0.898648   -2.880525   -0.647014
  H     -0.742895   -3.152831   -1.275405
  H     -0.423122   -3.306090    0.467816
  H      0.125486    1.172411    1.696274
  H     -1.256057    0.857539    0.624047
  H     -0.125486   -1.172411    1.696274
  H      1.256057   -0.857539    0.624047

 Total Charge           Charge          ....    0
 Multiplicity           Mult            ....    1
 Number of Electrons    NEL             ....   50
 Basis Dimension        Dim             ....  228

ORBITAL ENERGIES
----------------

  NO   OCC          E(Eh)            E(eV)
   0   2.0000     -20.562103      -559.5233
   1   2.0000     -20.562102      -559.5232
   2   2.0000     -11.280043      -306.9456
   3   2.0000     -11.279382      -306.9276
   4   2.0000     -11.274945      -306.8069
   5   2.0000     -11.274944      -306.8068
   6   2.0000      -1.383154       -37.6375
   7   2.0000      -1.366572       -37.1863
   8   2.0000      -1.029165       -28.0050
   9   2.0000      -0.933062       -25.3899
  10   2.0000      -0.893438       -24.3117
  11   2.0000      -0.824067       -22.4240
  12   2.0000      -0.679361       -18.4863
  13   2.0000      -0.676089       -18.3973
  14   2.0000      -0.653048       -17.7704
  15   2.0000      -0.630731       -17.1631
  16   2.0000      -0.625920       -17.0322
  17   2.0000      -0.593382       -16.1467
  18   2.0000      -0.547611       -14.9013
  19   2.0000      -0.535148       -14.5621
  20   2.0000      -0.508092       -13.8259
  21   2.0000      -0.480923       -13.0866
  22   2.0000      -0.469101       -12.7649
  23   2.0000      -0.425669       -11.5830
  24   2.0000      -0.415576       -11.3084
  25   0.0000       0.037005         1.0069
  26   0.0000       0.043132         1.1737
  27   0.0000       0.048408         1.3172
  28   0.0000       0.051592         1.4039
  29   0.0000       0.063289         1.7222

MULLIKEN ATOMIC CHARGES
-----------------------
   0 C :    0.777181
   1 C :    0.777181
   2 C :    0.775709
   3 C :    0.775709
   4 O :   -0.866259
   5 O :   -0.866259
   6 H :   -0.273754
   7 H :   -0.059253
   8 H :   -0.064800
   9 H :   -0.064800
  10 H :   -0.273754
  11 H :   -0.059253
  12 H :   -0.134977
  13 H :   -0.153847
  14 H :   -0.134977
  15 H :   -0.153847
Sum of atomic charges:    0.0000000

LOEWDIN ATOMIC CHARGES
----------------------
   0 C :    0.121058
   1 C :    0.121058
   2 C :   -0.050554
   3 C :   -0.050554
   4 O :   -0.020938
   5 O :   -0.020938
   6 H :   -0.028625
   7 H :   -0.024667
   8 H :   -0.023640
   9 H :   -0.023640
  10 H :   -0.028625
  11 H :   -0.024667
  12 H :    0.012627
  13 H :    0.014740
  14 H :    0.012627
  15 H :    0.014740

  Mayer bond orders larger than 0.100000
B(  0-C ,  4-O ) :   0.7544 B(  0-C ,  6-H ) :   1.0659 B(  0-C ,  7-H ) :   0.9461
B(  0-C ,  8-H ) :   0.9399 B(  1-C ,  5-O ) :   0.7544 B(  1-C ,  9-H ) :   0.9399
B(  1-C , 10-H ) :   1.0659 B(  1-C , 11-H ) :   0.9461 B(  2-C ,  3-C ) :   1.3223
B(  2-C ,  4-O ) :   0.7090 B(  2-C , 12-H ) :   0.8283 B(  2-C , 13-H ) :   0.9471
B(  3-C ,  5-O ) :   0.7090 B(  3-C , 14-H ) :   0.8283 B(  3-C , 15-H ) :   0.9471

MP2 TOTAL ENERGY:     -308.012045139 Eh
FINAL SINGLE POINT ENERGY      -308.012045139082

DIPOLE MOMENT
-------------
                                X             Y             Z
Electronic contribution:     -0.00000      -0.00000      -1.17441
Nuclear contribution   :      0.00000       0.00000       1.79341
                        -----------------------------------------
Total Dipole Moment    :     -0.00000      -0.00000       0.61901
                        -----------------------------------------
Magnitude (a.u.)       :      0.61901
Magnitude (Debye)      :      1.57339

Rotational constants in cm-1:     0.375562     0.050362     0.047617
Rotational constants in MHz : 11259.058299  1509.803962  1427.525770

                             ****ORCA TERMINATED NORMALLY****
TOTAL RUN TIME: 0 days 0 hours 0 minutes 55 seconds 725 msec
