                         Program Version 5.0.3 -  RELEASE  -
|  1> !ri-mp2 aug-cc-pvdz aug-cc-pvdz/c tightscf
|  2> %pal nprocs 16 end
|  3> %maxcore 3800
|  4>
|  5> * xyz 0 1
|  6> C     -0.801844    2.711310   -0.338818
|  7> C     -1.556490    1.634435    0.440931
|  8> C     -1.752233    0.321404   -0.321811
|  9> S     -0.564304   -1.020795    0.008601
| 10> O     -0.486101   -1.205289    1.457548
| 11> C      1.079145   -0.500005   -0.592572
| 12> C      1.950093    0.217261    0.432281
| 13> C      3.350553    0.492327   -0.118099
| 14> O     -0.983323   -2.133534   -0.842642
| 15> H      0.202285    2.392866   -0.619062
| 16> H     -0.702543    3.619858    0.255426
| 17> H     -1.332410    2.972547   -1.256124
| 18> H     -2.546727    2.017284    0.694565
| 19> H     -1.068499    1.426270    1.394331
| 20> H     -1.766872    0.450649   -1.403970
| 21> H     -2.678996   -0.177479   -0.036482
| 22> H      0.908147    0.085211   -1.496916
| 23> H      1.520929   -1.450450   -0.895032
| 24> H      2.010961   -0.398610    1.328781
| 25> H      1.485259    1.155553    0.736171
| 26> H      3.854470   -0.434566   -0.397124
| 27> H      3.316961    1.131141   -1.002632
| 28> H      3.965955    0.992641    0.629730
| 29> *
| 30>
| 31>                          ****END OF INPUT****

CARTESIAN COORDINATES (ANGSTROEM)
---------------------------------
  C     -0.801844    2.711310   -0.338818
  C     -1.556490    1.634435    0.440931
  C     -1.752233    0.321404   -0.321811
  S     -0.564304   -1.020795    0.008601
  O     -0.486101   -1.205289    1.457548
  C      1.079145   -0.500005   -0.592572
  C      1.950093    0.217261    0.432281
  C      3.350553    0.492327   -0.118099
  O     -0.983323   -2.133534   -0.842642
  H      0.202285    2.392866   -0.619062
  H     -0.702543    3.619858    0.255426
  H     -1.332410    2.972547   -1.256124
  H     -2.546727    2.017284    0.694565
  H     -1.068499    1.426270    1.394331
  H     -1.766872    0.450649   -1.403970
  H     -2.678996   -0.177479   -0.036482
  H      0.908147    0.085211   -1.496916
  H      1.520929   -1.450450   -0.895032
  H      2.010961   -0.398610    1.328781
  H      1.485259    1.155553    0.736171
  H      3.854470   -0.434566   -0.397124
  H      3.316961    1.131141   -1.002632
  H      3.965955    0.992641    0.629730

 Total Charge           Charge          ....    0
 Multiplicity           Mult            ....    1
 Number of Electrons    NEL             ....   82
 Basis Dimension        Dim             ....  337

ORBITAL ENERGIES
----------------

  NO   OCC          E(Eh)            E(eV)
   0   2.0000     -92.185669     -2508.4996
   1   2.0000     -20.544551      -559.0457
   2   2.0000     -20.542650      -558.9939
   3   2.0000     -11.282143      -307.0027
   4   2.0000     -11.281866      -306.9952
   5   2.0000     -11.256754      -306.3118
   6   2.0000     -11.251579      -306.1710
   7   2.0000     -11.244044      -305.9660
   8   2.0000     -11.239687      -305.8474
   9   2.0000      -9.159210      -249.2348
  10   2.0000      -6.844413      -186.2459
  11   2.0000      -6.842984      -186.2071
  12   2.0000      -6.842762      -186.2010
  13   2.0000      -1.439582       -39.1730
  14   2.0000      -1.326267       -36.0896
  15   2.0000      -1.108039       -30.1513
  16   2.0000      -1.090212       -29.6662
  17   2.0000      -1.003613       -27.3097
  18   2.0000      -0.970581       -26.4109
  19   2.0000      -0.870029       -23.6747
  20   2.0000      -0.841263       -22.8919
  21   2.0000      -0.790703       -21.5161
  22   2.0000      -0.693311       -18.8659
  23   2.0000      -0.681056       -18.5325
  24   2.0000      -0.650093       -17.6899
  25   2.0000      -0.637815       -17.3558
  26   2.0000      -0.627156       -17.0658
  27   2.0000      -0.614947       -16.7335
  28   2.0000      -0.594716       -16.1830
  29   2.0000      -0.583654       -15.8820
  30   2.0000      -0.566798       -15.4234
  31   2.0000      -0.545708       -14.8495
  32   2.0000      -0.527635       -14.3577
  33   2.0000      -0.513071       -13.9614
  34   2.0000      -0.511557       -13.9202
  35   2.0000      -0.504626       -13.7316
  36   2.0000      -0.500000       -13.6057
  37   2.0000      -0.476822       -12.9750
  38   2.0000      -0.471700       -12.8356
  39   2.0000      -0.454175       -12.3587
  40   2.0000      -0.414441       -11.2775
  41   0.0000       0.027405         0.7457
  42   0.0000       0.036478         0.9926
  43   0.0000       0.038813         1.0561
  44   0.0000       0.045388         1.2351
  45   0.0000       0.055251         1.5034

MULLIKEN ATOMIC CHARGES
-----------------------
   0 C :    0.392999
   1 C :    0.370631
   2 C :   -0.072070
   3 S :    2.997545
   4 O :   -1.338680
   5 C :   -0.250625
   6 C :    0.352123
   7 C :    0.516471
   8 O :   -1.285644
   9 H :   -0.235237
  10 H :   -0.067712
  11 H :   -0.074410
  12 H :   -0.130565
  13 H :   -0.159350
  14 H :   -0.116540
  15 H :   -0.030353
  16 H :   -0.200399
  17 H :   -0.079663
  18 H :   -0.126381
  19 H :   -0.213614
  20 H :   -0.086564
  21 H :   -0.079896
  22 H :   -0.082066
Sum of atomic charges:   -0.0000000

LOEWDIN ATOMIC CHARGES
----------------------
   0 C :    0.134620
   1 C :   -0.077956
   2 C :   -0.070396
   3 S :    0.949907
   4 O :   -0.397521
   5 C :   -0.077426
   6 C :   -0.096173
   7 C :    0.142280
   8 O :   -0.408162
   9 H :   -0.036689
  10 H :   -0.012335
  11 H :   -0.014052
  12 H :    0.013032
  13 H :    0.005187
  14 H :   -0.003894
  15 H :   -0.000878
  16 H :   -0.005860
  17 H :   -0.001154
  18 H :    0.011093
  19 H :   -0.003846
  20 H :   -0.016048
  21 H :   -0.018338
  22 H :   -0.015393

  Mayer bond orders larger than 0.100000
B(  0-C ,  1-C ) :   1.1966 B(  0-C ,  9-H ) :   1.0252 B(  0-C , 10-H ) :   0.8950
B(  0-C , 11-H ) :   0.8940 B(  1-C ,  2-C ) :   1.2058 B(  1-C , 12-H ) :   0.8362
B(  1-C , 13-H ) :   0.8408 B(  2-C ,  3-S ) :   0.9997 B(  2-C ,  4-O ) :   0.1430
B(  2-C , 14-H ) :   0.9427 B(  2-C , 15-H ) :   0.8740 B(  3-S ,  4-O ) :   0.5423
B(  3-S ,  5-C ) :   0.7051 B(  3-S ,  8-O ) :   0.4309 B(  3-S , 16-H ) :  -0.1228
B(  4-O ,  5-C ) :   0.3313 B(  4-O ,  6-C ) :  -0.1181 B(  4-O ,  8-O ) :   0.1315
B(  5-C ,  6-C ) :   1.2410 B(  5-C ,  8-O ) :   0.1141 B(  5-C , 16-H ) :   0.9433
B(  5-C , 17-H ) :   0.9640 B(  6-C ,  7-C ) :   1.1824 B(  6-C , 18-H ) :   0.7975
B(  6-C , 19-H ) :   0.7432 B(  7-C , 20-H ) :   0.9226 B(  7-C , 21-H ) :   0.9056
B(  7-C , 22-H ) :   0.9243 B( 12-H , 13-H ) :  -0.1285 B( 14-H , 15-H ) :  -0.1013

MP2 TOTAL ENERGY:     -784.047272944 Eh
FINAL SINGLE POINT ENERGY      -784.047272943777

DIPOLE MOMENT
-------------
                                X             Y             Z
Electronic contribution:     -6.76040     -12.07128       1.47022
Nuclear contribution   :      7.34273      14.10675      -2.11052
                        -----------------------------------------
Total Dipole Moment    :      0.58233       2.03547      -0.64030
                        -----------------------------------------
Magnitude (a.u.)       :      2.21183
Magnitude (Debye)      :      5.62203

Rotational constants in cm-1:     0.046021     0.038294     0.025318
Rotational constants in MHz :  1379.678229  1148.016151   759.028371

                             ****ORCA TERMINATED NORMALLY****
TOTAL RUN TIME: 0 days 0 hours 1 minutes 50 seconds 168 msec
