                         Program Version 5.0.3 -  RELEASE  -
|  1> !ri-mp2 aug-cc-pvdz aug-cc-pvdz/c tightscf
|  2> %pal nprocs 16 end
|  3>
|  4> * xyz 0 1
|  5> O     1.498061     2.666221    0.000000
|  6> O    -1.498061    -2.666221    0.000000
|  7> C     1.498061     1.237514    0.000000
|  8> C    -1.498061    -1.237514    0.000000
|  9> C     0.056538     0.762057    0.000000
| 10> C    -0.056538    -0.762057    0.000000
| 11> H     2.406126     2.980641    0.000000
| 12> H    -2.406126    -2.980641    0.000000
| 13> H    -0.445072     1.179692    0.876807
| 14> H    -0.445072     1.179692   -0.876807
| 15> H     0.445072    -1.179692    0.876807
| 16> H     0.445072    -1.179692   -0.876807
| 17> H    -2.018661    -0.854825   -0.885586
| 18> H    -2.018661    -0.854825    0.885586
| 19> H     2.018661     0.854825   -0.885586
| 20> H     2.018661     0.854825    0.885586
| 21> *
| 22>
| 23>                          ****END OF INPUT****

CARTESIAN COORDINATES (ANGSTROEM)
---------------------------------
  O      1.498061    2.666221    0.000000
  O     -1.498061   -2.666221    0.000000
  C      1.498061    1.237514    0.000000
  C     -1.498061   -1.237514    0.000000
  C      0.056538    0.762057    0.000000
  C     -0.056538   -0.762057    0.000000
  H      2.406126    2.980641    0.000000
  H     -2.406126   -2.980641    0.000000
  H     -0.445072    1.179692    0.876807
  H     -0.445072    1.179692   -0.876807
  H      0.445072   -1.179692    0.876807
  H      0.445072   -1.179692   -0.876807
  H     -2.018661   -0.854825   -0.885586
  H     -2.018661   -0.854825    0.885586
  H      2.018661    0.854825   -0.885586
  H      2.018661    0.854825    0.885586

 Total Charge           Charge          ....    0
 Multiplicity           Mult            ....    1
 Number of Electrons    NEL             ....   50
 Basis Dimension        Dim             ....  228

ORBITAL ENERGIES
----------------

  NO   OCC          E(Eh)            E(eV)
   0   2.0000     -20.566178      -559.6342
   1   2.0000     -20.566178      -559.6342
   2   2.0000     -11.281560      -306.9868
   3   2.0000     -11.281559      -306.9868
   4   2.0000     -11.226235      -305.4814
   5   2.0000     -11.225630      -305.4649
   6   2.0000      -1.359591       -36.9964
   7   2.0000      -1.359171       -36.9849
   8   2.0000      -1.073779       -29.2190
   9   2.0000      -0.970314       -26.4036
  10   2.0000      -0.849918       -23.1275
  11   2.0000      -0.801770       -21.8173
  12   2.0000      -0.702060       -19.1040
  13   2.0000      -0.678588       -18.4653
  14   2.0000      -0.670364       -18.2415
  15   2.0000      -0.632939       -17.2231
  16   2.0000      -0.597942       -16.2708
  17   2.0000      -0.555458       -15.1148
  18   2.0000      -0.550927       -14.9915
  19   2.0000      -0.500750       -13.6261
  20   2.0000      -0.499316       -13.5871
  21   2.0000      -0.484136       -13.1740
  22   2.0000      -0.467723       -12.7274
  23   2.0000      -0.445638       -12.1264
  24   2.0000      -0.440399       -11.9839
  25   0.0000       0.035566         0.9678
  26   0.0000       0.037792         1.0284
  27   0.0000       0.049162         1.3378
  28   0.0000       0.050979         1.3872
  29   0.0000       0.059015         1.6059

MULLIKEN ATOMIC CHARGES
-----------------------
   0 O :   -0.730543
   1 O :   -0.730543
   2 C :    1.088566
   3 C :    1.088566
   4 C :    0.115117
   5 C :    0.115117
   6 H :    0.144917
   7 H :    0.144917
   8 H :   -0.129377
   9 H :   -0.129377
  10 H :   -0.129377
  11 H :   -0.129377
  12 H :   -0.179652
  13 H :   -0.179652
  14 H :   -0.179652
  15 H :   -0.179652
Sum of atomic charges:   -0.0000000

LOEWDIN ATOMIC CHARGES
----------------------
   0 O :    0.110169
   1 O :    0.110169
   2 C :   -0.054206
   3 C :   -0.054206
   4 C :   -0.037854
   5 C :   -0.037854
   6 H :   -0.064003
   7 H :   -0.064003
   8 H :    0.018184
   9 H :    0.018184
  10 H :    0.018184
  11 H :    0.018184
  12 H :    0.004764
  13 H :    0.004764
  14 H :    0.004764
  15 H :    0.004764

  Mayer bond orders larger than 0.100000
B(  0-O ,  2-C ) :   0.5120 B(  0-O ,  6-H ) :   1.1102 B(  1-O ,  3-C ) :   0.5120
B(  1-O ,  7-H ) :   1.1102 B(  2-C ,  4-C ) :   1.2178 B(  2-C , 14-H ) :   0.8605
B(  2-C , 15-H ) :   0.8605 B(  3-C ,  5-C ) :   1.2178 B(  3-C , 12-H ) :   0.8605
B(  3-C , 13-H ) :   0.8605 B(  4-C ,  5-C ) :   1.1376 B(  4-C ,  8-H ) :   0.8400
B(  4-C ,  9-H ) :   0.8400 B(  5-C , 10-H ) :   0.8400 B(  5-C , 11-H ) :   0.8400

MP2 TOTAL ENERGY:     -308.049914945 Eh
FINAL SINGLE POINT ENERGY      -308.049914945444

DIPOLE MOMENT
-------------
                                X             Y             Z
Electronic contribution:      0.00000       0.00000      -0.00000
Nuclear contribution   :      0.00000       0.00000       0.00000
                        -----------------------------------------
Total Dipole Moment    :      0.00000       0.00000      -0.00000
                        -----------------------------------------
Magnitude (a.u.)       :      0.00000
Magnitude (Debye)      :      0.00000

Rotational constants in cm-1:     0.577410     0.038079     0.036697
Rotational constants in MHz : 17310.328996  1141.591641  1100.160929

                             ****ORCA TERMINATED NORMALLY****
TOTAL RUN TIME: 0 days 0 hours 0 minutes 45 seconds 650 msec
