                         Program Version 5.0.3 -  RELEASE  -
|  1> !ri-mp2 aug-cc-pvdz aug-cc-pvdz/c tightscf
|  2> %pal nprocs 16 end
|  3>
|  4> * xyz 0 1
|  5> O      0.000000    0.000000    1.185426
|  6> C      0.000000    1.126270    0.321884
|  7> C      0.000000   -1.126270    0.321884
|  8> O     -0.368242   -0.630282   -0.948481
|  9> O      0.368242    0.630282   -0.948481
| 10> H     -0.997388    1.574227    0.297170
| 11> H      0.997388   -1.574227    0.297170
| 12> H      0.765842    1.843110    0.617669
| 13> H     -0.765842   -1.843110    0.617669
| 14> *
| 15>
| 16>                          ****END OF INPUT****

CARTESIAN COORDINATES (ANGSTROEM)
---------------------------------
  O      0.000000    0.000000    1.185426
  C      0.000000    1.126270    0.321884
  C      0.000000   -1.126270    0.321884
  O     -0.368242   -0.630282   -0.948481
  O      0.368242    0.630282   -0.948481
  H     -0.997388    1.574227    0.297170
  H      0.997388   -1.574227    0.297170
  H      0.765842    1.843110    0.617669
  H     -0.765842   -1.843110    0.617669

 Total Charge           Charge          ....    0
 Multiplicity           Mult            ....    1
 Number of Electrons    NEL             ....   40
 Basis Dimension        Dim             ....  151

ORBITAL ENERGIES
----------------

  NO   OCC          E(Eh)            E(eV)
   0   2.0000     -20.655050      -562.0525
   1   2.0000     -20.654758      -562.0445
   2   2.0000     -20.596644      -560.4632
   3   2.0000     -11.359159      -309.0984
   4   2.0000     -11.359140      -309.0979
   5   2.0000      -1.538659       -41.8690
   6   2.0000      -1.382192       -37.6114
   7   2.0000      -1.268975       -34.5306
   8   2.0000      -0.941355       -25.6156
   9   2.0000      -0.897059       -24.4102
  10   2.0000      -0.749585       -20.3972
  11   2.0000      -0.739621       -20.1261
  12   2.0000      -0.672376       -18.2963
  13   2.0000      -0.651625       -17.7316
  14   2.0000      -0.601378       -16.3643
  15   2.0000      -0.581997       -15.8369
  16   2.0000      -0.548413       -14.9231
  17   2.0000      -0.539545       -14.6818
  18   2.0000      -0.464016       -12.6265
  19   2.0000      -0.452250       -12.3064
  20   0.0000       0.036426         0.9912
  21   0.0000       0.045967         1.2508
  22   0.0000       0.048829         1.3287
  23   0.0000       0.065145         1.7727
  24   0.0000       0.088227         2.4008

MULLIKEN ATOMIC CHARGES
-----------------------
   0 O :   -0.894155
   1 C :    1.352271
   2 C :    1.352271
   3 O :   -0.558854
   4 O :   -0.558854
   5 H :   -0.158892
   6 H :   -0.158892
   7 H :   -0.187446
   8 H :   -0.187446
Sum of atomic charges:   -0.0000000

LOEWDIN ATOMIC CHARGES
----------------------
   0 O :   -0.007659
   1 C :   -0.023681
   2 C :   -0.023681
   3 O :    0.022442
   4 O :    0.022442
   5 H :    0.001212
   6 H :    0.001212
   7 H :    0.003857
   8 H :    0.003857

  Mayer bond orders larger than 0.100000
B(  0-O ,  1-C ) :   0.6774 B(  0-O ,  2-C ) :   0.6774 B(  1-C ,  4-O ) :   0.6249
B(  1-C ,  5-H ) :   0.9519 B(  1-C ,  7-H ) :   0.9980 B(  2-C ,  3-O ) :   0.6249
B(  2-C ,  6-H ) :   0.9519 B(  2-C ,  8-H ) :   0.9980 B(  3-O ,  4-O ) :   0.8246

MP2 TOTAL ENERGY:     -303.441010342 Eh
FINAL SINGLE POINT ENERGY      -303.441010341847

DIPOLE MOMENT
-------------
                                X             Y             Z
Electronic contribution:     -0.00000      -0.00000      -1.31306
Nuclear contribution   :      0.00000       0.00000       1.79627
                        -----------------------------------------
Total Dipole Moment    :     -0.00000      -0.00000       0.48321
                        -----------------------------------------
Magnitude (a.u.)       :      0.48321
Magnitude (Debye)      :      1.22821

Rotational constants in cm-1:     0.275687     0.269488     0.152242
Rotational constants in MHz :  8264.889395  8079.053836  4564.098199

                             ****ORCA TERMINATED NORMALLY****
TOTAL RUN TIME: 0 days 0 hours 0 minutes 36 seconds 252 msec
