                         Program Version 5.0.3 -  RELEASE  -
|  1> !ri-mp2 aug-cc-pvdz aug-cc-pvdz/c tightscf
|  2> %pal nprocs 16 end
|  3>
|  4> * xyz 0 1
|  5> O     0.313702   -1.614925   -0.926768
|  6> N     1.171613   -1.268187    0.163198
|  7> N     1.427390    2.027391   -0.681155
|  8> N    -2.527750    0.403730   -0.742264
|  9> C     0.711444   -0.025519    0.777150
| 10> C    -0.791840    0.053445    1.169705
| 11> C     1.112029    1.119852   -0.051970
| 12> C    -1.739571    0.231309    0.075617
| 13> H     0.885285   -1.552765   -1.700527
| 14> H     1.045190   -2.024365    0.828812
| 15> H     1.278390    0.046227    1.709846
| 16> H    -1.048671   -0.855680    1.716626
| 17> H    -0.920956    0.890916    1.857922
| 18> *
| 19>
| 20>                          ****END OF INPUT****

CARTESIAN COORDINATES (ANGSTROEM)
---------------------------------
  O      0.313702   -1.614925   -0.926768
  N      1.171613   -1.268187    0.163198
  N      1.427390    2.027391   -0.681155
  N     -2.527750    0.403730   -0.742264
  C      0.711444   -0.025519    0.777150
  C     -0.791840    0.053445    1.169705
  C      1.112029    1.119852   -0.051970
  C     -1.739571    0.231309    0.075617
  H      0.885285   -1.552765   -1.700527
  H      1.045190   -2.024365    0.828812
  H      1.278390    0.046227    1.709846
  H     -1.048671   -0.855680    1.716626
  H     -0.920956    0.890916    1.857922

 Total Charge           Charge          ....    0
 Multiplicity           Mult            ....    1
 Number of Electrons    NEL             ....   58
 Basis Dimension        Dim             ....  229

ORBITAL ENERGIES
----------------

  NO   OCC          E(Eh)            E(eV)
   0   2.0000     -20.632109      -561.4282
   1   2.0000     -15.664796      -426.2608
   2   2.0000     -15.602496      -424.5655
   3   2.0000     -15.588031      -424.1719
   4   2.0000     -11.362070      -309.1776
   5   2.0000     -11.323111      -308.1175
   6   2.0000     -11.299162      -307.4658
   7   2.0000     -11.291379      -307.2540
   8   2.0000      -1.446422       -39.3591
   9   2.0000      -1.252122       -34.0720
  10   2.0000      -1.234079       -33.5810
  11   2.0000      -1.194491       -32.5037
  12   2.0000      -1.078855       -29.3571
  13   2.0000      -0.961100       -26.1529
  14   2.0000      -0.780108       -21.2278
  15   2.0000      -0.732905       -19.9433
  16   2.0000      -0.728931       -19.8352
  17   2.0000      -0.691288       -18.8109
  18   2.0000      -0.647468       -17.6185
  19   2.0000      -0.641638       -17.4599
  20   2.0000      -0.613903       -16.7052
  21   2.0000      -0.573214       -15.5979
  22   2.0000      -0.559888       -15.2353
  23   2.0000      -0.525214       -14.2918
  24   2.0000      -0.492742       -13.4082
  25   2.0000      -0.483687       -13.1618
  26   2.0000      -0.481343       -13.0980
  27   2.0000      -0.469766       -12.7830
  28   2.0000      -0.438776       -11.9397
  29   0.0000       0.016023         0.4360
  30   0.0000       0.037426         1.0184
  31   0.0000       0.042130         1.1464
  32   0.0000       0.047383         1.2894
  33   0.0000       0.064454         1.7539

MULLIKEN ATOMIC CHARGES
-----------------------
   0 O :   -0.585782
   1 N :   -0.139313
   2 N :   -0.280037
   3 N :   -0.327824
   4 C :    0.569456
   5 C :    0.645948
   6 C :   -0.173914
   7 C :   -0.080303
   8 H :    0.203977
   9 H :    0.069550
  10 H :   -0.008749
  11 H :    0.042184
  12 H :    0.064807
Sum of atomic charges:    0.0000000

LOEWDIN ATOMIC CHARGES
----------------------
   0 O :    0.138139
   1 N :    0.061990
   2 N :    0.104784
   3 N :    0.093747
   4 C :   -0.229034
   5 C :    0.015162
   6 C :   -0.099646
   7 C :   -0.147667
   8 H :   -0.047900
   9 H :   -0.019518
  10 H :    0.056864
  11 H :    0.035611
  12 H :    0.037468

  Mayer bond orders larger than 0.100000
B(  0-O ,  1-N ) :   0.7990 B(  0-O ,  4-C ) :  -0.2074 B(  0-O ,  8-H ) :   1.0372
B(  1-N ,  4-C ) :   0.7635 B(  1-N ,  9-H ) :   1.0040 B(  2-N ,  4-C ) :  -0.1498
B(  2-N ,  6-C ) :   2.7832 B(  3-N ,  5-C ) :  -0.1003 B(  3-N ,  7-C ) :   2.7273
B(  4-C ,  5-C ) :   1.4273 B(  4-C ,  6-C ) :   0.5994 B(  4-C ,  9-H ) :   0.1288
B(  4-C , 10-H ) :   0.7349 B(  4-C , 11-H ) :   0.1220 B(  5-C ,  7-C ) :   0.7107
B(  5-C , 11-H ) :   0.7691 B(  5-C , 12-H ) :   0.8291

MP2 TOTAL ENERGY:     -393.797420942 Eh
FINAL SINGLE POINT ENERGY      -393.797420942148

DIPOLE MOMENT
-------------
                                X             Y             Z
Electronic contribution:     -0.40776       2.07805      -2.29683
Nuclear contribution   :      1.22023      -3.44548       4.30469
                        -----------------------------------------
Total Dipole Moment    :      0.81247      -1.36743       2.00786
                        -----------------------------------------
Magnitude (a.u.)       :      2.56154
Magnitude (Debye)      :      6.51091

Rotational constants in cm-1:     0.079296     0.061467     0.047217
Rotational constants in MHz :  2377.236481  1842.723854  1415.530535

                             ****ORCA TERMINATED NORMALLY****
TOTAL RUN TIME: 0 days 0 hours 0 minutes 57 seconds 38 msec
