                         Program Version 5.0.3 -  RELEASE  -
|  1> !ri-mp2 aug-cc-pvdz aug-cc-pvdz/c tightscf
|  2> %pal nprocs 16 end
|  3>
|  4> * xyz 0 1
|  5> C     0.000000     0.000000    0.149260
|  6> C     0.755342     0.000000   -1.153405
|  7> C    -0.755342     0.000000   -1.153405
|  8> C     0.000000     1.272527    0.969653
|  9> C     0.000000    -1.272527    0.969653
| 10> H     1.261720     0.908062   -1.451789
| 11> H     1.261720    -0.908062   -1.451789
| 12> H    -1.261720    -0.908062   -1.451789
| 13> H    -1.261720     0.908062   -1.451789
| 14> H    -0.882277     1.324395    1.612690
| 15> H    -0.882277    -1.324395    1.612690
| 16> H     0.882277    -1.324395    1.612690
| 17> H     0.882277     1.324395    1.612690
| 18> H     0.000000     2.158152    0.332929
| 19> H     0.000000    -2.158152    0.332929
| 20> *
| 21>
| 22>                          ****END OF INPUT****

CARTESIAN COORDINATES (ANGSTROEM)
---------------------------------
  C      0.000000    0.000000    0.149260
  C      0.755342    0.000000   -1.153405
  C     -0.755342    0.000000   -1.153405
  C      0.000000    1.272527    0.969653
  C      0.000000   -1.272527    0.969653
  H      1.261720    0.908062   -1.451789
  H      1.261720   -0.908062   -1.451789
  H     -1.261720   -0.908062   -1.451789
  H     -1.261720    0.908062   -1.451789
  H     -0.882277    1.324395    1.612690
  H     -0.882277   -1.324395    1.612690
  H      0.882277   -1.324395    1.612690
  H      0.882277    1.324395    1.612690
  H      0.000000    2.158152    0.332929
  H      0.000000   -2.158152    0.332929

 Total Charge           Charge          ....    0
 Multiplicity           Mult            ....    1
 Number of Electrons    NEL             ....   40
 Basis Dimension        Dim             ....  205

ORBITAL ENERGIES
----------------

  NO   OCC          E(Eh)            E(eV)
   0   2.0000     -11.237049      -305.7757
   1   2.0000     -11.221787      -305.3604
   2   2.0000     -11.221154      -305.3431
   3   2.0000     -11.218967      -305.2836
   4   2.0000     -11.218940      -305.2829
   5   2.0000      -1.152454       -31.3599
   6   2.0000      -0.976979       -26.5849
   7   2.0000      -0.935992       -25.4696
   8   2.0000      -0.820165       -22.3178
   9   2.0000      -0.737182       -20.0597
  10   2.0000      -0.649183       -17.6652
  11   2.0000      -0.617088       -16.7918
  12   2.0000      -0.584284       -15.8992
  13   2.0000      -0.550062       -14.9679
  14   2.0000      -0.538668       -14.6579
  15   2.0000      -0.524954       -14.2847
  16   2.0000      -0.502249       -13.6669
  17   2.0000      -0.475627       -12.9425
  18   2.0000      -0.404557       -11.0086
  19   2.0000      -0.387956       -10.5568
  20   0.0000       0.037783         1.0281
  21   0.0000       0.047245         1.2856
  22   0.0000       0.047262         1.2861
  23   0.0000       0.047734         1.2989
  24   0.0000       0.065273         1.7762

MULLIKEN ATOMIC CHARGES
-----------------------
   0 C :   -0.810466
   1 C :    0.853852
   2 C :    0.853852
   3 C :    0.460366
   4 C :    0.460366
   5 H :   -0.383214
   6 H :   -0.383214
   7 H :   -0.383214
   8 H :   -0.383214
   9 H :    0.002816
  10 H :    0.002816
  11 H :    0.002816
  12 H :    0.002816
  13 H :   -0.148190
  14 H :   -0.148190
Sum of atomic charges:    0.0000000

LOEWDIN ATOMIC CHARGES
----------------------
   0 C :   -0.451260
   1 C :    0.078742
   2 C :    0.078742
   3 C :    0.177055
   4 C :    0.177055
   5 H :   -0.001560
   6 H :   -0.001560
   7 H :   -0.001560
   8 H :   -0.001560
   9 H :   -0.007462
  10 H :   -0.007462
  11 H :   -0.007462
  12 H :   -0.007462
  13 H :   -0.012123
  14 H :   -0.012123

  Mayer bond orders larger than 0.100000
B(  0-C ,  1-C ) :   0.8777 B(  0-C ,  2-C ) :   0.8777 B(  0-C ,  3-C ) :   1.3452
B(  0-C ,  4-C ) :   1.3452 B(  0-C ,  9-H ) :   0.1154 B(  0-C , 10-H ) :   0.1154
B(  0-C , 11-H ) :   0.1154 B(  0-C , 12-H ) :   0.1154 B(  0-C , 13-H ) :   0.2043
B(  0-C , 14-H ) :   0.2043 B(  1-C ,  2-C ) :   1.2118 B(  1-C ,  5-H ) :   0.7058
B(  1-C ,  6-H ) :   0.7058 B(  2-C ,  7-H ) :   0.7058 B(  2-C ,  8-H ) :   0.7058
B(  3-C ,  9-H ) :   0.8751 B(  3-C , 12-H ) :   0.8751 B(  3-C , 13-H ) :   0.7643
B(  4-C , 10-H ) :   0.8751 B(  4-C , 11-H ) :   0.8751 B(  4-C , 14-H ) :   0.7643
B(  5-H ,  6-H ) :  -0.1935 B(  7-H ,  8-H ) :  -0.1935

MP2 TOTAL ENERGY:     -195.893594101 Eh
FINAL SINGLE POINT ENERGY      -195.893594100508

DIPOLE MOMENT
-------------
                                X             Y             Z
Electronic contribution:      0.00000       0.00000      -1.34915
Nuclear contribution   :      0.00000       0.00000       1.40259
                        -----------------------------------------
Total Dipole Moment    :      0.00000       0.00000       0.05344
                        -----------------------------------------
Magnitude (a.u.)       :      0.05344
Magnitude (Debye)      :      0.13582

Rotational constants in cm-1:     0.205709     0.173329     0.127054
Rotational constants in MHz :  6167.007739  5196.285132  3808.977568

                             ****ORCA TERMINATED NORMALLY****
TOTAL RUN TIME: 0 days 0 hours 0 minutes 33 seconds 945 msec
