                         Program Version 5.0.3 -  RELEASE  -
|  1> !ri-mp2 aug-cc-pvdz aug-cc-pvdz/c tightscf
|  2> %pal nprocs 16 end
|  3>
|  4> * xyz 0 1
|  5> C      2.237512   -1.080208   -0.077675
|  6> C      1.403583   -0.280902   -0.719892
|  7> S      0.000000    0.441332    0.117731
|  8> O      0.000000   -0.012068    1.503955
|  9> C     -1.403588   -0.280896   -0.719890
| 10> C     -2.237510   -1.080210   -0.077674
| 11> O      0.000003    1.864598   -0.204444
| 12> H      2.063322   -1.347346    0.955947
| 13> H      3.118409   -1.474130   -0.566836
| 14> H      1.522477    0.047345   -1.743611
| 15> H     -1.522490    0.047360   -1.743604
| 16> H     -2.063312   -1.347358    0.955944
| 17> H     -3.118410   -1.474129   -0.566832
| 18> *
| 19>
| 20>                          ****END OF INPUT****

CARTESIAN COORDINATES (ANGSTROEM)
---------------------------------
  C      2.237512   -1.080208   -0.077675
  C      1.403583   -0.280902   -0.719892
  S      0.000000    0.441332    0.117731
  O      0.000000   -0.012068    1.503955
  C     -1.403588   -0.280896   -0.719890
  C     -2.237510   -1.080210   -0.077674
  O      0.000003    1.864598   -0.204444
  H      2.063322   -1.347346    0.955947
  H      3.118409   -1.474130   -0.566836
  H      1.522477    0.047345   -1.743611
  H     -1.522490    0.047360   -1.743604
  H     -2.063312   -1.347358    0.955944
  H     -3.118410   -1.474129   -0.566832

 Total Charge           Charge          ....    0
 Multiplicity           Mult            ....    1
 Number of Electrons    NEL             ....   62
 Basis Dimension        Dim             ....  219

ORBITAL ENERGIES
----------------

  NO   OCC          E(Eh)            E(eV)
   0   2.0000     -92.204421     -2509.0099
   1   2.0000     -20.556751      -559.3776
   2   2.0000     -20.551836      -559.2439
   3   2.0000     -11.288344      -307.1714
   4   2.0000     -11.288327      -307.1710
   5   2.0000     -11.282963      -307.0250
   6   2.0000     -11.282960      -307.0250
   7   2.0000      -9.176556      -249.7068
   8   2.0000      -6.862048      -186.7258
   9   2.0000      -6.860675      -186.6885
  10   2.0000      -6.860354      -186.6797
  11   2.0000      -1.452826       -39.5334
  12   2.0000      -1.339334       -36.4451
  13   2.0000      -1.110333       -30.2137
  14   2.0000      -1.088976       -29.6325
  15   2.0000      -0.941476       -25.6189
  16   2.0000      -0.838110       -22.8061
  17   2.0000      -0.775531       -21.1033
  18   2.0000      -0.718418       -19.5491
  19   2.0000      -0.686220       -18.6730
  20   2.0000      -0.673488       -18.3265
  21   2.0000      -0.646519       -17.5927
  22   2.0000      -0.623017       -16.9532
  23   2.0000      -0.579580       -15.7712
  24   2.0000      -0.575631       -15.6637
  25   2.0000      -0.497382       -13.5345
  26   2.0000      -0.494463       -13.4550
  27   2.0000      -0.474031       -12.8990
  28   2.0000      -0.440313       -11.9815
  29   2.0000      -0.437581       -11.9072
  30   2.0000      -0.407388       -11.0856
  31   0.0000       0.028912         0.7867
  32   0.0000       0.036180         0.9845
  33   0.0000       0.042813         1.1650
  34   0.0000       0.057929         1.5763
  35   0.0000       0.060658         1.6506

MULLIKEN ATOMIC CHARGES
-----------------------
   0 C :    0.486523
   1 C :    0.088939
   2 S :    3.083065
   3 O :   -1.294012
   4 C :    0.088940
   5 C :    0.486524
   6 O :   -1.231369
   7 H :   -0.228798
   8 H :   -0.219118
   9 H :   -0.406388
  10 H :   -0.406389
  11 H :   -0.228798
  12 H :   -0.219118
Sum of atomic charges:    0.0000000

LOEWDIN ATOMIC CHARGES
----------------------
   0 C :    0.165724
   1 C :   -0.135399
   2 S :    0.906683
   3 O :   -0.384522
   4 C :   -0.135398
   5 C :    0.165724
   6 O :   -0.400759
   7 H :   -0.033982
   8 H :   -0.027691
   9 H :   -0.029353
  10 H :   -0.029354
  11 H :   -0.033982
  12 H :   -0.027691

  Mayer bond orders larger than 0.100000
B(  0-C ,  1-C ) :   2.0018 B(  0-C ,  7-H ) :   0.9265 B(  0-C ,  8-H ) :   0.8540
B(  1-C ,  2-S ) :   0.6299 B(  1-C ,  3-O ) :   0.2281 B(  1-C ,  4-C ) :   0.1607
B(  1-C ,  6-O ) :   0.2709 B(  1-C ,  9-H ) :   0.9393 B(  2-S ,  3-O ) :   0.5455
B(  2-S ,  4-C ) :   0.6299 B(  2-S ,  6-O ) :   0.4685 B(  2-S ,  9-H ) :  -0.1824
B(  2-S , 10-H ) :  -0.1824 B(  3-O ,  4-C ) :   0.2281 B(  3-O ,  6-O ) :   0.1922
B(  4-C ,  5-C ) :   2.0018 B(  4-C ,  6-O ) :   0.2709 B(  4-C , 10-H ) :   0.9392
B(  5-C , 11-H ) :   0.9265 B(  5-C , 12-H ) :   0.8540 B(  7-H ,  8-H ) :  -0.1800
B( 11-H , 12-H ) :  -0.1800

MP2 TOTAL ENERGY:     -703.222445314 Eh
FINAL SINGLE POINT ENERGY      -703.222445313633

DIPOLE MOMENT
-------------
                                X             Y             Z
Electronic contribution:      0.00000       3.75629       1.45287
Nuclear contribution   :     -0.00000      -5.45262      -2.65319
                        -----------------------------------------
Total Dipole Moment    :     -0.00000      -1.69633      -1.20032
                        -----------------------------------------
Magnitude (a.u.)       :      2.07805
Magnitude (Debye)      :      5.28199

Rotational constants in cm-1:     0.106667     0.065117     0.056181
Rotational constants in MHz :  3197.810352  1952.164495  1684.276043

                             ****ORCA TERMINATED NORMALLY****
TOTAL RUN TIME: 0 days 0 hours 0 minutes 49 seconds 291 msec
