                         Program Version 5.0.3 -  RELEASE  -
|  1> !ri-mp2 aug-cc-pvdz aug-cc-pvdz/c tightscf
|  2> %pal nprocs 16 end
|  3>
|  4> * xyz 0 1
|  5> F      2.238616   -0.469672   -1.083891
|  6> O     -0.514809   -2.003549    0.451487
|  7> O     -1.632764    1.813980   -0.275594
|  8> N     -0.198773    0.275717    0.380007
|  9> N     -0.548484    1.562718    0.217650
| 10> N     -2.134520   -0.747839   -0.527734
| 11> C     -0.963461   -0.934369    0.104720
| 12> C      1.144957    0.122000    0.957118
| 13> C      2.245900    0.443632   -0.031865
| 14> H     -2.462917    0.183522   -0.731508
| 15> H     -2.687718   -1.568038   -0.704569
| 16> H      1.225249   -0.904699    1.298472
| 17> H      1.231055    0.793777    1.810409
| 18> H      2.119544    1.439137   -0.458411
| 19> H      3.215888    0.378152    0.464183
| 20> *
| 21>
| 22>                          ****END OF INPUT****

CARTESIAN COORDINATES (ANGSTROEM)
---------------------------------
  F      2.238616   -0.469672   -1.083891
  O     -0.514809   -2.003549    0.451487
  O     -1.632764    1.813980   -0.275594
  N     -0.198773    0.275717    0.380007
  N     -0.548484    1.562718    0.217650
  N     -2.134520   -0.747839   -0.527734
  C     -0.963461   -0.934369    0.104720
  C      1.144957    0.122000    0.957118
  C      2.245900    0.443632   -0.031865
  H     -2.462917    0.183522   -0.731508
  H     -2.687718   -1.568038   -0.704569
  H      1.225249   -0.904699    1.298472
  H      1.231055    0.793777    1.810409
  H      2.119544    1.439137   -0.458411
  H      3.215888    0.378152    0.464183

 Total Charge           Charge          ....    0
 Multiplicity           Mult            ....    1
 Number of Electrons    NEL             ....   70
 Basis Dimension        Dim             ....  261

ORBITAL ENERGIES
----------------

  NO   OCC          E(Eh)            E(eV)
   0   2.0000     -26.300312      -715.6679
   1   2.0000     -20.635199      -561.5123
   2   2.0000     -20.554461      -559.3153
   3   2.0000     -15.774490      -429.2457
   4   2.0000     -15.670871      -426.4261
   5   2.0000     -15.606903      -424.6854
   6   2.0000     -11.423922      -310.8607
   7   2.0000     -11.333692      -308.4054
   8   2.0000     -11.299513      -307.4754
   9   2.0000      -1.600968       -43.5646
  10   2.0000      -1.555442       -42.3257
  11   2.0000      -1.429889       -38.9093
  12   2.0000      -1.307556       -35.5804
  13   2.0000      -1.239692       -33.7337
  14   2.0000      -1.063357       -28.9354
  15   2.0000      -0.986777       -26.8516
  16   2.0000      -0.902063       -24.5464
  17   2.0000      -0.819791       -22.3077
  18   2.0000      -0.764100       -20.7922
  19   2.0000      -0.760684       -20.6993
  20   2.0000      -0.723358       -19.6836
  21   2.0000      -0.715149       -19.4602
  22   2.0000      -0.691400       -18.8139
  23   2.0000      -0.683579       -18.6011
  24   2.0000      -0.661809       -18.0087
  25   2.0000      -0.649483       -17.6733
  26   2.0000      -0.614205       -16.7134
  27   2.0000      -0.598185       -16.2774
  28   2.0000      -0.585110       -15.9216
  29   2.0000      -0.548169       -14.9164
  30   2.0000      -0.536555       -14.6004
  31   2.0000      -0.479969       -13.0606
  32   2.0000      -0.441498       -12.0138
  33   2.0000      -0.436971       -11.8906
  34   2.0000      -0.430075       -11.7029
  35   0.0000       0.032928         0.8960
  36   0.0000       0.036447         0.9918
  37   0.0000       0.049693         1.3522
  38   0.0000       0.052862         1.4384
  39   0.0000       0.067610         1.8398

MULLIKEN ATOMIC CHARGES
-----------------------
   0 F :   -0.649211
   1 O :   -0.697299
   2 O :   -0.694646
   3 N :   -0.326595
   4 N :    0.219839
   5 N :   -0.135983
   6 C :    1.119013
   7 C :    0.573672
   8 C :    1.096194
   9 H :    0.063491
  10 H :   -0.028149
  11 H :   -0.196380
  12 H :   -0.101275
  13 H :   -0.130289
  14 H :   -0.112383
Sum of atomic charges:   -0.0000000

LOEWDIN ATOMIC CHARGES
----------------------
   0 F :   -0.001558
   1 O :    0.056092
   2 O :    0.014434
   3 N :   -0.084809
   4 N :    0.034396
   5 N :    0.306968
   6 C :   -0.331637
   7 C :    0.022249
   8 C :    0.022152
   9 H :   -0.086435
  10 H :    0.004202
  11 H :    0.006561
  12 H :    0.024716
  13 H :    0.002993
  14 H :    0.009676

  Mayer bond orders larger than 0.100000
B(  0-F ,  8-C ) :   0.3167 B(  1-O ,  6-C ) :   1.5823 B(  2-O ,  3-N ) :   0.1057
B(  2-O ,  4-N ) :   1.0943 B(  3-N ,  4-N ) :   0.7667 B(  3-N ,  6-C ) :   0.8837
B(  3-N ,  7-C ) :   0.8092 B(  4-N ,  6-C ) :  -0.1168 B(  5-N ,  6-C ) :   0.9876
B(  5-N ,  9-H ) :   1.0595 B(  5-N , 10-H ) :   1.0643 B(  7-C ,  8-C ) :   1.1835
B(  7-C , 11-H ) :   0.8635 B(  7-C , 12-H ) :   0.9298 B(  8-C , 13-H ) :   0.9630
B(  8-C , 14-H ) :   0.9234 B(  9-H , 10-H ) :  -0.1057 B( 11-H , 12-H ) :  -0.1092

MP2 TOTAL ENERGY:     -531.148718006 Eh
FINAL SINGLE POINT ENERGY      -531.148718005801

DIPOLE MOMENT
-------------
                                X             Y             Z
Electronic contribution:     -0.41146      -0.17434      -2.21271
Nuclear contribution   :      0.36929       0.76789       2.67819
                        -----------------------------------------
Total Dipole Moment    :     -0.04217       0.59355       0.46548
                        -----------------------------------------
Magnitude (a.u.)       :      0.75548
Magnitude (Debye)      :      1.92028

Rotational constants in cm-1:     0.072220     0.044243     0.032840
Rotational constants in MHz :  2165.099252  1326.357831   984.504128

                             ****ORCA TERMINATED NORMALLY****
TOTAL RUN TIME: 0 days 0 hours 1 minutes 9 seconds 365 msec
