                         Program Version 5.0.3 -  RELEASE  -
|  1> !ri-mp2 aug-cc-pvdz aug-cc-pvdz/c tightscf
|  2> %pal nprocs 16 end
|  3> %maxcore 3800
|  4>
|  5> * xyz 0 1
|  6> C     -0.013713   -2.140034    0.000000
|  7> C     -1.206232   -1.434267    0.000000
|  8> C      1.188364   -1.448980    0.000000
|  9> C     -1.219337   -0.039134    0.000000
| 10> C      1.211026   -0.056326    0.000000
| 11> C      0.000000    0.658904    0.000000
| 12> C     -2.548821    0.677092    0.000000
| 13> C      2.533357    0.666411    0.000000
| 14> C      0.040515    2.167409    0.000000
| 15> H     -0.020953   -3.222033    0.000000
| 16> H     -2.147129   -1.970109    0.000000
| 17> H      2.124223   -1.993715    0.000000
| 18> H     -2.669919    1.314846    0.878141
| 19> H     -2.669919    1.314846   -0.878141
| 20> H     -3.368212   -0.040077    0.000000
| 21> H      2.643869    1.309810   -0.876251
| 22> H      2.643869    1.309810    0.876251
| 23> H      3.361993   -0.039937    0.000000
| 24> H      0.571159    2.550206   -0.875359
| 25> H     -0.951091    2.609692    0.000000
| 26> H      0.571159    2.550206    0.875359
| 27> *
| 28>
| 29>                          ****END OF INPUT****

CARTESIAN COORDINATES (ANGSTROEM)
---------------------------------
  C     -0.013713   -2.140034    0.000000
  C     -1.206232   -1.434267    0.000000
  C      1.188364   -1.448980    0.000000
  C     -1.219337   -0.039134    0.000000
  C      1.211026   -0.056326    0.000000
  C      0.000000    0.658904    0.000000
  C     -2.548821    0.677092    0.000000
  C      2.533357    0.666411    0.000000
  C      0.040515    2.167409    0.000000
  H     -0.020953   -3.222033    0.000000
  H     -2.147129   -1.970109    0.000000
  H      2.124223   -1.993715    0.000000
  H     -2.669919    1.314846    0.878141
  H     -2.669919    1.314846   -0.878141
  H     -3.368212   -0.040077    0.000000
  H      2.643869    1.309810   -0.876251
  H      2.643869    1.309810    0.876251
  H      3.361993   -0.039937    0.000000
  H      0.571159    2.550206   -0.875359
  H     -0.951091    2.609692    0.000000
  H      0.571159    2.550206    0.875359

 Total Charge           Charge          ....    0
 Multiplicity           Mult            ....    1
 Number of Electrons    NEL             ....   66
 Basis Dimension        Dim             ....  315

ORBITAL ENERGIES
----------------

  NO   OCC          E(Eh)            E(eV)
   0   2.0000     -11.238495      -305.8150
   1   2.0000     -11.237535      -305.7889
   2   2.0000     -11.235108      -305.7228
   3   2.0000     -11.228754      -305.5499
   4   2.0000     -11.226596      -305.4912
   5   2.0000     -11.226451      -305.4873
   6   2.0000     -11.225459      -305.4603
   7   2.0000     -11.224830      -305.4432
   8   2.0000     -11.224550      -305.4355
   9   2.0000      -1.158570       -31.5263
  10   2.0000      -1.055785       -28.7294
  11   2.0000      -1.047817       -28.5126
  12   2.0000      -0.968594       -26.3568
  13   2.0000      -0.923431       -25.1278
  14   2.0000      -0.910257       -24.7693
  15   2.0000      -0.787061       -21.4170
  16   2.0000      -0.781424       -21.2636
  17   2.0000      -0.668100       -18.1799
  18   2.0000      -0.656169       -17.8553
  19   2.0000      -0.603636       -16.4258
  20   2.0000      -0.595423       -16.2023
  21   2.0000      -0.565665       -15.3925
  22   2.0000      -0.558590       -15.2000
  23   2.0000      -0.557345       -15.1661
  24   2.0000      -0.550833       -14.9889
  25   2.0000      -0.543981       -14.8025
  26   2.0000      -0.539804       -14.6888
  27   2.0000      -0.519087       -14.1251
  28   2.0000      -0.471744       -12.8368
  29   2.0000      -0.469899       -12.7866
  30   2.0000      -0.468673       -12.7532
  31   2.0000      -0.316094        -8.6014
  32   2.0000      -0.313681        -8.5357
  33   0.0000       0.036029         0.9804
  34   0.0000       0.040094         1.0910
  35   0.0000       0.040496         1.1019
  36   0.0000       0.052358         1.4247
  37   0.0000       0.053304         1.4505

MULLIKEN ATOMIC CHARGES
-----------------------
   0 C :   -0.073207
   1 C :    0.645003
   2 C :    0.497711
   3 C :    0.048738
   4 C :   -1.050465
   5 C :   -0.120704
   6 C :    0.310787
   7 C :    0.470425
   8 C :    0.619009
   9 H :   -0.468710
  10 H :   -0.617447
  11 H :   -0.617450
  12 H :    0.234568
  13 H :    0.234568
  14 H :   -0.297810
  15 H :    0.191528
  16 H :    0.191528
  17 H :   -0.275545
  18 H :    0.215942
  19 H :   -0.354411
  20 H :    0.215942
Sum of atomic charges:    0.0000000

LOEWDIN ATOMIC CHARGES
----------------------
   0 C :    0.007067
   1 C :    0.031056
   2 C :    0.032832
   3 C :   -0.171164
   4 C :   -0.175264
   5 C :   -0.133813
   6 C :    0.167680
   7 C :    0.172157
   8 C :    0.179118
   9 H :   -0.000506
  10 H :   -0.000143
  11 H :    0.000678
  12 H :   -0.006803
  13 H :   -0.006803
  14 H :   -0.018564
  15 H :   -0.008667
  16 H :   -0.008667
  17 H :   -0.016736
  18 H :   -0.005568
  19 H :   -0.032323
  20 H :   -0.005568

  Mayer bond orders larger than 0.100000
B(  0-C ,  1-C ) :   1.2667 B(  0-C ,  2-C ) :   1.3017 B(  0-C ,  3-C ) :  -0.1062
B(  0-C ,  5-C ) :   0.5896 B(  0-C ,  6-C ) :   0.5003 B(  0-C ,  7-C ) :   0.3282
B(  0-C ,  9-H ) :   0.1877 B(  0-C , 10-H ) :   0.2569 B(  0-C , 11-H ) :   0.2287
B(  1-C ,  2-C ) :   0.3821 B(  1-C ,  3-C ) :   1.5585 B(  1-C ,  5-C ) :  -0.5249
B(  1-C ,  6-C ) :  -0.5480 B(  1-C ,  8-C ) :   0.3429 B(  1-C ,  9-H ) :   0.2057
B(  1-C , 10-H ) :  -0.4456 B(  2-C ,  3-C ) :  -0.1795 B(  2-C ,  4-C ) :   1.8466
B(  2-C ,  5-C ) :  -0.7388 B(  2-C ,  7-C ) :  -0.3157 B(  2-C ,  9-H ) :   0.1712
B(  2-C , 11-H ) :  -0.4152 B(  3-C ,  4-C ) :  -0.2290 B(  3-C ,  5-C ) :   1.7167
B(  3-C ,  6-C ) :   1.1898 B(  3-C ,  8-C ) :  -0.4884 B(  3-C , 10-H ) :   0.6277
B(  3-C , 12-H ) :   0.1851 B(  3-C , 13-H ) :   0.1851 B(  3-C , 14-H ) :   0.4586
B(  4-C ,  5-C ) :   1.5413 B(  4-C ,  7-C ) :   1.3188 B(  4-C , 11-H ) :   0.6872
B(  4-C , 15-H ) :   0.2000 B(  4-C , 16-H ) :   0.2000 B(  4-C , 17-H ) :   0.4819
B(  4-C , 19-H ) :   0.1270 B(  5-C ,  6-C ) :  -0.1723 B(  5-C ,  7-C ) :  -0.2059
B(  5-C ,  8-C ) :   1.3918 B(  5-C , 19-H ) :   0.5454 B(  6-C ,  8-C ) :  -0.2419
B(  6-C , 12-H ) :   0.8091 B(  6-C , 13-H ) :   0.8091 B(  6-C , 14-H ) :   0.5242
B(  6-C , 19-H ) :   0.1636 B(  7-C ,  8-C ) :  -0.1120 B(  7-C , 15-H ) :   0.8288
B(  7-C , 16-H ) :   0.8288 B(  7-C , 17-H ) :   0.4819 B(  7-C , 18-H ) :  -0.1138
B(  7-C , 20-H ) :  -0.1138 B(  8-C , 18-H ) :   0.8195 B(  8-C , 19-H ) :   0.3310
B(  8-C , 20-H ) :   0.8195 B( 12-H , 13-H ) :  -0.1034

MP2 TOTAL ENERGY:     -349.114638714 Eh
FINAL SINGLE POINT ENERGY      -349.114638713581

DIPOLE MOMENT
-------------
                                X             Y             Z
Electronic contribution:     -0.08713      -5.58336       0.00000
Nuclear contribution   :      0.09183       5.87155       0.00000
                        -----------------------------------------
Total Dipole Moment    :      0.00470       0.28819       0.00000
                        -----------------------------------------
Magnitude (a.u.)       :      0.28823
Magnitude (Debye)      :      0.73262

Rotational constants in cm-1:     0.074219     0.057776     0.033079
Rotational constants in MHz :  2225.030689  1732.088551   991.691191

                             ****ORCA TERMINATED NORMALLY****
TOTAL RUN TIME: 0 days 0 hours 1 minutes 52 seconds 151 msec
