                         Program Version 5.0.3 -  RELEASE  -
|  1> !ri-mp2 aug-cc-pvdz aug-cc-pvdz/c tightscf
|  2> %pal nprocs 16 end
|  3>
|  4> * xyz 0 1
|  5> O     -0.307443   -0.870123   -1.164144
|  6> O     -0.307406   -0.869880    1.164290
|  7> O     -2.627780    0.100056    0.000029
|  8> O      3.229423    0.053522    0.000030
|  9> N      0.941114    0.662461   -0.000117
| 10> C     -0.281383   -0.078177   -0.000011
| 11> C     -1.450502    0.910137   -0.000090
| 12> C      2.088626    0.280911   -0.000031
| 13> H     -1.215065   -1.172916   -1.295790
| 14> H     -1.215054   -1.172515    1.296121
| 15> H     -3.410450    0.656719   -0.000033
| 16> H     -1.390992    1.532924    0.893801
| 17> H     -1.391037    1.532728   -0.894121
| 18> *
| 19>
| 20>                          ****END OF INPUT****

CARTESIAN COORDINATES (ANGSTROEM)
---------------------------------
  O     -0.307443   -0.870123   -1.164144
  O     -0.307406   -0.869880    1.164290
  O     -2.627780    0.100056    0.000029
  O      3.229423    0.053522    0.000030
  N      0.941114    0.662461   -0.000117
  C     -0.281383   -0.078177   -0.000011
  C     -1.450502    0.910137   -0.000090
  C      2.088626    0.280911   -0.000031
  H     -1.215065   -1.172916   -1.295790
  H     -1.215054   -1.172515    1.296121
  H     -3.410450    0.656719   -0.000033
  H     -1.390992    1.532924    0.893801
  H     -1.391037    1.532728   -0.894121

 Total Charge           Charge          ....    0
 Multiplicity           Mult            ....    1
 Number of Electrons    NEL             ....   62
 Basis Dimension        Dim             ....  229

ORBITAL ENERGIES
----------------

  NO   OCC          E(Eh)            E(eV)
   0   2.0000     -20.628530      -561.3308
   1   2.0000     -20.611412      -560.8650
   2   2.0000     -20.591990      -560.3365
   3   2.0000     -20.591970      -560.3360
   4   2.0000     -15.593387      -424.3176
   5   2.0000     -11.422399      -310.8193
   6   2.0000     -11.418622      -310.7165
   7   2.0000     -11.314556      -307.8847
   8   2.0000      -1.478100       -40.2211
   9   2.0000      -1.453038       -39.5392
  10   2.0000      -1.398763       -38.0623
  11   2.0000      -1.360045       -37.0087
  12   2.0000      -1.271811       -34.6077
  13   2.0000      -1.029085       -28.0028
  14   2.0000      -0.901725       -24.5372
  15   2.0000      -0.770660       -20.9707
  16   2.0000      -0.749950       -20.4072
  17   2.0000      -0.745890       -20.2967
  18   2.0000      -0.725834       -19.7509
  19   2.0000      -0.687476       -18.7072
  20   2.0000      -0.674548       -18.3554
  21   2.0000      -0.646231       -17.5848
  22   2.0000      -0.635495       -17.2927
  23   2.0000      -0.593948       -16.1621
  24   2.0000      -0.578381       -15.7386
  25   2.0000      -0.572383       -15.5753
  26   2.0000      -0.500855       -13.6289
  27   2.0000      -0.494379       -13.4527
  28   2.0000      -0.485707       -13.2168
  29   2.0000      -0.462006       -12.5718
  30   2.0000      -0.441742       -12.0204
  31   0.0000       0.022053         0.6001
  32   0.0000       0.044525         1.2116
  33   0.0000       0.047485         1.2921
  34   0.0000       0.050704         1.3797
  35   0.0000       0.072262         1.9663

MULLIKEN ATOMIC CHARGES
-----------------------
   0 O :   -0.866585
   1 O :   -0.866595
   2 O :   -0.812373
   3 O :   -0.459253
   4 N :   -0.467290
   5 C :    1.803704
   6 C :    1.070139
   7 C :    0.190573
   8 H :    0.203732
   9 H :    0.203752
  10 H :    0.162909
  11 H :   -0.081360
  12 H :   -0.081354
Sum of atomic charges:   -0.0000000

LOEWDIN ATOMIC CHARGES
----------------------
   0 O :    0.174809
   1 O :    0.174809
   2 O :    0.129771
   3 O :    0.123606
   4 N :    0.095067
   5 C :   -0.474131
   6 C :    0.024224
   7 C :   -0.135201
   8 H :   -0.053261
   9 H :   -0.053266
  10 H :   -0.045921
  11 H :    0.019746
  12 H :    0.019746

  Mayer bond orders larger than 0.100000
B(  0-O ,  1-O ) :   0.1521 B(  0-O ,  6-C ) :   0.1244 B(  0-O ,  8-H ) :   1.0322
B(  1-O ,  6-C ) :   0.1244 B(  1-O ,  9-H ) :   1.0322 B(  2-O ,  5-C ) :   0.1021
B(  2-O ,  6-C ) :   0.4781 B(  2-O , 10-H ) :   1.0781 B(  3-O ,  7-C ) :   1.9667
B(  4-N ,  5-C ) :   0.5386 B(  4-N ,  7-C ) :   1.9873 B(  5-C ,  6-C ) :   1.2961
B(  5-C ,  8-H ) :  -0.1094 B(  5-C ,  9-H ) :  -0.1094 B(  6-C , 11-H ) :   0.8559
B(  6-C , 12-H ) :   0.8559

MP2 TOTAL ENERGY:     -471.859531023 Eh
FINAL SINGLE POINT ENERGY      -471.859531022575

DIPOLE MOMENT
-------------
                                X             Y             Z
Electronic contribution:      6.35343      -0.69657       0.00002
Nuclear contribution   :     -8.42656       1.32581      -0.00002
                        -----------------------------------------
Total Dipole Moment    :     -2.07313       0.62924      -0.00000
                        -----------------------------------------
Magnitude (a.u.)       :      2.16652
Magnitude (Debye)      :      5.50685

Rotational constants in cm-1:     0.172372     0.038508     0.038414
Rotational constants in MHz :  5167.580426  1154.429427  1151.630826

                             ****ORCA TERMINATED NORMALLY****
TOTAL RUN TIME: 0 days 0 hours 0 minutes 54 seconds 35 msec
