                         Program Version 5.0.3 -  RELEASE  -
|  1> !ri-mp2 aug-cc-pvdz aug-cc-pvdz/c tightscf
|  2> %pal nprocs 16 end
|  3>
|  4> * xyz 0 1
|  5> C      2.257879    3.177876    0.000000
|  6> C      1.939719    2.020940    0.000000
|  7> C     -2.330524   -2.718125    0.000000
|  8> C      1.527217    0.622766    0.000000
|  9> C     -1.925506   -1.245234    0.000000
| 10> C      0.000000    0.434858    0.000000
| 11> C     -0.410473   -1.036234    0.000000
| 12> H      2.546918    4.198732    0.000000
| 13> H     -3.415229   -2.832921    0.000000
| 14> H     -1.942770   -3.234004    0.880832
| 15> H     -1.942770   -3.234004   -0.880832
| 16> H      1.956087    0.124043   -0.874253
| 17> H      1.956087    0.124043    0.874253
| 18> H     -2.356942   -0.748038   -0.873782
| 19> H     -2.356942   -0.748038    0.873782
| 20> H     -0.418718    0.938863    0.874266
| 21> H     -0.418718    0.938863   -0.874266
| 22> H      0.021563   -1.534311   -0.874638
| 23> H      0.021563   -1.534311    0.874638
| 24> *
| 25>
| 26>                          ****END OF INPUT****

CARTESIAN COORDINATES (ANGSTROEM)
---------------------------------
  C      2.257879    3.177876    0.000000
  C      1.939719    2.020940    0.000000
  C     -2.330524   -2.718125    0.000000
  C      1.527217    0.622766    0.000000
  C     -1.925506   -1.245234    0.000000
  C      0.000000    0.434858    0.000000
  C     -0.410473   -1.036234    0.000000
  H      2.546918    4.198732    0.000000
  H     -3.415229   -2.832921    0.000000
  H     -1.942770   -3.234004    0.880832
  H     -1.942770   -3.234004   -0.880832
  H      1.956087    0.124043   -0.874253
  H      1.956087    0.124043    0.874253
  H     -2.356942   -0.748038   -0.873782
  H     -2.356942   -0.748038    0.873782
  H     -0.418718    0.938863    0.874266
  H     -0.418718    0.938863   -0.874266
  H      0.021563   -1.534311   -0.874638
  H      0.021563   -1.534311    0.874638

 Total Charge           Charge          ....    0
 Multiplicity           Mult            ....    1
 Number of Electrons    NEL             ....   54
 Basis Dimension        Dim             ....  269

ORBITAL ENERGIES
----------------

  NO   OCC          E(Eh)            E(eV)
   0   2.0000     -11.255029      -306.2649
   1   2.0000     -11.238056      -305.8030
   2   2.0000     -11.232899      -305.6627
   3   2.0000     -11.227287      -305.5100
   4   2.0000     -11.226320      -305.4837
   5   2.0000     -11.224477      -305.4336
   6   2.0000     -11.220205      -305.3173
   7   2.0000      -1.101582       -29.9756
   8   2.0000      -1.056960       -28.7614
   9   2.0000      -1.001635       -27.2559
  10   2.0000      -0.934705       -25.4346
  11   2.0000      -0.841967       -22.9111
  12   2.0000      -0.795657       -21.6509
  13   2.0000      -0.715377       -19.4664
  14   2.0000      -0.658157       -17.9094
  15   2.0000      -0.634737       -17.2721
  16   2.0000      -0.610341       -16.6082
  17   2.0000      -0.576676       -15.6922
  18   2.0000      -0.572014       -15.5653
  19   2.0000      -0.545588       -14.8462
  20   2.0000      -0.511913       -13.9299
  21   2.0000      -0.490053       -13.3350
  22   2.0000      -0.473164       -12.8755
  23   2.0000      -0.469055       -12.7636
  24   2.0000      -0.466450       -12.6928
  25   2.0000      -0.381744       -10.3878
  26   2.0000      -0.380549       -10.3553
  27   0.0000       0.036634         0.9969
  28   0.0000       0.039580         1.0770
  29   0.0000       0.043799         1.1918
  30   0.0000       0.046965         1.2780
  31   0.0000       0.052675         1.4334

MULLIKEN ATOMIC CHARGES
-----------------------
   0 C :    0.829571
   1 C :   -0.278521
   2 C :    0.508486
   3 C :    0.209391
   4 C :    0.354113
   5 C :    0.276983
   6 C :    0.238826
   7 H :   -0.567293
   8 H :   -0.075115
   9 H :   -0.092161
  10 H :   -0.092161
  11 H :   -0.040180
  12 H :   -0.040180
  13 H :   -0.173771
  14 H :   -0.173771
  15 H :   -0.225303
  16 H :   -0.225303
  17 H :   -0.216805
  18 H :   -0.216805
Sum of atomic charges:    0.0000000

LOEWDIN ATOMIC CHARGES
----------------------
   0 C :    0.200593
   1 C :   -0.105586
   2 C :    0.131498
   3 C :   -0.059382
   4 C :   -0.071319
   5 C :   -0.025454
   6 C :   -0.042260
   7 H :   -0.109157
   8 H :   -0.021584
   9 H :   -0.019999
  10 H :   -0.019999
  11 H :    0.022704
  12 H :    0.022704
  13 H :    0.011791
  14 H :    0.011791
  15 H :    0.019788
  16 H :    0.019788
  17 H :    0.017041
  18 H :    0.017041

  Mayer bond orders larger than 0.100000
B(  0-C ,  1-C ) :   2.6794 B(  0-C ,  3-C ) :   0.1704 B(  0-C ,  7-H ) :  -0.4970
B(  1-C ,  3-C ) :   1.4366 B(  1-C ,  7-H ) :   0.8190 B(  2-C ,  4-C ) :   1.1495
B(  2-C ,  8-H ) :   0.9078 B(  2-C ,  9-H ) :   0.9229 B(  2-C , 10-H ) :   0.9229
B(  3-C ,  5-C ) :   1.3464 B(  3-C ,  6-C ) :  -0.1107 B(  3-C ,  7-H ) :   0.1206
B(  3-C , 11-H ) :   0.7636 B(  3-C , 12-H ) :   0.7636 B(  4-C ,  6-C ) :   1.2690
B(  4-C , 13-H ) :   0.7572 B(  4-C , 14-H ) :   0.7572 B(  5-C ,  6-C ) :   1.2633
B(  5-C , 15-H ) :   0.7654 B(  5-C , 16-H ) :   0.7654 B(  6-C , 13-H ) :   0.1039
B(  6-C , 14-H ) :   0.1039 B(  6-C , 17-H ) :   0.7727 B(  6-C , 18-H ) :   0.7727

MP2 TOTAL ENERGY:     -273.036881807 Eh
FINAL SINGLE POINT ENERGY      -273.036881807031

DIPOLE MOMENT
-------------
                                X             Y             Z
Electronic contribution:      6.49618       7.63742       0.00000
Nuclear contribution   :     -6.69604      -7.95219       0.00000
                        -----------------------------------------
Total Dipole Moment    :     -0.19986      -0.31477       0.00000
                        -----------------------------------------
Magnitude (a.u.)       :      0.37286
Magnitude (Debye)      :      0.94773

Rotational constants in cm-1:     0.457272     0.027139     0.026235
Rotational constants in MHz : 13708.683543   813.601342   786.491684

                             ****ORCA TERMINATED NORMALLY****
TOTAL RUN TIME: 0 days 0 hours 0 minutes 55 seconds 413 msec
