                         Program Version 5.0.3 -  RELEASE  -
|  1> !ri-mp2 aug-cc-pvdz aug-cc-pvdz/c tightscf
|  2> %pal nprocs 16 end
|  3>
|  4> * xyz 0 1
|  5> C     -2.375167    1.623271   -0.199143
|  6> C     -2.007050    0.527064    0.118833
|  7> C      1.874986   -0.008026   -0.044601
|  8> C      0.850272   -0.614152   -0.202794
|  9> C      3.114009    0.734257    0.139370
| 10> C     -1.564604   -0.810976    0.487974
| 11> C     -0.398446   -1.345731   -0.378509
| 12> H     -2.697409    2.595513   -0.476233
| 13> H      3.585287    0.955741   -0.819838
| 14> H      2.929194    1.683095    0.646012
| 15> H      3.828780    0.168899    0.739903
| 16> H     -2.406200   -1.502168    0.396639
| 17> H     -1.262452   -0.817791    1.537388
| 18> H     -0.697428   -1.320675   -1.428857
| 19> H     -0.243770   -2.396855   -0.121794
| 20> *
| 21>
| 22>                          ****END OF INPUT****

CARTESIAN COORDINATES (ANGSTROEM)
---------------------------------
  C     -2.375167    1.623271   -0.199143
  C     -2.007050    0.527064    0.118833
  C      1.874986   -0.008026   -0.044601
  C      0.850272   -0.614152   -0.202794
  C      3.114009    0.734257    0.139370
  C     -1.564604   -0.810976    0.487974
  C     -0.398446   -1.345731   -0.378509
  H     -2.697409    2.595513   -0.476233
  H      3.585287    0.955741   -0.819838
  H      2.929194    1.683095    0.646012
  H      3.828780    0.168899    0.739903
  H     -2.406200   -1.502168    0.396639
  H     -1.262452   -0.817791    1.537388
  H     -0.697428   -1.320675   -1.428857
  H     -0.243770   -2.396855   -0.121794

 Total Charge           Charge          ....    0
 Multiplicity           Mult            ....    1
 Number of Electrons    NEL             ....   50
 Basis Dimension        Dim             ....  233

ORBITAL ENERGIES
----------------

  NO   OCC          E(Eh)            E(eV)
   0   2.0000     -11.265286      -306.5440
   1   2.0000     -11.263419      -306.4932
   2   2.0000     -11.250016      -306.1285
   3   2.0000     -11.239154      -305.8329
   4   2.0000     -11.227640      -305.5196
   5   2.0000     -11.226627      -305.4920
   6   2.0000     -11.222063      -305.3679
   7   2.0000      -1.105007       -30.0688
   8   2.0000      -1.052295       -28.6344
   9   2.0000      -1.010828       -27.5060
  10   2.0000      -0.952120       -25.9085
  11   2.0000      -0.886539       -24.1239
  12   2.0000      -0.720323       -19.6010
  13   2.0000      -0.673706       -18.3325
  14   2.0000      -0.651514       -17.7286
  15   2.0000      -0.621674       -16.9166
  16   2.0000      -0.587601       -15.9894
  17   2.0000      -0.584073       -15.8934
  18   2.0000      -0.571920       -15.5627
  19   2.0000      -0.558652       -15.2017
  20   2.0000      -0.541086       -14.7237
  21   2.0000      -0.389440       -10.5972
  22   2.0000      -0.384561       -10.4644
  23   2.0000      -0.364125        -9.9083
  24   2.0000      -0.362933        -9.8759
  25   0.0000       0.034807         0.9471
  26   0.0000       0.038152         1.0382
  27   0.0000       0.041801         1.1375
  28   0.0000       0.051511         1.4017
  29   0.0000       0.059274         1.6129

MULLIKEN ATOMIC CHARGES
-----------------------
   0 C :    1.022688
   1 C :   -0.476990
   2 C :   -0.788223
   3 C :    0.062403
   4 C :    0.126134
   5 C :   -0.006140
   6 C :    0.000316
   7 H :   -0.552424
   8 H :    0.123760
   9 H :    0.122746
  10 H :    0.120435
  11 H :    0.035621
  12 H :    0.005476
  13 H :    0.086885
  14 H :    0.117313
Sum of atomic charges:    0.0000000

LOEWDIN ATOMIC CHARGES
----------------------
   0 C :    0.208463
   1 C :   -0.104223
   2 C :   -0.054088
   3 C :   -0.024142
   4 C :    0.116616
   5 C :   -0.050528
   6 C :   -0.046992
   7 H :   -0.106638
   8 H :   -0.010988
   9 H :   -0.010270
  10 H :   -0.011816
  11 H :    0.022926
  12 H :    0.025309
  13 H :    0.024358
  14 H :    0.022011

  Mayer bond orders larger than 0.100000
B(  0-C ,  1-C ) :   2.7291 B(  0-C ,  5-C ) :   0.1386 B(  0-C ,  7-H ) :  -0.4313
B(  1-C ,  5-C ) :   1.2664 B(  1-C ,  6-C ) :  -0.1005 B(  1-C ,  7-H ) :   0.7286
B(  2-C ,  3-C ) :   2.6257 B(  2-C ,  4-C ) :   1.1737 B(  2-C ,  6-C ) :   0.2692
B(  2-C ,  8-H ) :   0.3058 B(  2-C ,  9-H ) :   0.2945 B(  2-C , 10-H ) :   0.3038
B(  2-C , 14-H ) :  -0.1096 B(  3-C ,  4-C ) :   0.3977 B(  3-C ,  6-C ) :   1.1088
B(  3-C ,  8-H ) :  -0.1168 B(  3-C , 10-H ) :  -0.1076 B(  3-C , 13-H ) :   0.1772
B(  3-C , 14-H ) :   0.2005 B(  4-C ,  8-H ) :   0.8024 B(  4-C ,  9-H ) :   0.7997
B(  4-C , 10-H ) :   0.7970 B(  5-C ,  6-C ) :   1.5266 B(  5-C ,  7-H ) :   0.1204
B(  5-C , 11-H ) :   0.7906 B(  5-C , 12-H ) :   0.8421 B(  6-C , 13-H ) :   0.8219
B(  6-C , 14-H ) :   0.7283

MP2 TOTAL ENERGY:     -270.589995896 Eh
FINAL SINGLE POINT ENERGY      -270.589995896159

DIPOLE MOMENT
-------------
                                X             Y             Z
Electronic contribution:     -2.92123       0.46668      -0.41933
Nuclear contribution   :      3.09408      -0.64637       0.48227
                        -----------------------------------------
Total Dipole Moment    :      0.17285      -0.17969       0.06294
                        -----------------------------------------
Magnitude (a.u.)       :      0.25716
Magnitude (Debye)      :      0.65364

Rotational constants in cm-1:     0.154722     0.044462     0.036395
Rotational constants in MHz :  4638.449700  1332.923306  1091.102301

                             ****ORCA TERMINATED NORMALLY****
TOTAL RUN TIME: 0 days 0 hours 0 minutes 49 seconds 327 msec
