                         Program Version 5.0.3 -  RELEASE  -
|  1> !ri-mp2 aug-cc-pvdz aug-cc-pvdz/c tightscf
|  2> %pal nprocs 16 end
|  3>
|  4> * xyz 0 1
|  5> H     -1.470270    2.051300    0.139796
|  6> C     -0.812779    1.192330    0.058323
|  7> H      0.914318    2.364351   -0.092773
|  8> C      0.501406    1.362711   -0.053276
|  9> H      2.325124    0.404708    0.529666
| 10> H      1.868711    0.112198   -1.129780
| 11> C      1.463386    0.206961   -0.115255
| 12> H      0.675255   -1.115005    1.396505
| 13> H      1.389091   -1.962725    0.036134
| 14> C      0.779659   -1.100064    0.308149
| 15> H     -2.309570   -0.197466   -0.590760
| 16> H     -1.867638   -0.356258    1.088810
| 17> C     -1.454743   -0.170688    0.089051
| 18> H     -0.487677   -1.340668   -1.269513
| 19> N     -0.556988   -1.272562   -0.261434
| 20> *
| 21>
| 22>                          ****END OF INPUT****

CARTESIAN COORDINATES (ANGSTROEM)
---------------------------------
  H     -1.470270    2.051300    0.139796
  C     -0.812779    1.192330    0.058323
  H      0.914318    2.364351   -0.092773
  C      0.501406    1.362711   -0.053276
  H      2.325124    0.404708    0.529666
  H      1.868711    0.112198   -1.129780
  C      1.463386    0.206961   -0.115255
  H      0.675255   -1.115005    1.396505
  H      1.389091   -1.962725    0.036134
  C      0.779659   -1.100064    0.308149
  H     -2.309570   -0.197466   -0.590760
  H     -1.867638   -0.356258    1.088810
  C     -1.454743   -0.170688    0.089051
  H     -0.487677   -1.340668   -1.269513
  N     -0.556988   -1.272562   -0.261434

 Total Charge           Charge          ....    0
 Multiplicity           Mult            ....    1
 Number of Electrons    NEL             ....   46
 Basis Dimension        Dim             ....  219

ORBITAL ENERGIES
----------------

  NO   OCC          E(Eh)            E(eV)
   0   2.0000     -15.546937      -423.0537
   1   2.0000     -11.255264      -306.2713
   2   2.0000     -11.250894      -306.1524
   3   2.0000     -11.230190      -305.5890
   4   2.0000     -11.228363      -305.5393
   5   2.0000     -11.227331      -305.5112
   6   2.0000      -1.214157       -33.0389
   7   2.0000      -1.063597       -28.9419
   8   2.0000      -1.014681       -27.6109
   9   2.0000      -0.872368       -23.7383
  10   2.0000      -0.848476       -23.0882
  11   2.0000      -0.721959       -19.6455
  12   2.0000      -0.676316       -18.4035
  13   2.0000      -0.626130       -17.0379
  14   2.0000      -0.607092       -16.5198
  15   2.0000      -0.578260       -15.7353
  16   2.0000      -0.555500       -15.1159
  17   2.0000      -0.535368       -14.5681
  18   2.0000      -0.518831       -14.1181
  19   2.0000      -0.491405       -13.3718
  20   2.0000      -0.470211       -12.7951
  21   2.0000      -0.361388        -9.8339
  22   2.0000      -0.346488        -9.4284
  23   0.0000       0.035391         0.9630
  24   0.0000       0.043954         1.1960
  25   0.0000       0.046211         1.2575
  26   0.0000       0.048645         1.3237
  27   0.0000       0.063082         1.7166

MULLIKEN ATOMIC CHARGES
-----------------------
   0 H :   -0.377408
   1 C :    0.168785
   2 H :   -0.405918
   3 C :    0.035742
   4 H :   -0.016899
   5 H :   -0.007438
   6 C :    0.190802
   7 H :   -0.158593
   8 H :   -0.151012
   9 C :    0.771300
  10 H :   -0.056491
  11 H :   -0.045228
  12 C :    0.654582
  13 H :   -0.022215
  14 N :   -0.580010
Sum of atomic charges:   -0.0000000

LOEWDIN ATOMIC CHARGES
----------------------
   0 H :   -0.004258
   1 C :   -0.001795
   2 H :   -0.005917
   3 C :   -0.008535
   4 H :    0.014622
   5 H :    0.013915
   6 C :   -0.023457
   7 H :    0.020125
   8 H :    0.013333
   9 C :   -0.029360
  10 H :    0.014966
  11 H :    0.015264
  12 C :   -0.037380
  13 H :   -0.019879
  14 N :    0.038355

  Mayer bond orders larger than 0.100000
B(  0-H ,  1-C ) :   0.6050 B(  0-H ,  3-C ) :   0.1852 B(  1-C ,  2-H ) :   0.1451
B(  1-C ,  3-C ) :   2.2902 B(  1-C ,  6-C ) :  -0.1514 B(  1-C , 12-C ) :   1.0913
B(  2-H ,  3-C ) :   0.6415 B(  3-C ,  6-C ) :   1.1710 B(  4-H ,  6-C ) :   0.7471
B(  5-H ,  6-C ) :   0.7961 B(  6-C ,  9-C ) :   1.2310 B(  7-H ,  8-H ) :  -0.1494
B(  7-H ,  9-C ) :   0.8587 B(  8-H ,  9-C ) :   0.8958 B(  9-C , 14-N ) :   0.8673
B( 10-H , 11-H ) :  -0.1408 B( 10-H , 12-C ) :   0.8497 B( 11-H , 12-C ) :   0.8643
B( 12-C , 14-N ) :   0.8309 B( 13-H , 14-N ) :   1.0530

MP2 TOTAL ENERGY:     -249.917080449 Eh
FINAL SINGLE POINT ENERGY      -249.917080449244

DIPOLE MOMENT
-------------
                                X             Y             Z
Electronic contribution:     -0.86337       0.35057      -0.30411
Nuclear contribution   :      1.07459      -0.04888       0.11073
                        -----------------------------------------
Total Dipole Moment    :      0.21122       0.30169      -0.19338
                        -----------------------------------------
Magnitude (a.u.)       :      0.41596
Magnitude (Debye)      :      1.05730

Rotational constants in cm-1:     0.163363     0.157514     0.087851
Rotational constants in MHz :  4897.485339  4722.141089  2633.711525

                             ****ORCA TERMINATED NORMALLY****
TOTAL RUN TIME: 0 days 0 hours 0 minutes 56 seconds 992 msec
