                         Program Version 5.0.3 -  RELEASE  -
|  1> !ri-mp2 aug-cc-pvdz aug-cc-pvdz/c tightscf
|  2> %pal nprocs 16 end
|  3>
|  4> * xyz 0 1
|  5> C      0.000000    0.862132    0.000000
|  6> F     -1.305149    0.683741    0.000000
|  7> F      0.270153    2.162974    0.000000
|  8> C      0.934721   -0.068353    0.000000
|  9> H      1.955306    0.288216    0.000000
| 10> C      0.754530   -1.551413    0.000000
| 11> F     -0.579844   -1.931007    0.000000
| 12> H      1.221377   -1.991895    0.885372
| 13> H      1.221377   -1.991895   -0.885372
| 14> *
| 15>
| 16>                          ****END OF INPUT****

CARTESIAN COORDINATES (ANGSTROEM)
---------------------------------
  C      0.000000    0.862132    0.000000
  F     -1.305149    0.683741    0.000000
  F      0.270153    2.162974    0.000000
  C      0.934721   -0.068353    0.000000
  H      1.955306    0.288216    0.000000
  C      0.754530   -1.551413    0.000000
  F     -0.579844   -1.931007    0.000000
  H      1.221377   -1.991895    0.885372
  H      1.221377   -1.991895   -0.885372

 Total Charge           Charge          ....    0
 Multiplicity           Mult            ....    1
 Number of Electrons    NEL             ....   48
 Basis Dimension        Dim             ....  165

ORBITAL ENERGIES
----------------

  NO   OCC          E(Eh)            E(eV)
   0   2.0000     -26.358989      -717.2646
   1   2.0000     -26.358578      -717.2534
   2   2.0000     -26.304281      -715.7759
   3   2.0000     -11.440002      -311.2983
   4   2.0000     -11.345590      -308.7292
   5   2.0000     -11.267509      -306.6045
   6   2.0000      -1.708533       -46.4915
   7   2.0000      -1.643420       -44.7197
   8   2.0000      -1.606515       -43.7155
   9   2.0000      -1.108882       -30.1742
  10   2.0000      -0.974182       -26.5088
  11   2.0000      -0.875306       -23.8183
  12   2.0000      -0.805210       -21.9109
  13   2.0000      -0.764040       -20.7906
  14   2.0000      -0.752350       -20.4725
  15   2.0000      -0.714641       -19.4464
  16   2.0000      -0.709588       -19.3089
  17   2.0000      -0.688571       -18.7370
  18   2.0000      -0.684306       -18.6209
  19   2.0000      -0.661249       -17.9935
  20   2.0000      -0.616969       -16.7886
  21   2.0000      -0.558205       -15.1895
  22   2.0000      -0.550878       -14.9901
  23   2.0000      -0.388531       -10.5725
  24   0.0000       0.029738         0.8092
  25   0.0000       0.049210         1.3391
  26   0.0000       0.050608         1.3771
  27   0.0000       0.072698         1.9782
  28   0.0000       0.105688         2.8759

MULLIKEN ATOMIC CHARGES
-----------------------
   0 C :    1.373782
   1 F :   -0.621248
   2 F :   -0.627713
   3 C :   -0.164255
   4 H :   -0.365767
   5 C :    1.039209
   6 F :   -0.596569
   7 H :   -0.018719
   8 H :   -0.018719
Sum of atomic charges:    0.0000000

LOEWDIN ATOMIC CHARGES
----------------------
   0 C :   -0.221634
   1 F :    0.101861
   2 F :    0.081728
   3 C :    0.013961
   4 H :    0.005864
   5 C :    0.007671
   6 F :   -0.000213
   7 H :    0.005381
   8 H :    0.005381

  Mayer bond orders larger than 0.100000
B(  0-C ,  1-F ) :   0.2090 B(  0-C ,  2-F ) :   0.1315 B(  0-C ,  3-C ) :   1.8930
B(  1-F ,  3-C ) :   0.2681 B(  2-F ,  3-C ) :   0.2918 B(  3-C ,  4-H ) :   0.8939
B(  3-C ,  5-C ) :   1.1917 B(  3-C ,  6-F ) :   0.1779 B(  5-C ,  6-F ) :   0.2791
B(  5-C ,  7-H ) :   0.8919 B(  5-C ,  8-H ) :   0.8919

MP2 TOTAL ENERGY:     -414.688277834 Eh
FINAL SINGLE POINT ENERGY      -414.688277833506

DIPOLE MOMENT
-------------
                                X             Y             Z
Electronic contribution:     -4.46965       4.01642       0.00000
Nuclear contribution   :      5.62453      -4.31720       0.00000
                        -----------------------------------------
Total Dipole Moment    :      1.15488      -0.30077       0.00000
                        -----------------------------------------
Magnitude (a.u.)       :      1.19340
Magnitude (Debye)      :      3.03339

Rotational constants in cm-1:     0.257525     0.078037     0.060569
Rotational constants in MHz :  7720.412477  2339.504460  1815.825362

                             ****ORCA TERMINATED NORMALLY****
TOTAL RUN TIME: 0 days 0 hours 0 minutes 25 seconds 584 msec
