                         Program Version 5.0.3 -  RELEASE  -
|  1> !ri-mp2 aug-cc-pvdz aug-cc-pvdz/c tightscf
|  2> %pal nprocs 16 end
|  3>
|  4> * xyz 0 1
|  5> S     -0.941719   -0.587939    0.768936
|  6> S      1.669768    0.756964    0.287950
|  7> N     -3.415090   -0.760915   -0.639976
|  8> N      2.817085   -1.701635   -0.585142
|  9> C     -0.056728    0.618916   -0.342704
| 10> C     -2.408367   -0.687899   -0.075952
| 11> C      2.320508   -0.717745   -0.238832
| 12> C     -0.677159    2.004219   -0.337138
| 13> H     -0.021035    0.185721   -1.337080
| 14> H     -1.717428    1.940023   -0.652532
| 15> H     -0.647908    2.449729    0.656902
| 16> H     -0.145903    2.653030   -1.033882
| 17> *
| 18>
| 19>                          ****END OF INPUT****

CARTESIAN COORDINATES (ANGSTROEM)
---------------------------------
  S     -0.941719   -0.587939    0.768936
  S      1.669768    0.756964    0.287950
  N     -3.415090   -0.760915   -0.639976
  N      2.817085   -1.701635   -0.585142
  C     -0.056728    0.618916   -0.342704
  C     -2.408367   -0.687899   -0.075952
  C      2.320508   -0.717745   -0.238832
  C     -0.677159    2.004219   -0.337138
  H     -0.021035    0.185721   -1.337080
  H     -1.717428    1.940023   -0.652532
  H     -0.647908    2.449729    0.656902
  H     -0.145903    2.653030   -1.033882

 Total Charge           Charge          ....    0
 Multiplicity           Mult            ....    1
 Number of Electrons    NEL             ....   74
 Basis Dimension        Dim             ....  228

ORBITAL ENERGIES
----------------

  NO   OCC          E(Eh)            E(eV)
   0   2.0000     -92.051171     -2504.8397
   1   2.0000     -92.041546     -2504.5778
   2   2.0000     -15.614647      -424.8962
   3   2.0000     -15.610993      -424.7967
   4   2.0000     -11.373004      -309.4752
   5   2.0000     -11.324856      -308.1650
   6   2.0000     -11.321849      -308.0832
   7   2.0000     -11.283101      -307.0288
   8   2.0000      -9.051619      -246.3071
   9   2.0000      -9.041880      -246.0421
  10   2.0000      -6.733816      -183.2365
  11   2.0000      -6.731772      -183.1808
  12   2.0000      -6.729761      -183.1261
  13   2.0000      -6.724002      -182.9694
  14   2.0000      -6.721924      -182.9128
  15   2.0000      -6.719819      -182.8556
  16   2.0000      -1.255778       -34.1715
  17   2.0000      -1.251695       -34.0603
  18   2.0000      -1.170253       -31.8442
  19   2.0000      -1.062724       -28.9182
  20   2.0000      -1.027475       -27.9590
  21   2.0000      -0.875726       -23.8297
  22   2.0000      -0.737396       -20.0656
  23   2.0000      -0.708691       -19.2845
  24   2.0000      -0.645923       -17.5765
  25   2.0000      -0.616012       -16.7626
  26   2.0000      -0.604226       -16.4418
  27   2.0000      -0.580297       -15.7907
  28   2.0000      -0.570542       -15.5252
  29   2.0000      -0.557976       -15.1833
  30   2.0000      -0.548315       -14.9204
  31   2.0000      -0.539442       -14.6790
  32   2.0000      -0.532756       -14.4970
  33   2.0000      -0.483506       -13.1569
  34   2.0000      -0.467547       -12.7226
  35   2.0000      -0.410206       -11.1623
  36   2.0000      -0.404614       -11.0101
  37   0.0000       0.026872         0.7312
  38   0.0000       0.042274         1.1503
  39   0.0000       0.052637         1.4323
  40   0.0000       0.054659         1.4873
  41   0.0000       0.059057         1.6070

MULLIKEN ATOMIC CHARGES
-----------------------
   0 S :    0.709370
   1 S :    0.792328
   2 N :   -0.327066
   3 N :   -0.307227
   4 C :   -0.636549
   5 C :   -0.253294
   6 C :   -0.300012
   7 C :    0.500171
   8 H :   -0.063403
   9 H :   -0.054947
  10 H :   -0.022882
  11 H :   -0.036490
Sum of atomic charges:    0.0000000

LOEWDIN ATOMIC CHARGES
----------------------
   0 S :    0.887898
   1 S :    0.896380
   2 N :    0.000925
   3 N :    0.003804
   4 C :   -0.684670
   5 C :   -0.542290
   6 C :   -0.543204
   7 C :    0.058858
   8 H :   -0.034806
   9 H :   -0.016760
  10 H :   -0.014698
  11 H :   -0.011437

  Mayer bond orders larger than 0.100000
B(  0-S ,  4-C ) :   0.9080 B(  0-S ,  5-C ) :   0.8929 B(  1-S ,  4-C ) :   0.9836
B(  1-S ,  6-C ) :   0.7955 B(  2-N ,  5-C ) :   2.4885 B(  3-N ,  6-C ) :   2.4718
B(  4-C ,  7-C ) :   1.2912 B(  4-C ,  8-H ) :   1.0112 B(  7-C ,  9-H ) :   0.9197
B(  7-C , 10-H ) :   0.9531 B(  7-C , 11-H ) :   0.8646

MP2 TOTAL ENERGY:    -1058.906099334 Eh
FINAL SINGLE POINT ENERGY     -1058.906099334130

DIPOLE MOMENT
-------------
                                X             Y             Z
Electronic contribution:      2.72828      -5.21353       2.65802
Nuclear contribution   :     -2.46542       6.94726      -2.31908
                        -----------------------------------------
Total Dipole Moment    :      0.26285       1.73373       0.33894
                        -----------------------------------------
Magnitude (a.u.)       :      1.78600
Magnitude (Debye)      :      4.53965

Rotational constants in cm-1:     0.084816     0.029318     0.024251
Rotational constants in MHz :  2542.709765   878.920708   727.036126

                             ****ORCA TERMINATED NORMALLY****
TOTAL RUN TIME: 0 days 0 hours 0 minutes 44 seconds 65 msec
