                         Program Version 5.0.3 -  RELEASE  -
|  1> !ri-mp2 aug-cc-pvdz aug-cc-pvdz/c tightscf
|  2> %pal nprocs 16 end
|  3>
|  4> * xyz 0 1
|  5> Cl    -1.906509   -0.012464   -0.000003
|  6> N     -0.208360    0.009411    0.000000
|  7> N      0.477354   -1.136970    0.000000
|  8> C      0.568717    1.122667    0.000002
|  9> C      1.748562   -0.743730    0.000002
| 10> C      1.865057    0.659271    0.000004
| 11> H      0.143298    2.109292    0.000002
| 12> H      2.528586   -1.486330    0.000002
| 13> H      2.761801    1.252584    0.000006
| 14> *
| 15>
| 16>                          ****END OF INPUT****

CARTESIAN COORDINATES (ANGSTROEM)
---------------------------------
  Cl    -1.906509   -0.012464   -0.000003
  N     -0.208360    0.009411    0.000000
  N      0.477354   -1.136970    0.000000
  C      0.568717    1.122667    0.000002
  C      1.748562   -0.743730    0.000002
  C      1.865057    0.659271    0.000004
  H      0.143298    2.109292    0.000002
  H      2.528586   -1.486330    0.000002
  H      2.761801    1.252584    0.000006

 Total Charge           Charge          ....    0
 Multiplicity           Mult            ....    1
 Number of Electrons    NEL             ....   52
 Basis Dimension        Dim             ....  169

ORBITAL ENERGIES
----------------

  NO   OCC          E(Eh)            E(eV)
   0   2.0000    -104.896971     -2854.3917
   1   2.0000     -15.704080      -427.3297
   2   2.0000     -15.613515      -424.8653
   3   2.0000     -11.302028      -307.5438
   4   2.0000     -11.275025      -306.8090
   5   2.0000     -11.244085      -305.9671
   6   2.0000     -10.619284      -288.9654
   7   2.0000      -8.087454      -220.0708
   8   2.0000      -8.082949      -219.9482
   9   2.0000      -8.082626      -219.9394
  10   2.0000      -1.418596       -38.6020
  11   2.0000      -1.193437       -32.4751
  12   2.0000      -1.092724       -29.7345
  13   2.0000      -1.023868       -27.8609
  14   2.0000      -0.832587       -22.6558
  15   2.0000      -0.795702       -21.6521
  16   2.0000      -0.740849       -20.1595
  17   2.0000      -0.656994       -17.8777
  18   2.0000      -0.620616       -16.8878
  19   2.0000      -0.602567       -16.3967
  20   2.0000      -0.583854       -15.8875
  21   2.0000      -0.502959       -13.6862
  22   2.0000      -0.492276       -13.3955
  23   2.0000      -0.479602       -13.0506
  24   2.0000      -0.367710       -10.0059
  25   2.0000      -0.361897        -9.8477
  26   0.0000       0.033087         0.9003
  27   0.0000       0.041462         1.1282
  28   0.0000       0.053691         1.4610
  29   0.0000       0.073923         2.0115
  30   0.0000       0.090567         2.4644

MULLIKEN ATOMIC CHARGES
-----------------------
   0 Cl:    0.487112
   1 N :   -0.518201
   2 N :   -0.695933
   3 C :    0.511897
   4 C :    0.591075
   5 C :    0.437137
   6 H :   -0.301093
   7 H :   -0.219543
   8 H :   -0.292451
Sum of atomic charges:    0.0000000

LOEWDIN ATOMIC CHARGES
----------------------
   0 Cl:    0.607934
   1 N :   -0.550545
   2 N :   -0.002184
   3 C :    0.010632
   4 C :   -0.046176
   5 C :   -0.000103
   6 H :   -0.000540
   7 H :   -0.005576
   8 H :   -0.013441

  Mayer bond orders larger than 0.100000
B(  0-Cl,  1-N ) :   0.6676 B(  1-N ,  2-N ) :   1.0490 B(  1-N ,  3-C ) :   1.4461
B(  1-N ,  4-C ) :  -0.1357 B(  2-N ,  4-C ) :   1.3795 B(  2-N ,  5-C ) :   0.1365
B(  3-C ,  4-C ) :   0.1149 B(  3-C ,  5-C ) :   1.4489 B(  3-C ,  6-H ) :   0.8086
B(  4-C ,  5-C ) :   1.3096 B(  4-C ,  7-H ) :   0.9082 B(  5-C ,  8-H ) :   0.7861

MP2 TOTAL ENERGY:     -684.594494340 Eh
FINAL SINGLE POINT ENERGY      -684.594494339965

DIPOLE MOMENT
-------------
                                X             Y             Z
Electronic contribution:     -7.45440      -0.90619      -0.00001
Nuclear contribution   :      7.77554       1.79724       0.00001
                        -----------------------------------------
Total Dipole Moment    :      0.32114       0.89106       0.00000
                        -----------------------------------------
Magnitude (a.u.)       :      0.94716
Magnitude (Debye)      :      2.40750

Rotational constants in cm-1:     0.315835     0.073755     0.059792
Rotational constants in MHz :  9468.488179  2211.112115  1792.517586

                             ****ORCA TERMINATED NORMALLY****
TOTAL RUN TIME: 0 days 0 hours 0 minutes 40 seconds 443 msec
