                         Program Version 5.0.3 -  RELEASE  -
|  1> !ri-mp2 aug-cc-pvdz aug-cc-pvdz/c tightscf
|  2> %pal nprocs 16 end
|  3>
|  4> * xyz 0 1
|  5> C     -1.857174    0.019065   -0.276434
|  6> C     -0.721381   -0.297100    0.333323
|  7> C      1.726840   -0.243467   -0.291830
|  8> C      0.536972    0.517277    0.306749
|  9> H     -2.729067   -0.618792   -0.220189
| 10> H     -1.956005    0.931088   -0.853592
| 11> H     -0.671041   -1.224905    0.898141
| 12> H      2.633033    0.362779   -0.261767
| 13> H      1.534052   -0.514731   -1.330436
| 14> H      1.923869   -1.164107    0.260591
| 15> H      0.363340    1.438791   -0.253243
| 16> H      0.790277    0.815231    1.329652
| 17> *
| 18>
| 19>                          ****END OF INPUT****

CARTESIAN COORDINATES (ANGSTROEM)
---------------------------------
  C     -1.857174    0.019065   -0.276434
  C     -0.721381   -0.297100    0.333323
  C      1.726840   -0.243467   -0.291830
  C      0.536972    0.517277    0.306749
  H     -2.729067   -0.618792   -0.220189
  H     -1.956005    0.931088   -0.853592
  H     -0.671041   -1.224905    0.898141
  H      2.633033    0.362779   -0.261767
  H      1.534052   -0.514731   -1.330436
  H      1.923869   -1.164107    0.260591
  H      0.363340    1.438791   -0.253243
  H      0.790277    0.815231    1.329652

 Total Charge           Charge          ....    0
 Multiplicity           Mult            ....    1
 Number of Electrons    NEL             ....   32
 Basis Dimension        Dim             ....  164

ORBITAL ENERGIES
----------------

  NO   OCC          E(Eh)            E(eV)
   0   2.0000     -11.236723      -305.7668
   1   2.0000     -11.231516      -305.6251
   2   2.0000     -11.223990      -305.4203
   3   2.0000     -11.222492      -305.3795
   4   2.0000      -1.081902       -29.4400
   5   2.0000      -0.990945       -26.9650
   6   2.0000      -0.857562       -23.3354
   7   2.0000      -0.755467       -20.5573
   8   2.0000      -0.642403       -17.4807
   9   2.0000      -0.606424       -16.5016
  10   2.0000      -0.584854       -15.9147
  11   2.0000      -0.534704       -14.5500
  12   2.0000      -0.516772       -14.0621
  13   2.0000      -0.486017       -13.2252
  14   2.0000      -0.474319       -12.9069
  15   2.0000      -0.359058        -9.7705
  16   0.0000       0.038044         1.0352
  17   0.0000       0.045154         1.2287
  18   0.0000       0.048157         1.3104
  19   0.0000       0.052697         1.4339
  20   0.0000       0.065071         1.7707

MULLIKEN ATOMIC CHARGES
-----------------------
   0 C :    0.411953
   1 C :    0.622211
   2 C :    0.293381
   3 C :    0.057750
   4 H :   -0.283840
   5 H :   -0.291299
   6 H :   -0.434605
   7 H :   -0.094741
   8 H :   -0.067170
   9 H :   -0.070271
  10 H :   -0.131570
  11 H :   -0.011799
Sum of atomic charges:    0.0000000

LOEWDIN ATOMIC CHARGES
----------------------
   0 C :    0.155265
   1 C :   -0.077223
   2 C :    0.131095
   3 C :   -0.079110
   4 H :   -0.046532
   5 H :   -0.041097
   6 H :   -0.001762
   7 H :   -0.021803
   8 H :   -0.018669
   9 H :   -0.021376
  10 H :    0.009639
  11 H :    0.011572

  Mayer bond orders larger than 0.100000
B(  0-C ,  1-C ) :   1.9494 B(  0-C ,  4-H ) :   0.7711 B(  0-C ,  5-H ) :   0.9227
B(  1-C ,  3-C ) :   1.1367 B(  1-C ,  4-H ) :   0.1374 B(  1-C ,  6-H ) :   0.7298
B(  2-C ,  3-C ) :   1.2091 B(  2-C ,  7-H ) :   0.9052 B(  2-C ,  8-H ) :   0.9685
B(  2-C ,  9-H ) :   0.9377 B(  3-C ,  6-H ) :  -0.1513 B(  3-C , 10-H ) :   0.8833
B(  3-C , 11-H ) :   0.8678 B(  4-H ,  5-H ) :  -0.1863

MP2 TOTAL ENERGY:     -156.706384457 Eh
FINAL SINGLE POINT ENERGY      -156.706384457160

DIPOLE MOMENT
-------------
                                X             Y             Z
Electronic contribution:     -1.86206      -0.00320       0.50163
Nuclear contribution   :      2.02276       0.02716      -0.46149
                        -----------------------------------------
Total Dipole Moment    :      0.16070       0.02396       0.04014
                        -----------------------------------------
Magnitude (a.u.)       :      0.16736
Magnitude (Debye)      :      0.42540

Rotational constants in cm-1:     0.764516     0.138033     0.134798
Rotational constants in MHz : 22919.607201  4138.114896  4041.146910

                             ****ORCA TERMINATED NORMALLY****
TOTAL RUN TIME: 0 days 0 hours 0 minutes 39 seconds 230 msec
