                         Program Version 5.0.3 -  RELEASE  -
|  1> !ri-mp2 aug-cc-pvdz aug-cc-pvdz/c tightscf
|  2> %pal nprocs 16 end
|  3>
|  4> * xyz 0 1
|  5> F     -1.669344    0.483858   -0.453523
|  6> F     -0.788373   -1.103319    0.767200
|  7> O      0.629635    1.223624    0.727671
|  8> N     -0.619879   -0.472984   -0.472184
|  9> C      0.621002    0.357868   -0.363789
| 10> C      1.814672   -0.567909   -0.285540
| 11> H     -0.126057    1.819060    0.668820
| 12> H      0.599329    0.897393   -1.316545
| 13> H      2.723091    0.026037   -0.362124
| 14> H      1.817974   -1.095028    0.666070
| 15> H      1.793148   -1.290166   -1.099425
| 16> *
| 17>
| 18>                          ****END OF INPUT****

CARTESIAN COORDINATES (ANGSTROEM)
---------------------------------
  F     -1.669344    0.483858   -0.453523
  F     -0.788373   -1.103319    0.767200
  O      0.629635    1.223624    0.727671
  N     -0.619879   -0.472984   -0.472184
  C      0.621002    0.357868   -0.363789
  C      1.814672   -0.567909   -0.285540
  H     -0.126057    1.819060    0.668820
  H      0.599329    0.897393   -1.316545
  H      2.723091    0.026037   -0.362124
  H      1.817974   -1.095028    0.666070
  H      1.793148   -1.290166   -1.099425

 Total Charge           Charge          ....    0
 Multiplicity           Mult            ....    1
 Number of Electrons    NEL             ....   50
 Basis Dimension        Dim             ....  183

ORBITAL ENERGIES
----------------

  NO   OCC          E(Eh)            E(eV)
   0   2.0000     -26.351910      -717.0719
   1   2.0000     -26.350362      -717.0298
   2   2.0000     -20.601926      -560.6069
   3   2.0000     -15.781093      -429.4254
   4   2.0000     -11.359344      -309.1035
   5   2.0000     -11.248451      -306.0859
   6   2.0000      -1.687519       -45.9197
   7   2.0000      -1.603892       -43.6441
   8   2.0000      -1.411303       -38.4035
   9   2.0000      -1.164159       -31.6784
  10   2.0000      -1.017327       -27.6829
  11   2.0000      -0.868516       -23.6335
  12   2.0000      -0.777763       -21.1640
  13   2.0000      -0.773987       -21.0612
  14   2.0000      -0.758120       -20.6295
  15   2.0000      -0.720997       -19.6193
  16   2.0000      -0.678344       -18.4587
  17   2.0000      -0.645442       -17.5634
  18   2.0000      -0.634760       -17.2727
  19   2.0000      -0.612785       -16.6747
  20   2.0000      -0.567799       -15.4506
  21   2.0000      -0.558545       -15.1988
  22   2.0000      -0.548670       -14.9301
  23   2.0000      -0.506784       -13.7903
  24   2.0000      -0.478410       -13.0182
  25   0.0000       0.033430         0.9097
  26   0.0000       0.045540         1.2392
  27   0.0000       0.050802         1.3824
  28   0.0000       0.058899         1.6027
  29   0.0000       0.073738         2.0065

MULLIKEN ATOMIC CHARGES
-----------------------
   0 F :   -0.574827
   1 F :   -0.554790
   2 O :   -0.740304
   3 N :    0.299241
   4 C :    1.286244
   5 C :    0.347629
   6 H :    0.138394
   7 H :   -0.191362
   8 H :    0.002154
   9 H :   -0.010678
  10 H :   -0.001703
Sum of atomic charges:   -0.0000000

LOEWDIN ATOMIC CHARGES
----------------------
   0 F :   -0.007738
   1 F :    0.013919
   2 O :    0.160581
   3 N :   -0.014823
   4 C :   -0.299117
   5 C :    0.178327
   6 H :   -0.049054
   7 H :    0.037855
   8 H :   -0.005177
   9 H :   -0.007678
  10 H :   -0.007095

  Mayer bond orders larger than 0.100000
B(  0-F ,  3-N ) :   0.5745 B(  1-F ,  3-N ) :   0.6457 B(  1-F ,  4-C ) :  -0.1508
B(  2-O ,  3-N ) :   0.1238 B(  2-O ,  4-C ) :   0.3595 B(  2-O ,  6-H ) :   1.0683
B(  3-N ,  4-C ) :   0.5480 B(  4-C ,  5-C ) :   1.3004 B(  4-C ,  7-H ) :   0.7043
B(  5-C ,  8-H ) :   0.8824 B(  5-C ,  9-H ) :   0.9428 B(  5-C , 10-H ) :   0.9135

MP2 TOTAL ENERGY:     -407.828718324 Eh
FINAL SINGLE POINT ENERGY      -407.828718323993

DIPOLE MOMENT
-------------
                                X             Y             Z
Electronic contribution:     -8.25602      -0.56811       1.12160
Nuclear contribution   :      8.94011       0.95349      -1.68750
                        -----------------------------------------
Total Dipole Moment    :      0.68409       0.38539      -0.56589
                        -----------------------------------------
Magnitude (a.u.)       :      0.96785
Magnitude (Debye)      :      2.46008

Rotational constants in cm-1:     0.168545     0.100615     0.083661
Rotational constants in MHz :  5052.851817  3016.370018  2508.079102

                             ****ORCA TERMINATED NORMALLY****
TOTAL RUN TIME: 0 days 0 hours 0 minutes 33 seconds 703 msec
