                         Program Version 5.0.3 -  RELEASE  -
|  1> !ri-mp2 aug-cc-pvdz aug-cc-pvdz/c tightscf
|  2> %pal nprocs 16 end
|  3>
|  4> * xyz 0 1
|  5> O     -2.416628   -0.098841   -0.000028
|  6> C      0.087033   -0.011100    0.000005
|  7> C     -1.117057   -0.002424   -0.000010
|  8> C      1.449836    0.001422    0.000013
|  9> C      2.655112    0.011669    0.000023
| 10> H     -2.832487    0.773856    0.000005
| 11> H      3.715965    0.019465    0.000027
| 12> *
| 13>
| 14>                          ****END OF INPUT****

CARTESIAN COORDINATES (ANGSTROEM)
---------------------------------
  O     -2.416628   -0.098841   -0.000028
  C      0.087033   -0.011100    0.000005
  C     -1.117057   -0.002424   -0.000010
  C      1.449836    0.001422    0.000013
  C      2.655112    0.011669    0.000023
  H     -2.832487    0.773856    0.000005
  H      3.715965    0.019465    0.000027

 Total Charge           Charge          ....    0
 Multiplicity           Mult            ....    1
 Number of Electrons    NEL             ....   34
 Basis Dimension        Dim             ....  133

ORBITAL ENERGIES
----------------

  NO   OCC          E(Eh)            E(eV)
   0   2.0000     -20.663291      -562.2767
   1   2.0000     -11.329929      -308.3031
   2   2.0000     -11.266349      -306.5729
   3   2.0000     -11.259234      -306.3793
   4   2.0000     -11.251197      -306.1606
   5   2.0000      -1.472236       -40.0616
   6   2.0000      -1.088210       -29.6117
   7   2.0000      -1.017670       -27.6922
   8   2.0000      -0.862048       -23.4575
   9   2.0000      -0.804690       -21.8967
  10   2.0000      -0.706056       -19.2128
  11   2.0000      -0.683876       -18.6092
  12   2.0000      -0.639313       -17.3966
  13   2.0000      -0.481722       -13.1083
  14   2.0000      -0.475466       -12.9381
  15   2.0000      -0.358756        -9.7622
  16   2.0000      -0.346595        -9.4313
  17   0.0000       0.025134         0.6839
  18   0.0000       0.038524         1.0483
  19   0.0000       0.085027         2.3137
  20   0.0000       0.093512         2.5446
  21   0.0000       0.097065         2.6413

MULLIKEN ATOMIC CHARGES
-----------------------
   0 O :   -0.573226
   1 C :    1.539673
   2 C :   -1.075012
   3 C :    0.544631
   4 C :    0.062718
   5 H :    0.159160
   6 H :   -0.657944
Sum of atomic charges:    0.0000000

LOEWDIN ATOMIC CHARGES
----------------------
   0 O :    0.198269
   1 C :   -0.079151
   2 C :   -0.080765
   3 C :   -0.158181
   4 C :    0.230715
   5 H :   -0.009147
   6 H :   -0.101739

  Mayer bond orders larger than 0.100000
B(  0-O ,  1-C ) :  -0.3252 B(  0-O ,  2-C ) :   0.9432 B(  0-O ,  5-H ) :   1.0078
B(  1-C ,  2-C ) :   1.4147 B(  1-C ,  3-C ) :   1.4636 B(  1-C ,  4-C ) :  -0.8977
B(  2-C ,  3-C ) :  -0.8800 B(  2-C ,  4-C ) :   0.8935 B(  3-C ,  4-C ) :   1.9259
B(  3-C ,  6-H ) :   0.3399

MP2 TOTAL ENERGY:     -228.078528223 Eh
FINAL SINGLE POINT ENERGY      -228.078528223494

DIPOLE MOMENT
-------------
                                X             Y             Z
Electronic contribution:     -1.25572      -0.14643      -0.00001
Nuclear contribution   :      0.81717       0.76534       0.00003
                        -----------------------------------------
Total Dipole Moment    :     -0.43855       0.61891       0.00002
                        -----------------------------------------
Magnitude (a.u.)       :      0.75854
Magnitude (Debye)      :      1.92806

Rotational constants in cm-1:    22.907733     0.070109     0.069895
Rotational constants in MHz : 686756.556928  2101.823284  2095.410267

                             ****ORCA TERMINATED NORMALLY****
TOTAL RUN TIME: 0 days 0 hours 0 minutes 36 seconds 662 msec
