                         Program Version 5.0.3 -  RELEASE  -
|  1> !ri-mp2 aug-cc-pvdz aug-cc-pvdz/c tightscf
|  2> %pal nprocs 16 end
|  3>
|  4> * xyz 0 1
|  5> C      0.416411    0.100268    0.386308
|  6> C      1.263415   -1.037984   -0.112361
|  7> H      0.427859    0.216469    1.466770
|  8> F      0.842920    1.284656   -0.164507
|  9> Cl    -1.324878   -0.129863   -0.054942
| 10> H      1.189287   -1.116293   -1.195399
| 11> H      2.302538   -0.853754    0.163176
| 12> H      0.938014   -1.974348    0.336348
| 13> *
| 14>
| 15>                          ****END OF INPUT****

CARTESIAN COORDINATES (ANGSTROEM)
---------------------------------
  C      0.416411    0.100268    0.386308
  C      1.263415   -1.037984   -0.112361
  H      0.427859    0.216469    1.466770
  F      0.842920    1.284656   -0.164507
  Cl    -1.324878   -0.129863   -0.054942
  H      1.189287   -1.116293   -1.195399
  H      2.302538   -0.853754    0.163176
  H      0.938014   -1.974348    0.336348

 Total Charge           Charge          ....    0
 Multiplicity           Mult            ....    1
 Number of Electrons    NEL             ....   42
 Basis Dimension        Dim             ....  132

ORBITAL ENERGIES
----------------

  NO   OCC          E(Eh)            E(eV)
   0   2.0000    -104.834995     -2852.7052
   1   2.0000     -26.322857      -716.2814
   2   2.0000     -11.399475      -310.1955
   3   2.0000     -11.255659      -306.2820
   4   2.0000     -10.561538      -287.3941
   5   2.0000      -8.029106      -218.4831
   6   2.0000      -8.025930      -218.3966
   7   2.0000      -8.025856      -218.3946
   8   2.0000      -1.630861       -44.3780
   9   2.0000      -1.145525       -31.1713
  10   2.0000      -1.025868       -27.9153
  11   2.0000      -0.871625       -23.7181
  12   2.0000      -0.744395       -20.2560
  13   2.0000      -0.705920       -19.2091
  14   2.0000      -0.688664       -18.7395
  15   2.0000      -0.605724       -16.4826
  16   2.0000      -0.574352       -15.6289
  17   2.0000      -0.555218       -15.1083
  18   2.0000      -0.513814       -13.9816
  19   2.0000      -0.460812       -12.5393
  20   2.0000      -0.449133       -12.2215
  21   0.0000       0.033966         0.9243
  22   0.0000       0.046879         1.2756
  23   0.0000       0.055702         1.5157
  24   0.0000       0.064381         1.7519
  25   0.0000       0.091802         2.4981

MULLIKEN ATOMIC CHARGES
-----------------------
   0 C :    0.439012
   1 C :    0.368503
   2 H :   -0.027962
   3 F :   -0.618262
   4 Cl:   -0.164083
   5 H :    0.007259
   6 H :   -0.009842
   7 H :    0.005374
Sum of atomic charges:    0.0000000

LOEWDIN ATOMIC CHARGES
----------------------
   0 C :   -0.508704
   1 C :    0.102210
   2 H :   -0.017884
   3 F :   -0.008188
   4 Cl:    0.467275
   5 H :   -0.011424
   6 H :   -0.009481
   7 H :   -0.013803

  Mayer bond orders larger than 0.100000
B(  0-C ,  1-C ) :   1.2037 B(  0-C ,  2-H ) :   0.9059 B(  0-C ,  3-F ) :   0.3016
B(  0-C ,  4-Cl) :   1.1672 B(  1-C ,  3-F ) :   0.1235 B(  1-C ,  5-H ) :   0.9480
B(  1-C ,  6-H ) :   0.8867 B(  1-C ,  7-H ) :   0.9411

MP2 TOTAL ENERGY:     -637.678345853 Eh
FINAL SINGLE POINT ENERGY      -637.678345852868

DIPOLE MOMENT
-------------
                                X             Y             Z
Electronic contribution:     -5.02558       3.94796      -0.54013
Nuclear contribution   :      5.66048      -4.59942       0.96749
                        -----------------------------------------
Total Dipole Moment    :      0.63490      -0.65146       0.42736
                        -----------------------------------------
Magnitude (a.u.)       :      1.00505
Magnitude (Debye)      :      2.55464

Rotational constants in cm-1:     0.300014     0.151186     0.108668
Rotational constants in MHz :  8994.195728  4532.443628  3257.774980

                             ****ORCA TERMINATED NORMALLY****
TOTAL RUN TIME: 0 days 0 hours 0 minutes 33 seconds 758 msec
