                         Program Version 5.0.3 -  RELEASE  -
|  1> !ri-mp2 aug-cc-pvdz aug-cc-pvdz/c tightscf
|  2> %pal nprocs 16 end
|  3> %maxcore 3800
|  4>
|  5> * xyz 0 1
|  6> C      1.134283   -0.569029        0.000000
|  7> C      1.016492   -1.932922        0.000000
|  8> C     -0.261594   -2.526193        0.000000
|  9> C     -1.387179   -1.747660        0.000000
| 10> C     -2.441560    0.487066        0.000000
| 11> C     -2.335638    1.852213        0.000000
| 12> C     -1.064302    2.461445        0.000000
| 13> C      0.074645    1.699051        0.000000
| 14> C      0.000000    0.285851        0.000000
| 15> C     -1.289332   -0.336021        0.000000
| 16> Cl     2.747884    0.124724        0.000000
| 17> H      1.904173   -2.548108        0.000000
| 18> H     -0.340512   -3.604770        0.000000
| 19> H     -2.369483   -2.201792        0.000000
| 20> H     -3.414600    0.012616        0.000000
| 21> H     -3.225734    2.466898        0.000000
| 22> H     -0.988024    3.540457        0.000000
| 23> H      1.045261    2.171590        0.000000
| 24> *
| 25>
| 26>                          ****END OF INPUT****

CARTESIAN COORDINATES (ANGSTROEM)
---------------------------------
  C      1.134283   -0.569029    0.000000
  C      1.016492   -1.932922    0.000000
  C     -0.261594   -2.526193    0.000000
  C     -1.387179   -1.747660    0.000000
  C     -2.441560    0.487066    0.000000
  C     -2.335638    1.852213    0.000000
  C     -1.064302    2.461445    0.000000
  C      0.074645    1.699051    0.000000
  C      0.000000    0.285851    0.000000
  C     -1.289332   -0.336021    0.000000
  Cl     2.747884    0.124724    0.000000
  H      1.904173   -2.548108    0.000000
  H     -0.340512   -3.604770    0.000000
  H     -2.369483   -2.201792    0.000000
  H     -3.414600    0.012616    0.000000
  H     -3.225734    2.466898    0.000000
  H     -0.988024    3.540457    0.000000
  H      1.045261    2.171590    0.000000

 Total Charge           Charge          ....    0
 Multiplicity           Mult            ....    1
 Number of Electrons    NEL             ....   84
 Basis Dimension        Dim             ....  320

ORBITAL ENERGIES
----------------

  NO   OCC          E(Eh)            E(eV)
   0   2.0000    -104.839606     -2852.8307
   1   2.0000     -11.311288      -307.7958
   2   2.0000     -11.265102      -306.5390
   3   2.0000     -11.261629      -306.4445
   4   2.0000     -11.256563      -306.3067
   5   2.0000     -11.254277      -306.2444
   6   2.0000     -11.252161      -306.1869
   7   2.0000     -11.251097      -306.1579
   8   2.0000     -11.249988      -306.1277
   9   2.0000     -11.249200      -306.1063
  10   2.0000     -11.247893      -306.0707
  11   2.0000     -10.565575      -287.5039
  12   2.0000      -8.033360      -218.5989
  13   2.0000      -8.030146      -218.5114
  14   2.0000      -8.029964      -218.5064
  15   2.0000      -1.206612       -32.8336
  16   2.0000      -1.148768       -31.2596
  17   2.0000      -1.113894       -30.3106
  18   2.0000      -1.043438       -28.3934
  19   2.0000      -1.026636       -27.9362
  20   2.0000      -0.984115       -26.7791
  21   2.0000      -0.866315       -23.5736
  22   2.0000      -0.856545       -23.3078
  23   2.0000      -0.808224       -21.9929
  24   2.0000      -0.723057       -19.6754
  25   2.0000      -0.706257       -19.2182
  26   2.0000      -0.693177       -18.8623
  27   2.0000      -0.630046       -17.1444
  28   2.0000      -0.621629       -16.9154
  29   2.0000      -0.603797       -16.4302
  30   2.0000      -0.589809       -16.0495
  31   2.0000      -0.577656       -15.7188
  32   2.0000      -0.560820       -15.2607
  33   2.0000      -0.537242       -14.6191
  34   2.0000      -0.507711       -13.8155
  35   2.0000      -0.494546       -13.4573
  36   2.0000      -0.489489       -13.3197
  37   2.0000      -0.455071       -12.3831
  38   2.0000      -0.451614       -12.2890
  39   2.0000      -0.384567       -10.4646
  40   2.0000      -0.332420        -9.0456
  41   2.0000      -0.297391        -8.0924
  42   0.0000       0.032926         0.8959
  43   0.0000       0.035714         0.9718
  44   0.0000       0.042492         1.1563
  45   0.0000       0.051373         1.3979
  46   0.0000       0.055680         1.5151

MULLIKEN ATOMIC CHARGES
-----------------------
   0 C :   -0.761827
   1 C :    0.228849
   2 C :    0.281668
   3 C :    0.276620
   4 C :    0.429032
   5 C :    0.072581
   6 C :   -0.185872
   7 C :    0.994366
   8 C :    2.255868
   9 C :    0.474199
  10 Cl:   -0.497580
  11 H :   -0.426052
  12 H :   -0.475040
  13 H :   -0.592283
  14 H :   -0.602597
  15 H :   -0.472772
  16 H :   -0.464915
  17 H :   -0.534244
Sum of atomic charges:   -0.0000000

LOEWDIN ATOMIC CHARGES
----------------------
   0 C :   -0.480854
   1 C :   -0.014644
   2 C :    0.015043
   3 C :    0.053479
   4 C :    0.052484
   5 C :    0.017229
   6 C :    0.018537
   7 C :    0.040360
   8 C :   -0.155502
   9 C :   -0.136156
  10 Cl:    0.589348
  11 H :   -0.001855
  12 H :    0.003556
  13 H :    0.008935
  14 H :    0.008430
  15 H :    0.002431
  16 H :    0.002800
  17 H :   -0.023621

  Mayer bond orders larger than 0.100000
B(  0-C ,  1-C ) :   2.1555 B(  0-C ,  2-C ) :  -0.2368 B(  0-C ,  3-C ) :   0.5006
B(  0-C ,  5-C ) :   0.1265 B(  0-C ,  6-C ) :   0.7137 B(  0-C ,  7-C ) :  -1.4478
B(  0-C ,  8-C ) :  -0.2792 B(  0-C ,  9-C ) :  -1.9080 B(  0-C , 10-Cl) :   0.8597
B(  0-C , 11-H ) :   0.7715 B(  0-C , 12-H ) :  -0.1624 B(  0-C , 17-H ) :  -0.3984
B(  1-C ,  2-C ) :   1.7685 B(  1-C ,  3-C ) :   0.3164 B(  1-C ,  4-C ) :  -0.1660
B(  1-C ,  5-C ) :   0.4490 B(  1-C ,  6-C ) :   0.3741 B(  1-C ,  8-C ) :  -0.8276
B(  1-C ,  9-C ) :  -0.9131 B(  1-C , 10-Cl) :  -0.1991 B(  1-C , 12-H ) :   0.2074
B(  2-C ,  3-C ) :   1.4308 B(  2-C ,  4-C ) :   0.4639 B(  2-C ,  5-C ) :   0.4127
B(  2-C ,  6-C ) :   0.3860 B(  2-C ,  7-C ) :  -0.2604 B(  2-C ,  8-C ) :   0.3360
B(  2-C ,  9-C ) :  -0.5392 B(  2-C , 10-Cl) :   0.1184 B(  2-C , 13-H ) :   0.3232
B(  3-C ,  4-C ) :  -2.1133 B(  3-C ,  5-C ) :   0.3463 B(  3-C ,  6-C ) :  -0.2459
B(  3-C ,  7-C ) :   0.3685 B(  3-C ,  8-C ) :  -1.6311 B(  3-C ,  9-C ) :   1.7345
B(  3-C , 12-H ) :   0.5110 B(  3-C , 13-H ) :  -0.3768 B(  3-C , 14-H ) :  -0.2602
B(  4-C ,  5-C ) :   1.5242 B(  4-C ,  6-C ) :   0.2135 B(  4-C ,  7-C ) :   0.3706
B(  4-C ,  8-C ) :  -1.6904 B(  4-C ,  9-C ) :   1.9472 B(  4-C , 13-H ) :  -0.2383
B(  4-C , 14-H ) :  -0.4250 B(  4-C , 15-H ) :   0.4391 B(  5-C ,  6-C ) :   1.9904
B(  5-C ,  8-C ) :  -0.2964 B(  5-C ,  9-C ) :  -0.8675 B(  5-C , 14-H ) :   0.3437
B(  5-C , 15-H ) :   0.1236 B(  6-C ,  7-C ) :   1.2249 B(  6-C ,  8-C ) :  -0.5115
B(  6-C ,  9-C ) :  -0.2938 B(  6-C , 10-Cl) :   0.1130 B(  6-C , 14-H ) :  -0.1249
B(  6-C , 15-H ) :   0.1472 B(  6-C , 16-H ) :   0.1746 B(  6-C , 17-H ) :   0.3849
B(  7-C ,  8-C ) :   2.1812 B(  7-C ,  9-C ) :  -1.2640 B(  7-C , 16-H ) :   0.4616
B(  7-C , 17-H ) :  -0.4578 B(  8-C ,  9-C ) :   3.3578 B(  8-C , 10-Cl) :  -0.5344
B(  8-C , 11-H ) :   0.1305 B(  8-C , 16-H ) :   0.1143 B(  8-C , 17-H ) :   1.1199
B(  9-C , 10-Cl) :   0.1311 B(  9-C , 12-H ) :   0.1336 B(  9-C , 13-H ) :   0.9083
B(  9-C , 14-H ) :   1.0006 B(  9-C , 15-H ) :   0.1325

MP2 TOTAL ENERGY:     -843.803830471 Eh
FINAL SINGLE POINT ENERGY      -843.803830470505

DIPOLE MOMENT
-------------
                                X             Y             Z
Electronic contribution:     10.23068       0.13227      -0.00000
Nuclear contribution   :    -10.98182      -0.33134       0.00000
                        -----------------------------------------
Total Dipole Moment    :     -0.75114      -0.19907      -0.00000
                        -----------------------------------------
Magnitude (a.u.)       :      0.77707
Magnitude (Debye)      :      1.97516

Rotational constants in cm-1:     0.050990     0.030256     0.018989
Rotational constants in MHz :  1528.635971   907.042743   569.261519

                             ****ORCA TERMINATED NORMALLY****
TOTAL RUN TIME: 0 days 0 hours 1 minutes 59 seconds 407 msec
