                         Program Version 5.0.3 -  RELEASE  -
|  1> !ri-mp2 aug-cc-pvdz aug-cc-pvdz/c tightscf
|  2> %pal nprocs 16 end
|  3>
|  4> * xyz 0 1
|  5> C     -0.016408   -1.487716    0.709392
|  6> C     -0.016408   -1.487716   -0.709392
|  7> C     -0.016408   -0.174043    1.115752
|  8> C     -0.016408   -0.174043   -1.115752
|  9> C      0.066679    2.069240    0.000000
| 10> N     -0.023110    0.623459    0.000000
| 11> H     -0.026850   -2.347321    1.357432
| 12> H     -0.026850   -2.347321   -1.357432
| 13> H     -0.017376    0.257756    2.101616
| 14> H     -0.017376    0.257756   -2.101616
| 15> H     -0.430683    2.466938    0.882657
| 16> H      1.105307    2.406717    0.000000
| 17> H     -0.430683    2.466938   -0.882657
| 18> *
| 19>
| 20>                          ****END OF INPUT****

CARTESIAN COORDINATES (ANGSTROEM)
---------------------------------
  C     -0.016408   -1.487716    0.709392
  C     -0.016408   -1.487716   -0.709392
  C     -0.016408   -0.174043    1.115752
  C     -0.016408   -0.174043   -1.115752
  C      0.066679    2.069240    0.000000
  N     -0.023110    0.623459    0.000000
  H     -0.026850   -2.347321    1.357432
  H     -0.026850   -2.347321   -1.357432
  H     -0.017376    0.257756    2.101616
  H     -0.017376    0.257756   -2.101616
  H     -0.430683    2.466938    0.882657
  H      1.105307    2.406717    0.000000
  H     -0.430683    2.466938   -0.882657

 Total Charge           Charge          ....    0
 Multiplicity           Mult            ....    1
 Number of Electrons    NEL             ....   44
 Basis Dimension        Dim             ....  201

ORBITAL ENERGIES
----------------

  NO   OCC          E(Eh)            E(eV)
   0   2.0000     -15.610969      -424.7961
   1   2.0000     -11.279417      -306.9286
   2   2.0000     -11.251759      -306.1759
   3   2.0000     -11.251716      -306.1748
   4   2.0000     -11.211562      -305.0821
   5   2.0000     -11.210524      -305.0539
   6   2.0000      -1.302709       -35.4485
   7   2.0000      -1.075898       -29.2767
   8   2.0000      -0.977465       -26.5982
   9   2.0000      -0.936288       -25.4777
  10   2.0000      -0.774737       -21.0817
  11   2.0000      -0.751969       -20.4621
  12   2.0000      -0.710122       -19.3234
  13   2.0000      -0.633404       -17.2358
  14   2.0000      -0.604543       -16.4504
  15   2.0000      -0.572804       -15.5868
  16   2.0000      -0.563635       -15.3373
  17   2.0000      -0.528924       -14.3928
  18   2.0000      -0.525230       -14.2922
  19   2.0000      -0.520822       -14.1723
  20   2.0000      -0.332969        -9.0606
  21   2.0000      -0.294294        -8.0081
  22   0.0000       0.033018         0.8985
  23   0.0000       0.043741         1.1903
  24   0.0000       0.046104         1.2546
  25   0.0000       0.055159         1.5010
  26   0.0000       0.059578         1.6212

MULLIKEN ATOMIC CHARGES
-----------------------
   0 C :    0.364161
   1 C :    0.364161
   2 C :    0.466916
   3 C :    0.466916
   4 C :    0.844253
   5 N :   -0.548865
   6 H :   -0.333710
   7 H :   -0.333710
   8 H :   -0.443939
   9 H :   -0.443939
  10 H :   -0.174731
  11 H :   -0.052783
  12 H :   -0.174731
Sum of atomic charges:   -0.0000000

LOEWDIN ATOMIC CHARGES
----------------------
   0 C :   -0.013764
   1 C :   -0.013764
   2 C :    0.027388
   3 C :    0.027388
   4 C :    0.208098
   5 N :   -0.166332
   6 H :   -0.017227
   7 H :   -0.017227
   8 H :   -0.004775
   9 H :   -0.004775
  10 H :   -0.009257
  11 H :   -0.006496
  12 H :   -0.009257

  Mayer bond orders larger than 0.100000
B(  0-C ,  1-C ) :   1.6686 B(  0-C ,  2-C ) :   1.6863 B(  0-C ,  5-N ) :  -0.1172
B(  0-C ,  6-H ) :   0.6149 B(  0-C ,  7-H ) :   0.1229 B(  1-C ,  3-C ) :   1.6863
B(  1-C ,  5-N ) :  -0.1172 B(  1-C ,  6-H ) :   0.1229 B(  1-C ,  7-H ) :   0.6149
B(  2-C ,  5-N ) :   1.1456 B(  2-C ,  8-H ) :   0.7837 B(  3-C ,  5-N ) :   1.1456
B(  3-C ,  9-H ) :   0.7837 B(  4-C ,  5-N ) :   0.7945 B(  4-C , 10-H ) :   1.0086
B(  4-C , 11-H ) :   0.8914 B(  4-C , 12-H ) :   1.0086

MP2 TOTAL ENERGY:     -248.742467624 Eh
FINAL SINGLE POINT ENERGY      -248.742467623981

DIPOLE MOMENT
-------------
                                X             Y             Z
Electronic contribution:     -0.13976      -2.36780       0.00000
Nuclear contribution   :      0.15826       3.22432       0.00000
                        -----------------------------------------
Total Dipole Moment    :      0.01850       0.85652       0.00000
                        -----------------------------------------
Magnitude (a.u.)       :      0.85672
Magnitude (Debye)      :      2.17760

Rotational constants in cm-1:     0.291608     0.118987     0.085906
Rotational constants in MHz :  8742.184540  3567.131373  2575.388630

                             ****ORCA TERMINATED NORMALLY****
TOTAL RUN TIME: 0 days 0 hours 0 minutes 51 seconds 750 msec
