                         Program Version 5.0.3 -  RELEASE  -
|  1> !ri-mp2 aug-cc-pvdz aug-cc-pvdz/c tightscf
|  2> %pal nprocs 16 end
|  3>
|  4> * xyz 0 1
|  5> C      0.000000    0.000000    1.245285
|  6> C      0.000000    1.281625    0.433521
|  7> C      0.000000   -1.281625    0.433521
|  8> Cl    -1.529889    1.476800   -0.530841
|  9> Cl     1.529889   -1.476800   -0.530841
| 10> H      0.878901    0.017822    1.895082
| 11> H     -0.878901   -0.017822    1.895082
| 12> H      0.056209    2.153738    1.077110
| 13> H      0.813369    1.306239   -0.284878
| 14> H     -0.813369   -1.306239   -0.284878
| 15> H     -0.056209   -2.153738    1.077110
| 16> *
| 17>
| 18>                          ****END OF INPUT****

CARTESIAN COORDINATES (ANGSTROEM)
---------------------------------
  C      0.000000    0.000000    1.245285
  C      0.000000    1.281625    0.433521
  C      0.000000   -1.281625    0.433521
  Cl    -1.529889    1.476800   -0.530841
  Cl     1.529889   -1.476800   -0.530841
  H      0.878901    0.017822    1.895082
  H     -0.878901   -0.017822    1.895082
  H      0.056209    2.153738    1.077110
  H      0.813369    1.306239   -0.284878
  H     -0.813369   -1.306239   -0.284878
  H     -0.056209   -2.153738    1.077110

 Total Charge           Charge          ....    0
 Multiplicity           Mult            ....    1
 Number of Electrons    NEL             ....   58
 Basis Dimension        Dim             ....  177

ORBITAL ENERGIES
----------------

  NO   OCC          E(Eh)            E(eV)
   0   2.0000    -104.825702     -2852.4524
   1   2.0000    -104.825702     -2852.4524
   2   2.0000     -11.309576      -307.7492
   3   2.0000     -11.309566      -307.7489
   4   2.0000     -11.266736      -306.5835
   5   2.0000     -10.551711      -287.1267
   6   2.0000     -10.551704      -287.1265
   7   2.0000      -8.019283      -218.2158
   8   2.0000      -8.019283      -218.2158
   9   2.0000      -8.016275      -218.1339
  10   2.0000      -8.016275      -218.1339
  11   2.0000      -8.016171      -218.1311
  12   2.0000      -8.016171      -218.1311
  13   2.0000      -1.162014       -31.6200
  14   2.0000      -1.121660       -30.5219
  15   2.0000      -1.029655       -28.0183
  16   2.0000      -0.921004       -25.0618
  17   2.0000      -0.816400       -22.2154
  18   2.0000      -0.672376       -18.2963
  19   2.0000      -0.664269       -18.0757
  20   2.0000      -0.599744       -16.3199
  21   2.0000      -0.571190       -15.5429
  22   2.0000      -0.561140       -15.2694
  23   2.0000      -0.521317       -14.1857
  24   2.0000      -0.501804       -13.6548
  25   2.0000      -0.446989       -12.1632
  26   2.0000      -0.442983       -12.0542
  27   2.0000      -0.435283       -11.8447
  28   2.0000      -0.434199       -11.8152
  29   0.0000       0.033246         0.9047
  30   0.0000       0.042035         1.1438
  31   0.0000       0.053157         1.4465
  32   0.0000       0.055118         1.4998
  33   0.0000       0.070993         1.9318

MULLIKEN ATOMIC CHARGES
-----------------------
   0 C :    0.293279
   1 C :   -0.030736
   2 C :   -0.030736
   3 Cl:   -0.150626
   4 Cl:   -0.150626
   5 H :   -0.051017
   6 H :   -0.051017
   7 H :    0.031419
   8 H :    0.054321
   9 H :    0.054321
  10 H :    0.031419
Sum of atomic charges:   -0.0000000

LOEWDIN ATOMIC CHARGES
----------------------
   0 C :   -0.157671
   1 C :   -0.309044
   2 C :   -0.309044
   3 Cl:    0.447031
   4 Cl:    0.447031
   5 H :    0.017162
   6 H :    0.017162
   7 H :   -0.030902
   8 H :   -0.045412
   9 H :   -0.045412
  10 H :   -0.030902

  Mayer bond orders larger than 0.100000
B(  0-C ,  1-C ) :   1.2623 B(  0-C ,  2-C ) :   1.2623 B(  0-C ,  3-Cl) :  -0.1139
B(  0-C ,  4-Cl) :  -0.1139 B(  0-C ,  5-H ) :   0.8522 B(  0-C ,  6-H ) :   0.8522
B(  1-C ,  3-Cl) :   1.1705 B(  1-C ,  7-H ) :   0.8668 B(  1-C ,  8-H ) :   0.9286
B(  2-C ,  4-Cl) :   1.1705 B(  2-C ,  9-H ) :   0.9286 B(  2-C , 10-H ) :   0.8668

MP2 TOTAL ENERGY:    -1036.870563274 Eh
FINAL SINGLE POINT ENERGY     -1036.870563273626

DIPOLE MOMENT
-------------
                                X             Y             Z
Electronic contribution:      0.00000      -0.00000      -5.63741
Nuclear contribution   :     -0.00000       0.00000       6.64590
                        -----------------------------------------
Total Dipole Moment    :      0.00000      -0.00000       1.00848
                        -----------------------------------------
Magnitude (a.u.)       :      1.00848
Magnitude (Debye)      :      2.56336

Rotational constants in cm-1:     0.207103     0.044864     0.042224
Rotational constants in MHz :  6208.778173  1344.994869  1265.829094

                             ****ORCA TERMINATED NORMALLY****
TOTAL RUN TIME: 0 days 0 hours 0 minutes 35 seconds 7 msec
