                         Program Version 5.0.3 -  RELEASE  -
|  1> !ri-mp2 aug-cc-pvdz aug-cc-pvdz/c tightscf
|  2> %pal nprocs 16 end
|  3> %maxcore 3800
|  4>
|  5> * xyz 0 1
|  6> C      2.945747   -1.326432   -0.272137
|  7> C     -3.205462   -0.965279   -0.174465
|  8> C      0.235796    2.251178   -0.163046
|  9> C      2.118990   -0.257690    0.413385
| 10> C     -1.783395   -0.782436    0.311995
| 11> C     -0.023554    0.819576    0.264379
| 12> O      0.911871   -0.083840   -0.314715
| 13> O     -1.302450    0.472628   -0.168283
| 14> H      3.881046   -1.483282    0.266831
| 15> H      2.403192   -2.271186   -0.304900
| 16> H      3.182130   -1.032240   -1.294481
| 17> H     -3.603189   -1.917908    0.177985
| 18> H     -3.848536   -0.165468    0.192996
| 19> H     -3.241225   -0.960448   -1.263778
| 20> H      0.138687    2.326594   -1.245260
| 21> H      1.239390    2.563008    0.124892
| 22> H     -0.483643    2.921348    0.306118
| 23> H      2.680904    0.683225    0.457447
| 24> H      1.890021   -0.550298    1.446690
| 25> H     -1.139904   -1.586590   -0.051523
| 26> H     -1.743586   -0.787738    1.409110
| 27> H      0.040618    0.717179    1.361201
| 28> *
| 29>
| 30>                          ****END OF INPUT****

CARTESIAN COORDINATES (ANGSTROEM)
---------------------------------
  C      2.945747   -1.326432   -0.272137
  C     -3.205462   -0.965279   -0.174465
  C      0.235796    2.251178   -0.163046
  C      2.118990   -0.257690    0.413385
  C     -1.783395   -0.782436    0.311995
  C     -0.023554    0.819576    0.264379
  O      0.911871   -0.083840   -0.314715
  O     -1.302450    0.472628   -0.168283
  H      3.881046   -1.483282    0.266831
  H      2.403192   -2.271186   -0.304900
  H      3.182130   -1.032240   -1.294481
  H     -3.603189   -1.917908    0.177985
  H     -3.848536   -0.165468    0.192996
  H     -3.241225   -0.960448   -1.263778
  H      0.138687    2.326594   -1.245260
  H      1.239390    2.563008    0.124892
  H     -0.483643    2.921348    0.306118
  H      2.680904    0.683225    0.457447
  H      1.890021   -0.550298    1.446690
  H     -1.139904   -1.586590   -0.051523
  H     -1.743586   -0.787738    1.409110
  H      0.040618    0.717179    1.361201

 Total Charge           Charge          ....    0
 Multiplicity           Mult            ....    1
 Number of Electrons    NEL             ....   66
 Basis Dimension        Dim             ....  310

ORBITAL ENERGIES
----------------

  NO   OCC          E(Eh)            E(eV)
   0   2.0000     -20.562881      -559.5445
   1   2.0000     -20.561284      -559.5010
   2   2.0000     -11.334425      -308.4254
   3   2.0000     -11.283530      -307.0405
   4   2.0000     -11.275174      -306.8131
   5   2.0000     -11.222374      -305.3763
   6   2.0000     -11.217858      -305.2534
   7   2.0000     -11.217391      -305.2407
   8   2.0000      -1.412151       -38.4266
   9   2.0000      -1.343045       -36.5461
  10   2.0000      -1.049885       -28.5688
  11   2.0000      -1.011338       -27.5199
  12   2.0000      -0.978852       -26.6359
  13   2.0000      -0.856069       -23.2948
  14   2.0000      -0.836205       -22.7543
  15   2.0000      -0.814481       -22.1632
  16   2.0000      -0.695052       -18.9133
  17   2.0000      -0.684454       -18.6249
  18   2.0000      -0.661042       -17.9879
  19   2.0000      -0.623258       -16.9597
  20   2.0000      -0.609069       -16.5736
  21   2.0000      -0.565126       -15.3779
  22   2.0000      -0.560188       -15.2435
  23   2.0000      -0.547552       -14.8997
  24   2.0000      -0.536228       -14.5915
  25   2.0000      -0.524447       -14.2709
  26   2.0000      -0.518038       -14.0965
  27   2.0000      -0.512822       -13.9546
  28   2.0000      -0.495163       -13.4741
  29   2.0000      -0.476994       -12.9797
  30   2.0000      -0.470036       -12.7903
  31   2.0000      -0.429727       -11.6935
  32   2.0000      -0.418212       -11.3801
  33   0.0000       0.035419         0.9638
  34   0.0000       0.042965         1.1691
  35   0.0000       0.044795         1.2189
  36   0.0000       0.046071         1.2537
  37   0.0000       0.058701         1.5973

MULLIKEN ATOMIC CHARGES
-----------------------
   0 C :    0.291642
   1 C :    0.246705
   2 C :    0.377243
   3 C :    0.731054
   4 C :    0.679297
   5 C :    1.014403
   6 O :   -0.999100
   7 O :   -1.033437
   8 H :   -0.058862
   9 H :   -0.062667
  10 H :   -0.063909
  11 H :   -0.046462
  12 H :   -0.040627
  13 H :   -0.032438
  14 H :    0.009048
  15 H :   -0.118298
  16 H :   -0.057015
  17 H :   -0.185263
  18 H :   -0.174530
  19 H :   -0.193087
  20 H :   -0.151933
  21 H :   -0.131766
Sum of atomic charges:    0.0000000

LOEWDIN ATOMIC CHARGES
----------------------
   0 C :    0.137647
   1 C :    0.137448
   2 C :    0.176872
   3 C :   -0.082012
   4 C :   -0.063783
   5 C :   -0.276803
   6 O :    0.024819
   7 O :    0.033249
   8 H :   -0.017028
   9 H :   -0.016776
  10 H :   -0.015292
  11 H :   -0.017960
  12 H :   -0.017476
  13 H :   -0.015622
  14 H :   -0.004471
  15 H :   -0.020682
  16 H :   -0.010640
  17 H :    0.002395
  18 H :    0.006338
  19 H :    0.003336
  20 H :    0.007475
  21 H :    0.028967

  Mayer bond orders larger than 0.100000
B(  0-C ,  3-C ) :   1.2470 B(  0-C ,  8-H ) :   0.9007 B(  0-C ,  9-H ) :   0.9594
B(  0-C , 10-H ) :   0.9572 B(  1-C ,  4-C ) :   1.2103 B(  1-C , 11-H ) :   0.9157
B(  1-C , 12-H ) :   0.9409 B(  1-C , 13-H ) :   0.9547 B(  2-C ,  5-C ) :   1.1714
B(  2-C , 14-H ) :   0.9703 B(  2-C , 15-H ) :   0.8644 B(  2-C , 16-H ) :   0.8516
B(  3-C ,  6-O ) :   0.6432 B(  3-C , 17-H ) :   0.8646 B(  3-C , 18-H ) :   0.8602
B(  4-C ,  7-O ) :   0.7047 B(  4-C , 19-H ) :   0.8434 B(  4-C , 20-H ) :   0.8451
B(  5-C ,  6-O ) :   0.4752 B(  5-C ,  7-O ) :   0.4733 B(  5-C , 15-H ) :   0.1099
B(  5-C , 21-H ) :   0.6858

MP2 TOTAL ENERGY:     -386.412602155 Eh
FINAL SINGLE POINT ENERGY      -386.412602155053

DIPOLE MOMENT
-------------
                                X             Y             Z
Electronic contribution:     -1.07714       1.48657      -0.94142
Nuclear contribution   :      1.45768      -1.61284       1.65274
                        -----------------------------------------
Total Dipole Moment    :      0.38054      -0.12627       0.71132
                        -----------------------------------------
Magnitude (a.u.)       :      0.81653
Magnitude (Debye)      :      2.07546

Rotational constants in cm-1:     0.098925     0.036115     0.028139
Rotational constants in MHz :  2965.703251  1082.688585   843.582892

                             ****ORCA TERMINATED NORMALLY****
TOTAL RUN TIME: 0 days 0 hours 1 minutes 25 seconds 746 msec
