                         Program Version 5.0.3 -  RELEASE  -
|  1> !ri-mp2 aug-cc-pvdz aug-cc-pvdz/c tightscf
|  2> %pal nprocs 16 end
|  3>
|  4> * xyz 0 1
|  5> C     -0.175224    0.514096    2.220039
|  6> C     -0.175224    0.514096   -2.220039
|  7> C     -0.175224   -0.393919    1.253232
|  8> C     -0.175224   -0.393919   -1.253232
|  9> C      0.654344   -0.322824    0.000000
| 10> H     -0.793280    0.403263    3.100778
| 11> H      0.443638    1.401787    2.165483
| 12> H     -0.793280    0.403263   -3.100778
| 13> H      0.443638    1.401787   -2.165483
| 14> H     -0.815578   -1.266462    1.348079
| 15> H     -0.815578   -1.266462   -1.348079
| 16> H      1.352792   -1.169518    0.000000
| 17> H      1.256964    0.587167    0.000000
| 18> *
| 19>
| 20>                          ****END OF INPUT****

CARTESIAN COORDINATES (ANGSTROEM)
---------------------------------
  C     -0.175224    0.514096    2.220039
  C     -0.175224    0.514096   -2.220039
  C     -0.175224   -0.393919    1.253232
  C     -0.175224   -0.393919   -1.253232
  C      0.654344   -0.322824    0.000000
  H     -0.793280    0.403263    3.100778
  H      0.443638    1.401787    2.165483
  H     -0.793280    0.403263   -3.100778
  H      0.443638    1.401787   -2.165483
  H     -0.815578   -1.266462    1.348079
  H     -0.815578   -1.266462   -1.348079
  H      1.352792   -1.169518    0.000000
  H      1.256964    0.587167    0.000000

 Total Charge           Charge          ....    0
 Multiplicity           Mult            ....    1
 Number of Electrons    NEL             ....   38
 Basis Dimension        Dim             ....  187

ORBITAL ENERGIES
----------------

  NO   OCC          E(Eh)            E(eV)
   0   2.0000     -11.242514      -305.9244
   1   2.0000     -11.242434      -305.9222
   2   2.0000     -11.240065      -305.8577
   3   2.0000     -11.227726      -305.5220
   4   2.0000     -11.227724      -305.5219
   5   2.0000      -1.099089       -29.9077
   6   2.0000      -1.034085       -28.1389
   7   2.0000      -0.931133       -25.3374
   8   2.0000      -0.773665       -21.0525
   9   2.0000      -0.759064       -20.6552
  10   2.0000      -0.642857       -17.4930
  11   2.0000      -0.638885       -17.3850
  12   2.0000      -0.594414       -16.1748
  13   2.0000      -0.565217       -15.3803
  14   2.0000      -0.545025       -14.8309
  15   2.0000      -0.492561       -13.4033
  16   2.0000      -0.492073       -13.3900
  17   2.0000      -0.366367        -9.9693
  18   2.0000      -0.361306        -9.8316
  19   0.0000       0.037623         1.0238
  20   0.0000       0.044938         1.2228
  21   0.0000       0.045429         1.2362
  22   0.0000       0.051367         1.3978
  23   0.0000       0.064999         1.7687

MULLIKEN ATOMIC CHARGES
-----------------------
   0 C :    0.436614
   1 C :    0.436614
   2 C :    0.559461
   3 C :    0.559461
   4 C :    0.103225
   5 H :   -0.287141
   6 H :   -0.302478
   7 H :   -0.287141
   8 H :   -0.302478
   9 H :   -0.443625
  10 H :   -0.443625
  11 H :    0.100669
  12 H :   -0.129553
Sum of atomic charges:   -0.0000000

LOEWDIN ATOMIC CHARGES
----------------------
   0 C :    0.160122
   1 C :    0.160122
   2 C :   -0.068246
   3 C :   -0.068246
   4 C :   -0.045849
   5 H :   -0.044808
   6 H :   -0.039501
   7 H :   -0.044808
   8 H :   -0.039501
   9 H :   -0.002007
  10 H :   -0.002007
  11 H :    0.019731
  12 H :    0.014999

  Mayer bond orders larger than 0.100000
B(  0-C ,  2-C ) :   1.9979 B(  0-C ,  5-H ) :   0.7540 B(  0-C ,  6-H ) :   0.8914
B(  1-C ,  3-C ) :   1.9979 B(  1-C ,  7-H ) :   0.7540 B(  1-C ,  8-H ) :   0.8914
B(  2-C ,  4-C ) :   1.0543 B(  2-C ,  5-H ) :   0.1612 B(  2-C ,  9-H ) :   0.7471
B(  3-C ,  4-C ) :   1.0543 B(  3-C ,  7-H ) :   0.1612 B(  3-C , 10-H ) :   0.7471
B(  4-C ,  9-H ) :  -0.1746 B(  4-C , 10-H ) :  -0.1746 B(  4-C , 11-H ) :   0.9142
B(  4-C , 12-H ) :   0.8245 B(  5-H ,  6-H ) :  -0.1890 B(  7-H ,  8-H ) :  -0.1890

MP2 TOTAL ENERGY:     -194.673930842 Eh
FINAL SINGLE POINT ENERGY      -194.673930841937

DIPOLE MOMENT
-------------
                                X             Y             Z
Electronic contribution:     -0.23539      -0.61611      -0.00000
Nuclear contribution   :      0.29263       0.51842       0.00000
                        -----------------------------------------
Total Dipole Moment    :      0.05724      -0.09769      -0.00000
                        -----------------------------------------
Magnitude (a.u.)       :      0.11323
Magnitude (Debye)      :      0.28780

Rotational constants in cm-1:     0.501208     0.083663     0.080510
Rotational constants in MHz : 15025.829930  2508.140229  2413.627334

                             ****ORCA TERMINATED NORMALLY****
TOTAL RUN TIME: 0 days 0 hours 0 minutes 40 seconds 63 msec
