                         Program Version 5.0.3 -  RELEASE  -
|  1> !ri-mp2 aug-cc-pvdz aug-cc-pvdz/c tightscf
|  2> %pal nprocs 16 end
|  3> %maxcore 3800
|  4>
|  5> * xyz 0 1
|  6> O     -2.016926   -1.216020   -0.772187
|  7> O     -1.054020   -0.153372   -1.018473
|  8> C     -0.594460    0.399667    0.242789
|  9> C     -1.748089    1.091571    0.961695
| 10> C      0.047512   -0.692223    1.111646
| 11> C      1.271993   -1.337332    0.459293
| 12> C      2.312818   -0.289435    0.056807
| 13> C      1.699456    0.775969   -0.855005
| 14> C      0.461929    1.417906   -0.220985
| 15> H     -2.812365   -0.822759   -1.154034
| 16> H     -2.514347    0.371918    1.247143
| 17> H     -2.198490    1.849073    0.318379
| 18> H     -1.393009    1.581890    1.868465
| 19> H      0.337697   -0.229451    2.059796
| 20> H     -0.704912   -1.445089    1.346701
| 21> H      0.955390   -1.894817   -0.424991
| 22> H      1.710071   -2.062943    1.147967
| 23> H      3.159370   -0.767676   -0.440398
| 24> H      2.711283    0.189455    0.958403
| 25> H      1.423587    0.321303   -1.808390
| 26> H      2.433947    1.553119   -1.077801
| 27> H     -0.005539    2.120714   -0.913867
| 28> H      0.757931    1.993648    0.660473
| 29> *
| 30>
| 31>                          ****END OF INPUT****

CARTESIAN COORDINATES (ANGSTROEM)
---------------------------------
  O     -2.016926   -1.216020   -0.772187
  O     -1.054020   -0.153372   -1.018473
  C     -0.594460    0.399667    0.242789
  C     -1.748089    1.091571    0.961695
  C      0.047512   -0.692223    1.111646
  C      1.271993   -1.337332    0.459293
  C      2.312818   -0.289435    0.056807
  C      1.699456    0.775969   -0.855005
  C      0.461929    1.417906   -0.220985
  H     -2.812365   -0.822759   -1.154034
  H     -2.514347    0.371918    1.247143
  H     -2.198490    1.849073    0.318379
  H     -1.393009    1.581890    1.868465
  H      0.337697   -0.229451    2.059796
  H     -0.704912   -1.445089    1.346701
  H      0.955390   -1.894817   -0.424991
  H      1.710071   -2.062943    1.147967
  H      3.159370   -0.767676   -0.440398
  H      2.711283    0.189455    0.958403
  H      1.423587    0.321303   -1.808390
  H      2.433947    1.553119   -1.077801
  H     -0.005539    2.120714   -0.913867
  H      0.757931    1.993648    0.660473

 Total Charge           Charge          ....    0
 Multiplicity           Mult            ....    1
 Number of Electrons    NEL             ....   72
 Basis Dimension        Dim             ....  333

ORBITAL ENERGIES
----------------

  NO   OCC          E(Eh)            E(eV)
   0   2.0000     -20.624664      -561.2256
   1   2.0000     -20.622966      -561.1794
   2   2.0000     -11.291465      -307.2564
   3   2.0000     -11.225445      -305.4599
   4   2.0000     -11.221361      -305.3488
   5   2.0000     -11.218627      -305.2744
   6   2.0000     -11.217957      -305.2561
   7   2.0000     -11.217236      -305.2365
   8   2.0000     -11.214941      -305.1741
   9   2.0000      -1.464499       -39.8510
  10   2.0000      -1.231134       -33.5009
  11   2.0000      -1.100938       -29.9580
  12   2.0000      -1.024412       -27.8757
  13   2.0000      -1.006133       -27.3783
  14   2.0000      -0.927457       -25.2374
  15   2.0000      -0.840053       -22.8590
  16   2.0000      -0.800387       -21.7796
  17   2.0000      -0.742814       -20.2130
  18   2.0000      -0.706578       -19.2270
  19   2.0000      -0.664045       -18.0696
  20   2.0000      -0.630123       -17.1465
  21   2.0000      -0.625283       -17.0148
  22   2.0000      -0.601526       -16.3684
  23   2.0000      -0.586239       -15.9524
  24   2.0000      -0.575363       -15.6564
  25   2.0000      -0.545509       -14.8441
  26   2.0000      -0.536399       -14.5962
  27   2.0000      -0.526462       -14.3258
  28   2.0000      -0.518868       -14.1191
  29   2.0000      -0.494961       -13.4686
  30   2.0000      -0.484337       -13.1795
  31   2.0000      -0.475937       -12.9509
  32   2.0000      -0.461440       -12.5564
  33   2.0000      -0.446993       -12.1633
  34   2.0000      -0.425493       -11.5783
  35   2.0000      -0.417257       -11.3541
  36   0.0000       0.035359         0.9622
  37   0.0000       0.040516         1.1025
  38   0.0000       0.043867         1.1937
  39   0.0000       0.045702         1.2436
  40   0.0000       0.060294         1.6407

MULLIKEN ATOMIC CHARGES
-----------------------
   0 O :   -0.324316
   1 O :   -0.804006
   2 C :   -2.017224
   3 C :    1.260409
   4 C :    0.838211
   5 C :    0.433974
   6 C :    0.345429
   7 C :    0.448497
   8 C :    0.677896
   9 H :    0.224479
  10 H :   -0.020346
  11 H :    0.020169
  12 H :    0.021081
  13 H :   -0.076343
  14 H :   -0.097791
  15 H :   -0.114441
  16 H :   -0.119512
  17 H :   -0.150661
  18 H :   -0.132844
  19 H :   -0.112200
  20 H :   -0.118370
  21 H :   -0.137455
  22 H :   -0.044637
Sum of atomic charges:    0.0000000

LOEWDIN ATOMIC CHARGES
----------------------
   0 O :    0.124867
   1 O :    0.036098
   2 C :   -0.430525
   3 C :    0.183797
   4 C :    0.017557
   5 C :   -0.010755
   6 C :   -0.022394
   7 C :   -0.012394
   8 C :    0.017163
   9 H :   -0.073490
  10 H :   -0.013957
  11 H :   -0.004327
  12 H :   -0.005868
  13 H :    0.026544
  14 H :    0.015441
  15 H :    0.020713
  16 H :    0.015509
  17 H :    0.014644
  18 H :    0.017343
  19 H :    0.017093
  20 H :    0.014983
  21 H :    0.023932
  22 H :    0.028026

  Mayer bond orders larger than 0.100000
B(  0-O ,  1-O ) :   0.9643 B(  0-O ,  2-C ) :  -0.4237 B(  0-O ,  9-H ) :   0.9697
B(  1-O ,  2-C ) :  -0.3819 B(  1-O ,  4-C ) :   0.1473 B(  2-C ,  3-C ) :   1.3453
B(  2-C ,  4-C ) :   0.8769 B(  2-C ,  8-C ) :   1.0317 B(  2-C , 10-H ) :   0.3833
B(  2-C , 11-H ) :   0.2677 B(  2-C , 13-H ) :   0.2432 B(  2-C , 14-H ) :   0.3040
B(  2-C , 15-H ) :   0.1425 B(  2-C , 19-H ) :   0.1569 B(  2-C , 21-H ) :   0.3693
B(  2-C , 22-H ) :   0.2471 B(  3-C ,  4-C ) :  -0.1295 B(  3-C ,  8-C ) :  -0.1438
B(  3-C , 10-H ) :   0.6688 B(  3-C , 11-H ) :   0.6379 B(  3-C , 12-H ) :   0.7787
B(  4-C ,  5-C ) :   1.1875 B(  4-C , 13-H ) :   0.7328 B(  4-C , 14-H ) :   0.6267
B(  4-C , 22-H ) :  -0.1008 B(  5-C ,  6-C ) :   1.2794 B(  5-C , 15-H ) :   0.7595
B(  5-C , 16-H ) :   0.7406 B(  6-C ,  7-C ) :   1.2810 B(  6-C , 17-H ) :   0.7494
B(  6-C , 18-H ) :   0.7585 B(  7-C ,  8-C ) :   1.1782 B(  7-C , 19-H ) :   0.7383
B(  7-C , 20-H ) :   0.7370 B(  8-C , 21-H ) :   0.6096 B(  8-C , 22-H ) :   0.7415
B( 10-H , 11-H ) :  -0.1137 B( 10-H , 12-H ) :  -0.1021 B( 13-H , 14-H ) :  -0.1725
B( 15-H , 16-H ) :  -0.1421 B( 17-H , 18-H ) :  -0.1482 B( 19-H , 20-H ) :  -0.1449
B( 21-H , 22-H ) :  -0.1518

MP2 TOTAL ENERGY:     -424.357038439 Eh
FINAL SINGLE POINT ENERGY      -424.357038439094

DIPOLE MOMENT
-------------
                                X             Y             Z
Electronic contribution:     -4.17250      -2.34547      -3.56417
Nuclear contribution   :      3.95962       2.84263       3.90500
                        -----------------------------------------
Total Dipole Moment    :     -0.21288       0.49716       0.34083
                        -----------------------------------------
Magnitude (a.u.)       :      0.63926
Magnitude (Debye)      :      1.62488

Rotational constants in cm-1:     0.078870     0.044111     0.039672
Rotational constants in MHz :  2364.464359  1322.425775  1189.324418

                             ****ORCA TERMINATED NORMALLY****
TOTAL RUN TIME: 0 days 0 hours 2 minutes 14 seconds 410 msec
