                         Program Version 5.0.3 -  RELEASE  -
|  1> !ri-mp2 aug-cc-pvdz aug-cc-pvdz/c tightscf
|  2> %pal nprocs 16 end
|  3>
|  4> * xyz 0 1
|  5> N      0.000000    0.691069   -0.992631
|  6> N      0.000000   -0.691069   -0.992631
|  7> C      0.000000   -1.080094    0.251566
|  8> N      0.000000    0.000000    1.085367
|  9> C      0.000000    1.080094    0.251566
| 10> H      0.000000   -2.100069    0.594993
| 11> H      0.000000    0.000000    2.090477
| 12> H      0.000000    2.100069    0.594993
| 13> *
| 14>
| 15>                          ****END OF INPUT****

CARTESIAN COORDINATES (ANGSTROEM)
---------------------------------
  N      0.000000    0.691069   -0.992631
  N      0.000000   -0.691069   -0.992631
  C      0.000000   -1.080094    0.251566
  N      0.000000    0.000000    1.085367
  C      0.000000    1.080094    0.251566
  H      0.000000   -2.100069    0.594993
  H      0.000000    0.000000    2.090477
  H      0.000000    2.100069    0.594993

 Total Charge           Charge          ....    0
 Multiplicity           Mult            ....    1
 Number of Electrons    NEL             ....   36
 Basis Dimension        Dim             ....  142

ORBITAL ENERGIES
----------------

  NO   OCC          E(Eh)            E(eV)
   0   2.0000     -15.649331      -425.8399
   1   2.0000     -15.592278      -424.2875
   2   2.0000     -15.591633      -424.2699
   3   2.0000     -11.317686      -307.9699
   4   2.0000     -11.317646      -307.9688
   5   2.0000      -1.406531       -38.2737
   6   2.0000      -1.223564       -33.2949
   7   2.0000      -1.103983       -30.0409
   8   2.0000      -0.860449       -23.4140
   9   2.0000      -0.846752       -23.0413
  10   2.0000      -0.787073       -21.4173
  11   2.0000      -0.648881       -17.6570
  12   2.0000      -0.632606       -17.2141
  13   2.0000      -0.627776       -17.0826
  14   2.0000      -0.485076       -13.1996
  15   2.0000      -0.435649       -11.8546
  16   2.0000      -0.432526       -11.7696
  17   2.0000      -0.370468       -10.0809
  18   0.0000       0.019604         0.5335
  19   0.0000       0.037565         1.0222
  20   0.0000       0.052131         1.4186
  21   0.0000       0.081682         2.2227
  22   0.0000       0.094174         2.5626

MULLIKEN ATOMIC CHARGES
-----------------------
   0 N :   -0.512542
   1 N :   -0.512542
   2 C :    0.861755
   3 N :   -0.443313
   4 C :    0.861755
   5 H :   -0.089946
   6 H :   -0.075221
   7 H :   -0.089946
Sum of atomic charges:    0.0000000

LOEWDIN ATOMIC CHARGES
----------------------
   0 N :   -0.024699
   1 N :   -0.024699
   2 C :   -0.034117
   3 N :    0.075731
   4 C :   -0.034117
   5 H :    0.004546
   6 H :    0.032809
   7 H :    0.004546

  Mayer bond orders larger than 0.100000
B(  0-N ,  1-N ) :   0.8765 B(  0-N ,  4-C ) :   1.4610 B(  1-N ,  2-C ) :   1.4610
B(  2-C ,  3-N ) :   0.9956 B(  2-C ,  5-H ) :   1.0144 B(  3-N ,  4-C ) :   0.9956
B(  3-N ,  6-H ) :   1.1843 B(  4-C ,  7-H ) :   1.0144

MP2 TOTAL ENERGY:     -241.610516381 Eh
FINAL SINGLE POINT ENERGY      -241.610516381462

DIPOLE MOMENT
-------------
                                X             Y             Z
Electronic contribution:     -0.00000       0.00000      -0.84862
Nuclear contribution   :      0.00000       0.00000       3.20612
                        -----------------------------------------
Total Dipole Moment    :     -0.00000       0.00000       2.35750
                        -----------------------------------------
Magnitude (a.u.)       :      2.35750
Magnitude (Debye)      :      5.99228

Rotational constants in cm-1:     0.335181     0.333229     0.167101
Rotational constants in MHz : 10048.483028  9989.949655  5009.565426

                             ****ORCA TERMINATED NORMALLY****
TOTAL RUN TIME: 0 days 0 hours 0 minutes 39 seconds 237 msec
