                         Program Version 5.0.3 -  RELEASE  -
|  1> !ri-mp2 aug-cc-pvdz aug-cc-pvdz/c tightscf
|  2> %pal nprocs 16 end
|  3>
|  4> * xyz 0 1
|  5> S     1.472597     3.116152    0.000000
|  6> S    -1.472597    -3.116152    0.000000
|  7> C     1.472597     1.273536    0.000000
|  8> C    -1.472597    -1.273536    0.000000
|  9> C     0.034763     0.765028    0.000000
| 10> C    -0.034763    -0.765028    0.000000
| 11> H     2.807152     3.283532    0.000000
| 12> H    -2.807152    -3.283532    0.000000
| 13> H    -0.487695     1.156420    0.876726
| 14> H    -0.487695     1.156420   -0.876726
| 15> H     0.487695    -1.156420    0.876726
| 16> H     0.487695    -1.156420   -0.876726
| 17> H    -2.001588    -0.922653   -0.884650
| 18> H    -2.001588    -0.922653    0.884650
| 19> H     2.001588     0.922653   -0.884650
| 20> H     2.001588     0.922653    0.884650
| 21> *
| 22>
| 23>                          ****END OF INPUT****

CARTESIAN COORDINATES (ANGSTROEM)
---------------------------------
  S      1.472597    3.116152    0.000000
  S     -1.472597   -3.116152    0.000000
  C      1.472597    1.273536    0.000000
  C     -1.472597   -1.273536    0.000000
  C      0.034763    0.765028    0.000000
  C     -0.034763   -0.765028    0.000000
  H      2.807152    3.283532    0.000000
  H     -2.807152   -3.283532    0.000000
  H     -0.487695    1.156420    0.876726
  H     -0.487695    1.156420   -0.876726
  H      0.487695   -1.156420    0.876726
  H      0.487695   -1.156420   -0.876726
  H     -2.001588   -0.922653   -0.884650
  H     -2.001588   -0.922653    0.884650
  H      2.001588    0.922653   -0.884650
  H      2.001588    0.922653    0.884650

 Total Charge           Charge          ....    0
 Multiplicity           Mult            ....    1
 Number of Electrons    NEL             ....   66
 Basis Dimension        Dim             ....  236

ORBITAL ENERGIES
----------------

  NO   OCC          E(Eh)            E(eV)
   0   2.0000     -91.956303     -2502.2582
   1   2.0000     -91.956303     -2502.2582
   2   2.0000     -11.273010      -306.7542
   3   2.0000     -11.273008      -306.7542
   4   2.0000     -11.246621      -306.0361
   5   2.0000     -11.246026      -306.0199
   6   2.0000      -8.957827      -243.7549
   7   2.0000      -8.957826      -243.7548
   8   2.0000      -6.639941      -180.6820
   9   2.0000      -6.639941      -180.6820
  10   2.0000      -6.638578      -180.6449
  11   2.0000      -6.638578      -180.6449
  12   2.0000      -6.636453      -180.5871
  13   2.0000      -6.636453      -180.5871
  14   2.0000      -1.112907       -30.2837
  15   2.0000      -1.057596       -28.7786
  16   2.0000      -0.981551       -26.7094
  17   2.0000      -0.902276       -24.5522
  18   2.0000      -0.824858       -22.4455
  19   2.0000      -0.810800       -22.0630
  20   2.0000      -0.672771       -18.3070
  21   2.0000      -0.617263       -16.7966
  22   2.0000      -0.615792       -16.7565
  23   2.0000      -0.579572       -15.7710
  24   2.0000      -0.555122       -15.1056
  25   2.0000      -0.537133       -14.6161
  26   2.0000      -0.510618       -13.8946
  27   2.0000      -0.489978       -13.3330
  28   2.0000      -0.478284       -13.0148
  29   2.0000      -0.454162       -12.3584
  30   2.0000      -0.445200       -12.1145
  31   2.0000      -0.358516        -9.7557
  32   2.0000      -0.358151        -9.7458
  33   0.0000       0.035378         0.9627
  34   0.0000       0.037541         1.0216
  35   0.0000       0.047342         1.2882
  36   0.0000       0.049160         1.3377
  37   0.0000       0.056067         1.5256

MULLIKEN ATOMIC CHARGES
-----------------------
   0 S :    0.294484
   1 S :    0.294484
   2 C :    0.099848
   3 C :    0.099848
   4 C :    0.224237
   5 C :    0.224237
   6 H :    0.080008
   7 H :    0.080008
   8 H :   -0.173186
   9 H :   -0.173186
  10 H :   -0.173186
  11 H :   -0.173186
  12 H :   -0.176102
  13 H :   -0.176102
  14 H :   -0.176102
  15 H :   -0.176102
Sum of atomic charges:   -0.0000000

LOEWDIN ATOMIC CHARGES
----------------------
   0 S :    0.707839
   1 S :    0.707839
   2 C :   -0.313999
   3 C :   -0.313999
   4 C :   -0.113394
   5 C :   -0.113394
   6 H :   -0.234027
   7 H :   -0.234027
   8 H :    0.009576
   9 H :    0.009576
  10 H :    0.009576
  11 H :    0.009576
  12 H :   -0.032786
  13 H :   -0.032786
  14 H :   -0.032786
  15 H :   -0.032786

  Mayer bond orders larger than 0.100000
B(  0-S ,  2-C ) :   1.2550 B(  0-S ,  4-C ) :  -0.1768 B(  0-S ,  6-H ) :   0.9654
B(  0-S , 14-H ) :  -0.1006 B(  0-S , 15-H ) :  -0.1006 B(  1-S ,  3-C ) :   1.2550
B(  1-S ,  5-C ) :  -0.1768 B(  1-S ,  7-H ) :   0.9654 B(  1-S , 12-H ) :  -0.1006
B(  1-S , 13-H ) :  -0.1006 B(  2-C ,  4-C ) :   1.2687 B(  2-C , 14-H ) :   0.8998
B(  2-C , 15-H ) :   0.8998 B(  3-C ,  5-C ) :   1.2687 B(  3-C , 12-H ) :   0.8998
B(  3-C , 13-H ) :   0.8998 B(  4-C ,  5-C ) :   1.3165 B(  4-C ,  8-H ) :   0.8231
B(  4-C ,  9-H ) :   0.8231 B(  4-C , 14-H ) :   0.1149 B(  4-C , 15-H ) :   0.1149
B(  5-C , 10-H ) :   0.8231 B(  5-C , 11-H ) :   0.8231 B(  5-C , 12-H ) :   0.1149
B(  5-C , 13-H ) :   0.1149

MP2 TOTAL ENERGY:     -953.267935754 Eh
FINAL SINGLE POINT ENERGY      -953.267935753960

DIPOLE MOMENT
-------------
                                X             Y             Z
Electronic contribution:      0.00000       0.00000       0.00000
Nuclear contribution   :      0.00000       0.00000       0.00000
                        -----------------------------------------
Total Dipole Moment    :      0.00000       0.00000       0.00000
                        -----------------------------------------
Magnitude (a.u.)       :      0.00000
Magnitude (Debye)      :      0.00000

Rotational constants in cm-1:     0.479630     0.018571     0.018119
Rotational constants in MHz : 14378.932993   556.743990   543.197344

                             ****ORCA TERMINATED NORMALLY****
TOTAL RUN TIME: 0 days 0 hours 0 minutes 45 seconds 600 msec
