                         Program Version 5.0.3 -  RELEASE  -
|  1> !ri-mp2 aug-cc-pvdz aug-cc-pvdz/c tightscf
|  2> %pal nprocs 16 end
|  3>
|  4> * xyz 0 1
|  5> Cl     0.249784   -0.974350    1.469255
|  6> Cl     0.249795   -0.974958   -1.468853
|  7> O     -2.276486   -0.317705    0.000014
|  8> O     -1.578642    1.732450   -0.000305
|  9> N     -1.417338    0.529360   -0.000112
| 10> C      1.046188    1.203382   -0.000248
| 11> C      0.088165    0.027254   -0.000009
| 12> C      2.523780    0.818478   -0.000164
| 13> H      0.809962    1.806954    0.875296
| 14> H      0.809968    1.806595   -0.876042
| 15> H      3.125160    1.726672   -0.000357
| 16> H      2.787839    0.239740   -0.883469
| 17> H      2.787837    0.240117    0.883389
| 18> *
| 19>
| 20>                          ****END OF INPUT****

CARTESIAN COORDINATES (ANGSTROEM)
---------------------------------
  Cl     0.249784   -0.974350    1.469255
  Cl     0.249795   -0.974958   -1.468853
  O     -2.276486   -0.317705    0.000014
  O     -1.578642    1.732450   -0.000305
  N     -1.417338    0.529360   -0.000112
  C      1.046188    1.203382   -0.000248
  C      0.088165    0.027254   -0.000009
  C      2.523780    0.818478   -0.000164
  H      0.809962    1.806954    0.875296
  H      0.809968    1.806595   -0.876042
  H      3.125160    1.726672   -0.000357
  H      2.787839    0.239740   -0.883469
  H      2.787837    0.240117    0.883389

 Total Charge           Charge          ....    0
 Multiplicity           Mult            ....    1
 Number of Electrons    NEL             ....   80
 Basis Dimension        Dim             ....  237

ORBITAL ENERGIES
----------------

  NO   OCC          E(Eh)            E(eV)
   0   2.0000    -104.876823     -2853.8434
   1   2.0000    -104.876822     -2853.8434
   2   2.0000     -20.637464      -561.5739
   3   2.0000     -20.636039      -561.5352
   4   2.0000     -15.880896      -432.1411
   5   2.0000     -11.456552      -311.7486
   6   2.0000     -11.281872      -306.9954
   7   2.0000     -11.252166      -306.1870
   8   2.0000     -10.602898      -288.5195
   9   2.0000     -10.602881      -288.5191
  10   2.0000      -8.070583      -219.6117
  11   2.0000      -8.070581      -219.6117
  12   2.0000      -8.067003      -219.5143
  13   2.0000      -8.067002      -219.5143
  14   2.0000      -8.066895      -219.5114
  15   2.0000      -8.066894      -219.5114
  16   2.0000      -1.640631       -44.6438
  17   2.0000      -1.437449       -39.1150
  18   2.0000      -1.246793       -33.9270
  19   2.0000      -1.128991       -30.7214
  20   2.0000      -1.078491       -29.3472
  21   2.0000      -1.016305       -27.6551
  22   2.0000      -0.909469       -24.7479
  23   2.0000      -0.821769       -22.3615
  24   2.0000      -0.762569       -20.7506
  25   2.0000      -0.751331       -20.4448
  26   2.0000      -0.747742       -20.3471
  27   2.0000      -0.670158       -18.2359
  28   2.0000      -0.642982       -17.4964
  29   2.0000      -0.595547       -16.2057
  30   2.0000      -0.582240       -15.8436
  31   2.0000      -0.551396       -15.0043
  32   2.0000      -0.537770       -14.6335
  33   2.0000      -0.524548       -14.2737
  34   2.0000      -0.509483       -13.8637
  35   2.0000      -0.498366       -13.5612
  36   2.0000      -0.489949       -13.3322
  37   2.0000      -0.471827       -12.8391
  38   2.0000      -0.471321       -12.8253
  39   2.0000      -0.467521       -12.7219
  40   0.0000       0.031977         0.8701
  41   0.0000       0.047689         1.2977
  42   0.0000       0.049512         1.3473
  43   0.0000       0.055337         1.5058
  44   0.0000       0.057704         1.5702

MULLIKEN ATOMIC CHARGES
-----------------------
   0 Cl:   -0.010078
   1 Cl:   -0.010077
   2 O :   -0.816071
   3 O :   -0.759792
   4 N :    0.875381
   5 C :    0.598579
   6 C :   -0.154882
   7 C :    0.365884
   8 H :    0.016849
   9 H :    0.016844
  10 H :   -0.038211
  11 H :   -0.042214
  12 H :   -0.042212
Sum of atomic charges:    0.0000000

LOEWDIN ATOMIC CHARGES
----------------------
   0 Cl:    0.603795
   1 Cl:    0.603798
   2 O :    0.079171
   3 O :    0.097572
   4 N :   -0.416806
   5 C :   -0.147210
   6 C :   -0.906796
   7 C :    0.130392
   8 H :    0.015804
   9 H :    0.015807
  10 H :   -0.012112
  11 H :   -0.031708
  12 H :   -0.031707

  Mayer bond orders larger than 0.100000
B(  0-Cl,  6-C ) :   1.0675 B(  1-Cl,  6-C ) :   1.0675 B(  2-O ,  3-O ) :   0.2107
B(  2-O ,  4-N ) :   1.1452 B(  3-O ,  4-N ) :   1.1784 B(  4-N ,  6-C ) :   0.4813
B(  5-C ,  6-C ) :   1.3055 B(  5-C ,  7-C ) :   1.1727 B(  5-C ,  8-H ) :   0.7822
B(  5-C ,  9-H ) :   0.7822 B(  6-C ,  7-C ) :  -0.1223 B(  6-C ,  8-H ) :   0.1106
B(  6-C ,  9-H ) :   0.1106 B(  7-C , 10-H ) :   0.8914 B(  7-C , 11-H ) :   0.9678
B(  7-C , 12-H ) :   0.9678

MP2 TOTAL ENERGY:    -1240.935209985 Eh
FINAL SINGLE POINT ENERGY     -1240.935209985428

DIPOLE MOMENT
-------------
                                X             Y             Z
Electronic contribution:     -7.57849      -7.96318       0.00162
Nuclear contribution   :      9.06982       8.21136      -0.00168
                        -----------------------------------------
Total Dipole Moment    :      1.49133       0.24818      -0.00006
                        -----------------------------------------
Magnitude (a.u.)       :      1.51184
Magnitude (Debye)      :      3.84279

Rotational constants in cm-1:     0.054248     0.039483     0.039342
Rotational constants in MHz :  1626.321039  1183.675149  1179.433100

                             ****ORCA TERMINATED NORMALLY****
TOTAL RUN TIME: 0 days 0 hours 0 minutes 48 seconds 680 msec
