                         Program Version 5.0.3 -  RELEASE  -
|  1> !ri-mp2 aug-cc-pvdz aug-cc-pvdz/c tightscf
|  2> %pal nprocs 16 end
|  3>
|  4> * xyz 0 1
|  5> C     0.000000     1.361787       0.000000
|  6> C    -1.217446     0.702893       0.000000
|  7> C     1.217446     0.702893       0.000000
|  8> C    -1.179342    -0.680894       0.000000
|  9> C     1.179342    -0.680894       0.000000
| 10> C     0.000000    -1.405786       0.000000
| 11> F    -2.344663    -1.353692       0.000000
| 12> F     2.344663    -1.353692       0.000000
| 13> H    -2.151626     1.242242       0.000000
| 14> H     2.151626     1.242242       0.000000
| 15> F     0.000000     2.707384       0.000000
| 16> H     0.000000    -2.484484       0.000000
| 17> *
| 18>
| 19>                          ****END OF INPUT****

CARTESIAN COORDINATES (ANGSTROEM)
---------------------------------
  C      0.000000    1.361787    0.000000
  C     -1.217446    0.702893    0.000000
  C      1.217446    0.702893    0.000000
  C     -1.179342   -0.680894    0.000000
  C      1.179342   -0.680894    0.000000
  C      0.000000   -1.405786    0.000000
  F     -2.344663   -1.353692    0.000000
  F      2.344663   -1.353692    0.000000
  H     -2.151626    1.242242    0.000000
  H      2.151626    1.242242    0.000000
  F      0.000000    2.707384    0.000000
  H      0.000000   -2.484484    0.000000

 Total Charge           Charge          ....    0
 Multiplicity           Mult            ....    1
 Number of Electrons    NEL             ....   66
 Basis Dimension        Dim             ....  234

ORBITAL ENERGIES
----------------

  NO   OCC          E(Eh)            E(eV)
   0   2.0000     -26.345741      -716.9041
   1   2.0000     -26.345741      -716.9041
   2   2.0000     -26.345741      -716.9040
   3   2.0000     -11.370571      -309.4090
   4   2.0000     -11.370563      -309.4087
   5   2.0000     -11.370563      -309.4087
   6   2.0000     -11.268581      -306.6337
   7   2.0000     -11.268581      -306.6337
   8   2.0000     -11.268545      -306.6327
   9   2.0000      -1.656292       -45.0700
  10   2.0000      -1.655328       -45.0438
  11   2.0000      -1.655327       -45.0437
  12   2.0000      -1.201316       -32.6895
  13   2.0000      -1.061716       -28.8908
  14   2.0000      -1.061715       -28.8907
  15   2.0000      -0.894459       -24.3395
  16   2.0000      -0.894459       -24.3395
  17   2.0000      -0.805378       -21.9154
  18   2.0000      -0.779913       -21.2225
  19   2.0000      -0.723830       -19.6964
  20   2.0000      -0.723694       -19.6927
  21   2.0000      -0.723694       -19.6927
  22   2.0000      -0.719292       -19.5729
  23   2.0000      -0.711787       -19.3687
  24   2.0000      -0.711787       -19.3687
  25   2.0000      -0.668316       -18.1858
  26   2.0000      -0.668316       -18.1858
  27   2.0000      -0.590465       -16.0674
  28   2.0000      -0.576829       -15.6963
  29   2.0000      -0.576829       -15.6963
  30   2.0000      -0.526739       -14.3333
  31   2.0000      -0.368682       -10.0324
  32   2.0000      -0.368682       -10.0323
  33   0.0000       0.035261         0.9595
  34   0.0000       0.043987         1.1970
  35   0.0000       0.043988         1.1970
  36   0.0000       0.087725         2.3871
  37   0.0000       0.087725         2.3871

MULLIKEN ATOMIC CHARGES
-----------------------
   0 C :    0.961140
   1 C :    0.188074
   2 C :    0.188074
   3 C :    0.961144
   4 C :    0.961144
   5 C :    0.188077
   6 F :   -0.798245
   7 F :   -0.798245
   8 H :   -0.350972
   9 H :   -0.350972
  10 F :   -0.798245
  11 H :   -0.350973
Sum of atomic charges:    0.0000000

LOEWDIN ATOMIC CHARGES
----------------------
   0 C :   -0.184144
   1 C :    0.090838
   2 C :    0.090838
   3 C :   -0.184143
   4 C :   -0.184143
   5 C :    0.090837
   6 F :    0.074448
   7 F :    0.074448
   8 H :    0.018858
   9 H :    0.018858
  10 F :    0.074447
  11 H :    0.018859

  Mayer bond orders larger than 0.100000
B(  0-C ,  1-C ) :   1.6114 B(  0-C ,  2-C ) :   1.6114 B(  0-C ,  3-C ) :  -0.1799
B(  0-C ,  4-C ) :  -0.1799 B(  0-C ,  8-H ) :   0.1139 B(  0-C ,  9-H ) :   0.1139
B(  0-C , 10-F ) :  -0.4043 B(  1-C ,  2-C ) :   0.2621 B(  1-C ,  3-C ) :   1.6114
B(  1-C ,  5-C ) :   0.2621 B(  1-C ,  6-F ) :   0.2729 B(  1-C ,  8-H ) :   0.4691
B(  1-C , 10-F ) :   0.2729 B(  2-C ,  4-C ) :   1.6114 B(  2-C ,  5-C ) :   0.2621
B(  2-C ,  7-F ) :   0.2729 B(  2-C ,  9-H ) :   0.4691 B(  2-C , 10-F ) :   0.2729
B(  3-C ,  4-C ) :  -0.1799 B(  3-C ,  5-C ) :   1.6114 B(  3-C ,  6-F ) :  -0.4043
B(  3-C ,  8-H ) :   0.1139 B(  3-C , 11-H ) :   0.1139 B(  4-C ,  5-C ) :   1.6114
B(  4-C ,  7-F ) :  -0.4043 B(  4-C ,  9-H ) :   0.1139 B(  4-C , 11-H ) :   0.1139
B(  5-C ,  6-F ) :   0.2729 B(  5-C ,  7-F ) :   0.2729 B(  5-C , 11-H ) :   0.4691

MP2 TOTAL ENERGY:     -528.711329162 Eh
FINAL SINGLE POINT ENERGY      -528.711329161765

DIPOLE MOMENT
-------------
                                X             Y             Z
Electronic contribution:      0.00000      -0.00000       0.00000
Nuclear contribution   :      0.00000       0.00000       0.00000
                        -----------------------------------------
Total Dipole Moment    :      0.00000      -0.00000       0.00000
                        -----------------------------------------
Magnitude (a.u.)       :      0.00000
Magnitude (Debye)      :      0.00001

Rotational constants in cm-1:     0.058690     0.058690     0.029345
Rotational constants in MHz :  1759.495856  1759.495204   879.747765

                             ****ORCA TERMINATED NORMALLY****
TOTAL RUN TIME: 0 days 0 hours 0 minutes 57 seconds 586 msec
