                         Program Version 5.0.3 -  RELEASE  -
|  1> !ri-mp2 aug-cc-pvdz aug-cc-pvdz/c tightscf
|  2> %pal nprocs 16 end
|  3>
|  4> * xyz 0 1
|  5> C      0.898943    1.042679    0.000000
|  6> C     -0.321603    0.166943    0.000000
|  7> F     -0.321603   -0.652153    1.102135
|  8> F     -0.321603   -0.652153   -1.102135
|  9> H      1.793325    0.421274    0.000000
| 10> H      0.899762    1.674835   -0.886681
| 11> H      0.899762    1.674835    0.886681
| 12> H     -1.268028    0.710080    0.000000
| 13> *
| 14>
| 15>                          ****END OF INPUT****

CARTESIAN COORDINATES (ANGSTROEM)
---------------------------------
  C      0.898943    1.042679    0.000000
  C     -0.321603    0.166943    0.000000
  F     -0.321603   -0.652153    1.102135
  F     -0.321603   -0.652153   -1.102135
  H      1.793325    0.421274    0.000000
  H      0.899762    1.674835   -0.886681
  H      0.899762    1.674835    0.886681
  H     -1.268028    0.710080    0.000000

 Total Charge           Charge          ....    0
 Multiplicity           Mult            ....    1
 Number of Electrons    NEL             ....   34
 Basis Dimension        Dim             ....  128

ORBITAL ENERGIES
----------------

  NO   OCC          E(Eh)            E(eV)
   0   2.0000     -26.315897      -716.0920
   1   2.0000     -26.315878      -716.0915
   2   2.0000     -11.415090      -310.6204
   3   2.0000     -11.250242      -306.1346
   4   2.0000      -1.654421       -45.0191
   5   2.0000      -1.594458       -43.3874
   6   2.0000      -1.054698       -28.6998
   7   2.0000      -0.894166       -24.3315
   8   2.0000      -0.771843       -21.0029
   9   2.0000      -0.751458       -20.4482
  10   2.0000      -0.723420       -19.6852
  11   2.0000      -0.660897       -17.9839
  12   2.0000      -0.623965       -16.9790
  13   2.0000      -0.616778       -16.7834
  14   2.0000      -0.571362       -15.5476
  15   2.0000      -0.564208       -15.3529
  16   2.0000      -0.518763       -14.1163
  17   0.0000       0.033898         0.9224
  18   0.0000       0.046228         1.2579
  19   0.0000       0.055080         1.4988
  20   0.0000       0.064043         1.7427
  21   0.0000       0.107175         2.9164

MULLIKEN ATOMIC CHARGES
-----------------------
   0 C :    0.092568
   1 C :    1.360446
   2 F :   -0.618401
   3 F :   -0.618401
   4 H :   -0.013236
   5 H :   -0.003266
   6 H :   -0.003266
   7 H :   -0.196444
Sum of atomic charges:   -0.0000000

LOEWDIN ATOMIC CHARGES
----------------------
   0 C :    0.162921
   1 C :   -0.201606
   2 F :    0.020495
   3 F :    0.020495
   4 H :   -0.004833
   5 H :   -0.008752
   6 H :   -0.008752
   7 H :    0.020031

  Mayer bond orders larger than 0.100000
B(  0-C ,  1-C ) :   1.3222 B(  0-C ,  4-H ) :   0.9325 B(  0-C ,  5-H ) :   0.9278
B(  0-C ,  6-H ) :   0.9278 B(  1-C ,  2-F ) :   0.3371 B(  1-C ,  3-F ) :   0.3371
B(  1-C ,  7-H ) :   0.9024

MP2 TOTAL ENERGY:     -277.682417625 Eh
FINAL SINGLE POINT ENERGY      -277.682417625346

DIPOLE MOMENT
-------------
                                X             Y             Z
Electronic contribution:     -2.72140      -4.57312       0.00000
Nuclear contribution   :      2.86165       5.57738       0.00000
                        -----------------------------------------
Total Dipole Moment    :      0.14025       1.00425       0.00000
                        -----------------------------------------
Magnitude (a.u.)       :      1.01400
Magnitude (Debye)      :      2.57739

Rotational constants in cm-1:     0.313980     0.297633     0.171272
Rotational constants in MHz :  9412.884371  8922.827125  5134.596365

                             ****ORCA TERMINATED NORMALLY****
TOTAL RUN TIME: 0 days 0 hours 0 minutes 25 seconds 179 msec
