                         Program Version 5.0.3 -  RELEASE  -
|  1> !ri-mp2 aug-cc-pvdz aug-cc-pvdz/c tightscf
|  2> %pal nprocs 16 end
|  3> %maxcore 3800
|  4>
|  5> * xyz 0 1
|  6> C     -0.072264    1.827345   -0.349034
|  7> C      0.072264   -1.827345    0.349034
|  8> C     -1.374617    2.108960   -0.034074
|  9> C      1.374617   -2.108960    0.034074
| 10> C      1.779072    0.182743   -0.544682
| 11> C     -1.779072   -0.182743    0.544682
| 12> C      0.438570    0.512106   -0.228855
| 13> C     -0.438570   -0.512106    0.228855
| 14> C     -2.259063    1.098577    0.422509
| 15> C      2.259063   -1.098577   -0.422509
| 16> C     -3.684425    1.447260    0.756865
| 17> C      3.684425   -1.447260   -0.756865
| 18> H      0.585539    2.614560   -0.696015
| 19> H     -0.585539   -2.614560    0.696015
| 20> H     -1.742638    3.122803   -0.134031
| 21> H      1.742638   -3.122803    0.134031
| 22> H      2.435555    0.972293   -0.891642
| 23> H     -2.435555   -0.972293    0.891642
| 24> H     -4.237087    0.574737    1.102510
| 25> H     -3.731712    2.207391    1.539862
| 26> H     -4.206005    1.852269   -0.113324
| 27> H      4.206005   -1.852269    0.113324
| 28> H      3.731712   -2.207391   -1.539862
| 29> H      4.237087   -0.574737   -1.102510
| 30> *
| 31>
| 32>                          ****END OF INPUT****

CARTESIAN COORDINATES (ANGSTROEM)
---------------------------------
  C     -0.072264    1.827345   -0.349034
  C      0.072264   -1.827345    0.349034
  C     -1.374617    2.108960   -0.034074
  C      1.374617   -2.108960    0.034074
  C      1.779072    0.182743   -0.544682
  C     -1.779072   -0.182743    0.544682
  C      0.438570    0.512106   -0.228855
  C     -0.438570   -0.512106    0.228855
  C     -2.259063    1.098577    0.422509
  C      2.259063   -1.098577   -0.422509
  C     -3.684425    1.447260    0.756865
  C      3.684425   -1.447260   -0.756865
  H      0.585539    2.614560   -0.696015
  H     -0.585539   -2.614560    0.696015
  H     -1.742638    3.122803   -0.134031
  H      1.742638   -3.122803    0.134031
  H      2.435555    0.972293   -0.891642
  H     -2.435555   -0.972293    0.891642
  H     -4.237087    0.574737    1.102510
  H     -3.731712    2.207391    1.539862
  H     -4.206005    1.852269   -0.113324
  H      4.206005   -1.852269    0.113324
  H      3.731712   -2.207391   -1.539862
  H      4.237087   -0.574737   -1.102510

 Total Charge           Charge          ....    0
 Multiplicity           Mult            ....    1
 Number of Electrons    NEL             ....   84
 Basis Dimension        Dim             ....  384

ORBITAL ENERGIES
----------------

  NO   OCC          E(Eh)            E(eV)
   0   2.0000     -11.243798      -305.9593
   1   2.0000     -11.243798      -305.9593
   2   2.0000     -11.241738      -305.9032
   3   2.0000     -11.240729      -305.8758
   4   2.0000     -11.238151      -305.8056
   5   2.0000     -11.238113      -305.8046
   6   2.0000     -11.234879      -305.7166
   7   2.0000     -11.234878      -305.7166
   8   2.0000     -11.232249      -305.6450
   9   2.0000     -11.232242      -305.6449
  10   2.0000     -11.229672      -305.5749
  11   2.0000     -11.229671      -305.5749
  12   2.0000      -1.178669       -32.0732
  13   2.0000      -1.122772       -30.5522
  14   2.0000      -1.053105       -28.6564
  15   2.0000      -1.047215       -28.4962
  16   2.0000      -0.987981       -26.8843
  17   2.0000      -0.966577       -26.3019
  18   2.0000      -0.907579       -24.6965
  19   2.0000      -0.849002       -23.1025
  20   2.0000      -0.811517       -22.0825
  21   2.0000      -0.798838       -21.7375
  22   2.0000      -0.696022       -18.9397
  23   2.0000      -0.687588       -18.7102
  24   2.0000      -0.661960       -18.0129
  25   2.0000      -0.619137       -16.8476
  26   2.0000      -0.598739       -16.2925
  27   2.0000      -0.597541       -16.2599
  28   2.0000      -0.577759       -15.7216
  29   2.0000      -0.577418       -15.7124
  30   2.0000      -0.573106       -15.5950
  31   2.0000      -0.550662       -14.9843
  32   2.0000      -0.537046       -14.6138
  33   2.0000      -0.530613       -14.4387
  34   2.0000      -0.516348       -14.0506
  35   2.0000      -0.505412       -13.7530
  36   2.0000      -0.479998       -13.0614
  37   2.0000      -0.468822       -12.7573
  38   2.0000      -0.429870       -11.6974
  39   2.0000      -0.379406       -10.3242
  40   2.0000      -0.307134        -8.3575
  41   2.0000      -0.282394        -7.6843
  42   0.0000       0.035555         0.9675
  43   0.0000       0.035645         0.9700
  44   0.0000       0.038611         1.0507
  45   0.0000       0.047981         1.3056
  46   0.0000       0.052490         1.4283

MULLIKEN ATOMIC CHARGES
-----------------------
   0 C :    0.613358
   1 C :    0.613364
   2 C :    0.051274
   3 C :    0.051271
   4 C :    0.811334
   5 C :    0.811327
   6 C :    0.385837
   7 C :    0.385845
   8 C :   -0.439919
   9 C :   -0.439921
  10 C :    0.498610
  11 C :    0.498608
  12 H :   -0.675927
  13 H :   -0.675927
  14 H :   -0.665480
  15 H :   -0.665481
  16 H :   -0.625499
  17 H :   -0.625499
  18 H :   -0.205524
  19 H :    0.123793
  20 H :    0.128143
  21 H :    0.128143
  22 H :    0.123793
  23 H :   -0.205523
Sum of atomic charges:   -0.0000000

LOEWDIN ATOMIC CHARGES
----------------------
   0 C :    0.056718
   1 C :    0.056718
   2 C :    0.046794
   3 C :    0.046794
   4 C :    0.082284
   5 C :    0.082284
   6 C :   -0.134237
   7 C :   -0.134237
   8 C :   -0.215192
   9 C :   -0.215192
  10 C :    0.172193
  11 C :    0.172193
  12 H :    0.007864
  13 H :    0.007864
  14 H :    0.006994
  15 H :    0.006994
  16 H :    0.009362
  17 H :    0.009362
  18 H :   -0.015595
  19 H :   -0.008712
  20 H :   -0.008471
  21 H :   -0.008471
  22 H :   -0.008712
  23 H :   -0.015595

  Mayer bond orders larger than 0.100000
B(  0-C ,  2-C ) :   2.8538 B(  0-C ,  3-C ) :  -0.1423 B(  0-C ,  4-C ) :  -1.6591
B(  0-C ,  6-C ) :   0.8557 B(  0-C ,  7-C ) :  -0.6549 B(  0-C ,  8-C ) :  -0.1531
B(  0-C ,  9-C ) :   0.2921 B(  0-C , 10-C ) :   0.2364 B(  0-C , 12-H ) :  -1.1946
B(  0-C , 14-H ) :   0.4470 B(  0-C , 16-H ) :  -0.1057 B(  1-C ,  2-C ) :  -0.1423
B(  1-C ,  3-C ) :   2.8538 B(  1-C ,  5-C ) :  -1.6591 B(  1-C ,  6-C ) :  -0.6549
B(  1-C ,  7-C ) :   0.8557 B(  1-C ,  8-C ) :   0.2921 B(  1-C ,  9-C ) :  -0.1531
B(  1-C , 11-C ) :   0.2364 B(  1-C , 13-H ) :  -1.1946 B(  1-C , 15-H ) :   0.4470
B(  1-C , 17-H ) :  -0.1057 B(  2-C ,  3-C ) :   0.4188 B(  2-C ,  4-C ) :   0.3828
B(  2-C ,  5-C ) :  -0.4404 B(  2-C ,  6-C ) :  -1.3626 B(  2-C ,  7-C ) :  -0.1438
B(  2-C ,  8-C ) :   1.3934 B(  2-C ,  9-C ) :   0.4826 B(  2-C , 10-C ) :  -0.8545
B(  2-C , 12-H ) :   0.5951 B(  2-C , 14-H ) :  -0.4352 B(  3-C ,  4-C ) :  -0.4405
B(  3-C ,  5-C ) :   0.3828 B(  3-C ,  6-C ) :  -0.1439 B(  3-C ,  7-C ) :  -1.3626
B(  3-C ,  8-C ) :   0.4826 B(  3-C ,  9-C ) :   1.3934 B(  3-C , 11-C ) :  -0.8545
B(  3-C , 13-H ) :   0.5950 B(  3-C , 15-H ) :  -0.4352 B(  4-C ,  5-C ) :  -0.1572
B(  4-C ,  6-C ) :   2.5742 B(  4-C ,  7-C ) :  -2.0129 B(  4-C ,  8-C ) :  -0.1596
B(  4-C ,  9-C ) :   2.3949 B(  4-C , 10-C ) :   0.1356 B(  4-C , 11-C ) :  -0.5041
B(  4-C , 12-H ) :  -0.1945 B(  4-C , 13-H ) :   0.1432 B(  4-C , 16-H ) :  -0.9497
B(  5-C ,  6-C ) :  -2.0129 B(  5-C ,  7-C ) :   2.5742 B(  5-C ,  8-C ) :   2.3949
B(  5-C ,  9-C ) :  -0.1596 B(  5-C , 10-C ) :  -0.5041 B(  5-C , 11-C ) :   0.1356
B(  5-C , 12-H ) :   0.1432 B(  5-C , 13-H ) :  -0.1945 B(  5-C , 17-H ) :  -0.9497
B(  6-C ,  7-C ) :   3.7806 B(  6-C ,  8-C ) :   0.7760 B(  6-C ,  9-C ) :  -1.2868
B(  6-C , 11-C ) :   0.4084 B(  6-C , 12-H ) :   1.4263 B(  6-C , 15-H ) :  -0.1184
B(  6-C , 16-H ) :   1.4185 B(  6-C , 23-H ) :   0.1784 B(  7-C ,  8-C ) :  -1.2868
B(  7-C ,  9-C ) :   0.7760 B(  7-C , 10-C ) :   0.4084 B(  7-C , 13-H ) :   1.4263
B(  7-C , 14-H ) :  -0.1184 B(  7-C , 17-H ) :   1.4185 B(  7-C , 18-H ) :   0.1784
B(  8-C ,  9-C ) :   0.3762 B(  8-C , 10-C ) :   1.5129 B(  8-C , 12-H ) :  -0.2784
B(  8-C , 14-H ) :   0.5968 B(  8-C , 17-H ) :   0.2249 B(  8-C , 18-H ) :   0.5257
B(  8-C , 19-H ) :   0.1731 B(  8-C , 20-H ) :   0.1741 B(  9-C , 11-C ) :   1.5129
B(  9-C , 13-H ) :  -0.2784 B(  9-C , 15-H ) :   0.5968 B(  9-C , 16-H ) :   0.2249
B(  9-C , 21-H ) :   0.1741 B(  9-C , 22-H ) :   0.1731 B(  9-C , 23-H ) :   0.5257
B( 10-C , 14-H ) :   0.1181 B( 10-C , 18-H ) :   0.4350 B( 10-C , 19-H ) :   0.8568
B( 10-C , 20-H ) :   0.8589 B( 11-C , 15-H ) :   0.1181 B( 11-C , 21-H ) :   0.8589
B( 11-C , 22-H ) :   0.8568 B( 11-C , 23-H ) :   0.4350

MP2 TOTAL ENERGY:     -463.121820670 Eh
FINAL SINGLE POINT ENERGY      -463.121820669725

DIPOLE MOMENT
-------------
                                X             Y             Z
Electronic contribution:      0.00000       0.00000      -0.00000
Nuclear contribution   :      0.00000       0.00000       0.00000
                        -----------------------------------------
Total Dipole Moment    :      0.00000       0.00000      -0.00000
                        -----------------------------------------
Magnitude (a.u.)       :      0.00000
Magnitude (Debye)      :      0.00000

Rotational constants in cm-1:     0.089865     0.019276     0.015965
Rotational constants in MHz :  2694.070583   577.865424   478.608726

                             ****ORCA TERMINATED NORMALLY****
TOTAL RUN TIME: 0 days 0 hours 2 minutes 40 seconds 476 msec
