                         Program Version 5.0.3 -  RELEASE  -
|  1> !ri-mp2 aug-cc-pvdz aug-cc-pvdz/c tightscf
|  2> %pal nprocs 16 end
|  3>
|  4> * xyz 0 1
|  5> Cl    -2.331716    0.385323   -0.842661
|  6> O      0.800067    1.956894    0.684740
|  7> O      1.924475   -1.710939   -0.590900
|  8> N      0.559473   -0.319605    0.435360
|  9> N      0.933917   -1.565968    0.100956
| 10> N      2.266673    0.888042   -0.680548
| 11> C      1.219264    0.950722    0.158620
| 12> C     -0.659018   -0.298092    1.257074
| 13> C     -1.897922   -0.742235    0.503473
| 14> H      2.749788    1.749947   -0.864293
| 15> H      2.588978   -0.000540   -1.031486
| 16> H     -0.513599   -0.974263    2.100509
| 17> H     -0.765445    0.714099    1.630691
| 18> H     -2.748841   -0.765557    1.178688
| 19> H     -1.762439   -1.721470    0.055027
| 20> *
| 21>
| 22>                          ****END OF INPUT****

CARTESIAN COORDINATES (ANGSTROEM)
---------------------------------
  Cl    -2.331716    0.385323   -0.842661
  O      0.800067    1.956894    0.684740
  O      1.924475   -1.710939   -0.590900
  N      0.559473   -0.319605    0.435360
  N      0.933917   -1.565968    0.100956
  N      2.266673    0.888042   -0.680548
  C      1.219264    0.950722    0.158620
  C     -0.659018   -0.298092    1.257074
  C     -1.897922   -0.742235    0.503473
  H      2.749788    1.749947   -0.864293
  H      2.588978   -0.000540   -1.031486
  H     -0.513599   -0.974263    2.100509
  H     -0.765445    0.714099    1.630691
  H     -2.748841   -0.765557    1.178688
  H     -1.762439   -1.721470    0.055027

 Total Charge           Charge          ....    0
 Multiplicity           Mult            ....    1
 Number of Electrons    NEL             ....   78
 Basis Dimension        Dim             ....  265

ORBITAL ENERGIES
----------------

  NO   OCC          E(Eh)            E(eV)
   0   2.0000    -104.830197     -2852.5747
   1   2.0000     -20.636736      -561.5541
   2   2.0000     -20.555630      -559.3471
   3   2.0000     -15.775536      -429.2742
   4   2.0000     -15.672033      -426.4577
   5   2.0000     -15.607861      -424.7115
   6   2.0000     -11.425174      -310.8948
   7   2.0000     -11.317384      -307.9617
   8   2.0000     -11.305485      -307.6379
   9   2.0000     -10.556074      -287.2454
  10   2.0000      -8.023711      -218.3363
  11   2.0000      -8.020572      -218.2509
  12   2.0000      -8.020489      -218.2486
  13   2.0000      -1.557044       -42.3693
  14   2.0000      -1.431219       -38.9454
  15   2.0000      -1.309988       -35.6466
  16   2.0000      -1.241035       -33.7703
  17   2.0000      -1.145510       -31.1709
  18   2.0000      -1.034410       -28.1477
  19   2.0000      -0.983043       -26.7499
  20   2.0000      -0.883878       -24.0515
  21   2.0000      -0.818679       -22.2774
  22   2.0000      -0.764339       -20.7987
  23   2.0000      -0.755581       -20.5604
  24   2.0000      -0.706611       -19.2279
  25   2.0000      -0.697426       -18.9779
  26   2.0000      -0.655919       -17.8485
  27   2.0000      -0.646554       -17.5936
  28   2.0000      -0.627805       -17.0834
  29   2.0000      -0.601446       -16.3662
  30   2.0000      -0.598860       -16.2958
  31   2.0000      -0.579954       -15.7814
  32   2.0000      -0.529055       -14.3963
  33   2.0000      -0.483658       -13.1610
  34   2.0000      -0.452757       -12.3201
  35   2.0000      -0.443668       -12.0728
  36   2.0000      -0.442354       -12.0371
  37   2.0000      -0.436857       -11.8875
  38   2.0000      -0.427476       -11.6322
  39   0.0000       0.032473         0.8836
  40   0.0000       0.036064         0.9814
  41   0.0000       0.051067         1.3896
  42   0.0000       0.053012         1.4425
  43   0.0000       0.067218         1.8291

MULLIKEN ATOMIC CHARGES
-----------------------
   0 Cl:   -0.133149
   1 O :   -0.694004
   2 O :   -0.693830
   3 N :   -0.227043
   4 N :    0.173546
   5 N :   -0.130680
   6 C :    1.147765
   7 C :    0.692872
   8 C :    0.028671
   9 H :   -0.027591
  10 H :    0.061767
  11 H :   -0.113712
  12 H :   -0.176290
  13 H :    0.044838
  14 H :    0.046840
Sum of atomic charges:   -0.0000000

LOEWDIN ATOMIC CHARGES
----------------------
   0 Cl:    0.476836
   1 O :    0.053362
   2 O :    0.017336
   3 N :   -0.095644
   4 N :    0.033756
   5 N :    0.307211
   6 C :   -0.341426
   7 C :   -0.035535
   8 C :   -0.298991
   9 H :    0.004339
  10 H :   -0.085814
  11 H :    0.024458
  12 H :   -0.000725
  13 H :   -0.025306
  14 H :   -0.033860

  Mayer bond orders larger than 0.100000
B(  0-Cl,  3-N ) :  -0.1013 B(  0-Cl,  8-C ) :   1.1960 B(  1-O ,  6-C ) :   1.5808
B(  2-O ,  3-N ) :   0.1083 B(  2-O ,  4-N ) :   1.0936 B(  3-N ,  4-N ) :   0.7393
B(  3-N ,  6-C ) :   0.8920 B(  3-N ,  7-C ) :   0.7645 B(  3-N ,  8-C ) :  -0.1247
B(  4-N ,  6-C ) :  -0.1261 B(  5-N ,  6-C ) :   0.9949 B(  5-N ,  9-H ) :   1.0636
B(  5-N , 10-H ) :   1.0603 B(  7-C ,  8-C ) :   1.2698 B(  7-C , 11-H ) :   0.8807
B(  7-C , 12-H ) :   0.8739 B(  8-C , 13-H ) :   0.8774 B(  8-C , 14-H ) :   0.9185
B(  9-H , 10-H ) :  -0.1054 B( 11-H , 12-H ) :  -0.1094

MP2 TOTAL ENERGY:     -891.157119004 Eh
FINAL SINGLE POINT ENERGY      -891.157119003562

DIPOLE MOMENT
-------------
                                X             Y             Z
Electronic contribution:     -2.61119       0.92269      -3.67208
Nuclear contribution   :      2.85081      -1.49921       4.13249
                        -----------------------------------------
Total Dipole Moment    :      0.23961      -0.57652       0.46041
                        -----------------------------------------
Magnitude (a.u.)       :      0.77573
Magnitude (Debye)      :      1.97176

Rotational constants in cm-1:     0.063373     0.032199     0.026736
Rotational constants in MHz :  1899.889318   965.287850   801.521441

                             ****ORCA TERMINATED NORMALLY****
TOTAL RUN TIME: 0 days 0 hours 1 minutes 20 seconds 224 msec
