                         Program Version 5.0.3 -  RELEASE  -
|  1> !ri-mp2 aug-cc-pvdz aug-cc-pvdz/c tightscf
|  2> %pal nprocs 16 end
|  3>
|  4> * xyz 0 1
|  5> C    -0.987747    -0.732496    0.000000
|  6> C    -0.987747     0.732496    0.000000
|  7> C     0.280659    -1.176401    0.000000
|  8> C     0.280659     1.176401    0.000000
|  9> C     1.213319     0.000000    0.000000
| 10> H    -1.877331    -1.345222    0.000000
| 11> H    -1.877331     1.345222    0.000000
| 12> H     0.605805    -2.205253    0.000000
| 13> H     0.605805     2.205253    0.000000
| 14> H     1.874095     0.000000    0.874476
| 15> H     1.874095     0.000000   -0.874476
| 16> *
| 17>
| 18>                          ****END OF INPUT****

CARTESIAN COORDINATES (ANGSTROEM)
---------------------------------
  C     -0.987747   -0.732496    0.000000
  C     -0.987747    0.732496    0.000000
  C      0.280659   -1.176401    0.000000
  C      0.280659    1.176401    0.000000
  C      1.213319    0.000000    0.000000
  H     -1.877331   -1.345222    0.000000
  H     -1.877331    1.345222    0.000000
  H      0.605805   -2.205253    0.000000
  H      0.605805    2.205253    0.000000
  H      1.874095    0.000000    0.874476
  H      1.874095    0.000000   -0.874476

 Total Charge           Charge          ....    0
 Multiplicity           Mult            ....    1
 Number of Electrons    NEL             ....   36
 Basis Dimension        Dim             ....  169

ORBITAL ENERGIES
----------------

  NO   OCC          E(Eh)            E(eV)
   0   2.0000     -11.235533      -305.7344
   1   2.0000     -11.232775      -305.6594
   2   2.0000     -11.232273      -305.6457
   3   2.0000     -11.230868      -305.6074
   4   2.0000     -11.230650      -305.6015
   5   2.0000      -1.154258       -31.4090
   6   2.0000      -0.966766       -26.3070
   7   2.0000      -0.956777       -26.0352
   8   2.0000      -0.756431       -20.5835
   9   2.0000      -0.727716       -19.8022
  10   2.0000      -0.696794       -18.9607
  11   2.0000      -0.591474       -16.0948
  12   2.0000      -0.561361       -15.2754
  13   2.0000      -0.528414       -14.3789
  14   2.0000      -0.507411       -13.8074
  15   2.0000      -0.502209       -13.6658
  16   2.0000      -0.413191       -11.2435
  17   2.0000      -0.307312        -8.3624
  18   0.0000       0.036948         1.0054
  19   0.0000       0.044684         1.2159
  20   0.0000       0.045402         1.2355
  21   0.0000       0.057221         1.5571
  22   0.0000       0.061456         1.6723

MULLIKEN ATOMIC CHARGES
-----------------------
   0 C :    0.242343
   1 C :    0.242343
   2 C :    0.359749
   3 C :    0.359749
   4 C :   -0.034695
   5 H :   -0.311971
   6 H :   -0.311971
   7 H :   -0.278224
   8 H :   -0.278224
   9 H :    0.005450
  10 H :    0.005450
Sum of atomic charges:   -0.0000000

LOEWDIN ATOMIC CHARGES
----------------------
   0 C :   -0.001506
   1 C :   -0.001506
   2 C :    0.018646
   3 C :    0.018646
   4 C :   -0.035349
   5 H :   -0.010443
   6 H :   -0.010443
   7 H :   -0.012132
   8 H :   -0.012132
   9 H :    0.023109
  10 H :    0.023109

  Mayer bond orders larger than 0.100000
B(  0-C ,  1-C ) :   1.5634 B(  0-C ,  2-C ) :   2.1122 B(  0-C ,  3-C ) :  -0.1381
B(  0-C ,  5-H ) :   0.7119 B(  1-C ,  2-C ) :  -0.1381 B(  1-C ,  3-C ) :   2.1122
B(  1-C ,  6-H ) :   0.7119 B(  2-C ,  4-C ) :   1.2290 B(  2-C ,  5-H ) :   0.1032
B(  2-C ,  7-H ) :   0.7624 B(  3-C ,  4-C ) :   1.2290 B(  3-C ,  6-H ) :   0.1032
B(  3-C ,  8-H ) :   0.7624 B(  4-C ,  9-H ) :   0.8085 B(  4-C , 10-H ) :   0.8085

MP2 TOTAL ENERGY:     -193.500064490 Eh
FINAL SINGLE POINT ENERGY      -193.500064490226

DIPOLE MOMENT
-------------
                                X             Y             Z
Electronic contribution:     -1.07845       0.00000       0.00000
Nuclear contribution   :      1.23262       0.00000       0.00000
                        -----------------------------------------
Total Dipole Moment    :      0.15418       0.00000       0.00000
                        -----------------------------------------
Magnitude (a.u.)       :      0.15418
Magnitude (Debye)      :      0.39189

Rotational constants in cm-1:     0.283528     0.275779     0.143468
Rotational constants in MHz :  8499.965825  8267.633492  4301.072305

                             ****ORCA TERMINATED NORMALLY****
TOTAL RUN TIME: 0 days 0 hours 0 minutes 29 seconds 440 msec
