                         Program Version 5.0.3 -  RELEASE  -
|  1> !ri-mp2 aug-cc-pvdz aug-cc-pvdz/c tightscf
|  2> %pal nprocs 16 end
|  3> %maxcore 3800
|  4>
|  5> * xyz 0 1
|  6> C     0.258550    2.382485    0.824917
|  7> C     2.419735   -0.329563   -1.144869
|  8> C     0.651202   -1.608396    1.651249
|  9> C     0.344674    0.105814   -0.045876
| 10> C    -1.170238   -0.211734   -0.324776
| 11> O     0.585595    1.459026   -0.221890
| 12> O     1.018793   -0.603637   -1.020083
| 13> O     0.713817   -0.233280    1.257402
| 14> F    -1.581732    0.353567   -1.464232
| 15> F    -1.943092    0.265655    0.672940
| 16> F    -1.406607   -1.532928   -0.413131
| 17> H    -0.817668    2.438539    0.985805
| 18> H     0.620817    3.344736    0.473213
| 19> H     0.757167    2.116247    1.753875
| 20> H     2.924788   -0.411858   -0.181994
| 21> H     2.583857    0.662861   -1.559989
| 22> H     2.802661   -1.084794   -1.825432
| 23> H     1.042909   -2.260936    0.872164
| 24> H    -0.370179   -1.902674    1.893061
| 25> H     1.269351   -1.687276    2.541803
| 26> *
| 27>
| 28>                          ****END OF INPUT****

CARTESIAN COORDINATES (ANGSTROEM)
---------------------------------
  C      0.258550    2.382485    0.824917
  C      2.419735   -0.329563   -1.144869
  C      0.651202   -1.608396    1.651249
  C      0.344674    0.105814   -0.045876
  C     -1.170238   -0.211734   -0.324776
  O      0.585595    1.459026   -0.221890
  O      1.018793   -0.603637   -1.020083
  O      0.713817   -0.233280    1.257402
  F     -1.581732    0.353567   -1.464232
  F     -1.943092    0.265655    0.672940
  F     -1.406607   -1.532928   -0.413131
  H     -0.817668    2.438539    0.985805
  H      0.620817    3.344736    0.473213
  H      0.757167    2.116247    1.753875
  H      2.924788   -0.411858   -0.181994
  H      2.583857    0.662861   -1.559989
  H      2.802661   -1.084794   -1.825432
  H      1.042909   -2.260936    0.872164
  H     -0.370179   -1.902674    1.893061
  H      1.269351   -1.687276    2.541803

 Total Charge           Charge          ....    0
 Multiplicity           Mult            ....    1
 Number of Electrons    NEL             ....   90
 Basis Dimension        Dim             ....  334

ORBITAL ENERGIES
----------------

  NO   OCC          E(Eh)            E(eV)
   0   2.0000     -26.350202      -717.0254
   1   2.0000     -26.349427      -717.0044
   2   2.0000     -26.346749      -716.9315
   3   2.0000     -20.598384      -560.5105
   4   2.0000     -20.594948      -560.4170
   5   2.0000     -20.593648      -560.3817
   6   2.0000     -11.513257      -313.2916
   7   2.0000     -11.435533      -311.1767
   8   2.0000     -11.293928      -307.3234
   9   2.0000     -11.289613      -307.2060
  10   2.0000     -11.288122      -307.1654
  11   2.0000      -1.731185       -47.1079
  12   2.0000      -1.636269       -44.5252
  13   2.0000      -1.635581       -44.5064
  14   2.0000      -1.485766       -40.4297
  15   2.0000      -1.378722       -37.5169
  16   2.0000      -1.374046       -37.3897
  17   2.0000      -1.046645       -28.4807
  18   2.0000      -0.968326       -26.3495
  19   2.0000      -0.954359       -25.9694
  20   2.0000      -0.946404       -25.7530
  21   2.0000      -0.863277       -23.4910
  22   2.0000      -0.821572       -22.3561
  23   2.0000      -0.819699       -22.3051
  24   2.0000      -0.782964       -21.3055
  25   2.0000      -0.731851       -19.9147
  26   2.0000      -0.727449       -19.7949
  27   2.0000      -0.702242       -19.1090
  28   2.0000      -0.699357       -19.0305
  29   2.0000      -0.676749       -18.4153
  30   2.0000      -0.665143       -18.0995
  31   2.0000      -0.661776       -18.0078
  32   2.0000      -0.645755       -17.5719
  33   2.0000      -0.642746       -17.4900
  34   2.0000      -0.632744       -17.2179
  35   2.0000      -0.614544       -16.7226
  36   2.0000      -0.603679       -16.4270
  37   2.0000      -0.594060       -16.1652
  38   2.0000      -0.571972       -15.5642
  39   2.0000      -0.541661       -14.7394
  40   2.0000      -0.512114       -13.9353
  41   2.0000      -0.501407       -13.6440
  42   2.0000      -0.472009       -12.8440
  43   2.0000      -0.466151       -12.6846
  44   2.0000      -0.453640       -12.3442
  45   0.0000       0.032907         0.8954
  46   0.0000       0.043216         1.1760
  47   0.0000       0.045064         1.2262
  48   0.0000       0.052667         1.4331
  49   0.0000       0.062903         1.7117

MULLIKEN ATOMIC CHARGES
-----------------------
   0 C :    0.845790
   1 C :    0.784658
   2 C :    0.922861
   3 C :    1.646447
   4 C :    2.338450
   5 O :   -1.105352
   6 O :   -1.073218
   7 O :   -1.101258
   8 F :   -0.676919
   9 F :   -0.701060
  10 F :   -0.669019
  11 H :   -0.127206
  12 H :   -0.235217
  13 H :   -0.107285
  14 H :   -0.059286
  15 H :   -0.052062
  16 H :   -0.247900
  17 H :   -0.049124
  18 H :   -0.105066
  19 H :   -0.228235
Sum of atomic charges:   -0.0000000

LOEWDIN ATOMIC CHARGES
----------------------
   0 C :    0.177641
   1 C :    0.180048
   2 C :    0.172071
   3 C :   -0.417358
   4 C :   -0.306799
   5 O :    0.045046
   6 O :    0.041968
   7 O :    0.032026
   8 F :    0.104945
   9 F :    0.089154
  10 F :    0.092537
  11 H :   -0.027684
  12 H :   -0.024197
  13 H :   -0.028781
  14 H :   -0.018294
  15 H :   -0.022814
  16 H :   -0.022214
  17 H :   -0.020225
  18 H :   -0.024496
  19 H :   -0.022575

  Mayer bond orders larger than 0.100000
B(  0-C ,  5-O ) :   0.7195 B(  0-C , 11-H ) :   0.9559 B(  0-C , 12-H ) :   0.9947
B(  0-C , 13-H ) :   0.9828 B(  1-C ,  6-O ) :   0.7464 B(  1-C , 14-H ) :   0.9396
B(  1-C , 15-H ) :   0.9473 B(  1-C , 16-H ) :   0.9956 B(  2-C ,  7-O ) :   0.7699
B(  2-C , 17-H ) :   0.9359 B(  2-C , 18-H ) :   0.8984 B(  2-C , 19-H ) :   0.9610
B(  3-C ,  4-C ) :   0.9645 B(  3-C ,  5-O ) :   0.1347 B(  3-C ,  6-O ) :   0.2061
B(  3-C ,  8-F ) :   0.1651 B(  3-C ,  9-F ) :   0.2229 B(  3-C , 10-F ) :   0.2531
B(  3-C , 11-H ) :   0.1533 B(  3-C , 18-H ) :   0.1320 B(  4-C ,  8-F ) :   0.2081
B(  4-C , 10-F ) :   0.1297 B(  5-O ,  7-O ) :   0.1047 B(  6-O ,  7-O ) :   0.1578
B( 12-H , 13-H ) :  -0.1023 B( 15-H , 16-H ) :  -0.1062 B( 18-H , 19-H ) :  -0.1082

MP2 TOTAL ENERGY:     -719.473870557 Eh
FINAL SINGLE POINT ENERGY      -719.473870556586

DIPOLE MOMENT
-------------
                                X             Y             Z
Electronic contribution:    -14.28113      -2.06210      -5.25337
Nuclear contribution   :     15.26079       2.06482       5.96262
                        -----------------------------------------
Total Dipole Moment    :      0.97966       0.00272       0.70925
                        -----------------------------------------
Magnitude (a.u.)       :      1.20945
Magnitude (Debye)      :      3.07418

Rotational constants in cm-1:     0.042251     0.034974     0.031600
Rotational constants in MHz :  1266.645534  1048.502502   947.358194

                             ****ORCA TERMINATED NORMALLY****
TOTAL RUN TIME: 0 days 0 hours 1 minutes 28 seconds 967 msec
