                         Program Version 5.0.3 -  RELEASE  -
|  1> !ri-mp2 aug-cc-pvdz aug-cc-pvdz/c tightscf
|  2> %pal nprocs 16 end
|  3>
|  4> * xyz 0 1
|  5> C     0.578488    0.148776    0.311897
|  6> C    -0.726971   -0.530081   -0.225129
|  7> F     0.477526    0.252431    1.648651
|  8> Cl    1.977285   -0.887503   -0.077159
|  9> Cl    0.788750    1.767240   -0.389497
| 10> Cl   -2.180351    0.394434    0.227356
| 11> F    -0.665283   -0.645666   -1.555470
| 12> F    -0.819545   -1.759329    0.300984
| 13> *
| 14>
| 15>                          ****END OF INPUT****

CARTESIAN COORDINATES (ANGSTROEM)
---------------------------------
  C      0.578488    0.148776    0.311897
  C     -0.726971   -0.530081   -0.225129
  F      0.477526    0.252431    1.648651
  Cl     1.977285   -0.887503   -0.077159
  Cl     0.788750    1.767240   -0.389497
  Cl    -2.180351    0.394434    0.227356
  F     -0.665283   -0.645666   -1.555470
  F     -0.819545   -1.759329    0.300984

 Total Charge           Charge          ....    0
 Multiplicity           Mult            ....    1
 Number of Electrons    NEL             ....   90
 Basis Dimension        Dim             ....  196

ORBITAL ENERGIES
----------------

  NO   OCC          E(Eh)            E(eV)
   0   2.0000    -104.884205     -2854.0443
   1   2.0000    -104.882253     -2853.9912
   2   2.0000    -104.880689     -2853.9486
   3   2.0000     -26.384548      -717.9600
   4   2.0000     -26.383273      -717.9253
   5   2.0000     -26.382289      -717.8986
   6   2.0000     -11.537018      -313.9382
   7   2.0000     -11.508441      -313.1606
   8   2.0000     -10.610670      -288.7310
   9   2.0000     -10.608602      -288.6747
  10   2.0000     -10.607341      -288.6404
  11   2.0000      -8.078393      -219.8243
  12   2.0000      -8.076319      -219.7678
  13   2.0000      -8.075061      -219.7336
  14   2.0000      -8.074642      -219.7222
  15   2.0000      -8.074584      -219.7206
  16   2.0000      -8.072588      -219.6663
  17   2.0000      -8.072518      -219.6644
  18   2.0000      -8.071386      -219.6336
  19   2.0000      -8.071314      -219.6316
  20   2.0000      -1.739586       -47.3366
  21   2.0000      -1.701550       -46.3015
  22   2.0000      -1.669906       -45.4405
  23   2.0000      -1.234798       -33.6006
  24   2.0000      -1.179839       -32.1051
  25   2.0000      -1.137688       -30.9581
  26   2.0000      -1.017293       -27.6820
  27   2.0000      -0.913878       -24.8679
  28   2.0000      -0.841744       -22.9050
  29   2.0000      -0.831501       -22.6263
  30   2.0000      -0.800570       -21.7846
  31   2.0000      -0.767997       -20.8983
  32   2.0000      -0.754483       -20.5305
  33   2.0000      -0.723493       -19.6872
  34   2.0000      -0.711837       -19.3701
  35   2.0000      -0.687203       -18.6998
  36   2.0000      -0.646124       -17.5819
  37   2.0000      -0.592557       -16.1243
  38   2.0000      -0.576733       -15.6937
  39   2.0000      -0.522447       -14.2165
  40   2.0000      -0.512912       -13.9570
  41   2.0000      -0.508692       -13.8422
  42   2.0000      -0.495612       -13.4863
  43   2.0000      -0.490829       -13.3561
  44   2.0000      -0.472633       -12.8610
  45   0.0000       0.061272         1.6673
  46   0.0000       0.069531         1.8920
  47   0.0000       0.079025         2.1504
  48   0.0000       0.090941         2.4746
  49   0.0000       0.100915         2.7460

MULLIKEN ATOMIC CHARGES
-----------------------
   0 C :    0.320632
   1 C :    1.425389
   2 F :   -0.592064
   3 Cl:    0.016978
   4 Cl:    0.013394
   5 Cl:   -0.064989
   6 F :   -0.559706
   7 F :   -0.559634
Sum of atomic charges:   -0.0000000

LOEWDIN ATOMIC CHARGES
----------------------
   0 C :   -1.037053
   1 C :   -0.764306
   2 F :    0.006893
   3 Cl:    0.568097
   4 Cl:    0.560022
   5 Cl:    0.578687
   6 F :    0.042214
   7 F :    0.045448

  Mayer bond orders larger than 0.100000
B(  0-C ,  1-C ) :   0.7873 B(  0-C ,  2-F ) :   0.2911 B(  0-C ,  3-Cl) :   1.1913
B(  0-C ,  4-Cl) :   1.2147 B(  0-C ,  5-Cl) :  -0.1275 B(  0-C ,  7-F ) :   0.1249
B(  1-C ,  2-F ) :   0.1402 B(  1-C ,  4-Cl) :  -0.1024 B(  1-C ,  5-Cl) :   1.2013
B(  1-C ,  6-F ) :   0.3699 B(  1-C ,  7-F ) :   0.3275

MP2 TOTAL ENERGY:    -1753.912818682 Eh
FINAL SINGLE POINT ENERGY     -1753.912818682446

DIPOLE MOMENT
-------------
                                X             Y             Z
Electronic contribution:     -0.08986      -0.06792      -0.03901
Nuclear contribution   :      0.14153       0.27328      -0.04232
                        -----------------------------------------
Total Dipole Moment    :      0.05167       0.20537      -0.08133
                        -----------------------------------------
Magnitude (a.u.)       :      0.22685
Magnitude (Debye)      :      0.57660

Rotational constants in cm-1:     0.051988     0.035595     0.029024
Rotational constants in MHz :  1558.551422  1067.107277   870.122978

                             ****ORCA TERMINATED NORMALLY****
TOTAL RUN TIME: 0 days 0 hours 0 minutes 36 seconds 308 msec
