                         Program Version 5.0.3 -  RELEASE  -
|  1> !ri-mp2 aug-cc-pvdz aug-cc-pvdz/c tightscf
|  2> %pal nprocs 16 end
|  3>
|  4> * xyz 0 1
|  5> C      1.450960   -0.211024   -0.011521
|  6> C     -2.167694   -0.617691    0.265295
|  7> C     -2.071854    0.820259   -0.260051
|  8> C     -0.795643   -1.209168   -0.064247
|  9> C     -0.629862    1.220730    0.068588
| 10> C      2.289731    1.049920    0.075090
| 11> N      0.101430   -0.048120   -0.007516
| 12> O      1.961184   -1.322156   -0.085316
| 13> H     -2.323362   -0.611690    1.345899
| 14> H     -2.982362   -1.182603   -0.184363
| 15> H     -2.222111    0.835109   -1.341119
| 16> H     -2.800072    1.494779    0.187414
| 17> H     -0.466604   -1.973381    0.637241
| 18> H     -0.772611   -1.654471   -1.062577
| 19> H     -0.232266    1.952833   -0.633874
| 20> H     -0.563031    1.651531    1.073408
| 21> H      2.013722    1.662081    0.934901
| 22> H      2.163330    1.663339   -0.818914
| 23> H      3.332065    0.758403    0.158197
| 24> *
| 25>
| 26>                          ****END OF INPUT****

CARTESIAN COORDINATES (ANGSTROEM)
---------------------------------
  C      1.450960   -0.211024   -0.011521
  C     -2.167694   -0.617691    0.265295
  C     -2.071854    0.820259   -0.260051
  C     -0.795643   -1.209168   -0.064247
  C     -0.629862    1.220730    0.068588
  C      2.289731    1.049920    0.075090
  N      0.101430   -0.048120   -0.007516
  O      1.961184   -1.322156   -0.085316
  H     -2.323362   -0.611690    1.345899
  H     -2.982362   -1.182603   -0.184363
  H     -2.222111    0.835109   -1.341119
  H     -2.800072    1.494779    0.187414
  H     -0.466604   -1.973381    0.637241
  H     -0.772611   -1.654471   -1.062577
  H     -0.232266    1.952833   -0.633874
  H     -0.563031    1.651531    1.073408
  H      2.013722    1.662081    0.934901
  H      2.163330    1.663339   -0.818914
  H      3.332065    0.758403    0.158197

 Total Charge           Charge          ....    0
 Multiplicity           Mult            ....    1
 Number of Electrons    NEL             ....   62
 Basis Dimension        Dim             ....  283

ORBITAL ENERGIES
----------------

  NO   OCC          E(Eh)            E(eV)
   0   2.0000     -20.515138      -558.2453
   1   2.0000     -15.582479      -424.0208
   2   2.0000     -11.346238      -308.7468
   3   2.0000     -11.277743      -306.8830
   4   2.0000     -11.261820      -306.4497
   5   2.0000     -11.242714      -305.9298
   6   2.0000     -11.237908      -305.7990
   7   2.0000     -11.237020      -305.7749
   8   2.0000      -1.372649       -37.3517
   9   2.0000      -1.252795       -34.0903
  10   2.0000      -1.075511       -29.2661
  11   2.0000      -1.010502       -27.4972
  12   2.0000      -0.984937       -26.8015
  13   2.0000      -0.868469       -23.6322
  14   2.0000      -0.813670       -22.1411
  15   2.0000      -0.746547       -20.3146
  16   2.0000      -0.687478       -18.7072
  17   2.0000      -0.674804       -18.3623
  18   2.0000      -0.624822       -17.0023
  19   2.0000      -0.604606       -16.4522
  20   2.0000      -0.597469       -16.2580
  21   2.0000      -0.583113       -15.8673
  22   2.0000      -0.560347       -15.2478
  23   2.0000      -0.547916       -14.9096
  24   2.0000      -0.534498       -14.5444
  25   2.0000      -0.498810       -13.5733
  26   2.0000      -0.496070       -13.4988
  27   2.0000      -0.492994       -13.4150
  28   2.0000      -0.477844       -13.0028
  29   2.0000      -0.410314       -11.1652
  30   2.0000      -0.363725        -9.8975
  31   0.0000       0.030049         0.8177
  32   0.0000       0.040305         1.0968
  33   0.0000       0.041608         1.1322
  34   0.0000       0.047615         1.2957
  35   0.0000       0.059099         1.6082

MULLIKEN ATOMIC CHARGES
-----------------------
   0 C :    0.400349
   1 C :    0.360358
   2 C :    0.262370
   3 C :    0.842463
   4 C :    0.967684
   5 C :    0.296378
   6 N :   -0.711467
   7 O :   -0.830647
   8 H :   -0.206439
   9 H :   -0.097971
  10 H :   -0.190247
  11 H :   -0.072690
  12 H :   -0.215134
  13 H :   -0.254272
  14 H :   -0.238151
  15 H :   -0.320958
  16 H :    0.095622
  17 H :    0.064516
  18 H :   -0.151764
Sum of atomic charges:    0.0000000

LOEWDIN ATOMIC CHARGES
----------------------
   0 C :   -0.343950
   1 C :    0.008828
   2 C :    0.009625
   3 C :    0.043120
   4 C :    0.027726
   5 C :    0.208480
   6 N :   -0.080502
   7 O :    0.009651
   8 H :    0.017418
   9 H :    0.015284
  10 H :    0.018564
  11 H :    0.015670
  12 H :    0.019293
  13 H :    0.024559
  14 H :    0.013851
  15 H :    0.019183
  16 H :   -0.009555
  17 H :   -0.008405
  18 H :   -0.008839

  Mayer bond orders larger than 0.100000
B(  0-C ,  4-C ) :  -0.1173 B(  0-C ,  5-C ) :   0.9935 B(  0-C ,  6-N ) :   1.2584
B(  0-C ,  7-O ) :   1.4484 B(  1-C ,  2-C ) :   1.2524 B(  1-C ,  3-C ) :   1.2272
B(  1-C ,  8-H ) :   0.7799 B(  1-C ,  9-H ) :   0.7910 B(  2-C ,  4-C ) :   1.2186
B(  2-C , 10-H ) :   0.8168 B(  2-C , 11-H ) :   0.7888 B(  3-C ,  6-N ) :   0.8516
B(  3-C , 12-H ) :   0.8046 B(  3-C , 13-H ) :   0.7592 B(  4-C ,  6-N ) :   0.7952
B(  4-C , 14-H ) :   0.7365 B(  4-C , 15-H ) :   0.6857 B(  5-C , 16-H ) :   0.9033
B(  5-C , 17-H ) :   0.9018 B(  5-C , 18-H ) :   0.9301 B(  8-H ,  9-H ) :  -0.1333
B( 10-H , 11-H ) :  -0.1368

MP2 TOTAL ENERGY:     -364.218544729 Eh
FINAL SINGLE POINT ENERGY      -364.218544728627

DIPOLE MOMENT
-------------
                                X             Y             Z
Electronic contribution:      3.75859      -3.36360      -0.21540
Nuclear contribution   :     -4.96158       4.70743       0.30337
                        -----------------------------------------
Total Dipole Moment    :     -1.20298       1.34383       0.08797
                        -----------------------------------------
Magnitude (a.u.)       :      1.80576
Magnitude (Debye)      :      4.58988

Rotational constants in cm-1:     0.136107     0.051189     0.038980
Rotational constants in MHz :  4080.378060  1534.611912  1168.587136

                             ****ORCA TERMINATED NORMALLY****
TOTAL RUN TIME: 0 days 0 hours 1 minutes 29 seconds 427 msec
