                         Program Version 5.0.3 -  RELEASE  -
|  1> !ri-mp2 aug-cc-pvdz aug-cc-pvdz/c tightscf
|  2> %pal nprocs 16 end
|  3> %maxcore 3800
|  4>
|  5> * xyz 0 1
|  6> C      2.843382   -0.911793    0.095853
|  7> C      1.865295   -1.900259   -0.134234
|  8> C     -0.579750    2.511077    0.033711
|  9> C      2.473262    0.403278    0.193327
| 10> C      0.543571   -1.555480   -0.257841
| 11> C      0.733917    2.152826    0.165181
| 12> C     -1.562211    1.527220   -0.196166
| 13> C      1.117464    0.793908    0.069366
| 14> C      0.119466   -0.205263   -0.160726
| 15> C     -1.248770    0.190590   -0.290811
| 16> C     -2.802522   -1.523090    0.785080
| 17> C     -2.351636   -0.819638   -0.504417
| 18> H      3.882886   -1.194986    0.192496
| 19> H      2.160956   -2.937871   -0.214193
| 20> H     -0.872273    3.550458    0.101606
| 21> H      3.218207    1.169736    0.366401
| 22> H     -0.186369   -2.331752   -0.434482
| 23> H      1.496318    2.901125    0.340027
| 24> H     -2.595290    1.834475   -0.303229
| 25> H     -1.982937   -2.067541    1.253974
| 26> H     -3.604229   -2.233272    0.576827
| 27> H     -3.173490   -0.797867    1.510083
| 28> H     -3.209005   -0.305295   -0.941733
| 29> H     -2.043584   -1.567462   -1.237707
| 30> *
| 31>
| 32>                          ****END OF INPUT****

CARTESIAN COORDINATES (ANGSTROEM)
---------------------------------
  C      2.843382   -0.911793    0.095853
  C      1.865295   -1.900259   -0.134234
  C     -0.579750    2.511077    0.033711
  C      2.473262    0.403278    0.193327
  C      0.543571   -1.555480   -0.257841
  C      0.733917    2.152826    0.165181
  C     -1.562211    1.527220   -0.196166
  C      1.117464    0.793908    0.069366
  C      0.119466   -0.205263   -0.160726
  C     -1.248770    0.190590   -0.290811
  C     -2.802522   -1.523090    0.785080
  C     -2.351636   -0.819638   -0.504417
  H      3.882886   -1.194986    0.192496
  H      2.160956   -2.937871   -0.214193
  H     -0.872273    3.550458    0.101606
  H      3.218207    1.169736    0.366401
  H     -0.186369   -2.331752   -0.434482
  H      1.496318    2.901125    0.340027
  H     -2.595290    1.834475   -0.303229
  H     -1.982937   -2.067541    1.253974
  H     -3.604229   -2.233272    0.576827
  H     -3.173490   -0.797867    1.510083
  H     -3.209005   -0.305295   -0.941733
  H     -2.043584   -1.567462   -1.237707

 Total Charge           Charge          ....    0
 Multiplicity           Mult            ....    1
 Number of Electrons    NEL             ....   84
 Basis Dimension        Dim             ....  384

ORBITAL ENERGIES
----------------

  NO   OCC          E(Eh)            E(eV)
   0   2.0000     -11.246718      -306.0387
   1   2.0000     -11.245958      -306.0181
   2   2.0000     -11.245219      -305.9980
   3   2.0000     -11.240543      -305.8707
   4   2.0000     -11.239999      -305.8559
   5   2.0000     -11.239042      -305.8299
   6   2.0000     -11.238509      -305.8154
   7   2.0000     -11.238486      -305.8147
   8   2.0000     -11.235976      -305.7464
   9   2.0000     -11.234760      -305.7134
  10   2.0000     -11.233727      -305.6853
  11   2.0000     -11.223101      -305.3961
  12   2.0000      -1.180648       -32.1271
  13   2.0000      -1.116351       -30.3775
  14   2.0000      -1.076140       -29.2833
  15   2.0000      -1.019549       -27.7433
  16   2.0000      -1.009774       -27.4774
  17   2.0000      -0.973150       -26.4808
  18   2.0000      -0.871037       -23.7021
  19   2.0000      -0.844157       -22.9707
  20   2.0000      -0.838976       -22.8297
  21   2.0000      -0.782516       -21.2934
  22   2.0000      -0.707342       -19.2478
  23   2.0000      -0.694642       -18.9022
  24   2.0000      -0.677112       -18.4251
  25   2.0000      -0.628993       -17.1158
  26   2.0000      -0.615547       -16.7499
  27   2.0000      -0.597876       -16.2690
  28   2.0000      -0.587394       -15.9838
  29   2.0000      -0.576039       -15.6748
  30   2.0000      -0.562125       -15.2962
  31   2.0000      -0.550324       -14.9751
  32   2.0000      -0.532105       -14.4793
  33   2.0000      -0.512782       -13.9535
  34   2.0000      -0.510178       -13.8827
  35   2.0000      -0.496308       -13.5052
  36   2.0000      -0.477341       -12.9891
  37   2.0000      -0.461459       -12.5569
  38   2.0000      -0.444363       -12.0917
  39   2.0000      -0.376863       -10.2550
  40   2.0000      -0.318053        -8.6547
  41   2.0000      -0.284007        -7.7282
  42   0.0000       0.034225         0.9313
  43   0.0000       0.037340         1.0161
  44   0.0000       0.037974         1.0333
  45   0.0000       0.049634         1.3506
  46   0.0000       0.051613         1.4045

MULLIKEN ATOMIC CHARGES
-----------------------
   0 C :    0.032879
   1 C :   -0.262251
   2 C :   -0.206862
   3 C :    0.789992
   4 C :    0.476961
   5 C :    0.630775
   6 C :    0.857440
   7 C :    0.099134
   8 C :    1.349740
   9 C :    0.535229
  10 C :    0.399037
  11 C :    0.177534
  12 H :   -0.483263
  13 H :   -0.518300
  14 H :   -0.494907
  15 H :   -0.600646
  16 H :   -0.922715
  17 H :   -0.623038
  18 H :   -0.692293
  19 H :   -0.141746
  20 H :   -0.101110
  21 H :   -0.098493
  22 H :   -0.196577
  23 H :   -0.006522
Sum of atomic charges:   -0.0000000

LOEWDIN ATOMIC CHARGES
----------------------
   0 C :    0.011854
   1 C :    0.014456
   2 C :    0.016214
   3 C :    0.051094
   4 C :    0.054370
   5 C :    0.047408
   6 C :    0.045487
   7 C :   -0.133112
   8 C :   -0.085415
   9 C :   -0.131972
  10 C :    0.152837
  11 C :   -0.026818
  12 H :    0.000151
  13 H :    0.000226
  14 H :    0.001267
  15 H :    0.007199
  16 H :   -0.005050
  17 H :    0.006079
  18 H :    0.006244
  19 H :   -0.022672
  20 H :   -0.017868
  21 H :   -0.014458
  22 H :    0.013052
  23 H :    0.009425

  Mayer bond orders larger than 0.100000
B(  0-C ,  1-C ) :   2.0337 B(  0-C ,  2-C ) :   0.3853 B(  0-C ,  3-C ) :   1.4965
B(  0-C ,  4-C ) :   0.1726 B(  0-C ,  5-C ) :   0.2106 B(  0-C ,  6-C ) :   0.3595
B(  0-C ,  7-C ) :  -0.4701 B(  0-C ,  8-C ) :  -0.3622 B(  0-C , 11-C ) :  -0.1015
B(  0-C , 15-H ) :   0.3211 B(  0-C , 16-H ) :  -0.1620 B(  1-C ,  2-C ) :   0.3678
B(  1-C ,  3-C ) :   0.4406 B(  1-C ,  4-C ) :   1.5196 B(  1-C ,  5-C ) :  -0.2581
B(  1-C ,  6-C ) :   0.5546 B(  1-C ,  7-C ) :  -0.9326 B(  1-C ,  8-C ) :  -1.2036
B(  1-C ,  9-C ) :   0.5330 B(  1-C , 11-C ) :   0.2565 B(  1-C , 12-H ) :   0.1847
B(  1-C , 15-H ) :  -0.1138 B(  1-C , 16-H ) :   0.8541 B(  2-C ,  3-C ) :   0.2093
B(  2-C ,  4-C ) :  -0.3271 B(  2-C ,  5-C ) :   1.5671 B(  2-C ,  6-C ) :   1.5762
B(  2-C ,  7-C ) :  -0.6144 B(  2-C ,  8-C ) :   0.1944 B(  2-C ,  9-C ) :  -0.1083
B(  2-C , 11-C ) :   0.2809 B(  2-C , 17-H ) :   0.2906 B(  2-C , 18-H ) :   0.3857
B(  3-C ,  4-C ) :   0.2539 B(  3-C ,  5-C ) :  -1.7074 B(  3-C ,  6-C ) :  -0.2410
B(  3-C ,  7-C ) :   1.4092 B(  3-C ,  8-C ) :  -1.4145 B(  3-C , 11-C ) :   0.1949
B(  3-C , 12-H ) :   0.4431 B(  3-C , 13-H ) :  -0.1274 B(  3-C , 15-H ) :  -0.6063
B(  3-C , 16-H ) :   0.1688 B(  3-C , 17-H ) :  -0.2346 B(  4-C ,  5-C ) :   0.1018
B(  4-C ,  7-C ) :  -1.9017 B(  4-C ,  8-C ) :   1.3116 B(  4-C ,  9-C ) :  -2.0504
B(  4-C , 11-C ) :  -0.4818 B(  4-C , 13-H ) :   0.7004 B(  4-C , 16-H ) :  -1.4412
B(  4-C , 18-H ) :   0.1498 B(  4-C , 23-H ) :   0.1328 B(  5-C ,  6-C ) :   0.5057
B(  5-C ,  7-C ) :   1.8346 B(  5-C ,  8-C ) :  -1.6899 B(  5-C , 11-C ) :   0.1272
B(  5-C , 14-H ) :   0.3571 B(  5-C , 15-H ) :  -0.3039 B(  5-C , 17-H ) :  -0.6586
B(  5-C , 18-H ) :  -0.1915 B(  6-C ,  7-C ) :  -0.8530 B(  6-C ,  8-C ) :  -0.3832
B(  6-C ,  9-C ) :   0.8875 B(  6-C , 11-C ) :  -0.4621 B(  6-C , 14-H ) :   0.2277
B(  6-C , 17-H ) :  -0.1754 B(  6-C , 18-H ) :  -1.1818 B(  7-C ,  8-C ) :   2.7858
B(  7-C ,  9-C ) :  -0.6636 B(  7-C , 12-H ) :   0.1616 B(  7-C , 15-H ) :   1.1834
B(  7-C , 16-H ) :  -0.1796 B(  7-C , 17-H ) :   1.2338 B(  8-C ,  9-C ) :   3.0044
B(  8-C , 11-C ) :   0.2627 B(  8-C , 13-H ) :   0.2475 B(  8-C , 16-H ) :   1.2345
B(  8-C , 18-H ) :  -0.1260 B(  8-C , 23-H ) :  -0.1562 B(  9-C , 11-C ) :   1.0928
B(  9-C , 16-H ) :  -0.3403 B(  9-C , 17-H ) :   0.1130 B(  9-C , 18-H ) :   1.3826
B(  9-C , 21-H ) :  -0.1022 B(  9-C , 23-H ) :   0.3031 B( 10-C , 11-C ) :   1.1465
B( 10-C , 19-H ) :   0.9662 B( 10-C , 20-H ) :   0.9056 B( 10-C , 21-H ) :   0.9333
B( 11-C , 18-H ) :   0.1421 B( 11-C , 22-H ) :   0.7526 B( 11-C , 23-H ) :   0.7312

MP2 TOTAL ENERGY:     -463.117253394 Eh
FINAL SINGLE POINT ENERGY      -463.117253394275

DIPOLE MOMENT
-------------
                                X             Y             Z
Electronic contribution:      6.84499       3.92786      -1.22521
Nuclear contribution   :     -6.97648      -4.01924       1.22192
                        -----------------------------------------
Total Dipole Moment    :     -0.13149      -0.09137      -0.00329
                        -----------------------------------------
Magnitude (a.u.)       :      0.16015
Magnitude (Debye)      :      0.40708

Rotational constants in cm-1:     0.046393     0.030430     0.019280
Rotational constants in MHz :  1390.840568   912.271802   578.004500

                             ****ORCA TERMINATED NORMALLY****
TOTAL RUN TIME: 0 days 0 hours 3 minutes 22 seconds 775 msec
