                         Program Version 5.0.3 -  RELEASE  -
|  1> !ri-mp2 aug-cc-pvdz aug-cc-pvdz/c tightscf
|  2> %pal nprocs 16 end
|  3> %maxcore 3800
|  4>
|  5> * xyz 0 1
|  6> C      2.773055    1.261111    0.000000
|  7> C      1.856389    2.329988    0.000000
|  8> C      2.317617   -0.031831    0.000000
|  9> C      0.505981    2.084632    0.000000
| 10> C      0.453695   -1.652390    0.000000
| 11> C     -1.801003   -0.844292    0.000000
| 12> C      0.931909   -0.319067    0.000000
| 13> C      0.000000    0.762178    0.000000
| 14> C     -0.887961   -1.928786    0.000000
| 15> C     -1.398841    0.467661    0.000000
| 16> C     -1.410513   -3.339932    0.000000
| 17> C     -2.419621    1.574311    0.000000
| 18> H      3.835851    1.463645    0.000000
| 19> H      2.220247    3.348890    0.000000
| 20> H      3.018072   -0.857766    0.000000
| 21> H     -0.183202    2.916945    0.000000
| 22> H      1.175542   -2.460565    0.000000
| 23> H     -2.862447   -1.065376    0.000000
| 24> H     -2.031880   -3.530639    0.877960
| 25> H     -2.031880   -3.530639   -0.877960
| 26> H     -0.598144   -4.065331    0.000000
| 27> H     -2.318622    2.216328    0.878002
| 28> H     -2.318622    2.216328   -0.878002
| 29> H     -3.429158    1.166683    0.000000
| 30> *
| 31>
| 32>                          ****END OF INPUT****

CARTESIAN COORDINATES (ANGSTROEM)
---------------------------------
  C      2.773055    1.261111    0.000000
  C      1.856389    2.329988    0.000000
  C      2.317617   -0.031831    0.000000
  C      0.505981    2.084632    0.000000
  C      0.453695   -1.652390    0.000000
  C     -1.801003   -0.844292    0.000000
  C      0.931909   -0.319067    0.000000
  C      0.000000    0.762178    0.000000
  C     -0.887961   -1.928786    0.000000
  C     -1.398841    0.467661    0.000000
  C     -1.410513   -3.339932    0.000000
  C     -2.419621    1.574311    0.000000
  H      3.835851    1.463645    0.000000
  H      2.220247    3.348890    0.000000
  H      3.018072   -0.857766    0.000000
  H     -0.183202    2.916945    0.000000
  H      1.175542   -2.460565    0.000000
  H     -2.862447   -1.065376    0.000000
  H     -2.031880   -3.530639    0.877960
  H     -2.031880   -3.530639   -0.877960
  H     -0.598144   -4.065331    0.000000
  H     -2.318622    2.216328    0.878002
  H     -2.318622    2.216328   -0.878002
  H     -3.429158    1.166683    0.000000

 Total Charge           Charge          ....    0
 Multiplicity           Mult            ....    1
 Number of Electrons    NEL             ....   84
 Basis Dimension        Dim             ....  384

ORBITAL ENERGIES
----------------

  NO   OCC          E(Eh)            E(eV)
   0   2.0000     -11.247671      -306.0647
   1   2.0000     -11.244257      -305.9718
   2   2.0000     -11.243969      -305.9640
   3   2.0000     -11.240573      -305.8715
   4   2.0000     -11.238325      -305.8104
   5   2.0000     -11.237751      -305.7947
   6   2.0000     -11.236554      -305.7622
   7   2.0000     -11.235915      -305.7448
   8   2.0000     -11.230797      -305.6055
   9   2.0000     -11.229975      -305.5832
  10   2.0000     -11.229894      -305.5810
  11   2.0000     -11.228470      -305.5422
  12   2.0000      -1.179731       -32.1021
  13   2.0000      -1.118849       -30.4454
  14   2.0000      -1.071670       -29.1616
  15   2.0000      -1.027754       -27.9666
  16   2.0000      -1.001376       -27.2488
  17   2.0000      -0.945145       -25.7187
  18   2.0000      -0.927640       -25.2424
  19   2.0000      -0.844591       -22.9825
  20   2.0000      -0.819501       -22.2997
  21   2.0000      -0.784239       -21.3402
  22   2.0000      -0.702417       -19.1137
  23   2.0000      -0.693943       -18.8832
  24   2.0000      -0.661940       -18.0123
  25   2.0000      -0.620059       -16.8727
  26   2.0000      -0.603629       -16.4256
  27   2.0000      -0.583631       -15.8814
  28   2.0000      -0.582223       -15.8431
  29   2.0000      -0.575311       -15.6550
  30   2.0000      -0.569178       -15.4881
  31   2.0000      -0.552346       -15.0301
  32   2.0000      -0.544861       -14.8264
  33   2.0000      -0.530129       -14.4255
  34   2.0000      -0.514811       -14.0087
  35   2.0000      -0.510365       -13.8877
  36   2.0000      -0.478646       -13.0246
  37   2.0000      -0.466303       -12.6887
  38   2.0000      -0.434098       -11.8124
  39   2.0000      -0.373879       -10.1738
  40   2.0000      -0.311781        -8.4840
  41   2.0000      -0.281659        -7.6643
  42   0.0000       0.034826         0.9477
  43   0.0000       0.036362         0.9895
  44   0.0000       0.038002         1.0341
  45   0.0000       0.049571         1.3489
  46   0.0000       0.051752         1.4082

MULLIKEN ATOMIC CHARGES
-----------------------
   0 C :   -0.120282
   1 C :   -0.251680
   2 C :    0.708384
   3 C :    0.191017
   4 C :    0.570284
   5 C :    0.745673
   6 C :    0.148368
   7 C :    1.129105
   8 C :   -0.449507
   9 C :   -0.143890
  10 C :    0.401954
  11 C :    0.531130
  12 H :   -0.488557
  13 H :   -0.507633
  14 H :   -0.604440
  15 H :   -0.786510
  16 H :   -0.637575
  17 H :   -0.700044
  18 H :    0.137851
  19 H :    0.137851
  20 H :   -0.203856
  21 H :    0.230770
  22 H :    0.230770
  23 H :   -0.269185
Sum of atomic charges:   -0.0000000

LOEWDIN ATOMIC CHARGES
----------------------
   0 C :    0.010944
   1 C :    0.011811
   2 C :    0.051591
   3 C :    0.054516
   4 C :    0.077966
   5 C :    0.075721
   6 C :   -0.129827
   7 C :   -0.094616
   8 C :   -0.211365
   9 C :   -0.162736
  10 C :    0.175566
  11 C :    0.174412
  12 H :    0.000108
  13 H :   -0.000730
  14 H :    0.006858
  15 H :   -0.003629
  16 H :    0.008710
  17 H :    0.009483
  18 H :   -0.007852
  19 H :   -0.007852
  20 H :   -0.015050
  21 H :   -0.004355
  22 H :   -0.004355
  23 H :   -0.015320

  Mayer bond orders larger than 0.100000
B(  0-C ,  1-C ) :   2.0997 B(  0-C ,  2-C ) :   1.3369 B(  0-C ,  3-C ) :   0.2823
B(  0-C ,  4-C ) :   0.3647 B(  0-C ,  5-C ) :   0.3332 B(  0-C ,  6-C ) :  -0.7292
B(  0-C ,  7-C ) :  -0.2956 B(  0-C ,  8-C ) :   0.3776 B(  0-C , 11-C ) :  -0.1283
B(  0-C , 14-H ) :   0.4056 B(  0-C , 15-H ) :  -0.1332 B(  1-C ,  2-C ) :   0.4366
B(  1-C ,  3-C ) :   1.3951 B(  1-C ,  4-C ) :  -0.4949 B(  1-C ,  5-C ) :   0.6053
B(  1-C ,  6-C ) :  -0.8078 B(  1-C ,  7-C ) :  -1.1176 B(  1-C ,  8-C ) :   0.6011
B(  1-C ,  9-C ) :   0.5814 B(  1-C , 11-C ) :   0.3593 B(  1-C , 12-H ) :   0.1687
B(  1-C , 14-H ) :  -0.1027 B(  1-C , 15-H ) :   0.7252 B(  2-C ,  3-C ) :   0.4065
B(  2-C ,  4-C ) :  -1.6916 B(  2-C ,  6-C ) :   0.7647 B(  2-C ,  7-C ) :  -1.3855
B(  2-C ,  8-C ) :   0.1735 B(  2-C ,  9-C ) :  -0.1343 B(  2-C , 11-C ) :   0.1641
B(  2-C , 12-H ) :   0.4127 B(  2-C , 14-H ) :  -0.7258 B(  2-C , 15-H ) :   0.1218
B(  3-C ,  4-C ) :   0.1338 B(  3-C ,  5-C ) :   0.3251 B(  3-C ,  6-C ) :  -2.2145
B(  3-C ,  7-C ) :   1.3380 B(  3-C ,  8-C ) :  -0.2782 B(  3-C ,  9-C ) :  -2.6158
B(  3-C , 10-C ) :   0.1024 B(  3-C , 11-C ) :  -0.4982 B(  3-C , 13-H ) :   0.6923
B(  3-C , 15-H ) :  -1.2498 B(  4-C ,  5-C ) :  -0.2636 B(  4-C ,  6-C ) :   2.9102
B(  4-C ,  7-C ) :  -1.7889 B(  4-C ,  8-C ) :   2.3541 B(  4-C ,  9-C ) :  -0.1983
B(  4-C , 10-C ) :  -0.3237 B(  4-C , 11-C ) :   0.1361 B(  4-C , 14-H ) :  -0.1965
B(  4-C , 16-H ) :  -0.7403 B(  4-C , 17-H ) :  -0.1523 B(  5-C ,  6-C ) :  -0.4230
B(  5-C ,  7-C ) :  -0.4727 B(  5-C ,  8-C ) :   0.5530 B(  5-C ,  9-C ) :   1.7290
B(  5-C , 10-C ) :  -0.8391 B(  5-C , 11-C ) :  -0.1349 B(  5-C , 17-H ) :  -0.7482
B(  5-C , 23-H ) :   0.1439 B(  6-C ,  7-C ) :   3.5459 B(  6-C ,  8-C ) :  -1.1878
B(  6-C ,  9-C ) :  -0.5125 B(  6-C , 10-C ) :   0.3689 B(  6-C , 11-C ) :  -0.1469
B(  6-C , 12-H ) :   0.2494 B(  6-C , 14-H ) :   1.1983 B(  6-C , 16-H ) :   1.0858
B(  6-C , 20-H ) :   0.1873 B(  7-C ,  8-C ) :   1.0362 B(  7-C ,  9-C ) :   2.4931
B(  7-C , 11-C ) :   0.2525 B(  7-C , 12-H ) :  -0.1244 B(  7-C , 13-H ) :   0.2570
B(  7-C , 15-H ) :   1.4038 B(  7-C , 21-H ) :  -0.1447 B(  7-C , 22-H ) :  -0.1447
B(  8-C ,  9-C ) :  -0.1136 B(  8-C , 10-C ) :   1.3719 B(  8-C , 11-C ) :   0.3304
B(  8-C , 16-H ) :   0.1974 B(  8-C , 18-H ) :   0.2079 B(  8-C , 19-H ) :   0.2079
B(  8-C , 20-H ) :   0.5252 B(  9-C , 11-C ) :   0.8624 B(  9-C , 15-H ) :  -0.3046
B(  9-C , 17-H ) :   1.2247 B(  9-C , 21-H ) :   0.2193 B(  9-C , 22-H ) :   0.2193
B(  9-C , 23-H ) :   0.3157 B( 10-C , 17-H ) :   0.1647 B( 10-C , 18-H ) :   0.8687
B( 10-C , 19-H ) :   0.8687 B( 10-C , 20-H ) :   0.3969 B( 11-C , 15-H ) :   0.1251
B( 11-C , 21-H ) :   0.7821 B( 11-C , 22-H ) :   0.7821 B( 11-C , 23-H ) :   0.4747

MP2 TOTAL ENERGY:     -463.122100743 Eh
FINAL SINGLE POINT ENERGY      -463.122100742886

DIPOLE MOMENT
-------------
                                X             Y             Z
Electronic contribution:      5.36360       2.14953      -0.00000
Nuclear contribution   :     -5.57835      -2.20286       0.00000
                        -----------------------------------------
Total Dipole Moment    :     -0.21475      -0.05333      -0.00000
                        -----------------------------------------
Magnitude (a.u.)       :      0.22127
Magnitude (Debye)      :      0.56242

Rotational constants in cm-1:     0.052681     0.027337     0.018118
Rotational constants in MHz :  1579.348295   819.530026   543.158223

                             ****ORCA TERMINATED NORMALLY****
TOTAL RUN TIME: 0 days 0 hours 3 minutes 30 seconds 850 msec
