                         Program Version 5.0.3 -  RELEASE  -
|  1> !ri-mp2 aug-cc-pvdz aug-cc-pvdz/c tightscf
|  2> %pal nprocs 16 end
|  3>
|  4> * xyz 0 1
|  5> S     3.158398    0.012249   -0.430328
|  6> S    -3.209591   -0.375034   -0.249597
|  7> N     0.242548    1.157410    0.432157
|  8> N    -1.076255    1.253277   -0.028584
|  9> N    -0.552113   -0.911454    0.160999
| 10> C     0.499106   -0.189314    0.400050
| 11> C     1.863333   -0.733224    0.644600
| 12> C    -1.610629   -0.027657   -0.042353
| 13> H     0.910796    1.791602    0.010985
| 14> H     2.185538   -0.503864    1.660042
| 15> H     1.837961   -1.811016    0.524244
| 16> H    -1.629039    2.025841    0.310848
| 17> H     2.703714   -0.491460   -1.593112
| 18> *
| 19>
| 20>                          ****END OF INPUT****

CARTESIAN COORDINATES (ANGSTROEM)
---------------------------------
  S      3.158398    0.012249   -0.430328
  S     -3.209591   -0.375034   -0.249597
  N      0.242548    1.157410    0.432157
  N     -1.076255    1.253277   -0.028584
  N     -0.552113   -0.911454    0.160999
  C      0.499106   -0.189314    0.400050
  C      1.863333   -0.733224    0.644600
  C     -1.610629   -0.027657   -0.042353
  H      0.910796    1.791602    0.010985
  H      2.185538   -0.503864    1.660042
  H      1.837961   -1.811016    0.524244
  H     -1.629039    2.025841    0.310848
  H      2.703714   -0.491460   -1.593112

 Total Charge           Charge          ....    0
 Multiplicity           Mult            ....    1
 Number of Electrons    NEL             ....   76
 Basis Dimension        Dim             ....  237

ORBITAL ENERGIES
----------------

  NO   OCC          E(Eh)            E(eV)
   0   2.0000     -92.002927     -2503.5269
   1   2.0000     -91.899334     -2500.7080
   2   2.0000     -15.673057      -426.4856
   3   2.0000     -15.660589      -426.1463
   4   2.0000     -15.594321      -424.3431
   5   2.0000     -11.380031      -309.6664
   6   2.0000     -11.379925      -309.6635
   7   2.0000     -11.322737      -308.1073
   8   2.0000      -9.004019      -245.0118
   9   2.0000      -8.902596      -242.2519
  10   2.0000      -6.685998      -181.9352
  11   2.0000      -6.684668      -181.8991
  12   2.0000      -6.682535      -181.8410
  13   2.0000      -6.585063      -179.1887
  14   2.0000      -6.582186      -179.1104
  15   2.0000      -6.581092      -179.0806
  16   2.0000      -1.441213       -39.2174
  17   2.0000      -1.243167       -33.8283
  18   2.0000      -1.189554       -32.3694
  19   2.0000      -1.088627       -29.6231
  20   2.0000      -0.983052       -26.7502
  21   2.0000      -0.947651       -25.7869
  22   2.0000      -0.852909       -23.2088
  23   2.0000      -0.824904       -22.4468
  24   2.0000      -0.758651       -20.6439
  25   2.0000      -0.726154       -19.7596
  26   2.0000      -0.656187       -17.8557
  27   2.0000      -0.650699       -17.7064
  28   2.0000      -0.627386       -17.0720
  29   2.0000      -0.577920       -15.7260
  30   2.0000      -0.528271       -14.3750
  31   2.0000      -0.506230       -13.7752
  32   2.0000      -0.491723       -13.3805
  33   2.0000      -0.472540       -12.8585
  34   2.0000      -0.458241       -12.4694
  35   2.0000      -0.405268       -11.0279
  36   2.0000      -0.324709        -8.8358
  37   2.0000      -0.318804        -8.6751
  38   0.0000       0.022472         0.6115
  39   0.0000       0.035694         0.9713
  40   0.0000       0.037976         1.0334
  41   0.0000       0.050676         1.3790
  42   0.0000       0.062956         1.7131

MULLIKEN ATOMIC CHARGES
-----------------------
   0 S :    0.228831
   1 S :    0.027300
   2 N :   -0.298605
   3 N :   -0.362698
   4 N :   -0.714999
   5 C :    0.237274
   6 C :    0.063389
   7 C :    0.503938
   8 H :    0.083382
   9 H :    0.093295
  10 H :   -0.042800
  11 H :    0.045373
  12 H :    0.136321
Sum of atomic charges:   -0.0000000

LOEWDIN ATOMIC CHARGES
----------------------
   0 S :    0.758823
   1 S :    0.500493
   2 N :    0.117912
   3 N :    0.066120
   4 N :    0.054922
   5 C :   -0.300739
   6 C :   -0.228457
   7 C :   -0.755099
   8 H :    0.004956
   9 H :   -0.015376
  10 H :   -0.014519
  11 H :    0.017951
  12 H :   -0.206987

  Mayer bond orders larger than 0.100000
B(  0-S ,  6-C ) :   1.1028 B(  0-S , 12-H ) :   0.9304 B(  1-S ,  7-C ) :   1.7831
B(  2-N ,  3-N ) :   1.0966 B(  2-N ,  5-C ) :   1.0208 B(  2-N ,  7-C ) :  -0.1162
B(  2-N ,  8-H ) :   0.9699 B(  3-N ,  7-C ) :   1.0328 B(  3-N , 11-H ) :   1.0384
B(  4-N ,  5-C ) :   1.5443 B(  4-N ,  7-C ) :   1.0190 B(  5-C ,  6-C ) :   1.1710
B(  5-C ,  9-H ) :   0.1134 B(  5-C , 10-H ) :   0.2951 B(  6-C ,  9-H ) :   0.8425
B(  6-C , 10-H ) :   0.8396

MP2 TOTAL ENERGY:    -1076.137207411 Eh
FINAL SINGLE POINT ENERGY     -1076.137207411410

DIPOLE MOMENT
-------------
                                X             Y             Z
Electronic contribution:     -3.39866       0.22267      -0.52341
Nuclear contribution   :      5.81973       0.99972       0.90877
                        -----------------------------------------
Total Dipole Moment    :      2.42107       1.22238       0.38536
                        -----------------------------------------
Magnitude (a.u.)       :      2.73939
Magnitude (Debye)      :      6.96299

Rotational constants in cm-1:     0.171200     0.021346     0.020043
Rotational constants in MHz :  5132.442896   639.924802   600.860610

                             ****ORCA TERMINATED NORMALLY****
TOTAL RUN TIME: 0 days 0 hours 0 minutes 58 seconds 53 msec
