                         Program Version 5.0.3 -  RELEASE  -
|  1> !ri-mp2 aug-cc-pvdz aug-cc-pvdz/c tightscf
|  2> %pal nprocs 16 end
|  3> %maxcore 3800
|  4>
|  5> * xyz 0 1
|  6> C      5.089909   -0.352288   -0.006234
|  7> C      3.812557    0.485486    0.017342
|  8> C      2.536468   -0.356683   -0.009704
|  9> C      1.252161    0.472558    0.012261
| 10> C     -0.022805   -0.371121   -0.013333
| 11> C     -1.306858    0.459456    0.007688
| 12> C     -2.580564   -0.387028   -0.021920
| 13> C     -3.851423    0.452738    0.005891
| 14> O     -5.044544   -0.325727   -0.078454
| 15> H      5.140854   -0.967918   -0.906694
| 16> H      5.136911   -1.023546    0.853797
| 17> H      5.980865    0.276784    0.015618
| 18> H      3.809761    1.169734   -0.836459
| 19> H      3.807307    1.117177    0.910784
| 20> H      2.542544   -0.990137   -0.903143
| 21> H      2.539557   -1.041269    0.845242
| 22> H      1.249543    1.155909   -0.843424
| 23> H      1.247470    1.106707    0.905111
| 24> H     -0.018787   -1.005273   -0.905757
| 25> H     -0.021131   -1.053901    0.842702
| 26> H     -1.307512    1.142029   -0.848333
| 27> H     -1.310614    1.093278    0.900561
| 28> H     -2.584132   -1.069525    0.835632
| 29> H     -2.594832   -1.012605   -0.918195
| 30> H     -3.868468    1.083342    0.903101
| 31> H     -3.882554    1.118124   -0.857873
| 32> H     -5.087108   -0.911803    0.683019
| 33> *
| 34>
| 35>                          ****END OF INPUT****

CARTESIAN COORDINATES (ANGSTROEM)
---------------------------------
  C      5.089909   -0.352288   -0.006234
  C      3.812557    0.485486    0.017342
  C      2.536468   -0.356683   -0.009704
  C      1.252161    0.472558    0.012261
  C     -0.022805   -0.371121   -0.013333
  C     -1.306858    0.459456    0.007688
  C     -2.580564   -0.387028   -0.021920
  C     -3.851423    0.452738    0.005891
  O     -5.044544   -0.325727   -0.078454
  H      5.140854   -0.967918   -0.906694
  H      5.136911   -1.023546    0.853797
  H      5.980865    0.276784    0.015618
  H      3.809761    1.169734   -0.836459
  H      3.807307    1.117177    0.910784
  H      2.542544   -0.990137   -0.903143
  H      2.539557   -1.041269    0.845242
  H      1.249543    1.155909   -0.843424
  H      1.247470    1.106707    0.905111
  H     -0.018787   -1.005273   -0.905757
  H     -0.021131   -1.053901    0.842702
  H     -1.307512    1.142029   -0.848333
  H     -1.310614    1.093278    0.900561
  H     -2.584132   -1.069525    0.835632
  H     -2.594832   -1.012605   -0.918195
  H     -3.868468    1.083342    0.903101
  H     -3.882554    1.118124   -0.857873
  H     -5.087108   -0.911803    0.683019

 Total Charge           Charge          ....    0
 Multiplicity           Mult            ....    1
 Number of Electrons    NEL             ....   74
 Basis Dimension        Dim             ....  369

ORBITAL ENERGIES
----------------

  NO   OCC          E(Eh)            E(eV)
   0   2.0000     -20.563243      -559.5543
   1   2.0000     -11.277547      -306.8777
   2   2.0000     -11.226977      -305.5016
   3   2.0000     -11.225531      -305.4622
   4   2.0000     -11.223694      -305.4122
   5   2.0000     -11.222451      -305.3784
   6   2.0000     -11.221736      -305.3590
   7   2.0000     -11.220527      -305.3261
   8   2.0000     -11.217350      -305.2396
   9   2.0000      -1.356341       -36.9079
  10   2.0000      -1.096228       -29.8299
  11   2.0000      -1.064603       -28.9693
  12   2.0000      -1.013460       -27.5776
  13   2.0000      -0.948063       -25.7981
  14   2.0000      -0.878297       -23.8997
  15   2.0000      -0.822578       -22.3835
  16   2.0000      -0.794232       -21.6121
  17   2.0000      -0.788176       -21.4474
  18   2.0000      -0.688854       -18.7447
  19   2.0000      -0.657128       -17.8814
  20   2.0000      -0.632496       -17.2111
  21   2.0000      -0.606706       -16.5093
  22   2.0000      -0.603037       -16.4095
  23   2.0000      -0.587062       -15.9748
  24   2.0000      -0.569863       -15.5068
  25   2.0000      -0.555641       -15.1197
  26   2.0000      -0.537541       -14.6272
  27   2.0000      -0.521873       -14.2009
  28   2.0000      -0.508290       -13.8313
  29   2.0000      -0.493151       -13.4193
  30   2.0000      -0.477338       -12.9890
  31   2.0000      -0.474660       -12.9162
  32   2.0000      -0.465373       -12.6634
  33   2.0000      -0.460356       -12.5269
  34   2.0000      -0.459825       -12.5125
  35   2.0000      -0.452705       -12.3187
  36   2.0000      -0.423812       -11.5325
  37   0.0000       0.035845         0.9754
  38   0.0000       0.036977         1.0062
  39   0.0000       0.041446         1.1278
  40   0.0000       0.044246         1.2040
  41   0.0000       0.050679         1.3790

MULLIKEN ATOMIC CHARGES
-----------------------
   0 C :    0.579096
   1 C :    0.494799
   2 C :    0.259085
   3 C :    0.216600
   4 C :    0.217687
   5 C :    0.251711
   6 C :    0.459340
   7 C :    1.354287
   8 O :   -0.747736
   9 H :   -0.092822
  10 H :   -0.093666
  11 H :   -0.077649
  12 H :   -0.189851
  13 H :   -0.190417
  14 H :   -0.228927
  15 H :   -0.227072
  16 H :   -0.234597
  17 H :   -0.235057
  18 H :   -0.225694
  19 H :   -0.227345
  20 H :   -0.213485
  21 H :   -0.211578
  22 H :   -0.220250
  23 H :   -0.153738
  24 H :   -0.168734
  25 H :   -0.228735
  26 H :    0.134746
Sum of atomic charges:    0.0000000

LOEWDIN ATOMIC CHARGES
----------------------
   0 C :    0.130131
   1 C :   -0.073135
   2 C :   -0.042053
   3 C :   -0.034774
   4 C :   -0.034025
   5 C :   -0.035128
   6 C :   -0.036473
   7 C :   -0.049804
   8 O :    0.108539
   9 H :   -0.020338
  10 H :   -0.020447
  11 H :   -0.022295
  12 H :    0.010765
  13 H :    0.010678
  14 H :    0.016312
  15 H :    0.016088
  16 H :    0.016998
  17 H :    0.016791
  18 H :    0.017698
  19 H :    0.016892
  20 H :    0.017274
  21 H :    0.016111
  22 H :    0.013585
  23 H :    0.019106
  24 H :    0.004817
  25 H :    0.003871
  26 H :   -0.067184

  Mayer bond orders larger than 0.100000
B(  0-C ,  1-C ) :   1.1939 B(  0-C ,  9-H ) :   0.9031 B(  0-C , 10-H ) :   0.9030
B(  0-C , 11-H ) :   0.9142 B(  1-C ,  2-C ) :   1.2396 B(  1-C ,  3-C ) :  -0.1564
B(  1-C , 12-H ) :   0.7020 B(  1-C , 13-H ) :   0.7029 B(  2-C ,  3-C ) :   1.3395
B(  2-C , 14-H ) :   0.7106 B(  2-C , 15-H ) :   0.7139 B(  3-C ,  4-C ) :   1.5065
B(  3-C , 16-H ) :   0.7349 B(  3-C , 17-H ) :   0.7355 B(  4-C ,  5-C ) :   1.4153
B(  4-C ,  6-C ) :  -0.1341 B(  4-C , 18-H ) :   0.7303 B(  4-C , 19-H ) :   0.7347
B(  5-C ,  6-C ) :   1.2158 B(  5-C ,  7-C ) :  -0.1260 B(  5-C , 20-H ) :   0.7148
B(  5-C , 21-H ) :   0.7468 B(  6-C ,  7-C ) :   1.1844 B(  6-C , 22-H ) :   0.6708
B(  6-C , 23-H ) :   0.7273 B(  7-C ,  8-O ) :   0.4480 B(  7-C , 24-H ) :   0.8263
B(  7-C , 25-H ) :   0.7930 B(  8-O , 26-H ) :   1.0822 B( 24-H , 25-H ) :  -0.1007

MP2 TOTAL ENERGY:     -389.738135010 Eh
FINAL SINGLE POINT ENERGY      -389.738135010145

DIPOLE MOMENT
-------------
                                X             Y             Z
Electronic contribution:    -10.81461      -0.21448      -0.25104
Nuclear contribution   :     11.41878       0.19419       0.71975
                        -----------------------------------------
Total Dipole Moment    :      0.60418      -0.02029       0.46871
                        -----------------------------------------
Magnitude (a.u.)       :      0.76494
Magnitude (Debye)      :      1.94431

Rotational constants in cm-1:     0.329628     0.011330     0.011142
Rotational constants in MHz :  9881.988419   339.679700   334.017362

                             ****ORCA TERMINATED NORMALLY****
TOTAL RUN TIME: 0 days 0 hours 1 minutes 54 seconds 603 msec
