                         Program Version 5.0.3 -  RELEASE  -
|  1> !ri-mp2 aug-cc-pvdz aug-cc-pvdz/c tightscf
|  2> %pal nprocs 16 end
|  3>
|  4> * xyz 0 1
|  5> C      0.000000    1.377987   -0.525257
|  6> C      0.000000    0.695340   -1.726214
|  7> C      0.000000   -0.695340   -1.726214
|  8> C      0.000000   -1.377987   -0.525257
|  9> C      0.000000   -0.694285    0.684098
| 10> C      0.000000    0.694285    0.684098
| 11> F      0.000000    2.719143   -0.501822
| 12> H      0.000000    1.255360   -2.649366
| 13> H      0.000000   -1.255360   -2.649366
| 14> F      0.000000   -2.719143   -0.501822
| 15> F      0.000000   -1.357117    1.841111
| 16> F      0.000000    1.357117    1.841111
| 17> *
| 18>
| 19>                          ****END OF INPUT****

CARTESIAN COORDINATES (ANGSTROEM)
---------------------------------
  C      0.000000    1.377987   -0.525257
  C      0.000000    0.695340   -1.726214
  C      0.000000   -0.695340   -1.726214
  C      0.000000   -1.377987   -0.525257
  C      0.000000   -0.694285    0.684098
  C      0.000000    0.694285    0.684098
  F      0.000000    2.719143   -0.501822
  H      0.000000    1.255360   -2.649366
  H      0.000000   -1.255360   -2.649366
  F      0.000000   -2.719143   -0.501822
  F      0.000000   -1.357117    1.841111
  F      0.000000    1.357117    1.841111

 Total Charge           Charge          ....    0
 Multiplicity           Mult            ....    1
 Number of Electrons    NEL             ....   74
 Basis Dimension        Dim             ....  248

ORBITAL ENERGIES
----------------

  NO   OCC          E(Eh)            E(eV)
   0   2.0000     -26.359183      -717.2698
   1   2.0000     -26.359179      -717.2697
   2   2.0000     -26.352397      -717.0852
   3   2.0000     -26.352396      -717.0851
   4   2.0000     -11.377734      -309.6039
   5   2.0000     -11.376525      -309.5710
   6   2.0000     -11.370326      -309.4023
   7   2.0000     -11.370317      -309.4021
   8   2.0000     -11.288550      -307.1771
   9   2.0000     -11.287342      -307.1442
  10   2.0000      -1.679953       -45.7139
  11   2.0000      -1.669572       -45.4314
  12   2.0000      -1.659546       -45.1586
  13   2.0000      -1.656024       -45.0627
  14   2.0000      -1.212285       -32.9879
  15   2.0000      -1.075183       -29.2572
  16   2.0000      -1.066349       -29.0168
  17   2.0000      -0.917291       -24.9608
  18   2.0000      -0.909056       -24.7367
  19   2.0000      -0.813213       -22.1287
  20   2.0000      -0.804997       -21.9051
  21   2.0000      -0.796217       -21.6662
  22   2.0000      -0.755381       -20.5550
  23   2.0000      -0.752367       -20.4729
  24   2.0000      -0.728994       -19.8369
  25   2.0000      -0.728660       -19.8278
  26   2.0000      -0.714435       -19.4408
  27   2.0000      -0.706783       -19.2325
  28   2.0000      -0.690272       -18.7833
  29   2.0000      -0.686240       -18.6735
  30   2.0000      -0.682655       -18.5760
  31   2.0000      -0.618450       -16.8289
  32   2.0000      -0.594701       -16.1826
  33   2.0000      -0.574226       -15.6255
  34   2.0000      -0.534289       -14.5387
  35   2.0000      -0.379872       -10.3368
  36   2.0000      -0.369858       -10.0643
  37   0.0000       0.029113         0.7922
  38   0.0000       0.044818         1.2196
  39   0.0000       0.064960         1.7676
  40   0.0000       0.085470         2.3258
  41   0.0000       0.087245         2.3741

MULLIKEN ATOMIC CHARGES
-----------------------
   0 C :    0.811566
   1 C :    0.389237
   2 C :    0.389237
   3 C :    0.811566
   4 C :    0.733846
   5 C :    0.733846
   6 F :   -0.790243
   7 H :   -0.386108
   8 H :   -0.386108
   9 F :   -0.790243
  10 F :   -0.758298
  11 F :   -0.758298
Sum of atomic charges:    0.0000000

LOEWDIN ATOMIC CHARGES
----------------------
   0 C :   -0.156136
   1 C :    0.063742
   2 C :    0.063742
   3 C :   -0.156136
   4 C :   -0.114710
   5 C :   -0.114710
   6 F :    0.085481
   7 H :    0.016708
   8 H :    0.016708
   9 F :    0.085481
  10 F :    0.104915
  11 F :    0.104915

  Mayer bond orders larger than 0.100000
B(  0-C ,  1-C ) :   1.6237 B(  0-C ,  5-C ) :   1.4138 B(  0-C ,  6-F ) :  -0.5188
B(  0-C ,  7-H ) :   0.2520 B(  0-C , 11-F ) :   0.3131 B(  1-C ,  2-C ) :   1.8489
B(  1-C ,  4-C ) :   0.1888 B(  1-C ,  6-F ) :   0.2516 B(  1-C ,  7-H ) :   0.4368
B(  2-C ,  3-C ) :   1.6237 B(  2-C ,  5-C ) :   0.1888 B(  2-C ,  8-H ) :   0.4368
B(  2-C ,  9-F ) :   0.2516 B(  3-C ,  4-C ) :   1.4138 B(  3-C ,  8-H ) :   0.2520
B(  3-C ,  9-F ) :  -0.5188 B(  3-C , 10-F ) :   0.3131 B(  4-C ,  5-C ) :   1.5125
B(  4-C ,  9-F ) :   0.3808 B(  4-C , 10-F ) :  -0.5211 B(  4-C , 11-F ) :   0.3627
B(  5-C ,  6-F ) :   0.3808 B(  5-C , 10-F ) :   0.3627 B(  5-C , 11-F ) :  -0.5211

MP2 TOTAL ENERGY:     -627.748732102 Eh
FINAL SINGLE POINT ENERGY      -627.748732102364

DIPOLE MOMENT
-------------
                                X             Y             Z
Electronic contribution:     -0.00000      -0.00000       6.18272
Nuclear contribution   :      0.00000       0.00000      -7.35668
                        -----------------------------------------
Total Dipole Moment    :     -0.00000      -0.00000      -1.17396
                        -----------------------------------------
Magnitude (a.u.)       :      1.17396
Magnitude (Debye)      :      2.98396

Rotational constants in cm-1:     0.069790     0.039862     0.025371
Rotational constants in MHz :  2092.244442  1195.040388   760.602363

                             ****ORCA TERMINATED NORMALLY****
TOTAL RUN TIME: 0 days 0 hours 0 minutes 52 seconds 175 msec
