                         Program Version 5.0.3 -  RELEASE  -
|  1> !ri-mp2 aug-cc-pvdz aug-cc-pvdz/c tightscf
|  2> %pal nprocs 16 end
|  3>
|  4> * xyz 0 1
|  5> C      1.223728    0.268149        0.000000
|  6> C      1.156706   -1.073788        0.000000
|  7> C     -1.203480   -0.921610        0.000000
|  8> C      0.000000    1.076085        0.000000
|  9> N     -1.223091    0.359317        0.000000
| 10> N     -0.072567   -1.688836        0.000000
| 11> O      0.011892    2.291393        0.000000
| 12> H      2.174691    0.778052        0.000000
| 13> H      2.019381   -1.723884        0.000000
| 14> H     -2.135162   -1.480194        0.000000
| 15> H     -0.146168   -2.691497        0.000000
| 16> *
| 17>
| 18>                          ****END OF INPUT****

CARTESIAN COORDINATES (ANGSTROEM)
---------------------------------
  C      1.223728    0.268149    0.000000
  C      1.156706   -1.073788    0.000000
  C     -1.203480   -0.921610    0.000000
  C      0.000000    1.076085    0.000000
  N     -1.223091    0.359317    0.000000
  N     -0.072567   -1.688836    0.000000
  O      0.011892    2.291393    0.000000
  H      2.174691    0.778052    0.000000
  H      2.019381   -1.723884    0.000000
  H     -2.135162   -1.480194    0.000000
  H     -0.146168   -2.691497    0.000000

 Total Charge           Charge          ....    0
 Multiplicity           Mult            ....    1
 Number of Electrons    NEL             ....   50
 Basis Dimension        Dim             ....  197

ORBITAL ENERGIES
----------------

  NO   OCC          E(Eh)            E(eV)
   0   2.0000     -20.523492      -558.4726
   1   2.0000     -15.656587      -426.0374
   2   2.0000     -15.572993      -423.7627
   3   2.0000     -11.362363      -309.1856
   4   2.0000     -11.352200      -308.9091
   5   2.0000     -11.328794      -308.2722
   6   2.0000     -11.253770      -306.2307
   7   2.0000      -1.380376       -37.5619
   8   2.0000      -1.342702       -36.5368
   9   2.0000      -1.213059       -33.0090
  10   2.0000      -1.085845       -29.5474
  11   2.0000      -0.916370       -24.9357
  12   2.0000      -0.883939       -24.0532
  13   2.0000      -0.802070       -21.8254
  14   2.0000      -0.734286       -19.9809
  15   2.0000      -0.690139       -18.7796
  16   2.0000      -0.646871       -17.6023
  17   2.0000      -0.626409       -17.0455
  18   2.0000      -0.613633       -16.6978
  19   2.0000      -0.587149       -15.9771
  20   2.0000      -0.529130       -14.3984
  21   2.0000      -0.460447       -12.5294
  22   2.0000      -0.436332       -11.8732
  23   2.0000      -0.405826       -11.0431
  24   2.0000      -0.352330        -9.5874
  25   0.0000       0.012558         0.3417
  26   0.0000       0.032304         0.8790
  27   0.0000       0.045841         1.2474
  28   0.0000       0.062190         1.6923
  29   0.0000       0.071718         1.9515

MULLIKEN ATOMIC CHARGES
-----------------------
   0 C :    0.733576
   1 C :    0.730948
   2 C :    0.849121
   3 C :    0.678630
   4 N :   -0.672646
   5 N :   -0.544478
   6 O :   -0.780054
   7 H :   -0.400934
   8 H :   -0.328238
   9 H :   -0.195104
  10 H :   -0.070821
Sum of atomic charges:    0.0000000

LOEWDIN ATOMIC CHARGES
----------------------
   0 C :    0.072647
   1 C :    0.040770
   2 C :   -0.012058
   3 C :   -0.364094
   4 N :    0.080191
   5 N :    0.087372
   6 O :    0.015649
   7 H :    0.004654
   8 H :    0.020215
   9 H :    0.026667
  10 H :    0.027988

  Mayer bond orders larger than 0.100000
B(  0-C ,  1-C ) :   1.7224 B(  0-C ,  3-C ) :   0.7865 B(  0-C ,  7-H ) :   0.6781
B(  1-C ,  5-N ) :   0.9078 B(  1-C ,  8-H ) :   0.7193 B(  1-C , 10-H ) :  -0.1100
B(  2-C ,  4-N ) :   1.5793 B(  2-C ,  5-N ) :   0.9801 B(  2-C ,  9-H ) :   1.0216
B(  2-C , 10-H ) :  -0.1046 B(  3-C ,  4-N ) :   0.8251 B(  3-C ,  6-O ) :   1.3881
B(  5-N , 10-H ) :   1.1838

MP2 TOTAL ENERGY:     -338.659024245 Eh
FINAL SINGLE POINT ENERGY      -338.659024245267

DIPOLE MOMENT
-------------
                                X             Y             Z
Electronic contribution:     -1.20346       1.70036      -0.00000
Nuclear contribution   :      1.86199      -4.97346       0.00000
                        -----------------------------------------
Total Dipole Moment    :      0.65853      -3.27311      -0.00000
                        -----------------------------------------
Magnitude (a.u.)       :      3.33870
Magnitude (Debye)      :      8.48629

Rotational constants in cm-1:     0.196156     0.095008     0.064006
Rotational constants in MHz :  5880.623868  2848.261055  1918.865020

                             ****ORCA TERMINATED NORMALLY****
TOTAL RUN TIME: 0 days 0 hours 0 minutes 42 seconds 362 msec
