                         Program Version 5.0.3 -  RELEASE  -
|  1> !ri-mp2 aug-cc-pvdz aug-cc-pvdz/c tightscf
|  2> %pal nprocs 16 end
|  3> %maxcore 3800
|  4>
|  5> * xyz 0 1
|  6> C     0.000000     4.931161    0.525769
|  7> C     0.000000    -4.931161    0.525769
|  8> C     0.000000     3.717960   -0.402856
|  9> C     0.000000    -3.717960   -0.402856
| 10> C     0.000000     2.388987    0.353309
| 11> C     0.000000    -2.388987    0.353309
| 12> C     0.000000     1.184688   -0.571073
| 13> C     0.000000    -1.184688   -0.571073
| 14> O     0.000000     0.000000    0.205597
| 15> H    -0.880623     4.932775    1.171072
| 16> H     0.880623     4.932775    1.171072
| 17> H     0.000000     5.864641   -0.038469
| 18> H     0.880623    -4.932775    1.171072
| 19> H    -0.880623    -4.932775    1.171072
| 20> H     0.000000    -5.864641   -0.038469
| 21> H    -0.874418     3.763393   -1.058921
| 22> H     0.874418     3.763393   -1.058921
| 23> H     0.874418    -3.763393   -1.058921
| 24> H    -0.874418    -3.763393   -1.058921
| 25> H     0.876326     2.331130    1.004232
| 26> H    -0.876326     2.331130    1.004232
| 27> H    -0.876326    -2.331130    1.004232
| 28> H     0.876326    -2.331130    1.004232
| 29> H    -0.884669     1.203511   -1.223789
| 30> H     0.884669     1.203511   -1.223789
| 31> H     0.884669    -1.203511   -1.223789
| 32> H    -0.884669    -1.203511   -1.223789
| 33> *
| 34>
| 35>                          ****END OF INPUT****

CARTESIAN COORDINATES (ANGSTROEM)
---------------------------------
  C      0.000000    4.931161    0.525769
  C      0.000000   -4.931161    0.525769
  C      0.000000    3.717960   -0.402856
  C      0.000000   -3.717960   -0.402856
  C      0.000000    2.388987    0.353309
  C      0.000000   -2.388987    0.353309
  C      0.000000    1.184688   -0.571073
  C      0.000000   -1.184688   -0.571073
  O      0.000000    0.000000    0.205597
  H     -0.880623    4.932775    1.171072
  H      0.880623    4.932775    1.171072
  H      0.000000    5.864641   -0.038469
  H      0.880623   -4.932775    1.171072
  H     -0.880623   -4.932775    1.171072
  H      0.000000   -5.864641   -0.038469
  H     -0.874418    3.763393   -1.058921
  H      0.874418    3.763393   -1.058921
  H      0.874418   -3.763393   -1.058921
  H     -0.874418   -3.763393   -1.058921
  H      0.876326    2.331130    1.004232
  H     -0.876326    2.331130    1.004232
  H     -0.876326   -2.331130    1.004232
  H      0.876326   -2.331130    1.004232
  H     -0.884669    1.203511   -1.223789
  H      0.884669    1.203511   -1.223789
  H      0.884669   -1.203511   -1.223789
  H     -0.884669   -1.203511   -1.223789

 Total Charge           Charge          ....    0
 Multiplicity           Mult            ....    1
 Number of Electrons    NEL             ....   74
 Basis Dimension        Dim             ....  369

ORBITAL ENERGIES
----------------

  NO   OCC          E(Eh)            E(eV)
   0   2.0000     -20.557507      -559.3982
   1   2.0000     -11.273772      -306.7749
   2   2.0000     -11.273750      -306.7743
   3   2.0000     -11.224921      -305.4456
   4   2.0000     -11.224920      -305.4456
   5   2.0000     -11.218605      -305.2738
   6   2.0000     -11.218604      -305.2737
   7   2.0000     -11.217882      -305.2541
   8   2.0000     -11.217882      -305.2541
   9   2.0000      -1.370331       -37.2886
  10   2.0000      -1.080902       -29.4128
  11   2.0000      -1.064295       -28.9609
  12   2.0000      -0.995018       -27.0758
  13   2.0000      -0.953128       -25.9359
  14   2.0000      -0.865542       -23.5526
  15   2.0000      -0.834512       -22.7082
  16   2.0000      -0.801161       -21.8007
  17   2.0000      -0.787288       -21.4232
  18   2.0000      -0.678731       -18.4692
  19   2.0000      -0.648496       -17.6465
  20   2.0000      -0.641419       -17.4539
  21   2.0000      -0.616456       -16.7746
  22   2.0000      -0.611432       -16.6379
  23   2.0000      -0.574778       -15.6405
  24   2.0000      -0.570049       -15.5118
  25   2.0000      -0.558557       -15.1991
  26   2.0000      -0.530232       -14.4283
  27   2.0000      -0.522355       -14.2140
  28   2.0000      -0.505745       -13.7620
  29   2.0000      -0.493945       -13.4409
  30   2.0000      -0.477201       -12.9853
  31   2.0000      -0.471988       -12.8434
  32   2.0000      -0.467242       -12.7143
  33   2.0000      -0.461844       -12.5674
  34   2.0000      -0.459773       -12.5111
  35   2.0000      -0.453371       -12.3368
  36   2.0000      -0.414143       -11.2694
  37   0.0000       0.037407         1.0179
  38   0.0000       0.038443         1.0461
  39   0.0000       0.044479         1.2103
  40   0.0000       0.045904         1.2491
  41   0.0000       0.051554         1.4028

MULLIKEN ATOMIC CHARGES
-----------------------
   0 C :    0.430472
   1 C :    0.430472
   2 C :    0.447394
   3 C :    0.447394
   4 C :    0.299660
   5 C :    0.299660
   6 C :    0.613707
   7 C :    0.613706
   8 O :   -0.843884
   9 H :   -0.082595
  10 H :   -0.082595
  11 H :   -0.068567
  12 H :   -0.082595
  13 H :   -0.082595
  14 H :   -0.068567
  15 H :   -0.181483
  16 H :   -0.181483
  17 H :   -0.181483
  18 H :   -0.181483
  19 H :   -0.203122
  20 H :   -0.203122
  21 H :   -0.203122
  22 H :   -0.203122
  23 H :   -0.183162
  24 H :   -0.183162
  25 H :   -0.183162
  26 H :   -0.183162
Sum of atomic charges:   -0.0000000

LOEWDIN ATOMIC CHARGES
----------------------
   0 C :    0.130625
   1 C :    0.130625
   2 C :   -0.072082
   3 C :   -0.072082
   4 C :   -0.035008
   5 C :   -0.035008
   6 C :   -0.049463
   7 C :   -0.049463
   8 O :    0.009298
   9 H :   -0.019568
  10 H :   -0.019568
  11 H :   -0.021998
  12 H :   -0.019568
  13 H :   -0.019568
  14 H :   -0.021998
  15 H :    0.009883
  16 H :    0.009883
  17 H :    0.009883
  18 H :    0.009883
  19 H :    0.019091
  20 H :    0.019091
  21 H :    0.019091
  22 H :    0.019091
  23 H :    0.012232
  24 H :    0.012232
  25 H :    0.012232
  26 H :    0.012232

  Mayer bond orders larger than 0.100000
B(  0-C ,  2-C ) :   1.2273 B(  0-C ,  9-H ) :   0.9207 B(  0-C , 10-H ) :   0.9207
B(  0-C , 11-H ) :   0.9338 B(  1-C ,  3-C ) :   1.2273 B(  1-C , 12-H ) :   0.9207
B(  1-C , 13-H ) :   0.9207 B(  1-C , 14-H ) :   0.9338 B(  2-C ,  4-C ) :   1.2065
B(  2-C ,  6-C ) :  -0.1715 B(  2-C , 15-H ) :   0.7469 B(  2-C , 16-H ) :   0.7469
B(  3-C ,  5-C ) :   1.2065 B(  3-C ,  7-C ) :  -0.1715 B(  3-C , 17-H ) :   0.7469
B(  3-C , 18-H ) :   0.7469 B(  4-C ,  6-C ) :   1.2738 B(  4-C , 19-H ) :   0.7707
B(  4-C , 20-H ) :   0.7707 B(  5-C ,  7-C ) :   1.2738 B(  5-C , 21-H ) :   0.7707
B(  5-C , 22-H ) :   0.7707 B(  6-C ,  7-C ) :   0.3605 B(  6-C ,  8-O ) :   0.7016
B(  6-C , 19-H ) :   0.1005 B(  6-C , 20-H ) :   0.1005 B(  6-C , 23-H ) :   0.7872
B(  6-C , 24-H ) :   0.7872 B(  6-C , 25-H ) :   0.1219 B(  6-C , 26-H ) :   0.1219
B(  7-C ,  8-O ) :   0.7016 B(  7-C , 21-H ) :   0.1005 B(  7-C , 22-H ) :   0.1005
B(  7-C , 23-H ) :   0.1219 B(  7-C , 24-H ) :   0.1219 B(  7-C , 25-H ) :   0.7872
B(  7-C , 26-H ) :   0.7872

MP2 TOTAL ENERGY:     -389.724179882 Eh
FINAL SINGLE POINT ENERGY      -389.724179882101

DIPOLE MOMENT
-------------
                                X             Y             Z
Electronic contribution:      0.00000       0.00000       0.05513
Nuclear contribution   :      0.00000       0.00000      -0.53712
                        -----------------------------------------
Total Dipole Moment    :      0.00000       0.00000      -0.48199
                        -----------------------------------------
Magnitude (a.u.)       :      0.48199
Magnitude (Debye)      :      1.22513

Rotational constants in cm-1:     0.308374     0.012471     0.012202
Rotational constants in MHz :  9244.814829   373.865743   365.816678

                             ****ORCA TERMINATED NORMALLY****
TOTAL RUN TIME: 0 days 0 hours 1 minutes 46 seconds 76 msec
