                         Program Version 5.0.3 -  RELEASE  -
|  1> !ri-mp2 aug-cc-pvdz aug-cc-pvdz/c tightscf
|  2> %pal nprocs 16 end
|  3>
|  4> * xyz 0 1
|  5> C     -0.104320   -1.183383    1.206556
|  6> C     -0.104320   -1.183383   -1.206556
|  7> C     -0.104320    0.339172    1.204675
|  8> C     -0.104320    0.339172   -1.204675
|  9> C      0.628275    2.299249    0.000000
| 10> N     -0.769930   -1.666118    0.000000
| 11> N      0.541509    0.851074    0.000000
| 12> H      0.937429   -1.532481    1.281318
| 13> H     -0.646488   -1.547447    2.080373
| 14> H     -0.646488   -1.547447   -2.080373
| 15> H      0.937429   -1.532481   -1.281318
| 16> H     -1.145389    0.697953    1.285374
| 17> H      0.442711    0.708091    2.074318
| 18> H      0.442711    0.708091   -2.074318
| 19> H     -1.145389    0.697953   -1.285374
| 20> H      1.171992    2.637024    0.883042
| 21> H     -0.360624    2.789441    0.000000
| 22> H      1.171992    2.637024   -0.883042
| 23> H     -0.826919   -2.675387    0.000000
| 24> *
| 25>
| 26>                          ****END OF INPUT****

CARTESIAN COORDINATES (ANGSTROEM)
---------------------------------
  C     -0.104320   -1.183383    1.206556
  C     -0.104320   -1.183383   -1.206556
  C     -0.104320    0.339172    1.204675
  C     -0.104320    0.339172   -1.204675
  C      0.628275    2.299249    0.000000
  N     -0.769930   -1.666118    0.000000
  N      0.541509    0.851074    0.000000
  H      0.937429   -1.532481    1.281318
  H     -0.646488   -1.547447    2.080373
  H     -0.646488   -1.547447   -2.080373
  H      0.937429   -1.532481   -1.281318
  H     -1.145389    0.697953    1.285374
  H      0.442711    0.708091    2.074318
  H      0.442711    0.708091   -2.074318
  H     -1.145389    0.697953   -1.285374
  H      1.171992    2.637024    0.883042
  H     -0.360624    2.789441    0.000000
  H      1.171992    2.637024   -0.883042
  H     -0.826919   -2.675387    0.000000

 Total Charge           Charge          ....    0
 Multiplicity           Mult            ....    1
 Number of Electrons    NEL             ....   56
 Basis Dimension        Dim             ....  269

ORBITAL ENERGIES
----------------

  NO   OCC          E(Eh)            E(eV)
   0   2.0000     -15.548758      -423.1032
   1   2.0000     -15.546081      -423.0304
   2   2.0000     -11.248379      -306.0839
   3   2.0000     -11.248361      -306.0835
   4   2.0000     -11.246492      -306.0326
   5   2.0000     -11.246477      -306.0322
   6   2.0000     -11.245059      -305.9936
   7   2.0000      -1.246520       -33.9195
   8   2.0000      -1.185173       -32.2502
   9   2.0000      -1.023403       -27.8482
  10   2.0000      -0.964560       -26.2470
  11   2.0000      -0.860099       -23.4045
  12   2.0000      -0.857507       -23.3339
  13   2.0000      -0.755889       -20.5688
  14   2.0000      -0.689335       -18.7578
  15   2.0000      -0.632687       -17.2163
  16   2.0000      -0.624950       -17.0058
  17   2.0000      -0.606157       -16.4944
  18   2.0000      -0.603355       -16.4181
  19   2.0000      -0.578803       -15.7500
  20   2.0000      -0.543002       -14.7758
  21   2.0000      -0.526517       -14.3273
  22   2.0000      -0.511937       -13.9305
  23   2.0000      -0.488983       -13.3059
  24   2.0000      -0.466504       -12.6942
  25   2.0000      -0.458942       -12.4884
  26   2.0000      -0.366514        -9.9734
  27   2.0000      -0.348703        -9.4887
  28   0.0000       0.036858         1.0029
  29   0.0000       0.043337         1.1793
  30   0.0000       0.045635         1.2418
  31   0.0000       0.049617         1.3501
  32   0.0000       0.062365         1.6970

MULLIKEN ATOMIC CHARGES
-----------------------
   0 C :    0.763712
   1 C :    0.763712
   2 C :    0.661976
   3 C :    0.661976
   4 C :    0.668731
   5 N :   -0.634851
   6 N :   -0.964105
   7 H :   -0.120597
   8 H :   -0.201905
   9 H :   -0.201905
  10 H :   -0.120597
  11 H :   -0.116547
  12 H :   -0.269890
  13 H :   -0.269890
  14 H :   -0.116547
  15 H :   -0.187881
  16 H :   -0.024748
  17 H :   -0.187881
  18 H :   -0.102763
Sum of atomic charges:   -0.0000000

LOEWDIN ATOMIC CHARGES
----------------------
   0 C :   -0.029454
   1 C :   -0.029454
   2 C :   -0.024004
   3 C :   -0.024004
   4 C :    0.132743
   5 N :    0.037051
   6 N :   -0.165161
   7 H :    0.019091
   8 H :    0.015528
   9 H :    0.015528
  10 H :    0.019091
  11 H :    0.027324
  12 H :    0.018737
  13 H :    0.018737
  14 H :    0.027324
  15 H :   -0.015132
  16 H :   -0.007579
  17 H :   -0.015132
  18 H :   -0.021232

  Mayer bond orders larger than 0.100000
B(  0-C ,  2-C ) :   1.3040 B(  0-C ,  5-N ) :   0.9472 B(  0-C ,  7-H ) :   0.8281
B(  0-C ,  8-H ) :   0.8320 B(  1-C ,  3-C ) :   1.3040 B(  1-C ,  5-N ) :   0.9472
B(  1-C ,  9-H ) :   0.8320 B(  1-C , 10-H ) :   0.8281 B(  2-C ,  6-N ) :   0.9578
B(  2-C , 11-H ) :   0.8209 B(  2-C , 12-H ) :   0.8748 B(  3-C ,  6-N ) :   0.9578
B(  3-C , 13-H ) :   0.8748 B(  3-C , 14-H ) :   0.8209 B(  4-C ,  6-N ) :   1.0626
B(  4-C , 15-H ) :   0.9993 B(  4-C , 16-H ) :   0.8016 B(  4-C , 17-H ) :   0.9993
B(  5-N , 18-H ) :   1.1031 B(  6-N , 11-H ) :   0.1290 B(  6-N , 14-H ) :   0.1290
B(  6-N , 16-H ) :   0.1766 B(  7-H ,  8-H ) :  -0.1243 B(  9-H , 10-H ) :  -0.1243
B( 11-H , 12-H ) :  -0.1041 B( 13-H , 14-H ) :  -0.1041 B( 15-H , 17-H ) :  -0.1237

MP2 TOTAL ENERGY:     -306.334507352 Eh
FINAL SINGLE POINT ENERGY      -306.334507352479

DIPOLE MOMENT
-------------
                                X             Y             Z
Electronic contribution:     -0.24948      -2.25853      -0.00000
Nuclear contribution   :      0.34821       2.13731      -0.00000
                        -----------------------------------------
Total Dipole Moment    :      0.09873      -0.12122      -0.00000
                        -----------------------------------------
Magnitude (a.u.)       :      0.15634
Magnitude (Debye)      :      0.39738

Rotational constants in cm-1:     0.155379     0.077887     0.056412
Rotational constants in MHz :  4658.156969  2334.994416  1691.177233

                             ****ORCA TERMINATED NORMALLY****
TOTAL RUN TIME: 0 days 0 hours 1 minutes 18 seconds 367 msec
