                         Program Version 5.0.3 -  RELEASE  -
|  1> !ri-mp2 aug-cc-pvdz aug-cc-pvdz/c tightscf
|  2> %pal nprocs 16 end
|  3>
|  4> * xyz 0 1
|  5> C      0.143509    2.259213   -0.972760
|  6> C     -0.143509   -2.259213   -0.972760
|  7> C     -0.493542    1.494787   -0.095250
|  8> C      0.493542   -1.494787   -0.095250
|  9> C      0.143509    0.758656    1.044302
| 10> C     -0.143509   -0.758656    1.044302
| 11> H     -0.382876    2.769274   -1.768280
| 12> H      1.216623    2.403065   -0.926974
| 13> H      0.382876   -2.769274   -1.768280
| 14> H     -1.216623   -2.403065   -0.926974
| 15> H     -1.570475    1.377799   -0.187498
| 16> H      1.570475   -1.377799   -0.187498
| 17> H     -0.232692    1.168727    1.987200
| 18> H      1.222919    0.929600    1.037802
| 19> H     -1.222919   -0.929600    1.037802
| 20> H      0.232692   -1.168727    1.987200
| 21> *
| 22>
| 23>                          ****END OF INPUT****

CARTESIAN COORDINATES (ANGSTROEM)
---------------------------------
  C      0.143509    2.259213   -0.972760
  C     -0.143509   -2.259213   -0.972760
  C     -0.493542    1.494787   -0.095250
  C      0.493542   -1.494787   -0.095250
  C      0.143509    0.758656    1.044302
  C     -0.143509   -0.758656    1.044302
  H     -0.382876    2.769274   -1.768280
  H      1.216623    2.403065   -0.926974
  H      0.382876   -2.769274   -1.768280
  H     -1.216623   -2.403065   -0.926974
  H     -1.570475    1.377799   -0.187498
  H      1.570475   -1.377799   -0.187498
  H     -0.232692    1.168727    1.987200
  H      1.222919    0.929600    1.037802
  H     -1.222919   -0.929600    1.037802
  H      0.232692   -1.168727    1.987200

 Total Charge           Charge          ....    0
 Multiplicity           Mult            ....    1
 Number of Electrons    NEL             ....   46
 Basis Dimension        Dim             ....  228

ORBITAL ENERGIES
----------------

  NO   OCC          E(Eh)            E(eV)
   0   2.0000     -11.236679      -305.7656
   1   2.0000     -11.236659      -305.7650
   2   2.0000     -11.235357      -305.7296
   3   2.0000     -11.234818      -305.7149
   4   2.0000     -11.223742      -305.4135
   5   2.0000     -11.223741      -305.4135
   6   2.0000      -1.100543       -29.9473
   7   2.0000      -1.049383       -28.5552
   8   2.0000      -0.976582       -26.5742
   9   2.0000      -0.867704       -23.6114
  10   2.0000      -0.761871       -20.7316
  11   2.0000      -0.754832       -20.5400
  12   2.0000      -0.644310       -17.5326
  13   2.0000      -0.632501       -17.2112
  14   2.0000      -0.598488       -16.2857
  15   2.0000      -0.597164       -16.2497
  16   2.0000      -0.554865       -15.0986
  17   2.0000      -0.521975       -14.2037
  18   2.0000      -0.505892       -13.7660
  19   2.0000      -0.478532       -13.0215
  20   2.0000      -0.474961       -12.9243
  21   2.0000      -0.359872        -9.7926
  22   2.0000      -0.358037        -9.7427
  23   0.0000       0.037151         1.0109
  24   0.0000       0.043110         1.1731
  25   0.0000       0.044461         1.2098
  26   0.0000       0.047365         1.2889
  27   0.0000       0.063368         1.7243

MULLIKEN ATOMIC CHARGES
-----------------------
   0 C :    0.370485
   1 C :    0.370485
   2 C :    0.821235
   3 C :    0.821235
   4 C :    0.165564
   5 C :    0.165564
   6 H :   -0.311730
   7 H :   -0.307443
   8 H :   -0.311730
   9 H :   -0.307443
  10 H :   -0.471810
  11 H :   -0.471810
  12 H :   -0.023655
  13 H :   -0.242646
  14 H :   -0.242646
  15 H :   -0.023655
Sum of atomic charges:    0.0000000

LOEWDIN ATOMIC CHARGES
----------------------
   0 C :    0.160162
   1 C :    0.160162
   2 C :   -0.069747
   3 C :   -0.069747
   4 C :   -0.038010
   5 C :   -0.038010
   6 H :   -0.045026
   7 H :   -0.039888
   8 H :   -0.045026
   9 H :   -0.039888
  10 H :    0.001859
  11 H :    0.001859
  12 H :    0.016399
  13 H :    0.014251
  14 H :    0.014251
  15 H :    0.016399

  Mayer bond orders larger than 0.100000
B(  0-C ,  2-C ) :   1.9083 B(  0-C ,  6-H ) :   0.7363 B(  0-C ,  7-H ) :   0.9559
B(  1-C ,  3-C ) :   1.9083 B(  1-C ,  8-H ) :   0.7363 B(  1-C ,  9-H ) :   0.9559
B(  2-C ,  4-C ) :   1.0459 B(  2-C ,  6-H ) :   0.1738 B(  2-C , 10-H ) :   0.5930
B(  2-C , 13-H ) :  -0.1070 B(  3-C ,  5-C ) :   1.0459 B(  3-C ,  8-H ) :   0.1738
B(  3-C , 11-H ) :   0.5930 B(  3-C , 14-H ) :  -0.1070 B(  4-C ,  5-C ) :   1.3660
B(  4-C , 10-H ) :  -0.1105 B(  4-C , 12-H ) :   0.8581 B(  4-C , 13-H ) :   0.8236
B(  5-C , 11-H ) :  -0.1105 B(  5-C , 14-H ) :   0.8236 B(  5-C , 15-H ) :   0.8581
B(  6-H ,  7-H ) :  -0.1910 B(  8-H ,  9-H ) :  -0.1910 B( 12-H , 13-H ) :  -0.1055
B( 14-H , 15-H ) :  -0.1055

MP2 TOTAL ENERGY:     -233.862350978 Eh
FINAL SINGLE POINT ENERGY      -233.862350977888

DIPOLE MOMENT
-------------
                                X             Y             Z
Electronic contribution:      0.00000      -0.00000      -0.09704
Nuclear contribution   :      0.00000      -0.00000       0.29920
                        -----------------------------------------
Total Dipole Moment    :      0.00000      -0.00000       0.20216
                        -----------------------------------------
Magnitude (a.u.)       :      0.20216
Magnitude (Debye)      :      0.51385

Rotational constants in cm-1:     0.197356     0.069159     0.057514
Rotational constants in MHz :  5916.572271  2073.336162  1724.232335

                             ****ORCA TERMINATED NORMALLY****
TOTAL RUN TIME: 0 days 0 hours 0 minutes 46 seconds 503 msec
