                         Program Version 5.0.3 -  RELEASE  -
|  1> !ri-mp2 aug-cc-pvdz aug-cc-pvdz/c tightscf
|  2> %pal nprocs 16 end
|  3>
|  4> * xyz 0 1
|  5> C      0.666782    1.690821   -0.460286
|  6> C     -0.725969    0.098901    0.986609
|  7> C      0.649984    0.536037    0.521680
|  8> Cl    -1.857919   -0.342878   -0.351048
|  9> Cl     1.569886   -0.883973   -0.164823
| 10> H      0.168266    1.420936   -1.388454
| 11> H      0.146881    2.547529   -0.025224
| 12> H      1.689864    1.985265   -0.683868
| 13> H     -0.661903   -0.769025    1.634334
| 14> H     -1.198048    0.919690    1.523433
| 15> H      1.206722    0.797530    1.421558
| 16> *
| 17>
| 18>                          ****END OF INPUT****

CARTESIAN COORDINATES (ANGSTROEM)
---------------------------------
  C      0.666782    1.690821   -0.460286
  C     -0.725969    0.098901    0.986609
  C      0.649984    0.536037    0.521680
  Cl    -1.857919   -0.342878   -0.351048
  Cl     1.569886   -0.883973   -0.164823
  H      0.168266    1.420936   -1.388454
  H      0.146881    2.547529   -0.025224
  H      1.689864    1.985265   -0.683868
  H     -0.661903   -0.769025    1.634334
  H     -1.198048    0.919690    1.523433
  H      1.206722    0.797530    1.421558

 Total Charge           Charge          ....    0
 Multiplicity           Mult            ....    1
 Number of Electrons    NEL             ....   58
 Basis Dimension        Dim             ....  177

ORBITAL ENERGIES
----------------

  NO   OCC          E(Eh)            E(eV)
   0   2.0000    -104.829142     -2852.5460
   1   2.0000    -104.824316     -2852.4147
   2   2.0000     -11.326085      -308.1984
   3   2.0000     -11.318345      -307.9878
   4   2.0000     -11.246374      -306.0294
   5   2.0000     -10.555093      -287.2187
   6   2.0000     -10.550298      -287.0882
   7   2.0000      -8.022734      -218.3097
   8   2.0000      -8.019591      -218.2242
   9   2.0000      -8.019478      -218.2211
  10   2.0000      -8.017849      -218.1768
  11   2.0000      -8.014828      -218.0946
  12   2.0000      -8.014739      -218.0921
  13   2.0000      -1.177164       -32.0323
  14   2.0000      -1.110496       -30.2181
  15   2.0000      -1.018778       -27.7224
  16   2.0000      -0.947288       -25.7770
  17   2.0000      -0.802853       -21.8467
  18   2.0000      -0.670372       -18.2418
  19   2.0000      -0.656857       -17.8740
  20   2.0000      -0.612353       -16.6630
  21   2.0000      -0.566453       -15.4140
  22   2.0000      -0.543696       -14.7947
  23   2.0000      -0.528208       -14.3733
  24   2.0000      -0.505999       -13.7689
  25   2.0000      -0.450086       -12.2475
  26   2.0000      -0.443756       -12.0752
  27   2.0000      -0.436419       -11.8756
  28   2.0000      -0.434221       -11.8158
  29   0.0000       0.030099         0.8190
  30   0.0000       0.044686         1.2160
  31   0.0000       0.050218         1.3665
  32   0.0000       0.055736         1.5166
  33   0.0000       0.071082         1.9342

MULLIKEN ATOMIC CHARGES
-----------------------
   0 C :    0.620946
   1 C :    0.163656
   2 C :   -0.530098
   3 Cl:   -0.122370
   4 Cl:   -0.218875
   5 H :    0.004842
   6 H :   -0.019634
   7 H :   -0.050540
   8 H :    0.080254
   9 H :    0.058505
  10 H :    0.013313
Sum of atomic charges:   -0.0000000

LOEWDIN ATOMIC CHARGES
----------------------
   0 C :    0.094011
   1 C :   -0.348921
   2 C :   -0.587645
   3 Cl:    0.470897
   4 Cl:    0.484987
   5 H :   -0.028813
   6 H :   -0.009037
   7 H :   -0.015969
   8 H :   -0.032606
   9 H :   -0.024932
  10 H :   -0.001973

  Mayer bond orders larger than 0.100000
B(  0-C ,  2-C ) :   1.2078 B(  0-C ,  5-H ) :   0.9520 B(  0-C ,  6-H ) :   0.8586
B(  0-C ,  7-H ) :   0.8734 B(  1-C ,  2-C ) :   1.1991 B(  1-C ,  3-Cl) :   1.2166
B(  1-C ,  8-H ) :   0.8516 B(  1-C ,  9-H ) :   0.8331 B(  2-C ,  3-Cl) :  -0.3023
B(  2-C ,  4-Cl) :   0.9584 B(  2-C ,  9-H ) :   0.1083 B(  2-C , 10-H ) :   0.8906

MP2 TOTAL ENERGY:    -1036.871900508 Eh
FINAL SINGLE POINT ENERGY     -1036.871900507855

DIPOLE MOMENT
-------------
                                X             Y             Z
Electronic contribution:     -1.60510      -7.39901      -2.26862
Nuclear contribution   :      1.70050       8.34614       3.10415
                        -----------------------------------------
Total Dipole Moment    :      0.09539       0.94713       0.83553
                        -----------------------------------------
Magnitude (a.u.)       :      1.26660
Magnitude (Debye)      :      3.21943

Rotational constants in cm-1:     0.145645     0.063594     0.053234
Rotational constants in MHz :  4366.323771  1906.490088  1595.912347

                             ****ORCA TERMINATED NORMALLY****
TOTAL RUN TIME: 0 days 0 hours 0 minutes 54 seconds 362 msec
