                         Program Version 5.0.3 -  RELEASE  -
|  1> !ri-mp2 aug-cc-pvdz aug-cc-pvdz/c tightscf
|  2> %pal nprocs 16 end
|  3>
|  4> * xyz 0 1
|  5> C      3.132473    0.770972    0.253731
|  6> C     -3.489777    0.102524    0.120232
|  7> C      2.463060   -0.488339   -0.280821
|  8> C     -1.182999   -0.374018    0.214782
|  9> C      0.153763    0.132123   -0.293733
| 10> O     -2.191518    0.483645   -0.283274
| 11> O      1.158560   -0.710687    0.238596
| 12> H      4.155816    0.833282   -0.120982
| 13> H      2.611059    1.675762   -0.058785
| 14> H      3.167460    0.751844    1.343340
| 15> H     -4.186566    0.819251   -0.309463
| 16> H     -3.589678    0.116485    1.212175
| 17> H     -3.741954   -0.902048   -0.239929
| 18> H      3.038609   -1.367952    0.008601
| 19> H      2.422491   -0.463753   -1.377404
| 20> H     -1.184178   -0.379223    1.312052
| 21> H     -1.345961   -1.404224   -0.125418
| 22> H      0.289010    1.172957    0.018531
| 23> H      0.168426    0.104380   -1.390449
| 24> *
| 25>
| 26>                          ****END OF INPUT****

CARTESIAN COORDINATES (ANGSTROEM)
---------------------------------
  C      3.132473    0.770972    0.253731
  C     -3.489777    0.102524    0.120232
  C      2.463060   -0.488339   -0.280821
  C     -1.182999   -0.374018    0.214782
  C      0.153763    0.132123   -0.293733
  O     -2.191518    0.483645   -0.283274
  O      1.158560   -0.710687    0.238596
  H      4.155816    0.833282   -0.120982
  H      2.611059    1.675762   -0.058785
  H      3.167460    0.751844    1.343340
  H     -4.186566    0.819251   -0.309463
  H     -3.589678    0.116485    1.212175
  H     -3.741954   -0.902048   -0.239929
  H      3.038609   -1.367952    0.008601
  H      2.422491   -0.463753   -1.377404
  H     -1.184178   -0.379223    1.312052
  H     -1.345961   -1.404224   -0.125418
  H      0.289010    1.172957    0.018531
  H      0.168426    0.104380   -1.390449

 Total Charge           Charge          ....    0
 Multiplicity           Mult            ....    1
 Number of Electrons    NEL             ....   58
 Basis Dimension        Dim             ....  269

ORBITAL ENERGIES
----------------

  NO   OCC          E(Eh)            E(eV)
   0   2.0000     -20.565756      -559.6227
   1   2.0000     -20.562372      -559.5306
   2   2.0000     -11.280535      -306.9590
   3   2.0000     -11.277411      -306.8739
   4   2.0000     -11.276746      -306.8559
   5   2.0000     -11.275795      -306.8300
   6   2.0000     -11.222538      -305.3808
   7   2.0000      -1.381570       -37.5944
   8   2.0000      -1.369842       -37.2753
   9   2.0000      -1.040665       -28.3179
  10   2.0000      -0.993284       -27.0286
  11   2.0000      -0.912905       -24.8414
  12   2.0000      -0.846365       -23.0308
  13   2.0000      -0.816228       -22.2107
  14   2.0000      -0.684412       -18.6238
  15   2.0000      -0.668539       -18.1919
  16   2.0000      -0.660839       -17.9823
  17   2.0000      -0.632838       -17.2204
  18   2.0000      -0.614639       -16.7252
  19   2.0000      -0.609515       -16.5857
  20   2.0000      -0.570425       -15.5220
  21   2.0000      -0.543508       -14.7896
  22   2.0000      -0.533865       -14.5272
  23   2.0000      -0.510044       -13.8790
  24   2.0000      -0.493923       -13.4403
  25   2.0000      -0.477313       -12.9883
  26   2.0000      -0.462642       -12.5891
  27   2.0000      -0.422212       -11.4890
  28   2.0000      -0.417253       -11.3540
  29   0.0000       0.037523         1.0210
  30   0.0000       0.041487         1.1289
  31   0.0000       0.047872         1.3027
  32   0.0000       0.049776         1.3545
  33   0.0000       0.059030         1.6063

MULLIKEN ATOMIC CHARGES
-----------------------
   0 C :    0.298948
   1 C :    0.759438
   2 C :    0.767125
   3 C :    0.857472
   4 C :    0.761196
   5 O :   -0.870101
   6 O :   -0.912766
   7 H :   -0.067722
   8 H :   -0.093711
   9 H :   -0.062663
  10 H :   -0.272495
  11 H :   -0.058311
  12 H :   -0.062088
  13 H :   -0.299530
  14 H :   -0.074479
  15 H :   -0.154181
  16 H :   -0.157835
  17 H :   -0.225719
  18 H :   -0.132579
Sum of atomic charges:    0.0000000

LOEWDIN ATOMIC CHARGES
----------------------
   0 C :    0.135231
   1 C :    0.122192
   2 C :   -0.066892
   3 C :   -0.044189
   4 C :   -0.038937
   5 O :   -0.025627
   6 O :   -0.000315
   7 H :   -0.017607
   8 H :   -0.027933
   9 H :   -0.014206
  10 H :   -0.028926
  11 H :   -0.023618
  12 H :   -0.023794
  13 H :    0.001407
  14 H :    0.005573
  15 H :    0.013152
  16 H :    0.012866
  17 H :    0.007215
  18 H :    0.014410

  Mayer bond orders larger than 0.100000
B(  0-C ,  2-C ) :   1.2242 B(  0-C ,  7-H ) :   0.9062 B(  0-C ,  8-H ) :   0.9700
B(  0-C ,  9-H ) :   0.9496 B(  1-C ,  5-O ) :   0.7524 B(  1-C , 10-H ) :   1.0562
B(  1-C , 11-H ) :   0.9464 B(  1-C , 12-H ) :   0.9452 B(  2-C ,  6-O ) :   0.6162
B(  2-C , 13-H ) :   1.0139 B(  2-C , 14-H ) :   0.8394 B(  3-C ,  4-C ) :   1.3404
B(  3-C ,  5-O ) :   0.7185 B(  3-C ,  6-O ) :  -0.1176 B(  3-C , 15-H ) :   0.9154
B(  3-C , 16-H ) :   0.8623 B(  4-C ,  5-O ) :  -0.1535 B(  4-C ,  6-O ) :   0.7264
B(  4-C , 17-H ) :   0.8715 B(  4-C , 18-H ) :   0.8652 B( 13-H , 14-H ) :  -0.1389

MP2 TOTAL ENERGY:     -347.202741543 Eh
FINAL SINGLE POINT ENERGY      -347.202741543202

DIPOLE MOMENT
-------------
                                X             Y             Z
Electronic contribution:     -1.81374      -1.02757      -0.32934
Nuclear contribution   :      1.87031       0.99692       0.28403
                        -----------------------------------------
Total Dipole Moment    :      0.05657      -0.03065      -0.04531
                        -----------------------------------------
Magnitude (a.u.)       :      0.07870
Magnitude (Debye)      :      0.20003

Rotational constants in cm-1:     0.339037     0.029840     0.028803
Rotational constants in MHz : 10164.067734   894.595477   863.497281

                             ****ORCA TERMINATED NORMALLY****
TOTAL RUN TIME: 0 days 0 hours 0 minutes 52 seconds 192 msec
