                         Program Version 5.0.3 -  RELEASE  -
|  1> !ri-mp2 aug-cc-pvdz aug-cc-pvdz/c tightscf
|  2> %pal nprocs 16 end
|  3>
|  4> * xyz 0 1
|  5> F     -0.675349   -0.769946    1.097109
|  6> F     -0.675515   -0.770081   -1.096910
|  7> N      2.321971    0.174000   -0.000189
|  8> C     -0.299060   -0.045692    0.000026
|  9> C     -0.986636    1.297029   -0.000005
| 10> C      1.181140    0.048530   -0.000093
| 11> H     -2.061714    1.126864    0.000085
| 12> H     -0.703552    1.858035   -0.887970
| 13> H     -0.703421    1.858143    0.887851
| 14> *
| 15>
| 16>                          ****END OF INPUT****

CARTESIAN COORDINATES (ANGSTROEM)
---------------------------------
  F     -0.675349   -0.769946    1.097109
  F     -0.675515   -0.770081   -1.096910
  N      2.321971    0.174000   -0.000189
  C     -0.299060   -0.045692    0.000026
  C     -0.986636    1.297029   -0.000005
  C      1.181140    0.048530   -0.000093
  H     -2.061714    1.126864    0.000085
  H     -0.703552    1.858035   -0.887970
  H     -0.703421    1.858143    0.887851

 Total Charge           Charge          ....    0
 Multiplicity           Mult            ....    1
 Number of Electrons    NEL             ....   46
 Basis Dimension        Dim             ....  165

ORBITAL ENERGIES
----------------

  NO   OCC          E(Eh)            E(eV)
   0   2.0000     -26.358512      -717.2516
   1   2.0000     -26.358493      -717.2511
   2   2.0000     -15.622529      -425.1106
   3   2.0000     -11.489134      -312.6352
   4   2.0000     -11.312266      -307.8224
   5   2.0000     -11.281270      -306.9790
   6   2.0000      -1.701744       -46.3068
   7   2.0000      -1.638219       -44.5782
   8   2.0000      -1.261074       -34.3156
   9   2.0000      -1.105191       -30.0738
  10   2.0000      -0.962409       -26.1885
  11   2.0000      -0.843459       -22.9517
  12   2.0000      -0.799682       -21.7604
  13   2.0000      -0.766608       -20.8605
  14   2.0000      -0.703760       -19.1503
  15   2.0000      -0.681158       -18.5353
  16   2.0000      -0.663711       -18.0605
  17   2.0000      -0.614738       -16.7279
  18   2.0000      -0.601654       -16.3718
  19   2.0000      -0.594486       -16.1768
  20   2.0000      -0.570021       -15.5111
  21   2.0000      -0.508426       -13.8350
  22   2.0000      -0.503862       -13.7108
  23   0.0000       0.029879         0.8131
  24   0.0000       0.051415         1.3991
  25   0.0000       0.051935         1.4132
  26   0.0000       0.072898         1.9837
  27   0.0000       0.092718         2.5230

MULLIKEN ATOMIC CHARGES
-----------------------
   0 F :   -0.668033
   1 F :   -0.668033
   2 N :   -0.218148
   3 C :    1.652851
   4 C :    0.257392
   5 C :   -0.450097
   6 H :    0.014775
   7 H :    0.039644
   8 H :    0.039647
Sum of atomic charges:    0.0000000

LOEWDIN ATOMIC CHARGES
----------------------
   0 F :    0.073981
   1 F :    0.073981
   2 N :    0.099554
   3 C :   -0.412493
   4 C :    0.202416
   5 C :   -0.055155
   6 H :    0.006203
   7 H :    0.005756
   8 H :    0.005757

  Mayer bond orders larger than 0.100000
B(  0-F ,  4-C ) :   0.1211 B(  0-F ,  5-C ) :   0.1964 B(  1-F ,  4-C ) :   0.1211
B(  1-F ,  5-C ) :   0.1964 B(  2-N ,  5-C ) :   2.6064 B(  3-C ,  4-C ) :   1.4112
B(  3-C ,  5-C ) :   0.2755 B(  3-C ,  6-H ) :   0.2066 B(  4-C ,  6-H ) :   0.8377
B(  4-C ,  7-H ) :   0.8767 B(  4-C ,  8-H ) :   0.8767

MP2 TOTAL ENERGY:     -369.685152726 Eh
FINAL SINGLE POINT ENERGY      -369.685152726254

DIPOLE MOMENT
-------------
                                X             Y             Z
Electronic contribution:      0.93416      -5.17809       0.00025
Nuclear contribution   :     -2.01222       6.03865      -0.00022
                        -----------------------------------------
Total Dipole Moment    :     -1.07806       0.86056       0.00003
                        -----------------------------------------
Magnitude (a.u.)       :      1.37941
Magnitude (Debye)      :      3.50617

Rotational constants in cm-1:     0.172282     0.096108     0.094376
Rotational constants in MHz :  5164.876486  2881.244849  2829.313583

                             ****ORCA TERMINATED NORMALLY****
TOTAL RUN TIME: 0 days 0 hours 0 minutes 31 seconds 633 msec
