                         Program Version 5.0.3 -  RELEASE  -
|  1> !ri-mp2 aug-cc-pvdz aug-cc-pvdz/c tightscf
|  2> %pal nprocs 16 end
|  3>
|  4> * xyz 0 1
|  5> C     0.285090     0.705076    1.402750
|  6> C    -0.285090    -0.705076    1.402750
|  7> C     0.285090     0.705076   -1.402750
|  8> C    -0.285090    -0.705076   -1.402750
|  9> S    -0.285090     1.732970    0.000000
| 10> S     0.285090    -1.732970    0.000000
| 11> H    -0.049188     1.244965    2.289919
| 12> H     1.374611     0.679803    1.411268
| 13> H     0.049188    -1.244965    2.289919
| 14> H    -1.374611    -0.679803    1.411268
| 15> H     1.374611     0.679803   -1.411268
| 16> H    -0.049188     1.244965   -2.289919
| 17> H    -1.374611    -0.679803   -1.411268
| 18> H     0.049188    -1.244965   -2.289919
| 19> *
| 20>
| 21>                          ****END OF INPUT****

CARTESIAN COORDINATES (ANGSTROEM)
---------------------------------
  C      0.285090    0.705076    1.402750
  C     -0.285090   -0.705076    1.402750
  C      0.285090    0.705076   -1.402750
  C     -0.285090   -0.705076   -1.402750
  S     -0.285090    1.732970    0.000000
  S      0.285090   -1.732970    0.000000
  H     -0.049188    1.244965    2.289919
  H      1.374611    0.679803    1.411268
  H      0.049188   -1.244965    2.289919
  H     -1.374611   -0.679803    1.411268
  H      1.374611    0.679803   -1.411268
  H     -0.049188    1.244965   -2.289919
  H     -1.374611   -0.679803   -1.411268
  H      0.049188   -1.244965   -2.289919

 Total Charge           Charge          ....    0
 Multiplicity           Mult            ....    1
 Number of Electrons    NEL             ....   64
 Basis Dimension        Dim             ....  218

ORBITAL ENERGIES
----------------

  NO   OCC          E(Eh)            E(eV)
   0   2.0000     -91.950721     -2502.1063
   1   2.0000     -91.950721     -2502.1063
   2   2.0000     -11.272136      -306.7304
   3   2.0000     -11.272119      -306.7300
   4   2.0000     -11.271520      -306.7136
   5   2.0000     -11.271509      -306.7133
   6   2.0000      -8.952262      -243.6034
   7   2.0000      -8.952259      -243.6033
   8   2.0000      -6.634217      -180.5262
   9   2.0000      -6.634217      -180.5262
  10   2.0000      -6.632803      -180.4877
  11   2.0000      -6.632802      -180.4877
  12   2.0000      -6.630847      -180.4345
  13   2.0000      -6.630846      -180.4345
  14   2.0000      -1.124493       -30.5990
  15   2.0000      -1.042346       -28.3637
  16   2.0000      -1.011641       -27.5282
  17   2.0000      -0.861522       -23.4432
  18   2.0000      -0.849905       -23.1271
  19   2.0000      -0.761339       -20.7171
  20   2.0000      -0.635241       -17.2858
  21   2.0000      -0.634290       -17.2599
  22   2.0000      -0.620624       -16.8880
  23   2.0000      -0.573365       -15.6021
  24   2.0000      -0.566078       -15.4038
  25   2.0000      -0.543568       -14.7912
  26   2.0000      -0.515732       -14.0338
  27   2.0000      -0.447027       -12.1642
  28   2.0000      -0.446662       -12.1543
  29   2.0000      -0.420503       -11.4425
  30   2.0000      -0.352212        -9.5842
  31   2.0000      -0.336931        -9.1683
  32   0.0000       0.037140         1.0106
  33   0.0000       0.039871         1.0849
  34   0.0000       0.048096         1.3088
  35   0.0000       0.056545         1.5387
  36   0.0000       0.059718         1.6250

MULLIKEN ATOMIC CHARGES
-----------------------
   0 C :   -0.093175
   1 C :   -0.093175
   2 C :   -0.093175
   3 C :   -0.093175
   4 S :    0.433783
   5 S :    0.433783
   6 H :   -0.044740
   7 H :   -0.078976
   8 H :   -0.044740
   9 H :   -0.078976
  10 H :   -0.078976
  11 H :   -0.044740
  12 H :   -0.078976
  13 H :   -0.044740
Sum of atomic charges:    0.0000000

LOEWDIN ATOMIC CHARGES
----------------------
   0 C :   -0.345098
   1 C :   -0.345098
   2 C :   -0.345098
   3 C :   -0.345098
   4 S :    0.826138
   5 S :    0.826138
   6 H :   -0.034128
   7 H :   -0.033843
   8 H :   -0.034128
   9 H :   -0.033843
  10 H :   -0.033843
  11 H :   -0.034128
  12 H :   -0.033843
  13 H :   -0.034128

  Mayer bond orders larger than 0.100000
B(  0-C ,  1-C ) :   1.3633 B(  0-C ,  4-S ) :   1.0484 B(  0-C ,  6-H ) :   0.8548
B(  0-C ,  7-H ) :   0.9499 B(  1-C ,  5-S ) :   1.0484 B(  1-C ,  8-H ) :   0.8548
B(  1-C ,  9-H ) :   0.9499 B(  2-C ,  3-C ) :   1.3633 B(  2-C ,  4-S ) :   1.0484
B(  2-C , 10-H ) :   0.9499 B(  2-C , 11-H ) :   0.8548 B(  3-C ,  5-S ) :   1.0484
B(  3-C , 12-H ) :   0.9499 B(  3-C , 13-H ) :   0.8548

MP2 TOTAL ENERGY:     -952.084998922 Eh
FINAL SINGLE POINT ENERGY      -952.084998921505

DIPOLE MOMENT
-------------
                                X             Y             Z
Electronic contribution:     -0.00000       0.00000      -0.00000
Nuclear contribution   :     -0.00000       0.00000      -0.00000
                        -----------------------------------------
Total Dipole Moment    :     -0.00000       0.00000      -0.00000
                        -----------------------------------------
Magnitude (a.u.)       :      0.00000
Magnitude (Debye)      :      0.00000

Rotational constants in cm-1:     0.121435     0.069860     0.048178
Rotational constants in MHz :  3640.530076  2094.352583  1444.333707

                             ****ORCA TERMINATED NORMALLY****
TOTAL RUN TIME: 0 days 0 hours 0 minutes 43 seconds 359 msec
