                         Program Version 5.0.3 -  RELEASE  -
|  1> !ri-mp2 aug-cc-pvdz aug-cc-pvdz/c tightscf
|  2> %pal nprocs 16 end
|  3>
|  4> * xyz 0 1
|  5> C     1.494187     0.000000    0.000000
|  6> C    -1.494187     0.000000    0.000000
|  7> C    -0.664224     1.251037    0.000000
|  8> C     0.664224     1.251037    0.000000
|  9> C    -0.664224    -1.251037    0.000000
| 10> C     0.664224    -1.251037    0.000000
| 11> H     1.198840    -2.194197    0.000000
| 12> H    -1.198840    -2.194197    0.000000
| 13> H     1.198840     2.194197    0.000000
| 14> H    -1.198840     2.194197    0.000000
| 15> H     2.167593     0.000000    0.866807
| 16> H    -2.167593     0.000000    0.866807
| 17> H     2.167593     0.000000   -0.866807
| 18> H    -2.167593     0.000000   -0.866807
| 19> *
| 20>
| 21>                          ****END OF INPUT****

CARTESIAN COORDINATES (ANGSTROEM)
---------------------------------
  C      1.494187    0.000000    0.000000
  C     -1.494187    0.000000    0.000000
  C     -0.664224    1.251037    0.000000
  C      0.664224    1.251037    0.000000
  C     -0.664224   -1.251037    0.000000
  C      0.664224   -1.251037    0.000000
  H      1.198840   -2.194197    0.000000
  H     -1.198840   -2.194197    0.000000
  H      1.198840    2.194197    0.000000
  H     -1.198840    2.194197    0.000000
  H      2.167593    0.000000    0.866807
  H     -2.167593    0.000000    0.866807
  H      2.167593    0.000000   -0.866807
  H     -2.167593    0.000000   -0.866807

 Total Charge           Charge          ....    0
 Multiplicity           Mult            ....    1
 Number of Electrons    NEL             ....   44
 Basis Dimension        Dim             ....  210

ORBITAL ENERGIES
----------------

  NO   OCC          E(Eh)            E(eV)
   0   2.0000     -11.234559      -305.7079
   1   2.0000     -11.234558      -305.7079
   2   2.0000     -11.230024      -305.5845
   3   2.0000     -11.229958      -305.5827
   4   2.0000     -11.228286      -305.5372
   5   2.0000     -11.228249      -305.5362
   6   2.0000      -1.128033       -30.6953
   7   2.0000      -1.014620       -27.6092
   8   2.0000      -1.007348       -27.4113
   9   2.0000      -0.865835       -23.5606
  10   2.0000      -0.787306       -21.4237
  11   2.0000      -0.683351       -18.5949
  12   2.0000      -0.655929       -17.8487
  13   2.0000      -0.603294       -16.4165
  14   2.0000      -0.596167       -16.2225
  15   2.0000      -0.565627       -15.3915
  16   2.0000      -0.561448       -15.2778
  17   2.0000      -0.533757       -14.5243
  18   2.0000      -0.495065       -13.4714
  19   2.0000      -0.447097       -12.1661
  20   2.0000      -0.362345        -9.8599
  21   2.0000      -0.332661        -9.0522
  22   0.0000       0.036170         0.9842
  23   0.0000       0.044142         1.2012
  24   0.0000       0.044313         1.2058
  25   0.0000       0.055009         1.4969
  26   0.0000       0.057959         1.5772

MULLIKEN ATOMIC CHARGES
-----------------------
   0 C :   -0.005638
   1 C :   -0.005638
   2 C :    0.354091
   3 C :    0.354091
   4 C :    0.354091
   5 C :    0.354091
   6 H :   -0.432589
   7 H :   -0.432589
   8 H :   -0.432589
   9 H :   -0.432589
  10 H :    0.081316
  11 H :    0.081316
  12 H :    0.081316
  13 H :    0.081316
Sum of atomic charges:    0.0000000

LOEWDIN ATOMIC CHARGES
----------------------
   0 C :   -0.030228
   1 C :   -0.030228
   2 C :    0.000138
   3 C :    0.000138
   4 C :    0.000138
   5 C :    0.000138
   6 H :   -0.002744
   7 H :   -0.002744
   8 H :   -0.002744
   9 H :   -0.002744
  10 H :    0.017719
  11 H :    0.017719
  12 H :    0.017719
  13 H :    0.017719

  Mayer bond orders larger than 0.100000
B(  0-C ,  1-C ) :   0.1717 B(  0-C ,  2-C ) :  -0.1727 B(  0-C ,  3-C ) :   1.1872
B(  0-C ,  4-C ) :  -0.1727 B(  0-C ,  5-C ) :   1.1872 B(  0-C , 10-H ) :   0.8009
B(  0-C , 12-H ) :   0.8009 B(  1-C ,  2-C ) :   1.1872 B(  1-C ,  3-C ) :  -0.1727
B(  1-C ,  4-C ) :   1.1872 B(  1-C ,  5-C ) :  -0.1727 B(  1-C , 11-H ) :   0.8009
B(  1-C , 13-H ) :   0.8009 B(  2-C ,  3-C ) :   2.1764 B(  2-C ,  5-C ) :   0.2763
B(  2-C ,  8-H ) :   0.2249 B(  2-C ,  9-H ) :   0.5147 B(  3-C ,  4-C ) :   0.2763
B(  3-C ,  8-H ) :   0.5147 B(  3-C ,  9-H ) :   0.2249 B(  4-C ,  5-C ) :   2.1764
B(  4-C ,  6-H ) :   0.2249 B(  4-C ,  7-H ) :   0.5147 B(  5-C ,  6-H ) :   0.5147
B(  5-C ,  7-H ) :   0.2249

MP2 TOTAL ENERGY:     -232.688324221 Eh
FINAL SINGLE POINT ENERGY      -232.688324220590

DIPOLE MOMENT
-------------
                                X             Y             Z
Electronic contribution:     -0.00000      -0.00000       0.00000
Nuclear contribution   :      0.00000       0.00000       0.00000
                        -----------------------------------------
Total Dipole Moment    :     -0.00000      -0.00000       0.00000
                        -----------------------------------------
Magnitude (a.u.)       :      0.00000
Magnitude (Debye)      :      0.00000

Rotational constants in cm-1:     0.172660     0.164310     0.086818
Rotational constants in MHz :  5176.218446  4925.889006  2602.733719

                             ****ORCA TERMINATED NORMALLY****
TOTAL RUN TIME: 0 days 0 hours 0 minutes 35 seconds 857 msec
