                         Program Version 5.0.3 -  RELEASE  -
|  1> !ri-mp2 aug-cc-pvdz aug-cc-pvdz/c tightscf
|  2> %pal nprocs 16 end
|  3>
|  4> * xyz 0 1
|  5> H      0.819970    0.970836    1.504408
|  6> H     -1.166548   -1.746969   -0.177938
|  7> H     -0.984908   -0.880520    1.362012
|  8> C     -1.009069   -0.777888    0.281092
|  9> H      0.177283    0.021144   -1.322049
| 10> Cl     1.582703   -1.367580   -0.036028
| 11> C      0.252711   -0.117091   -0.245865
| 12> C      0.632489    1.180766    0.448756
| 13> H      2.728827    1.294378   -0.120432
| 14> H      2.019134    2.837293    0.352290
| 15> H      1.638622    2.140940   -1.219876
| 16> C      1.825906    1.901249   -0.171533
| 17> H     -0.246766    1.827735    0.407093
| 18> Cl    -2.476694    0.215400   -0.120455
| 19> *
| 20>
| 21>                          ****END OF INPUT****

CARTESIAN COORDINATES (ANGSTROEM)
---------------------------------
  H      0.819970    0.970836    1.504408
  H     -1.166548   -1.746969   -0.177938
  H     -0.984908   -0.880520    1.362012
  C     -1.009069   -0.777888    0.281092
  H      0.177283    0.021144   -1.322049
  Cl     1.582703   -1.367580   -0.036028
  C      0.252711   -0.117091   -0.245865
  C      0.632489    1.180766    0.448756
  H      2.728827    1.294378   -0.120432
  H      2.019134    2.837293    0.352290
  H      1.638622    2.140940   -1.219876
  C      1.825906    1.901249   -0.171533
  H     -0.246766    1.827735    0.407093
  Cl    -2.476694    0.215400   -0.120455

 Total Charge           Charge          ....    0
 Multiplicity           Mult            ....    1
 Number of Electrons    NEL             ....   66
 Basis Dimension        Dim             ....  218

ORBITAL ENERGIES
----------------

  NO   OCC          E(Eh)            E(eV)
   0   2.0000    -104.833978     -2852.6776
   1   2.0000    -104.829321     -2852.5508
   2   2.0000     -11.323753      -308.1350
   3   2.0000     -11.318033      -307.9793
   4   2.0000     -11.249809      -306.1229
   5   2.0000     -11.231632      -305.6283
   6   2.0000     -10.559827      -287.3475
   7   2.0000     -10.555233      -287.2225
   8   2.0000      -8.027424      -218.4373
   9   2.0000      -8.024368      -218.3542
  10   2.0000      -8.024256      -218.3511
  11   2.0000      -8.022725      -218.3094
  12   2.0000      -8.019815      -218.2303
  13   2.0000      -8.019717      -218.2276
  14   2.0000      -1.179677       -32.1006
  15   2.0000      -1.117334       -30.4042
  16   2.0000      -1.048173       -28.5222
  17   2.0000      -0.971720       -26.4418
  18   2.0000      -0.883652       -24.0454
  19   2.0000      -0.806552       -21.9474
  20   2.0000      -0.667343       -18.1593
  21   2.0000      -0.639690       -17.4068
  22   2.0000      -0.631066       -17.1722
  23   2.0000      -0.585745       -15.9389
  24   2.0000      -0.573164       -15.5966
  25   2.0000      -0.528423       -14.3791
  26   2.0000      -0.517584       -14.0842
  27   2.0000      -0.508050       -13.8247
  28   2.0000      -0.489366       -13.3163
  29   2.0000      -0.457678       -12.4541
  30   2.0000      -0.444782       -12.1031
  31   2.0000      -0.442087       -12.0298
  32   2.0000      -0.436808       -11.8862
  33   0.0000       0.037830         1.0294
  34   0.0000       0.044313         1.2058
  35   0.0000       0.045704         1.2437
  36   0.0000       0.055607         1.5132
  37   0.0000       0.063864         1.7378

MULLIKEN ATOMIC CHARGES
-----------------------
   0 H :   -0.105246
   1 H :    0.040692
   2 H :    0.051150
   3 C :    0.308088
   4 H :   -0.122034
   5 Cl:   -0.179552
   6 C :   -0.387729
   7 C :    0.322028
   8 H :   -0.044977
   9 H :   -0.059813
  10 H :   -0.064562
  11 C :    0.454063
  12 H :   -0.082882
  13 Cl:   -0.129226
Sum of atomic charges:   -0.0000000

LOEWDIN ATOMIC CHARGES
----------------------
   0 H :    0.015305
   1 H :   -0.038592
   2 H :   -0.026217
   3 C :   -0.336836
   4 H :   -0.004214
   5 Cl:    0.504923
   6 C :   -0.530295
   7 C :   -0.113515
   8 H :   -0.032743
   9 H :   -0.017510
  10 H :   -0.016509
  11 C :    0.131232
  12 H :   -0.001803
  13 Cl:    0.466775

  Mayer bond orders larger than 0.100000
B(  0-H ,  7-C ) :   0.8541 B(  1-H ,  3-C ) :   0.8406 B(  1-H ,  6-C ) :   0.1516
B(  2-H ,  3-C ) :   0.9393 B(  3-C ,  6-C ) :   1.1567 B(  3-C , 13-Cl) :   1.1668
B(  4-H ,  6-C ) :   0.8278 B(  5-Cl,  6-C ) :   1.0112 B(  6-C ,  7-C ) :   1.2606
B(  6-C , 13-Cl) :  -0.1623 B(  7-C , 11-C ) :   1.2141 B(  7-C , 12-H ) :   0.7802
B(  8-H , 11-C ) :   0.9462 B(  9-H , 11-C ) :   0.8986 B( 10-H , 11-C ) :   0.9356

MP2 TOTAL ENERGY:    -1076.063023572 Eh
FINAL SINGLE POINT ENERGY     -1076.063023572255

DIPOLE MOMENT
-------------
                                X             Y             Z
Electronic contribution:     -5.98947      -7.62436      -0.86793
Nuclear contribution   :      6.11362       7.91767       0.98505
                        -----------------------------------------
Total Dipole Moment    :      0.12415       0.29331       0.11712
                        -----------------------------------------
Magnitude (a.u.)       :      0.33936
Magnitude (Debye)      :      0.86258

Rotational constants in cm-1:     0.100003     0.042590     0.031281
Rotational constants in MHz :  2997.999773  1276.820460   937.782265

                             ****ORCA TERMINATED NORMALLY****
TOTAL RUN TIME: 0 days 0 hours 0 minutes 54 seconds 248 msec
