                         Program Version 5.0.3 -  RELEASE  -
|  1> !ri-mp2 aug-cc-pvdz aug-cc-pvdz/c tightscf
|  2> %pal nprocs 16 end
|  3>
|  4> * xyz 0 1
|  5> C     0.425915     0.627157    0.000000
|  6> C    -0.425915    -0.627157    0.000000
|  7> F    -0.425915     1.731378    0.000000
|  8> F     0.425915    -1.731378    0.000000
|  9> H     1.051850     0.677105    0.891207
| 10> H     1.051850     0.677105   -0.891207
| 11> H    -1.051850    -0.677105    0.891207
| 12> H    -1.051850    -0.677105   -0.891207
| 13> *
| 14>
| 15>                          ****END OF INPUT****

CARTESIAN COORDINATES (ANGSTROEM)
---------------------------------
  C      0.425915    0.627157    0.000000
  C     -0.425915   -0.627157    0.000000
  F     -0.425915    1.731378    0.000000
  F      0.425915   -1.731378    0.000000
  H      1.051850    0.677105    0.891207
  H      1.051850    0.677105   -0.891207
  H     -1.051850   -0.677105    0.891207
  H     -1.051850   -0.677105   -0.891207

 Total Charge           Charge          ....    0
 Multiplicity           Mult            ....    1
 Number of Electrons    NEL             ....   34
 Basis Dimension        Dim             ....  128

ORBITAL ENERGIES
----------------

  NO   OCC          E(Eh)            E(eV)
   0   2.0000     -26.306497      -715.8362
   1   2.0000     -26.306493      -715.8361
   2   2.0000     -11.332698      -308.3784
   3   2.0000     -11.332055      -308.3609
   4   2.0000      -1.608807       -43.7779
   5   2.0000      -1.603467       -43.6326
   6   2.0000      -1.047145       -28.4943
   7   2.0000      -0.888866       -24.1873
   8   2.0000      -0.740137       -20.1401
   9   2.0000      -0.725564       -19.7436
  10   2.0000      -0.713237       -19.4082
  11   2.0000      -0.689125       -18.7520
  12   2.0000      -0.662960       -18.0401
  13   2.0000      -0.628432       -17.1005
  14   2.0000      -0.569569       -15.4988
  15   2.0000      -0.516903       -14.0656
  16   2.0000      -0.514072       -13.9886
  17   0.0000       0.038164         1.0385
  18   0.0000       0.046768         1.2726
  19   0.0000       0.048052         1.3076
  20   0.0000       0.075238         2.0473
  21   0.0000       0.084267         2.2930

MULLIKEN ATOMIC CHARGES
-----------------------
   0 C :    0.775919
   1 C :    0.775919
   2 F :   -0.602003
   3 F :   -0.602003
   4 H :   -0.086958
   5 H :   -0.086958
   6 H :   -0.086958
   7 H :   -0.086958
Sum of atomic charges:   -0.0000000

LOEWDIN ATOMIC CHARGES
----------------------
   0 C :    0.006738
   1 C :    0.006738
   2 F :   -0.014001
   3 F :   -0.014001
   4 H :    0.003631
   5 H :    0.003631
   6 H :    0.003631
   7 H :    0.003631

  Mayer bond orders larger than 0.100000
B(  0-C ,  1-C ) :   1.2911 B(  0-C ,  2-F ) :   0.3453 B(  0-C ,  4-H ) :   0.9395
B(  0-C ,  5-H ) :   0.9395 B(  1-C ,  3-F ) :   0.3453 B(  1-C ,  6-H ) :   0.9395
B(  1-C ,  7-H ) :   0.9395

MP2 TOTAL ENERGY:     -277.661803373 Eh
FINAL SINGLE POINT ENERGY      -277.661803373320

DIPOLE MOMENT
-------------
                                X             Y             Z
Electronic contribution:     -0.00000       0.00000      -0.00000
Nuclear contribution   :      0.00000       0.00000       0.00000
                        -----------------------------------------
Total Dipole Moment    :     -0.00000       0.00000      -0.00000
                        -----------------------------------------
Magnitude (a.u.)       :      0.00000
Magnitude (Debye)      :      0.00000

Rotational constants in cm-1:     1.067082     0.128181     0.119636
Rotational constants in MHz : 31990.324751  3842.760873  3586.598502

                             ****ORCA TERMINATED NORMALLY****
TOTAL RUN TIME: 0 days 0 hours 0 minutes 44 seconds 759 msec
