                         Program Version 5.0.3 -  RELEASE  -
|  1> !ri-mp2 aug-cc-pvdz aug-cc-pvdz/c tightscf
|  2> %pal nprocs 16 end
|  3>
|  4> * xyz 0 1
|  5> Cl    1.561680    1.458583   -0.139280
|  6> S    -0.199332   -0.989403   -0.363561
|  7> O    -3.703891    0.379365   -0.024728
|  8> N    -1.406676   -0.052559    0.379697
|  9> C     1.249977   -0.250731    0.422674
| 10> C    -2.570828    0.137435    0.120568
| 11> C     2.453915   -1.127919    0.131443
| 12> H     1.049046   -0.158737    1.484752
| 13> H     2.308548   -2.119331    0.561143
| 14> H     3.342765   -0.681353    0.571677
| 15> H     2.619862   -1.225756   -0.940992
| 16> *
| 17>
| 18>                          ****END OF INPUT****

CARTESIAN COORDINATES (ANGSTROEM)
---------------------------------
  Cl     1.561680    1.458583   -0.139280
  S     -0.199332   -0.989403   -0.363561
  O     -3.703891    0.379365   -0.024728
  N     -1.406676   -0.052559    0.379697
  C      1.249977   -0.250731    0.422674
  C     -2.570828    0.137435    0.120568
  C      2.453915   -1.127919    0.131443
  H      1.049046   -0.158737    1.484752
  H      2.308548   -2.119331    0.561143
  H      3.342765   -0.681353    0.571677
  H      2.619862   -1.225756   -0.940992

 Total Charge           Charge          ....    0
 Multiplicity           Mult            ....    1
 Number of Electrons    NEL             ....   70
 Basis Dimension        Dim             ....  205

ORBITAL ENERGIES
----------------

  NO   OCC          E(Eh)            E(eV)
   0   2.0000    -104.835725     -2852.7251
   1   2.0000     -92.036462     -2504.4395
   2   2.0000     -20.635365      -561.5168
   3   2.0000     -15.624714      -425.1701
   4   2.0000     -11.430739      -311.0462
   5   2.0000     -11.357496      -309.0532
   6   2.0000     -11.265835      -306.5590
   7   2.0000     -10.561635      -287.3967
   8   2.0000      -9.033230      -245.8067
   9   2.0000      -8.029184      -218.4852
  10   2.0000      -8.026003      -218.3986
  11   2.0000      -8.025944      -218.3970
  12   2.0000      -6.715467      -182.7372
  13   2.0000      -6.713230      -182.6763
  14   2.0000      -6.710757      -182.6090
  15   2.0000      -1.481907       -40.3248
  16   2.0000      -1.295424       -35.2503
  17   2.0000      -1.166881       -31.7524
  18   2.0000      -1.049367       -28.5547
  19   2.0000      -0.995696       -27.0943
  20   2.0000      -0.841384       -22.8952
  21   2.0000      -0.752879       -20.4869
  22   2.0000      -0.712243       -19.3811
  23   2.0000      -0.668354       -18.1868
  24   2.0000      -0.663941       -18.0668
  25   2.0000      -0.642859       -17.4931
  26   2.0000      -0.603554       -16.4236
  27   2.0000      -0.584961       -15.9176
  28   2.0000      -0.551521       -15.0076
  29   2.0000      -0.535651       -14.5758
  30   2.0000      -0.501306       -13.6412
  31   2.0000      -0.466325       -12.6894
  32   2.0000      -0.449793       -12.2395
  33   2.0000      -0.433742       -11.8027
  34   2.0000      -0.362592        -9.8666
  35   0.0000       0.031788         0.8650
  36   0.0000       0.044945         1.2230
  37   0.0000       0.053512         1.4561
  38   0.0000       0.057991         1.5780
  39   0.0000       0.069164         1.8821

MULLIKEN ATOMIC CHARGES
-----------------------
   0 Cl:   -0.166780
   1 S :    0.889157
   2 O :   -0.420957
   3 N :   -0.444290
   4 C :   -0.631556
   5 C :    0.216255
   6 C :    0.618983
   7 H :    0.012207
   8 H :   -0.031061
   9 H :   -0.034629
  10 H :   -0.007327
Sum of atomic charges:   -0.0000000

LOEWDIN ATOMIC CHARGES
----------------------
   0 Cl:    0.451164
   1 S :    0.883816
   2 O :    0.100248
   3 N :   -0.285877
   4 C :   -0.807488
   5 C :   -0.278641
   6 C :    0.041578
   7 H :   -0.049410
   8 H :   -0.017694
   9 H :   -0.018075
  10 H :   -0.019620

  Mayer bond orders larger than 0.100000
B(  0-Cl,  4-C ) :   1.0920 B(  1-S ,  3-N ) :   0.5153 B(  1-S ,  4-C ) :   1.0586
B(  2-O ,  5-C ) :   1.9473 B(  3-N ,  5-C ) :   2.0938 B(  4-C ,  6-C ) :   1.1654
B(  4-C ,  7-H ) :   0.9861 B(  6-C ,  8-H ) :   0.8626 B(  6-C ,  9-H ) :   0.9332
B(  6-C , 10-H ) :   0.9755

MP2 TOTAL ENERGY:    -1103.361267035 Eh
FINAL SINGLE POINT ENERGY     -1103.361267034711

DIPOLE MOMENT
-------------
                                X             Y             Z
Electronic contribution:     -5.68997       5.05283      -1.52931
Nuclear contribution   :      6.71305      -5.95838       1.80489
                        -----------------------------------------
Total Dipole Moment    :      1.02308      -0.90555       0.27558
                        -----------------------------------------
Magnitude (a.u.)       :      1.39379
Magnitude (Debye)      :      3.54274

Rotational constants in cm-1:     0.116761     0.031020     0.025487
Rotational constants in MHz :  3500.410710   929.966642   764.092185

                             ****ORCA TERMINATED NORMALLY****
TOTAL RUN TIME: 0 days 0 hours 0 minutes 45 seconds 86 msec
