                         Program Version 5.0.3 -  RELEASE  -
|  1> !ri-mp2 aug-cc-pvdz aug-cc-pvdz/c tightscf
|  2> %pal nprocs 16 end
|  3> %maxcore 3800
|  4>
|  5> * xyz 0 1
|  6> C      4.455953    0.270233    0.013128
|  7> C      3.156486   -0.532657   -0.014810
|  8> C      1.903604    0.343655    0.011250
|  9> C      0.597863   -0.451106   -0.015679
| 10> C     -0.653922    0.427229    0.009040
| 11> C     -1.958782   -0.370300   -0.022500
| 12> C     -3.196862    0.516964    0.008447
| 13> O     -4.418615   -0.215524   -0.077873
| 14> H      4.523173    0.941403   -0.845601
| 15> H      5.329459   -0.382837   -0.007953
| 16> H      4.521716    0.882668    0.914818
| 17> H      3.133472   -1.218292    0.837586
| 18> H      3.136119   -1.162088   -0.909563
| 19> H      1.926908    1.029567   -0.842248
| 20> H      1.924665    0.974859    0.906112
| 21> H      0.577344   -1.082187   -0.910093
| 22> H      0.574572   -1.136132    0.838283
| 23> H     -0.629327    1.112199   -0.844708
| 24> H     -0.633266    1.057787    0.903988
| 25> H     -1.987895   -1.054978    0.832841
| 26> H     -1.997124   -0.992014   -0.920763
| 27> H     -3.202967    1.185677   -0.853276
| 28> H     -3.189897    1.145038    0.907556
| 29> H     -4.484069   -0.800583    0.682753
| 30> *
| 31>
| 32>                          ****END OF INPUT****

CARTESIAN COORDINATES (ANGSTROEM)
---------------------------------
  C      4.455953    0.270233    0.013128
  C      3.156486   -0.532657   -0.014810
  C      1.903604    0.343655    0.011250
  C      0.597863   -0.451106   -0.015679
  C     -0.653922    0.427229    0.009040
  C     -1.958782   -0.370300   -0.022500
  C     -3.196862    0.516964    0.008447
  O     -4.418615   -0.215524   -0.077873
  H      4.523173    0.941403   -0.845601
  H      5.329459   -0.382837   -0.007953
  H      4.521716    0.882668    0.914818
  H      3.133472   -1.218292    0.837586
  H      3.136119   -1.162088   -0.909563
  H      1.926908    1.029567   -0.842248
  H      1.924665    0.974859    0.906112
  H      0.577344   -1.082187   -0.910093
  H      0.574572   -1.136132    0.838283
  H     -0.629327    1.112199   -0.844708
  H     -0.633266    1.057787    0.903988
  H     -1.987895   -1.054978    0.832841
  H     -1.997124   -0.992014   -0.920763
  H     -3.202967    1.185677   -0.853276
  H     -3.189897    1.145038    0.907556
  H     -4.484069   -0.800583    0.682753

 Total Charge           Charge          ....    0
 Multiplicity           Mult            ....    1
 Number of Electrons    NEL             ....   66
 Basis Dimension        Dim             ....  328

ORBITAL ENERGIES
----------------

  NO   OCC          E(Eh)            E(eV)
   0   2.0000     -20.563301      -559.5559
   1   2.0000     -11.277618      -306.8796
   2   2.0000     -11.227110      -305.5052
   3   2.0000     -11.225611      -305.4644
   4   2.0000     -11.223829      -305.4159
   5   2.0000     -11.223324      -305.4022
   6   2.0000     -11.221751      -305.3594
   7   2.0000     -11.218008      -305.2575
   8   2.0000      -1.356401       -36.9095
   9   2.0000      -1.094107       -29.7722
  10   2.0000      -1.053828       -28.6761
  11   2.0000      -0.990499       -26.9528
  12   2.0000      -0.913550       -24.8590
  13   2.0000      -0.842511       -22.9259
  14   2.0000      -0.800398       -21.7799
  15   2.0000      -0.789920       -21.4948
  16   2.0000      -0.688983       -18.7482
  17   2.0000      -0.654839       -17.8191
  18   2.0000      -0.626255       -17.0413
  19   2.0000      -0.606807       -16.5121
  20   2.0000      -0.595745       -16.2111
  21   2.0000      -0.577246       -15.7077
  22   2.0000      -0.562140       -15.2966
  23   2.0000      -0.545348       -14.8397
  24   2.0000      -0.521930       -14.2024
  25   2.0000      -0.509017       -13.8511
  26   2.0000      -0.490337       -13.3427
  27   2.0000      -0.480298       -13.0696
  28   2.0000      -0.469360       -12.7719
  29   2.0000      -0.462405       -12.5827
  30   2.0000      -0.461423       -12.5559
  31   2.0000      -0.457013       -12.4360
  32   2.0000      -0.425815       -11.5870
  33   0.0000       0.035786         0.9738
  34   0.0000       0.038133         1.0377
  35   0.0000       0.041945         1.1414
  36   0.0000       0.045040         1.2256
  37   0.0000       0.053803         1.4641

MULLIKEN ATOMIC CHARGES
-----------------------
   0 C :    0.567755
   1 C :    0.448409
   2 C :    0.194896
   3 C :    0.151658
   4 C :    0.226295
   5 C :    0.391717
   6 C :    1.330886
   7 O :   -0.743548
   8 H :   -0.093324
   9 H :   -0.077905
  10 H :   -0.093004
  11 H :   -0.186472
  12 H :   -0.186858
  13 H :   -0.224055
  14 H :   -0.224600
  15 H :   -0.222182
  16 H :   -0.224705
  17 H :   -0.204149
  18 H :   -0.202886
  19 H :   -0.213133
  20 H :   -0.148708
  21 H :   -0.229824
  22 H :   -0.169559
  23 H :    0.133293
Sum of atomic charges:    0.0000000

LOEWDIN ATOMIC CHARGES
----------------------
   0 C :    0.130398
   1 C :   -0.072961
   2 C :   -0.041963
   3 C :   -0.035366
   4 C :   -0.035432
   5 C :   -0.036568
   6 C :   -0.049797
   7 O :    0.108547
   8 H :   -0.020268
   9 H :   -0.022194
  10 H :   -0.020377
  11 H :    0.010719
  12 H :    0.010944
  13 H :    0.016396
  14 H :    0.016199
  15 H :    0.017505
  16 H :    0.016713
  17 H :    0.017233
  18 H :    0.016076
  19 H :    0.013591
  20 H :    0.019091
  21 H :    0.003859
  22 H :    0.004816
  23 H :   -0.067163

  Mayer bond orders larger than 0.100000
B(  0-C ,  1-C ) :   1.1782 B(  0-C ,  8-H ) :   0.9052 B(  0-C ,  9-H ) :   0.9129
B(  0-C , 10-H ) :   0.9053 B(  1-C ,  2-C ) :   1.2256 B(  1-C ,  3-C ) :  -0.1267
B(  1-C , 11-H ) :   0.7195 B(  1-C , 12-H ) :   0.7169 B(  2-C ,  3-C ) :   1.3851
B(  2-C , 13-H ) :   0.7441 B(  2-C , 14-H ) :   0.7447 B(  3-C ,  4-C ) :   1.4304
B(  3-C , 15-H ) :   0.7798 B(  3-C , 16-H ) :   0.7833 B(  4-C ,  5-C ) :   1.2248
B(  4-C ,  6-C ) :  -0.1121 B(  4-C , 17-H ) :   0.7434 B(  4-C , 18-H ) :   0.7743
B(  5-C ,  6-C ) :   1.1655 B(  5-C , 19-H ) :   0.6954 B(  5-C , 20-H ) :   0.7469
B(  6-C ,  7-O ) :   0.4448 B(  6-C , 21-H ) :   0.7995 B(  6-C , 22-H ) :   0.8330
B(  7-O , 23-H ) :   1.0823

MP2 TOTAL ENERGY:     -350.550436294 Eh
FINAL SINGLE POINT ENERGY      -350.550436294170

DIPOLE MOMENT
-------------
                                X             Y             Z
Electronic contribution:     -9.48569      -0.60642      -0.26601
Nuclear contribution   :     10.08360       0.52981       0.73441
                        -----------------------------------------
Total Dipole Moment    :      0.59790      -0.07662       0.46841
                        -----------------------------------------
Magnitude (a.u.)       :      0.76339
Magnitude (Debye)      :      1.94038

Rotational constants in cm-1:     0.379445     0.016048     0.015725
Rotational constants in MHz : 11375.460594   481.098437   471.409226

                             ****ORCA TERMINATED NORMALLY****
TOTAL RUN TIME: 0 days 0 hours 1 minutes 37 seconds 719 msec
