                         Program Version 5.0.3 -  RELEASE  -
|  1> !ri-mp2 aug-cc-pvdz aug-cc-pvdz/c tightscf
|  2> %pal nprocs 16 end
|  3>
|  4> * xyz 0 1
|  5> C     0.000000    1.290037   -0.095700
|  6> S     0.000000    0.000000    1.123017
|  7> C     0.000000   -1.290037   -0.095700
|  8> S     0.098380   -2.902976    0.183152
|  9> S    -0.098380    2.902976    0.183152
| 10> N     0.082142    0.693918   -1.317219
| 11> N    -0.082142   -0.693918   -1.317219
| 12> H    -0.281158    1.189103   -2.119842
| 13> H     0.281158   -1.189103   -2.119842
| 14> *
| 15>
| 16>                          ****END OF INPUT****

CARTESIAN COORDINATES (ANGSTROEM)
---------------------------------
  C      0.000000    1.290037   -0.095700
  S      0.000000    0.000000    1.123017
  C      0.000000   -1.290037   -0.095700
  S      0.098380   -2.902976    0.183152
  S     -0.098380    2.902976    0.183152
  N      0.082142    0.693918   -1.317219
  N     -0.082142   -0.693918   -1.317219
  H     -0.281158    1.189103   -2.119842
  H      0.281158   -1.189103   -2.119842

 Total Charge           Charge          ....    0
 Multiplicity           Mult            ....    1
 Number of Electrons    NEL             ....   76
 Basis Dimension        Dim             ....  191

ORBITAL ENERGIES
----------------

  NO   OCC          E(Eh)            E(eV)
   0   2.0000     -92.041549     -2504.5779
   1   2.0000     -91.943295     -2501.9042
   2   2.0000     -91.943294     -2501.9042
   3   2.0000     -15.699089      -427.1939
   4   2.0000     -15.698569      -427.1798
   5   2.0000     -11.418463      -310.7122
   6   2.0000     -11.418446      -310.7117
   7   2.0000      -9.044037      -246.1008
   8   2.0000      -8.946609      -243.4496
   9   2.0000      -8.946601      -243.4494
  10   2.0000      -6.725204      -183.0021
  11   2.0000      -6.724091      -182.9718
  12   2.0000      -6.721923      -182.9128
  13   2.0000      -6.628956      -180.3831
  14   2.0000      -6.628956      -180.3831
  15   2.0000      -6.625987      -180.3023
  16   2.0000      -6.625987      -180.3023
  17   2.0000      -6.624884      -180.2723
  18   2.0000      -6.624884      -180.2723
  19   2.0000      -1.437483       -39.1159
  20   2.0000      -1.227842       -33.4113
  21   2.0000      -1.141971       -31.0746
  22   2.0000      -1.010535       -27.4981
  23   2.0000      -1.001549       -27.2535
  24   2.0000      -0.876788       -23.8586
  25   2.0000      -0.818862       -22.2824
  26   2.0000      -0.785622       -21.3779
  27   2.0000      -0.703042       -19.1307
  28   2.0000      -0.655027       -17.8242
  29   2.0000      -0.584932       -15.9168
  30   2.0000      -0.549172       -14.9437
  31   2.0000      -0.544269       -14.8103
  32   2.0000      -0.522737       -14.2244
  33   2.0000      -0.483062       -13.1448
  34   2.0000      -0.371708       -10.1147
  35   2.0000      -0.364236        -9.9114
  36   2.0000      -0.353808        -9.6276
  37   2.0000      -0.350695        -9.5429
  38   0.0000       0.019594         0.5332
  39   0.0000       0.043867         1.1937
  40   0.0000       0.055101         1.4994
  41   0.0000       0.059304         1.6137
  42   0.0000       0.068155         1.8546

MULLIKEN ATOMIC CHARGES
-----------------------
   0 C :   -0.197604
   1 S :    0.679687
   2 C :   -0.197604
   3 S :    0.102271
   4 S :    0.102271
   5 N :   -0.277836
   6 N :   -0.277836
   7 H :    0.033325
   8 H :    0.033325
Sum of atomic charges:   -0.0000000

LOEWDIN ATOMIC CHARGES
----------------------
   0 C :   -1.006560
   1 S :    0.961752
   2 C :   -1.006560
   3 S :    0.516227
   4 S :    0.516227
   5 N :   -0.013255
   6 N :   -0.013255
   7 H :    0.022712
   8 H :    0.022712

  Mayer bond orders larger than 0.100000
B(  0-C ,  1-S ) :   0.9749 B(  0-C ,  2-C ) :   0.1682 B(  0-C ,  4-S ) :   1.7323
B(  0-C ,  5-N ) :   1.2229 B(  0-C ,  6-N ) :  -0.1821 B(  1-S ,  2-C ) :   0.9749
B(  2-C ,  3-S ) :   1.7323 B(  2-C ,  5-N ) :  -0.1821 B(  2-C ,  6-N ) :   1.2229
B(  5-N ,  6-N ) :   1.1381 B(  5-N ,  7-H ) :   1.0634 B(  6-N ,  8-H ) :   1.0634

MP2 TOTAL ENERGY:    -1379.405248226 Eh
FINAL SINGLE POINT ENERGY     -1379.405248225743

DIPOLE MOMENT
-------------
                                X             Y             Z
Electronic contribution:     -0.00000       0.00000       2.64571
Nuclear contribution   :      0.00000       0.00000      -4.08642
                        -----------------------------------------
Total Dipole Moment    :     -0.00000       0.00000      -1.44071
                        -----------------------------------------
Magnitude (a.u.)       :      1.44071
Magnitude (Debye)      :      3.66200

Rotational constants in cm-1:     0.167223     0.028207     0.024168
Rotational constants in MHz :  5013.209785   845.621398   724.528552

                             ****ORCA TERMINATED NORMALLY****
TOTAL RUN TIME: 0 days 0 hours 0 minutes 56 seconds 20 msec
