                         Program Version 5.0.3 -  RELEASE  -
|  1> !ri-mp2 aug-cc-pvdz aug-cc-pvdz/c tightscf
|  2> %pal nprocs 16 end
|  3>
|  4> * xyz 0 1
|  5> C      0.000000    0.672790   -1.380599
|  6> C      0.000000   -0.672790   -1.380599
|  7> C      0.000000    0.000000    0.812326
|  8> N      0.000000    1.085426   -0.051191
|  9> N      0.000000   -1.085426   -0.051191
| 10> O      0.000000    0.000000    2.030042
| 11> H      0.000000    1.365081   -2.201042
| 12> H      0.000000   -1.365081   -2.201042
| 13> H      0.000000    2.030184    0.285825
| 14> H      0.000000   -2.030184    0.285825
| 15> *
| 16>
| 17>                          ****END OF INPUT****

CARTESIAN COORDINATES (ANGSTROEM)
---------------------------------
  C      0.000000    0.672790   -1.380599
  C      0.000000   -0.672790   -1.380599
  C      0.000000    0.000000    0.812326
  N      0.000000    1.085426   -0.051191
  N      0.000000   -1.085426   -0.051191
  O      0.000000    0.000000    2.030042
  H      0.000000    1.365081   -2.201042
  H      0.000000   -1.365081   -2.201042
  H      0.000000    2.030184    0.285825
  H      0.000000   -2.030184    0.285825

 Total Charge           Charge          ....    0
 Multiplicity           Mult            ....    1
 Number of Electrons    NEL             ....   44
 Basis Dimension        Dim             ....  174

ORBITAL ENERGIES
----------------

  NO   OCC          E(Eh)            E(eV)
   0   2.0000     -20.519174      -558.3551
   1   2.0000     -15.615066      -424.9075
   2   2.0000     -15.615036      -424.9067
   3   2.0000     -11.386320      -309.8375
   4   2.0000     -11.286548      -307.1226
   5   2.0000     -11.284973      -307.0797
   6   2.0000      -1.403300       -38.1857
   7   2.0000      -1.313066       -35.7303
   8   2.0000      -1.205473       -32.8026
   9   2.0000      -1.021575       -27.7985
  10   2.0000      -0.867453       -23.6046
  11   2.0000      -0.840670       -22.8758
  12   2.0000      -0.732091       -19.9212
  13   2.0000      -0.675547       -18.3826
  14   2.0000      -0.640193       -17.4205
  15   2.0000      -0.631656       -17.1882
  16   2.0000      -0.616531       -16.7767
  17   2.0000      -0.610219       -16.6049
  18   2.0000      -0.486033       -13.2256
  19   2.0000      -0.459606       -12.5065
  20   2.0000      -0.436012       -11.8645
  21   2.0000      -0.308951        -8.4070
  22   0.0000       0.027524         0.7490
  23   0.0000       0.035521         0.9666
  24   0.0000       0.049529         1.3477
  25   0.0000       0.060822         1.6551
  26   0.0000       0.089279         2.4294

MULLIKEN ATOMIC CHARGES
-----------------------
   0 C :    0.752527
   1 C :    0.752527
   2 C :    1.004647
   3 N :   -0.543900
   4 N :   -0.543900
   5 O :   -0.726154
   6 H :   -0.225659
   7 H :   -0.225659
   8 H :   -0.122214
   9 H :   -0.122214
Sum of atomic charges:   -0.0000000

LOEWDIN ATOMIC CHARGES
----------------------
   0 C :    0.025989
   1 C :    0.025989
   2 C :   -0.346046
   3 N :    0.126158
   4 N :    0.126158
   5 O :   -0.007982
   6 H :   -0.003559
   7 H :   -0.003559
   8 H :    0.028426
   9 H :    0.028426

  Mayer bond orders larger than 0.100000
B(  0-C ,  1-C ) :   1.8367 B(  0-C ,  3-N ) :   0.6918 B(  0-C ,  6-H ) :   0.8869
B(  0-C ,  8-H ) :  -0.1643 B(  1-C ,  4-N ) :   0.6918 B(  1-C ,  7-H ) :   0.8869
B(  1-C ,  9-H ) :  -0.1643 B(  2-C ,  3-N ) :   1.0727 B(  2-C ,  4-N ) :   1.0727
B(  2-C ,  5-O ) :   1.4697 B(  3-N ,  8-H ) :   1.2601 B(  4-N ,  9-H ) :   1.2601

MP2 TOTAL ENERGY:     -300.683370763 Eh
FINAL SINGLE POINT ENERGY      -300.683370762876

DIPOLE MOMENT
-------------
                                X             Y             Z
Electronic contribution:      0.00000      -0.00000       2.00140
Nuclear contribution   :      0.00000       0.00000      -3.73384
                        -----------------------------------------
Total Dipole Moment    :      0.00000      -0.00000      -1.73244
                        -----------------------------------------
Magnitude (a.u.)       :      1.73244
Magnitude (Debye)      :      4.40352

Rotational constants in cm-1:     0.301330     0.130194     0.090913
Rotational constants in MHz :  9033.650716  3903.110376  2725.514956

                             ****ORCA TERMINATED NORMALLY****
TOTAL RUN TIME: 0 days 0 hours 0 minutes 34 seconds 999 msec
