                         Program Version 5.0.3 -  RELEASE  -
|  1> !ri-mp2 aug-cc-pvdz aug-cc-pvdz/c tightscf
|  2> %pal nprocs 16 end
|  3>
|  4> * xyz 0 1
|  5> C     0.566910   -0.338873    0.000000
|  6> C    -0.170872    1.010509    0.000000
|  7> H     1.633086   -0.144099    0.000000
|  8> Cl    0.182082   -1.256529    1.476575
|  9> Cl    0.182082   -1.256529   -1.476575
| 10> F    -1.497512    0.873510    0.000000
| 11> F     0.182082    1.720816    1.083344
| 12> F     0.182082    1.720816   -1.083344
| 13> *
| 14>
| 15>                          ****END OF INPUT****

CARTESIAN COORDINATES (ANGSTROEM)
---------------------------------
  C      0.566910   -0.338873    0.000000
  C     -0.170872    1.010509    0.000000
  H      1.633086   -0.144099    0.000000
  Cl     0.182082   -1.256529    1.476575
  Cl     0.182082   -1.256529   -1.476575
  F     -1.497512    0.873510    0.000000
  F      0.182082    1.720816    1.083344
  F      0.182082    1.720816   -1.083344

 Total Charge           Charge          ....    0
 Multiplicity           Mult            ....    1
 Number of Electrons    NEL             ....   74
 Basis Dimension        Dim             ....  178

ORBITAL ENERGIES
----------------

  NO   OCC          E(Eh)            E(eV)
   0   2.0000    -104.872791     -2853.7337
   1   2.0000    -104.872791     -2853.7337
   2   2.0000     -26.375258      -717.7073
   3   2.0000     -26.375237      -717.7067
   4   2.0000     -26.374688      -717.6918
   5   2.0000     -11.552072      -314.3479
   6   2.0000     -11.414018      -310.5912
   7   2.0000     -10.598831      -288.4088
   8   2.0000     -10.598813      -288.4084
   9   2.0000      -8.066571      -219.5025
  10   2.0000      -8.066569      -219.5025
  11   2.0000      -8.062943      -219.4038
  12   2.0000      -8.062942      -219.4038
  13   2.0000      -8.062847      -219.4012
  14   2.0000      -8.062846      -219.4012
  15   2.0000      -1.759670       -47.8830
  16   2.0000      -1.664624       -45.2967
  17   2.0000      -1.663011       -45.2528
  18   2.0000      -1.231620       -33.5141
  19   2.0000      -1.123294       -30.5664
  20   2.0000      -1.035814       -28.1859
  21   2.0000      -0.923203       -25.1216
  22   2.0000      -0.851995       -23.1840
  23   2.0000      -0.848180       -23.0801
  24   2.0000      -0.803655       -21.8686
  25   2.0000      -0.735153       -20.0045
  26   2.0000      -0.732908       -19.9435
  27   2.0000      -0.691450       -18.8153
  28   2.0000      -0.687055       -18.6957
  29   2.0000      -0.670793       -18.2532
  30   2.0000      -0.657147       -17.8819
  31   2.0000      -0.617927       -16.8146
  32   2.0000      -0.607146       -16.5213
  33   2.0000      -0.499085       -13.5808
  34   2.0000      -0.495272       -13.4770
  35   2.0000      -0.474871       -12.9219
  36   2.0000      -0.468708       -12.7542
  37   0.0000       0.037432         1.0186
  38   0.0000       0.069227         1.8838
  39   0.0000       0.076479         2.0811
  40   0.0000       0.080919         2.2019
  41   0.0000       0.107078         2.9137

MULLIKEN ATOMIC CHARGES
-----------------------
   0 C :   -0.781054
   1 C :    2.311635
   2 H :    0.198155
   3 Cl:    0.011967
   4 Cl:    0.011967
   5 F :   -0.569393
   6 F :   -0.591638
   7 F :   -0.591638
Sum of atomic charges:   -0.0000000

LOEWDIN ATOMIC CHARGES
----------------------
   0 C :   -0.809123
   1 C :   -0.475732
   2 H :   -0.042119
   3 Cl:    0.541707
   4 Cl:    0.541707
   5 F :    0.084745
   6 F :    0.079407
   7 F :    0.079407

  Mayer bond orders larger than 0.100000
B(  0-C ,  1-C ) :   0.9827 B(  0-C ,  2-H ) :   0.8555 B(  0-C ,  3-Cl) :   1.2633
B(  0-C ,  4-Cl) :   1.2633 B(  0-C ,  6-F ) :   0.1043 B(  0-C ,  7-F ) :   0.1043
B(  1-C ,  3-Cl) :  -0.1009 B(  1-C ,  4-Cl) :  -0.1009 B(  1-C ,  5-F ) :   0.3759
B(  1-C ,  6-F ) :   0.3126 B(  1-C ,  7-F ) :   0.3126

MP2 TOTAL ENERGY:    -1294.868783831 Eh
FINAL SINGLE POINT ENERGY     -1294.868783830564

DIPOLE MOMENT
-------------
                                X             Y             Z
Electronic contribution:     -1.45651       0.57685      -0.00000
Nuclear contribution   :      2.02779      -0.73644       0.00000
                        -----------------------------------------
Total Dipole Moment    :      0.57129      -0.15958      -0.00000
                        -----------------------------------------
Magnitude (a.u.)       :      0.59316
Magnitude (Debye)      :      1.50769

Rotational constants in cm-1:     0.068331     0.055144     0.036858
Rotational constants in MHz :  2048.498705  1653.171459  1104.964849

                             ****ORCA TERMINATED NORMALLY****
TOTAL RUN TIME: 0 days 0 hours 0 minutes 32 seconds 384 msec
