                         Program Version 5.0.3 -  RELEASE  -
|  1> !ri-mp2 aug-cc-pvdz aug-cc-pvdz/c tightscf
|  2> %pal nprocs 16 end
|  3>
|  4> * xyz 0 1
|  5> C     -1.854995    0.059212    0.000286
|  6> C     -0.682965    0.318398    0.000121
|  7> C     -3.272404   -0.269344   -0.000016
|  8> C      2.908916   -0.231355   -0.000182
|  9> C      0.731823    0.658966    0.000000
| 10> O      1.525377   -0.520062    0.000268
| 11> H     -3.785213    0.196056   -0.843401
| 12> H     -3.757047    0.068458    0.917494
| 13> H     -3.416982   -1.348358   -0.076266
| 14> H      3.201339    0.338694    0.890135
| 15> H      3.200880    0.338009   -0.891089
| 16> H      3.434078   -1.183772    0.000063
| 17> H      0.968850    1.268307    0.883485
| 18> H      0.968823    1.267833   -0.883814
| 19> *
| 20>
| 21>                          ****END OF INPUT****

CARTESIAN COORDINATES (ANGSTROEM)
---------------------------------
  C     -1.854995    0.059212    0.000286
  C     -0.682965    0.318398    0.000121
  C     -3.272404   -0.269344   -0.000016
  C      2.908916   -0.231355   -0.000182
  C      0.731823    0.658966    0.000000
  O      1.525377   -0.520062    0.000268
  H     -3.785213    0.196056   -0.843401
  H     -3.757047    0.068458    0.917494
  H     -3.416982   -1.348358   -0.076266
  H      3.201339    0.338694    0.890135
  H      3.200880    0.338009   -0.891089
  H      3.434078   -1.183772    0.000063
  H      0.968850    1.268307    0.883485
  H      0.968823    1.267833   -0.883814

 Total Charge           Charge          ....    0
 Multiplicity           Mult            ....    1
 Number of Electrons    NEL             ....   46
 Basis Dimension        Dim             ....  210

ORBITAL ENERGIES
----------------

  NO   OCC          E(Eh)            E(eV)
   0   2.0000     -20.571535      -559.7799
   1   2.0000     -11.307395      -307.6899
   2   2.0000     -11.280754      -306.9649
   3   2.0000     -11.252135      -306.1862
   4   2.0000     -11.232976      -305.6648
   5   2.0000     -11.223145      -305.3973
   6   2.0000      -1.381968       -37.6053
   7   2.0000      -1.067949       -29.0604
   8   2.0000      -1.007496       -27.4154
   9   2.0000      -0.937370       -25.5071
  10   2.0000      -0.886212       -24.1151
  11   2.0000      -0.693168       -18.8621
  12   2.0000      -0.671511       -18.2727
  13   2.0000      -0.654033       -17.7971
  14   2.0000      -0.625768       -17.0280
  15   2.0000      -0.587862       -15.9965
  16   2.0000      -0.584970       -15.9178
  17   2.0000      -0.566475       -15.4146
  18   2.0000      -0.559563       -15.2265
  19   2.0000      -0.491728       -13.3806
  20   2.0000      -0.434694       -11.8286
  21   2.0000      -0.376101       -10.2342
  22   2.0000      -0.366016        -9.9598
  23   0.0000       0.035414         0.9637
  24   0.0000       0.038328         1.0430
  25   0.0000       0.051221         1.3938
  26   0.0000       0.052623         1.4319
  27   0.0000       0.064106         1.7444

MULLIKEN ATOMIC CHARGES
-----------------------
   0 C :   -0.689533
   1 C :   -0.212993
   2 C :    0.229799
   3 C :    0.787696
   4 C :    0.577074
   5 O :   -0.838220
   6 H :    0.127958
   7 H :    0.127192
   8 H :    0.137659
   9 H :   -0.049794
  10 H :   -0.049734
  11 H :   -0.254172
  12 H :    0.053510
  13 H :    0.053556
Sum of atomic charges:   -0.0000000

LOEWDIN ATOMIC CHARGES
----------------------
   0 C :   -0.054933
   1 C :   -0.009764
   2 C :    0.118275
   3 C :    0.122569
   4 C :   -0.078745
   5 O :   -0.022034
   6 H :   -0.010855
   7 H :   -0.010921
   8 H :   -0.008356
   9 H :   -0.023514
  10 H :   -0.023517
  11 H :   -0.027219
  12 H :    0.014517
  13 H :    0.014496

  Mayer bond orders larger than 0.100000
B(  0-C ,  1-C ) :   2.7080 B(  0-C ,  2-C ) :   1.1447 B(  0-C ,  4-C ) :   0.4391
B(  0-C ,  6-H ) :   0.2971 B(  0-C ,  7-H ) :   0.2953 B(  0-C ,  8-H ) :   0.3018
B(  0-C , 12-H ) :  -0.1130 B(  0-C , 13-H ) :  -0.1131 B(  1-C ,  2-C ) :   0.2169
B(  1-C ,  4-C ) :   1.1849 B(  1-C ,  8-H ) :  -0.1098 B(  1-C , 12-H ) :   0.1986
B(  1-C , 13-H ) :   0.1977 B(  2-C ,  6-H ) :   0.7928 B(  2-C ,  7-H ) :   0.7916
B(  2-C ,  8-H ) :   0.7987 B(  3-C ,  5-O ) :   0.7050 B(  3-C ,  9-H ) :   0.9444
B(  3-C , 10-H ) :   0.9441 B(  3-C , 11-H ) :   1.0393 B(  4-C ,  5-O ) :   0.7865
B(  4-C , 12-H ) :   0.8361 B(  4-C , 13-H ) :   0.8368

MP2 TOTAL ENERGY:     -269.706325430 Eh
FINAL SINGLE POINT ENERGY      -269.706325429934

DIPOLE MOMENT
-------------
                                X             Y             Z
Electronic contribution:     -0.78730      -0.50254       0.00240
Nuclear contribution   :      0.86144       0.96235      -0.00348
                        -----------------------------------------
Total Dipole Moment    :      0.07414       0.45981      -0.00108
                        -----------------------------------------
Magnitude (a.u.)       :      0.46575
Magnitude (Debye)      :      1.18385

Rotational constants in cm-1:     0.709294     0.042091     0.040642
Rotational constants in MHz : 21264.090812  1261.850887  1218.416026

                             ****ORCA TERMINATED NORMALLY****
TOTAL RUN TIME: 0 days 0 hours 0 minutes 35 seconds 504 msec
