                         Program Version 5.0.3 -  RELEASE  -
|  1> !ri-mp2 aug-cc-pvdz aug-cc-pvdz/c tightscf
|  2> %pal nprocs 16 end
|  3>
|  4> * xyz 0 1
|  5> C      0.000000    0.000000    0.851993
|  6> C     -0.168984    0.745968   -1.301801
|  7> C      0.168984   -0.745968   -1.301801
|  8> O      0.000000    0.000000    2.039757
|  9> O      0.000000    1.114456    0.074557
| 10> O      0.000000   -1.114456    0.074557
| 11> H      0.504009    1.345920   -1.908473
| 12> H     -1.201132    0.944052   -1.592185
| 13> H     -0.504009   -1.345920   -1.908473
| 14> H      1.201132   -0.944052   -1.592185
| 15> *
| 16>
| 17>                          ****END OF INPUT****

CARTESIAN COORDINATES (ANGSTROEM)
---------------------------------
  C      0.000000    0.000000    0.851993
  C     -0.168984    0.745968   -1.301801
  C      0.168984   -0.745968   -1.301801
  O      0.000000    0.000000    2.039757
  O      0.000000    1.114456    0.074557
  O      0.000000   -1.114456    0.074557
  H      0.504009    1.345920   -1.908473
  H     -1.201132    0.944052   -1.592185
  H     -0.504009   -1.345920   -1.908473
  H      1.201132   -0.944052   -1.592185

 Total Charge           Charge          ....    0
 Multiplicity           Mult            ....    1
 Number of Electrons    NEL             ....   46
 Basis Dimension        Dim             ....  174

ORBITAL ENERGIES
----------------

  NO   OCC          E(Eh)            E(eV)
   0   2.0000     -20.636107      -561.5370
   1   2.0000     -20.636068      -561.5360
   2   2.0000     -20.559572      -559.4544
   3   2.0000     -11.447426      -311.5003
   4   2.0000     -11.332204      -308.3649
   5   2.0000     -11.331592      -308.3483
   6   2.0000      -1.530201       -41.6389
   7   2.0000      -1.401773       -38.1442
   8   2.0000      -1.395241       -37.9664
   9   2.0000      -1.061785       -28.8926
  10   2.0000      -0.918993       -25.0071
  11   2.0000      -0.839354       -22.8400
  12   2.0000      -0.751082       -20.4380
  13   2.0000      -0.727876       -19.8065
  14   2.0000      -0.697583       -18.9822
  15   2.0000      -0.641868       -17.4661
  16   2.0000      -0.632781       -17.2189
  17   2.0000      -0.619417       -16.8552
  18   2.0000      -0.571098       -15.5404
  19   2.0000      -0.548034       -14.9128
  20   2.0000      -0.484338       -13.1795
  21   2.0000      -0.480408       -13.0726
  22   2.0000      -0.471761       -12.8373
  23   0.0000       0.024441         0.6651
  24   0.0000       0.039995         1.0883
  25   0.0000       0.042696         1.1618
  26   0.0000       0.059636         1.6228
  27   0.0000       0.073867         2.0100

MULLIKEN ATOMIC CHARGES
-----------------------
   0 C :    1.305477
   1 C :    0.841027
   2 C :    0.841027
   3 O :   -0.661779
   4 O :   -0.815325
   5 O :   -0.815325
   6 H :   -0.152335
   7 H :   -0.195216
   8 H :   -0.152335
   9 H :   -0.195216
Sum of atomic charges:   -0.0000000

LOEWDIN ATOMIC CHARGES
----------------------
   0 C :   -0.368354
   1 C :    0.042883
   2 C :    0.042883
   3 O :    0.063685
   4 O :    0.086582
   5 O :    0.086582
   6 H :    0.011028
   7 H :    0.011841
   8 H :    0.011028
   9 H :    0.011841

  Mayer bond orders larger than 0.100000
B(  0-C ,  3-O ) :   1.6466 B(  0-C ,  4-O ) :   0.8113 B(  0-C ,  5-O ) :   0.8113
B(  1-C ,  2-C ) :   1.2467 B(  1-C ,  4-O ) :   0.5427 B(  1-C ,  5-O ) :   0.1156
B(  1-C ,  6-H ) :   0.9320 B(  1-C ,  7-H ) :   0.8856 B(  2-C ,  4-O ) :   0.1156
B(  2-C ,  5-O ) :   0.5427 B(  2-C ,  8-H ) :   0.9320 B(  2-C ,  9-H ) :   0.8856

MP2 TOTAL ENERGY:     -341.567223957 Eh
FINAL SINGLE POINT ENERGY      -341.567223956551

DIPOLE MOMENT
-------------
                                X             Y             Z
Electronic contribution:      0.00000      -0.00000       4.48529
Nuclear contribution   :      0.00000       0.00000      -6.83464
                        -----------------------------------------
Total Dipole Moment    :      0.00000      -0.00000      -2.34935
                        -----------------------------------------
Magnitude (a.u.)       :      2.34935
Magnitude (Debye)      :      5.97157

Rotational constants in cm-1:     0.269013     0.127803     0.090185
Rotational constants in MHz :  8064.819763  3831.447458  2703.668220

                             ****ORCA TERMINATED NORMALLY****
TOTAL RUN TIME: 0 days 0 hours 0 minutes 32 seconds 397 msec
