                         Program Version 5.0.3 -  RELEASE  -
|  1> !ri-mp2 aug-cc-pvdz aug-cc-pvdz/c tightscf
|  2> %pal nprocs 16 end
|  3>
|  4> * xyz 0 1
|  5> O     -4.169729   -0.037851   -0.000189
|  6> O      4.169729    0.037850   -0.000331
|  7> N     -1.822306    0.260406    0.000120
|  8> N      1.822306   -0.260406    0.000229
|  9> C     -0.587346   -0.486761    0.000192
| 10> C      0.587346    0.486762    0.000114
| 11> C     -3.002288    0.047253   -0.000041
| 12> C      3.002288   -0.047254   -0.000081
| 13> H     -0.530798   -1.125725   -0.882692
| 14> H     -0.530812   -1.125555    0.883200
| 15> H      0.530823    1.125555   -0.882895
| 16> H      0.530787    1.125727    0.882997
| 17> *
| 18>
| 19>                          ****END OF INPUT****

CARTESIAN COORDINATES (ANGSTROEM)
---------------------------------
  O     -4.169729   -0.037851   -0.000189
  O      4.169729    0.037850   -0.000331
  N     -1.822306    0.260406    0.000120
  N      1.822306   -0.260406    0.000229
  C     -0.587346   -0.486761    0.000192
  C      0.587346    0.486762    0.000114
  C     -3.002288    0.047253   -0.000041
  C      3.002288   -0.047254   -0.000081
  H     -0.530798   -1.125725   -0.882692
  H     -0.530812   -1.125555    0.883200
  H      0.530823    1.125555   -0.882895
  H      0.530787    1.125727    0.882997

 Total Charge           Charge          ....    0
 Multiplicity           Mult            ....    1
 Number of Electrons    NEL             ....   58
 Basis Dimension        Dim             ....  220

ORBITAL ENERGIES
----------------

  NO   OCC          E(Eh)            E(eV)
   0   2.0000     -20.624813      -561.2297
   1   2.0000     -20.624813      -561.2297
   2   2.0000     -15.607584      -424.7040
   3   2.0000     -15.607582      -424.7039
   4   2.0000     -11.421299      -310.7894
   5   2.0000     -11.421299      -310.7893
   6   2.0000     -11.319270      -308.0130
   7   2.0000     -11.318655      -307.9963
   8   2.0000      -1.472085       -40.0575
   9   2.0000      -1.472024       -40.0558
  10   2.0000      -1.297806       -35.3151
  11   2.0000      -1.284033       -34.9403
  12   2.0000      -1.083353       -29.4795
  13   2.0000      -0.936931       -25.4952
  14   2.0000      -0.775127       -21.0923
  15   2.0000      -0.746019       -20.3002
  16   2.0000      -0.726620       -19.7723
  17   2.0000      -0.706339       -19.2205
  18   2.0000      -0.688118       -18.7246
  19   2.0000      -0.667591       -18.1661
  20   2.0000      -0.664267       -18.0756
  21   2.0000      -0.644695       -17.5430
  22   2.0000      -0.634501       -17.2657
  23   2.0000      -0.583761       -15.8849
  24   2.0000      -0.569949       -15.5091
  25   2.0000      -0.464347       -12.6355
  26   2.0000      -0.448669       -12.2089
  27   2.0000      -0.433399       -11.7934
  28   2.0000      -0.432981       -11.7820
  29   0.0000       0.028378         0.7722
  30   0.0000       0.040969         1.1148
  31   0.0000       0.043327         1.1790
  32   0.0000       0.060347         1.6421
  33   0.0000       0.065814         1.7909

MULLIKEN ATOMIC CHARGES
-----------------------
   0 O :   -0.477404
   1 O :   -0.477404
   2 N :   -0.242912
   3 N :   -0.242912
   4 C :    0.905384
   5 C :    0.905384
   6 C :    0.057196
   7 C :    0.057196
   8 H :   -0.121138
   9 H :   -0.121127
  10 H :   -0.121141
  11 H :   -0.121123
Sum of atomic charges:    0.0000000

LOEWDIN ATOMIC CHARGES
----------------------
   0 O :    0.093669
   1 O :    0.093669
   2 N :    0.055030
   3 N :    0.055030
   4 C :   -0.013375
   5 C :   -0.013375
   6 C :   -0.179315
   7 C :   -0.179316
   8 H :    0.021996
   9 H :    0.021996
  10 H :    0.021995
  11 H :    0.021996

  Mayer bond orders larger than 0.100000
B(  0-O ,  6-C ) :   1.9883 B(  1-O ,  7-C ) :   1.9883 B(  2-N ,  4-C ) :   0.6942
B(  2-N ,  5-C ) :  -0.1149 B(  2-N ,  6-C ) :   2.0332 B(  3-N ,  4-C ) :  -0.1149
B(  3-N ,  5-C ) :   0.6942 B(  3-N ,  7-C ) :   2.0332 B(  4-C ,  5-C ) :   1.3088
B(  4-C ,  8-H ) :   0.8818 B(  4-C ,  9-H ) :   0.8818 B(  5-C , 10-H ) :   0.8818
B(  5-C , 11-H ) :   0.8818

MP2 TOTAL ENERGY:     -413.735451360 Eh
FINAL SINGLE POINT ENERGY      -413.735451360325

DIPOLE MOMENT
-------------
                                X             Y             Z
Electronic contribution:     -0.00000      -0.00000      -0.00049
Nuclear contribution   :      0.00000       0.00000       0.00059
                        -----------------------------------------
Total Dipole Moment    :     -0.00000       0.00000       0.00009
                        -----------------------------------------
Magnitude (a.u.)       :      0.00009
Magnitude (Debye)      :      0.00024

Rotational constants in cm-1:     1.057805     0.019190     0.018981
Rotational constants in MHz : 31712.192139   575.296818   569.045961

                             ****ORCA TERMINATED NORMALLY****
TOTAL RUN TIME: 0 days 0 hours 0 minutes 56 seconds 220 msec
