                         Program Version 5.0.3 -  RELEASE  -
|  1> !ri-mp2 aug-cc-pvdz aug-cc-pvdz/c tightscf
|  2> %pal nprocs 16 end
|  3>
|  4> * xyz 0 1
|  5> C     0.000000     0.000000    0.156756
|  6> C     0.000000     1.260347   -0.704215
|  7> C     0.000000    -1.260347   -0.704215
|  8> H     0.877590     0.000000    0.806673
|  9> H    -0.877590     0.000000    0.806673
| 10> S     0.000000     2.743925    0.388305
| 11> S     0.000000    -2.743925    0.388305
| 12> H     0.000000     3.667139   -0.589694
| 13> H     0.000000    -3.667139   -0.589694
| 14> H     0.885217     1.290973   -1.337416
| 15> H    -0.885217     1.290973   -1.337416
| 16> H    -0.885217    -1.290973   -1.337416
| 17> H     0.885217    -1.290973   -1.337416
| 18> *
| 19>
| 20>                          ****END OF INPUT****

CARTESIAN COORDINATES (ANGSTROEM)
---------------------------------
  C      0.000000    0.000000    0.156756
  C      0.000000    1.260347   -0.704215
  C      0.000000   -1.260347   -0.704215
  H      0.877590    0.000000    0.806673
  H     -0.877590    0.000000    0.806673
  S      0.000000    2.743925    0.388305
  S      0.000000   -2.743925    0.388305
  H      0.000000    3.667139   -0.589694
  H      0.000000   -3.667139   -0.589694
  H      0.885217    1.290973   -1.337416
  H     -0.885217    1.290973   -1.337416
  H     -0.885217   -1.290973   -1.337416
  H      0.885217   -1.290973   -1.337416

 Total Charge           Charge          ....    0
 Multiplicity           Mult            ....    1
 Number of Electrons    NEL             ....   58
 Basis Dimension        Dim             ....  195

ORBITAL ENERGIES
----------------

  NO   OCC          E(Eh)            E(eV)
   0   2.0000     -91.958761     -2502.3251
   1   2.0000     -91.958761     -2502.3251
   2   2.0000     -11.277126      -306.8662
   3   2.0000     -11.277122      -306.8661
   4   2.0000     -11.251951      -306.1811
   5   2.0000      -8.960273      -243.8214
   6   2.0000      -8.960273      -243.8214
   7   2.0000      -6.642370      -180.7481
   8   2.0000      -6.642370      -180.7481
   9   2.0000      -6.641016      -180.7112
  10   2.0000      -6.641016      -180.7112
  11   2.0000      -6.638865      -180.6527
  12   2.0000      -6.638865      -180.6527
  13   2.0000      -1.110542       -30.2194
  14   2.0000      -1.035030       -28.1646
  15   2.0000      -0.947308       -25.7776
  16   2.0000      -0.853426       -23.2229
  17   2.0000      -0.814323       -22.1588
  18   2.0000      -0.669186       -18.2095
  19   2.0000      -0.615228       -16.7412
  20   2.0000      -0.588188       -16.0054
  21   2.0000      -0.579641       -15.7728
  22   2.0000      -0.538703       -14.6589
  23   2.0000      -0.505827       -13.7642
  24   2.0000      -0.488338       -13.2884
  25   2.0000      -0.457478       -12.4486
  26   2.0000      -0.450301       -12.2533
  27   2.0000      -0.363234        -9.8841
  28   2.0000      -0.358103        -9.7445
  29   0.0000       0.032365         0.8807
  30   0.0000       0.040143         1.0923
  31   0.0000       0.047949         1.3048
  32   0.0000       0.052647         1.4326
  33   0.0000       0.061018         1.6604

MULLIKEN ATOMIC CHARGES
-----------------------
   0 C :    0.191580
   1 C :    0.023442
   2 C :    0.023442
   3 H :   -0.115341
   4 H :   -0.115341
   5 S :    0.256957
   6 S :    0.256957
   7 H :    0.090357
   8 H :    0.090357
   9 H :   -0.175603
  10 H :   -0.175603
  11 H :   -0.175603
  12 H :   -0.175603
Sum of atomic charges:    0.0000000

LOEWDIN ATOMIC CHARGES
----------------------
   0 C :   -0.184753
   1 C :   -0.320071
   2 C :   -0.320071
   3 H :    0.002162
   4 H :    0.002162
   5 S :    0.711576
   6 S :    0.711576
   7 H :   -0.233300
   8 H :   -0.233300
   9 H :   -0.033995
  10 H :   -0.033995
  11 H :   -0.033995
  12 H :   -0.033995

  Mayer bond orders larger than 0.100000
B(  0-C ,  1-C ) :   1.3184 B(  0-C ,  2-C ) :   1.3184 B(  0-C ,  3-H ) :   0.8808
B(  0-C ,  4-H ) :   0.8808 B(  0-C ,  5-S ) :  -0.1332 B(  0-C ,  6-S ) :  -0.1332
B(  1-C ,  5-S ) :   1.2138 B(  1-C ,  9-H ) :   0.9245 B(  1-C , 10-H ) :   0.9245
B(  2-C ,  6-S ) :   1.2138 B(  2-C , 11-H ) :   0.9245 B(  2-C , 12-H ) :   0.9245
B(  5-S ,  7-H ) :   0.9641 B(  6-S ,  8-H ) :   0.9641

MP2 TOTAL ENERGY:     -914.079237897 Eh
FINAL SINGLE POINT ENERGY      -914.079237896940

DIPOLE MOMENT
-------------
                                X             Y             Z
Electronic contribution:     -0.00000      -0.00000       3.79790
Nuclear contribution   :      0.00000       0.00000      -4.97214
                        -----------------------------------------
Total Dipole Moment    :     -0.00000      -0.00000      -1.17424
                        -----------------------------------------
Magnitude (a.u.)       :      1.17424
Magnitude (Debye)      :      2.98468

Rotational constants in cm-1:     0.473656     0.030132     0.028785
Rotational constants in MHz : 14199.849654   903.320356   862.960020

                             ****ORCA TERMINATED NORMALLY****
TOTAL RUN TIME: 0 days 0 hours 0 minutes 39 seconds 168 msec
