                         Program Version 5.0.3 -  RELEASE  -
|  1> !ri-mp2 aug-cc-pvdz aug-cc-pvdz/c tightscf
|  2> %pal nprocs 16 end
|  3> %maxcore 3800
|  4>
|  5> * xyz 0 1
|  6> C      1.600593    1.193755    0.000030
|  7> C      1.362015   -1.179084   -0.000623
|  8> C      0.214960    1.329237    0.000273
|  9> C     -0.018274   -1.043342   -0.000385
| 10> C      2.201025   -0.061784   -0.000327
| 11> C     -0.622831    0.217224    0.000106
| 12> C      3.699139   -0.219727    0.000340
| 13> C     -2.774529   -0.208537    1.265773
| 14> C     -2.774681   -0.207345   -1.265700
| 15> C     -2.132337    0.379225    0.000275
| 16> H      2.220883    2.081689    0.000055
| 17> H      1.797012   -2.171508   -0.001121
| 18> H     -0.219605    2.321673    0.000499
| 19> H     -0.631041   -1.935901   -0.000690
| 20> H      4.039551   -0.780061   -0.872912
| 21> H      4.199664    0.747760   -0.008810
| 22> H      4.040365   -0.763522    0.883764
| 23> H     -2.623372   -1.288055    1.321226
| 24> H     -3.850322   -0.023817    1.272330
| 25> H     -2.347796    0.233736    2.166427
| 26> H     -2.348059    0.235781   -2.165987
| 27> H     -3.850477   -0.022626   -1.271955
| 28> H     -2.623518   -1.286809   -1.322188
| 29> H     -2.333765    1.453939    0.000792
| 30> *
| 31>
| 32>                          ****END OF INPUT****

CARTESIAN COORDINATES (ANGSTROEM)
---------------------------------
  C      1.600593    1.193755    0.000030
  C      1.362015   -1.179084   -0.000623
  C      0.214960    1.329237    0.000273
  C     -0.018274   -1.043342   -0.000385
  C      2.201025   -0.061784   -0.000327
  C     -0.622831    0.217224    0.000106
  C      3.699139   -0.219727    0.000340
  C     -2.774529   -0.208537    1.265773
  C     -2.774681   -0.207345   -1.265700
  C     -2.132337    0.379225    0.000275
  H      2.220883    2.081689    0.000055
  H      1.797012   -2.171508   -0.001121
  H     -0.219605    2.321673    0.000499
  H     -0.631041   -1.935901   -0.000690
  H      4.039551   -0.780061   -0.872912
  H      4.199664    0.747760   -0.008810
  H      4.040365   -0.763522    0.883764
  H     -2.623372   -1.288055    1.321226
  H     -3.850322   -0.023817    1.272330
  H     -2.347796    0.233736    2.166427
  H     -2.348059    0.235781   -2.165987
  H     -3.850477   -0.022626   -1.271955
  H     -2.623518   -1.286809   -1.322188
  H     -2.333765    1.453939    0.000792

 Total Charge           Charge          ....    0
 Multiplicity           Mult            ....    1
 Number of Electrons    NEL             ....   74
 Basis Dimension        Dim             ....  356

ORBITAL ENERGIES
----------------

  NO   OCC          E(Eh)            E(eV)
   0   2.0000     -11.238780      -305.8227
   1   2.0000     -11.236413      -305.7584
   2   2.0000     -11.234306      -305.7010
   3   2.0000     -11.231336      -305.6202
   4   2.0000     -11.230568      -305.5993
   5   2.0000     -11.230087      -305.5862
   6   2.0000     -11.229378      -305.5669
   7   2.0000     -11.227159      -305.5065
   8   2.0000     -11.218238      -305.2638
   9   2.0000     -11.218217      -305.2632
  10   2.0000      -1.158154       -31.5150
  11   2.0000      -1.087256       -29.5857
  12   2.0000      -1.021421       -27.7943
  13   2.0000      -1.010125       -27.4869
  14   2.0000      -0.929844       -25.3023
  15   2.0000      -0.929494       -25.2928
  16   2.0000      -0.832985       -22.6667
  17   2.0000      -0.817406       -22.2428
  18   2.0000      -0.765569       -20.8322
  19   2.0000      -0.672650       -18.3037
  20   2.0000      -0.644869       -17.5478
  21   2.0000      -0.625540       -17.0218
  22   2.0000      -0.595111       -16.1938
  23   2.0000      -0.588368       -16.0103
  24   2.0000      -0.576426       -15.6853
  25   2.0000      -0.573728       -15.6119
  26   2.0000      -0.562903       -15.3174
  27   2.0000      -0.536764       -14.6061
  28   2.0000      -0.535451       -14.5704
  29   2.0000      -0.516481       -14.0542
  30   2.0000      -0.490908       -13.3583
  31   2.0000      -0.487501       -13.2656
  32   2.0000      -0.465765       -12.6741
  33   2.0000      -0.462236       -12.5781
  34   2.0000      -0.458465       -12.4755
  35   2.0000      -0.331176        -9.0118
  36   2.0000      -0.312050        -8.4913
  37   0.0000       0.034816         0.9474
  38   0.0000       0.037927         1.0320
  39   0.0000       0.042214         1.1487
  40   0.0000       0.050207         1.3662
  41   0.0000       0.051707         1.4070

MULLIKEN ATOMIC CHARGES
-----------------------
   0 C :    0.332325
   1 C :    0.257915
   2 C :    0.322023
   3 C :    0.446117
   4 C :    0.109340
   5 C :    1.017255
   6 C :    0.675293
   7 C :    0.779621
   8 C :    0.779458
   9 C :   -1.215765
  10 H :   -0.610627
  11 H :   -0.637060
  12 H :   -0.715748
  13 H :   -0.709783
  14 H :    0.079490
  15 H :   -0.196190
  16 H :    0.083248
  17 H :   -0.062663
  18 H :   -0.117096
  19 H :   -0.099063
  20 H :   -0.099187
  21 H :   -0.117077
  22 H :   -0.062595
  23 H :   -0.239231
Sum of atomic charges:    0.0000000

LOEWDIN ATOMIC CHARGES
----------------------
   0 C :    0.042453
   1 C :    0.045700
   2 C :    0.047811
   3 C :    0.048790
   4 C :   -0.219673
   5 C :   -0.158854
   6 C :    0.171228
   7 C :    0.165974
   8 C :    0.165976
   9 C :   -0.245470
  10 H :    0.002492
  11 H :    0.007370
  12 H :    0.005770
  13 H :    0.004761
  14 H :   -0.010159
  15 H :   -0.017615
  16 H :   -0.009990
  17 H :   -0.016179
  18 H :   -0.014207
  19 H :   -0.009252
  20 H :   -0.009252
  21 H :   -0.014207
  22 H :   -0.016174
  23 H :    0.032709

  Mayer bond orders larger than 0.100000
B(  0-C ,  1-C ) :  -0.3834 B(  0-C ,  2-C ) :   2.2108 B(  0-C ,  3-C ) :   0.3721
B(  0-C ,  4-C ) :   1.8683 B(  0-C ,  5-C ) :  -0.9950 B(  0-C ,  9-C ) :   0.3687
B(  0-C , 10-H ) :  -0.4689 B(  0-C , 12-H ) :   0.4684 B(  1-C ,  2-C ) :   0.5726
B(  1-C ,  3-C ) :   3.1210 B(  1-C ,  4-C ) :   1.1193 B(  1-C ,  5-C ) :  -1.3242
B(  1-C ,  6-C ) :  -0.6310 B(  1-C ,  9-C ) :   0.2255 B(  1-C , 11-H ) :  -0.3992
B(  1-C , 13-H ) :   0.4770 B(  1-C , 14-H ) :  -0.1091 B(  1-C , 16-H ) :  -0.1076
B(  2-C ,  3-C ) :  -0.6449 B(  2-C ,  4-C ) :  -0.3004 B(  2-C ,  5-C ) :   1.9187
B(  2-C ,  6-C ) :   0.1968 B(  2-C ,  9-C ) :  -0.7677 B(  2-C , 10-H ) :   0.3296
B(  2-C , 12-H ) :  -1.1965 B(  2-C , 23-H ) :  -0.1887 B(  3-C ,  4-C ) :  -0.5031
B(  3-C ,  5-C ) :   1.5103 B(  3-C ,  9-C ) :  -0.4774 B(  3-C , 11-H ) :   0.4729
B(  3-C , 13-H ) :  -0.8003 B(  3-C , 17-H ) :  -0.1187 B(  3-C , 22-H ) :  -0.1194
B(  4-C ,  5-C ) :   0.9980 B(  4-C ,  6-C ) :   1.4964 B(  4-C ,  9-C ) :  -0.1015
B(  4-C , 10-H ) :   0.6959 B(  4-C , 11-H ) :   0.6581 B(  4-C , 12-H ) :  -0.3362
B(  4-C , 13-H ) :  -0.2524 B(  4-C , 14-H ) :   0.2314 B(  4-C , 15-H ) :   0.4734
B(  4-C , 16-H ) :   0.2268 B(  5-C ,  9-C ) :   1.7912 B(  5-C , 10-H ) :  -0.1043
B(  5-C , 11-H ) :  -0.2630 B(  5-C , 12-H ) :   1.2326 B(  5-C , 13-H ) :   0.9476
B(  5-C , 18-H ) :   0.1182 B(  5-C , 21-H ) :   0.1181 B(  5-C , 23-H ) :   0.3318
B(  6-C , 14-H ) :   0.8500 B(  6-C , 15-H ) :   0.4712 B(  6-C , 16-H ) :   0.8550
B(  7-C ,  8-C ) :  -0.2032 B(  7-C ,  9-C ) :   1.4215 B(  7-C , 17-H ) :   0.9191
B(  7-C , 18-H ) :   0.7546 B(  7-C , 19-H ) :   0.8534 B(  8-C ,  9-C ) :   1.4217
B(  8-C , 20-H ) :   0.8533 B(  8-C , 21-H ) :   0.7547 B(  8-C , 22-H ) :   0.9192
B(  9-C , 12-H ) :   0.1345 B(  9-C , 17-H ) :   0.2024 B(  9-C , 19-H ) :   0.1418
B(  9-C , 20-H ) :   0.1418 B(  9-C , 22-H ) :   0.2027 B(  9-C , 23-H ) :   0.4976
B( 18-H , 19-H ) :  -0.1024 B( 20-H , 21-H ) :  -0.1024

MP2 TOTAL ENERGY:     -388.302504501 Eh
FINAL SINGLE POINT ENERGY      -388.302504500589

DIPOLE MOMENT
-------------
                                X             Y             Z
Electronic contribution:      4.69259       1.23943      -0.00113
Nuclear contribution   :     -4.69099      -1.24016       0.00148
                        -----------------------------------------
Total Dipole Moment    :      0.00160      -0.00073       0.00035
                        -----------------------------------------
Magnitude (a.u.)       :      0.00179
Magnitude (Debye)      :      0.00456

Rotational constants in cm-1:     0.109448     0.024213     0.022853
Rotational constants in MHz :  3281.165643   725.892989   685.100869

                             ****ORCA TERMINATED NORMALLY****
TOTAL RUN TIME: 0 days 0 hours 2 minutes 15 seconds 986 msec
