                         Program Version 5.0.3 -  RELEASE  -
|  1> !ri-mp2 aug-cc-pvdz aug-cc-pvdz/c tightscf
|  2> %pal nprocs 16 end
|  3>
|  4> * xyz 0 1
|  5> S     -1.169858   -1.011282    0.175331
|  6> S     -1.142550    1.044339   -0.322638
|  7> N      0.518150   -1.217936   -0.077229
|  8> N      2.527323   -0.088722   -0.233399
|  9> C      1.295329   -0.062239    0.065703
| 10> C      0.478211    1.133537    0.539987
| 11> H      0.785257   -1.791625   -0.865407
| 12> H      2.962650    0.821413   -0.123246
| 13> H      0.970963    2.062828    0.267287
| 14> H      0.320110    1.097290    1.618539
| 15> *
| 16>
| 17>                          ****END OF INPUT****

CARTESIAN COORDINATES (ANGSTROEM)
---------------------------------
  S     -1.169858   -1.011282    0.175331
  S     -1.142550    1.044339   -0.322638
  N      0.518150   -1.217936   -0.077229
  N      2.527323   -0.088722   -0.233399
  C      1.295329   -0.062239    0.065703
  C      0.478211    1.133537    0.539987
  H      0.785257   -1.791625   -0.865407
  H      2.962650    0.821413   -0.123246
  H      0.970963    2.062828    0.267287
  H      0.320110    1.097290    1.618539

 Total Charge           Charge          ....    0
 Multiplicity           Mult            ....    1
 Number of Electrons    NEL             ....   62
 Basis Dimension        Dim             ....  182

ORBITAL ENERGIES
----------------

  NO   OCC          E(Eh)            E(eV)
   0   2.0000     -92.025164     -2504.1320
   1   2.0000     -91.998299     -2503.4010
   2   2.0000     -15.617393      -424.9709
   3   2.0000     -15.559313      -423.3904
   4   2.0000     -11.350523      -308.8634
   5   2.0000     -11.304228      -307.6037
   6   2.0000      -9.021796      -245.4956
   7   2.0000      -8.998308      -244.8564
   8   2.0000      -6.703383      -182.4083
   9   2.0000      -6.701990      -182.3704
  10   2.0000      -6.698901      -182.2863
  11   2.0000      -6.679773      -181.7659
  12   2.0000      -6.678640      -181.7350
  13   2.0000      -6.675925      -181.6611
  14   2.0000      -1.301043       -35.4032
  15   2.0000      -1.187087       -32.3023
  16   2.0000      -1.080946       -29.4140
  17   2.0000      -0.976804       -26.5802
  18   2.0000      -0.852282       -23.1918
  19   2.0000      -0.804621       -21.8949
  20   2.0000      -0.700974       -19.0745
  21   2.0000      -0.665505       -18.1093
  22   2.0000      -0.616631       -16.7794
  23   2.0000      -0.591575       -16.0976
  24   2.0000      -0.563171       -15.3247
  25   2.0000      -0.518779       -14.1167
  26   2.0000      -0.466014       -12.6809
  27   2.0000      -0.459993       -12.5170
  28   2.0000      -0.421985       -11.4828
  29   2.0000      -0.384007       -10.4494
  30   2.0000      -0.338673        -9.2158
  31   0.0000       0.033102         0.9008
  32   0.0000       0.046048         1.2530
  33   0.0000       0.050257         1.3676
  34   0.0000       0.055161         1.5010
  35   0.0000       0.066488         1.8092

MULLIKEN ATOMIC CHARGES
-----------------------
   0 S :    0.352245
   1 S :    0.178871
   2 N :   -0.635094
   3 N :   -0.502805
   4 C :    0.525866
   5 C :    0.126778
   6 H :   -0.025397
   7 H :   -0.001107
   8 H :   -0.042303
   9 H :    0.022946
Sum of atomic charges:   -0.0000000

LOEWDIN ATOMIC CHARGES
----------------------
   0 S :    0.539554
   1 S :    0.488557
   2 N :   -0.260834
   3 N :    0.164628
   4 C :   -0.452040
   5 C :   -0.285449
   6 H :   -0.048879
   7 H :   -0.090273
   8 H :   -0.028299
   9 H :   -0.026965

  Mayer bond orders larger than 0.100000
B(  0-S ,  1-S ) :   0.9876 B(  0-S ,  2-N ) :   0.7476 B(  1-S ,  5-C ) :   1.1085
B(  2-N ,  4-C ) :   0.9719 B(  2-N ,  5-C ) :  -0.1269 B(  2-N ,  6-H ) :   1.1807
B(  3-N ,  4-C ) :   1.5155 B(  3-N ,  7-H ) :   1.0246 B(  4-C ,  5-C ) :   0.9787
B(  4-C ,  8-H ) :   0.1852 B(  5-C ,  8-H ) :   0.8349 B(  5-C ,  9-H ) :   0.9618

MP2 TOTAL ENERGY:     -982.921693222 Eh
FINAL SINGLE POINT ENERGY      -982.921693221931

DIPOLE MOMENT
-------------
                                X             Y             Z
Electronic contribution:     -5.08819      -1.46299      -0.71219
Nuclear contribution   :      4.96831       2.11321       0.87184
                        -----------------------------------------
Total Dipole Moment    :     -0.11987       0.65021       0.15965
                        -----------------------------------------
Magnitude (a.u.)       :      0.68017
Magnitude (Debye)      :      1.72887

Rotational constants in cm-1:     0.134239     0.075143     0.051742
Rotational constants in MHz :  4024.388307  2252.718280  1551.173952

                             ****ORCA TERMINATED NORMALLY****
TOTAL RUN TIME: 0 days 0 hours 0 minutes 57 seconds 91 msec
