                         Program Version 5.0.3 -  RELEASE  -
|  1> !ri-mp2 aug-cc-pvdz aug-cc-pvdz/c tightscf
|  2> %pal nprocs 16 end
|  3>
|  4> * xyz 0 1
|  5> S    -1.343024    1.653778   -0.188507
|  6> S    -1.672982   -1.441915    0.055760
|  7> N     0.022233    0.641827   -0.044011
|  8> N     0.993395   -1.482659    0.024447
|  9> N     2.446897    0.418854   -0.082676
| 10> C    -0.052767   -0.722709    0.020912
| 11> C     1.336826    1.254097    0.292287
| 12> C     2.209200   -0.831052   -0.160281
| 13> H    -1.575475    1.878237    1.129449
| 14> H    -1.161932   -2.687349    0.059929
| 15> H     1.376602    1.458299    1.372225
| 16> H     1.387735    2.206582   -0.231409
| 17> H     3.031951   -1.493748   -0.408073
| 18> *
| 19>
| 20>                          ****END OF INPUT****

CARTESIAN COORDINATES (ANGSTROEM)
---------------------------------
  S     -1.343024    1.653778   -0.188507
  S     -1.672982   -1.441915    0.055760
  N      0.022233    0.641827   -0.044011
  N      0.993395   -1.482659    0.024447
  N      2.446897    0.418854   -0.082676
  C     -0.052767   -0.722709    0.020912
  C      1.336826    1.254097    0.292287
  C      2.209200   -0.831052   -0.160281
  H     -1.575475    1.878237    1.129449
  H     -1.161932   -2.687349    0.059929
  H      1.376602    1.458299    1.372225
  H      1.387735    2.206582   -0.231409
  H      3.031951   -1.493748   -0.408073

 Total Charge           Charge          ....    0
 Multiplicity           Mult            ....    1
 Number of Electrons    NEL             ....   76
 Basis Dimension        Dim             ....  237

ORBITAL ENERGIES
----------------

  NO   OCC          E(Eh)            E(eV)
   0   2.0000     -92.025529     -2504.1419
   1   2.0000     -91.995422     -2503.3227
   2   2.0000     -15.642491      -425.6538
   3   2.0000     -15.562205      -423.4691
   4   2.0000     -15.561871      -423.4600
   5   2.0000     -11.390713      -309.9571
   6   2.0000     -11.317957      -307.9773
   7   2.0000     -11.317361      -307.9610
   8   2.0000      -9.023013      -245.5287
   9   2.0000      -8.997759      -244.8415
  10   2.0000      -6.705222      -182.4584
  11   2.0000      -6.703257      -182.4049
  12   2.0000      -6.701189      -182.3486
  13   2.0000      -6.679670      -181.7631
  14   2.0000      -6.678291      -181.7255
  15   2.0000      -6.676202      -181.6687
  16   2.0000      -1.352760       -36.8105
  17   2.0000      -1.237610       -33.6771
  18   2.0000      -1.202823       -32.7305
  19   2.0000      -1.034558       -28.1518
  20   2.0000      -1.002999       -27.2930
  21   2.0000      -0.943810       -25.6824
  22   2.0000      -0.858256       -23.3543
  23   2.0000      -0.734321       -19.9819
  24   2.0000      -0.708282       -19.2733
  25   2.0000      -0.700188       -19.0531
  26   2.0000      -0.649373       -17.6703
  27   2.0000      -0.599075       -16.3017
  28   2.0000      -0.588693       -16.0192
  29   2.0000      -0.565944       -15.4001
  30   2.0000      -0.537212       -14.6183
  31   2.0000      -0.522559       -14.2196
  32   2.0000      -0.471687       -12.8353
  33   2.0000      -0.462292       -12.5796
  34   2.0000      -0.431061       -11.7298
  35   2.0000      -0.404905       -11.0180
  36   2.0000      -0.383433       -10.4337
  37   2.0000      -0.345719        -9.4075
  38   0.0000       0.032065         0.8725
  39   0.0000       0.044253         1.2042
  40   0.0000       0.049398         1.3442
  41   0.0000       0.055481         1.5097
  42   0.0000       0.060346         1.6421

MULLIKEN ATOMIC CHARGES
-----------------------
   0 S :    0.267333
   1 S :    0.331074
   2 N :   -0.959962
   3 N :   -0.761416
   4 N :   -0.580803
   5 C :    0.257312
   6 C :    1.080591
   7 C :    0.611495
   8 H :    0.164263
   9 H :    0.167214
  10 H :   -0.145911
  11 H :   -0.213336
  12 H :   -0.217855
Sum of atomic charges:    0.0000000

LOEWDIN ATOMIC CHARGES
----------------------
   0 S :    0.828188
   1 S :    0.811445
   2 N :   -0.461132
   3 N :   -0.029141
   4 N :    0.018501
   5 C :   -0.625342
   6 C :   -0.063629
   7 C :   -0.103851
   8 H :   -0.203688
   9 H :   -0.182768
  10 H :    0.014224
  11 H :   -0.007154
  12 H :    0.004346

  Mayer bond orders larger than 0.100000
B(  0-S ,  2-N ) :   0.8783 B(  0-S ,  8-H ) :   0.8738 B(  1-S ,  2-N ) :  -0.1813
B(  1-S ,  5-C ) :   1.2108 B(  1-S ,  9-H ) :   0.8756 B(  2-N ,  5-C ) :   1.0505
B(  2-N ,  6-C ) :   0.8489 B(  2-N ,  7-C ) :   0.1115 B(  3-N ,  5-C ) :   1.5387
B(  3-N ,  7-C ) :   0.8446 B(  3-N , 12-H ) :  -0.1101 B(  4-N ,  6-C ) :   0.7482
B(  4-N ,  7-C ) :   1.6770 B(  5-C ,  7-C ) :  -0.1564 B(  6-C , 10-H ) :   0.8868
B(  6-C , 11-H ) :   0.9910 B(  7-C , 12-H ) :   1.0830

MP2 TOTAL ENERGY:    -1076.120091305 Eh
FINAL SINGLE POINT ENERGY     -1076.120091305114

DIPOLE MOMENT
-------------
                                X             Y             Z
Electronic contribution:     -3.89586      -1.01887      -1.41946
Nuclear contribution   :      3.07572       1.31183       1.86701
                        -----------------------------------------
Total Dipole Moment    :     -0.82014       0.29296       0.44755
                        -----------------------------------------
Magnitude (a.u.)       :      0.97916
Magnitude (Debye)      :      2.48882

Rotational constants in cm-1:     0.066625     0.048398     0.028606
Rotational constants in MHz :  1997.353867  1450.921670   857.590987

                             ****ORCA TERMINATED NORMALLY****
TOTAL RUN TIME: 0 days 0 hours 1 minutes 15 seconds 173 msec
