                         Program Version 5.0.3 -  RELEASE  -
|  1> !ri-mp2 aug-cc-pvdz aug-cc-pvdz/c tightscf
|  2> %pal nprocs 16 end
|  3>
|  4> * xyz 0 1
|  5> O      0.000000    0.000000    1.125015
|  6> N      0.000000    1.129079    0.352670
|  7> C      0.000000    0.709443   -0.877819
|  8> C      0.000000   -0.709443   -0.877819
|  9> N      0.000000   -1.129079    0.352670
| 10> H      0.000000    1.401671   -1.701840
| 11> H      0.000000   -1.401671   -1.701840
| 12> *
| 13>
| 14>                          ****END OF INPUT****

CARTESIAN COORDINATES (ANGSTROEM)
---------------------------------
  O      0.000000    0.000000    1.125015
  N      0.000000    1.129079    0.352670
  C      0.000000    0.709443   -0.877819
  C      0.000000   -0.709443   -0.877819
  N      0.000000   -1.129079    0.352670
  H      0.000000    1.401671   -1.701840
  H      0.000000   -1.401671   -1.701840

 Total Charge           Charge          ....    0
 Multiplicity           Mult            ....    1
 Number of Electrons    NEL             ....   36
 Basis Dimension        Dim             ....  133

ORBITAL ENERGIES
----------------

  NO   OCC          E(Eh)            E(eV)
   0   2.0000     -20.697435      -563.2058
   1   2.0000     -15.673966      -426.5103
   2   2.0000     -15.673903      -426.5086
   3   2.0000     -11.310296      -307.7688
   4   2.0000     -11.309269      -307.7409
   5   2.0000      -1.557939       -42.3937
   6   2.0000      -1.226072       -33.3631
   7   2.0000      -1.188891       -32.3514
   8   2.0000      -0.876610       -23.8538
   9   2.0000      -0.871450       -23.7134
  10   2.0000      -0.754205       -20.5230
  11   2.0000      -0.694160       -18.8891
  12   2.0000      -0.661183       -17.9917
  13   2.0000      -0.591497       -16.0955
  14   2.0000      -0.537093       -14.6150
  15   2.0000      -0.500733       -13.6257
  16   2.0000      -0.451341       -12.2816
  17   2.0000      -0.436205       -11.8697
  18   0.0000       0.027383         0.7451
  19   0.0000       0.041684         1.1343
  20   0.0000       0.068909         1.8751
  21   0.0000       0.082764         2.2521
  22   0.0000       0.107849         2.9347

MULLIKEN ATOMIC CHARGES
-----------------------
   0 O :   -0.764127
   1 N :   -0.199636
   2 C :    0.756259
   3 C :    0.756259
   4 N :   -0.199636
   5 H :   -0.174560
   6 H :   -0.174560
Sum of atomic charges:    0.0000000

LOEWDIN ATOMIC CHARGES
----------------------
   0 O :   -0.003852
   1 N :    0.041212
   2 C :   -0.039508
   3 C :   -0.039508
   4 N :    0.041212
   5 H :    0.000222
   6 H :    0.000222

  Mayer bond orders larger than 0.100000
B(  0-O ,  1-N ) :   0.8189 B(  0-O ,  4-N ) :   0.8189 B(  1-N ,  2-C ) :   1.4124
B(  1-N ,  4-N ) :   0.1102 B(  2-C ,  3-C ) :   1.2825 B(  2-C ,  5-H ) :   0.7739
B(  3-C ,  4-N ) :   1.4124 B(  3-C ,  6-H ) :   0.7739

MP2 TOTAL ENERGY:     -261.396194351 Eh
FINAL SINGLE POINT ENERGY      -261.396194350549

DIPOLE MOMENT
-------------
                                X             Y             Z
Electronic contribution:      0.00000      -0.00000       1.72482
Nuclear contribution   :      0.00000       0.00000      -3.26399
                        -----------------------------------------
Total Dipole Moment    :      0.00000      -0.00000      -1.53917
                        -----------------------------------------
Magnitude (a.u.)       :      1.53917
Magnitude (Debye)      :      3.91226

Rotational constants in cm-1:     0.351775     0.325663     0.169108
Rotational constants in MHz : 10545.943320  9763.129566  5069.724827

                             ****ORCA TERMINATED NORMALLY****
TOTAL RUN TIME: 0 days 0 hours 0 minutes 36 seconds 197 msec
