                         Program Version 5.0.3 -  RELEASE  -
|  1> !ri-mp2 aug-cc-pvdz aug-cc-pvdz/c tightscf
|  2> %pal nprocs 16 end
|  3> %maxcore 3800
|  4>
|  5> * xyz 0 1
|  6> C      3.923243   -0.294842    0.000054
|  7> C      2.698256    0.617692   -0.000087
|  8> C      1.382566   -0.165828    0.000024
|  9> C      0.168891    0.759188   -0.000133
| 10> S     -1.375513   -0.194329    0.000033
| 11> C     -2.659703    1.068823   -0.000208
| 12> O     -1.466231   -0.923301   -1.262796
| 13> O     -1.466246   -0.922837    1.263128
| 14> H      3.934055   -0.938927    0.881033
| 15> H      3.934060   -0.939189   -0.880734
| 16> H      4.846873    0.284744   -0.000030
| 17> H      2.730480    1.272993   -0.875356
| 18> H      2.730472    1.273253    0.874988
| 19> H      1.338291   -0.814008    0.877013
| 20> H      1.338307   -0.814284   -0.876761
| 21> H      0.138588    1.388271   -0.890317
| 22> H      0.138590    1.388574    0.889838
| 23> H     -3.601690    0.525093   -0.000121
| 24> H     -2.569767    1.670989    0.899941
| 25> H     -2.569747    1.670664   -0.900573
| 26> *
| 27>
| 28>                          ****END OF INPUT****

CARTESIAN COORDINATES (ANGSTROEM)
---------------------------------
  C      3.923243   -0.294842    0.000054
  C      2.698256    0.617692   -0.000087
  C      1.382566   -0.165828    0.000024
  C      0.168891    0.759188   -0.000133
  S     -1.375513   -0.194329    0.000033
  C     -2.659703    1.068823   -0.000208
  O     -1.466231   -0.923301   -1.262796
  O     -1.466246   -0.922837    1.263128
  H      3.934055   -0.938927    0.881033
  H      3.934060   -0.939189   -0.880734
  H      4.846873    0.284744   -0.000030
  H      2.730480    1.272993   -0.875356
  H      2.730472    1.273253    0.874988
  H      1.338291   -0.814008    0.877013
  H      1.338307   -0.814284   -0.876761
  H      0.138588    1.388271   -0.890317
  H      0.138590    1.388574    0.889838
  H     -3.601690    0.525093   -0.000121
  H     -2.569767    1.670989    0.899941
  H     -2.569747    1.670664   -0.900573

 Total Charge           Charge          ....    0
 Multiplicity           Mult            ....    1
 Number of Electrons    NEL             ....   74
 Basis Dimension        Dim             ....  296

ORBITAL ENERGIES
----------------

  NO   OCC          E(Eh)            E(eV)
   0   2.0000     -92.192140     -2508.6757
   1   2.0000     -20.547043      -559.1135
   2   2.0000     -20.547025      -559.1130
   3   2.0000     -11.284238      -307.0597
   4   2.0000     -11.283881      -307.0500
   5   2.0000     -11.246726      -306.0390
   6   2.0000     -11.241762      -305.9039
   7   2.0000     -11.228357      -305.5391
   8   2.0000      -9.165450      -249.4046
   9   2.0000      -6.850688      -186.4167
  10   2.0000      -6.849346      -186.3802
  11   2.0000      -6.849096      -186.3734
  12   2.0000      -1.444514       -39.3072
  13   2.0000      -1.330163       -36.1956
  14   2.0000      -1.109072       -30.1794
  15   2.0000      -1.054410       -28.6920
  16   2.0000      -1.012345       -27.5473
  17   2.0000      -0.910514       -24.7763
  18   2.0000      -0.820890       -22.3376
  19   2.0000      -0.802502       -21.8372
  20   2.0000      -0.685180       -18.6447
  21   2.0000      -0.679663       -18.4946
  22   2.0000      -0.660427       -17.9711
  23   2.0000      -0.647287       -17.6136
  24   2.0000      -0.609282       -16.5794
  25   2.0000      -0.606597       -16.5063
  26   2.0000      -0.592929       -16.1344
  27   2.0000      -0.590032       -16.0556
  28   2.0000      -0.556628       -15.1466
  29   2.0000      -0.525981       -14.3127
  30   2.0000      -0.503190       -13.6925
  31   2.0000      -0.495409       -13.4808
  32   2.0000      -0.489882       -13.3304
  33   2.0000      -0.479833       -13.0569
  34   2.0000      -0.475480       -12.9385
  35   2.0000      -0.458142       -12.4667
  36   2.0000      -0.423017       -11.5109
  37   0.0000       0.028009         0.7622
  38   0.0000       0.036143         0.9835
  39   0.0000       0.043082         1.1723
  40   0.0000       0.047110         1.2819
  41   0.0000       0.056211         1.5296

MULLIKEN ATOMIC CHARGES
-----------------------
   0 C :    0.557885
   1 C :    0.335276
   2 C :    0.297893
   3 C :   -0.194032
   4 S :    2.547638
   5 C :    0.181631
   6 O :   -1.239003
   7 O :   -1.239000
   8 H :   -0.081986
   9 H :   -0.081985
  10 H :   -0.069966
  11 H :   -0.178621
  12 H :   -0.178623
  13 H :   -0.170149
  14 H :   -0.170147
  15 H :   -0.154234
  16 H :   -0.154225
  17 H :    0.033538
  18 H :   -0.020945
  19 H :   -0.020943
Sum of atomic charges:   -0.0000000

LOEWDIN ATOMIC CHARGES
----------------------
   0 C :    0.138135
   1 C :   -0.070459
   2 C :   -0.062060
   3 C :   -0.087132
   4 S :    0.903695
   5 C :    0.086241
   6 O :   -0.407071
   7 O :   -0.407071
   8 H :   -0.016760
   9 H :   -0.016760
  10 H :   -0.019688
  11 H :    0.011768
  12 H :    0.011768
  13 H :    0.017922
  14 H :    0.017922
  15 H :   -0.000337
  16 H :   -0.000336
  17 H :   -0.029616
  18 H :   -0.035080
  19 H :   -0.035080

  Mayer bond orders larger than 0.100000
B(  0-C ,  1-C ) :   1.2049 B(  0-C ,  8-H ) :   0.9172 B(  0-C ,  9-H ) :   0.9172
B(  0-C , 10-H ) :   0.9075 B(  1-C ,  2-C ) :   1.2256 B(  1-C , 11-H ) :   0.7737
B(  1-C , 12-H ) :   0.7737 B(  2-C ,  3-C ) :   1.4387 B(  2-C , 13-H ) :   0.7833
B(  2-C , 14-H ) :   0.7833 B(  3-C ,  4-S ) :   0.9863 B(  3-C ,  5-C ) :  -0.1041
B(  3-C ,  6-O ) :   0.1997 B(  3-C ,  7-O ) :   0.1997 B(  3-C , 15-H ) :   0.9218
B(  3-C , 16-H ) :   0.9218 B(  4-S ,  5-C ) :   1.1206 B(  4-S ,  6-O ) :   0.6675
B(  4-S ,  7-O ) :   0.6675 B(  5-C , 17-H ) :   0.9393 B(  5-C , 18-H ) :   0.9255
B(  5-C , 19-H ) :   0.9255 B(  6-O ,  7-O ) :   0.1632

MP2 TOTAL ENERGY:     -744.861215273 Eh
FINAL SINGLE POINT ENERGY      -744.861215272534

DIPOLE MOMENT
-------------
                                X             Y             Z
Electronic contribution:    -12.14119      -4.07886       0.00073
Nuclear contribution   :     12.63644       6.06590      -0.00110
                        -----------------------------------------
Total Dipole Moment    :      0.49526       1.98704      -0.00036
                        -----------------------------------------
Magnitude (a.u.)       :      2.04783
Magnitude (Debye)      :      5.20516

Rotational constants in cm-1:     0.129883     0.025235     0.024793
Rotational constants in MHz :  3893.779682   756.539382   743.261212

                             ****ORCA TERMINATED NORMALLY****
TOTAL RUN TIME: 0 days 0 hours 1 minutes 27 seconds 210 msec
