                         Program Version 5.0.3 -  RELEASE  -
|  1> !ri-mp2 aug-cc-pvdz aug-cc-pvdz/c tightscf
|  2> %pal nprocs 16 end
|  3>
|  4> * xyz 0 1
|  5> C      0.000000    0.150318    0.000000
|  6> C      0.002169   -1.056593    0.000000
|  7> C     -0.002595    1.513662    0.000000
|  8> C      0.004244   -2.507221    0.000000
|  9> C     -0.005012    2.718859    0.000000
| 10> H     -0.007164    3.779665    0.000000
| 11> H      0.514494   -2.897262    0.882841
| 12> H      0.514494   -2.897262   -0.882841
| 13> H     -1.014660   -2.899289    0.000000
| 14> *
| 15>
| 16>                          ****END OF INPUT****

CARTESIAN COORDINATES (ANGSTROEM)
---------------------------------
  C      0.000000    0.150318    0.000000
  C      0.002169   -1.056593    0.000000
  C     -0.002595    1.513662    0.000000
  C      0.004244   -2.507221    0.000000
  C     -0.005012    2.718859    0.000000
  H     -0.007164    3.779665    0.000000
  H      0.514494   -2.897262    0.882841
  H      0.514494   -2.897262   -0.882841
  H     -1.014660   -2.899289    0.000000

 Total Charge           Charge          ....    0
 Multiplicity           Mult            ....    1
 Number of Electrons    NEL             ....   34
 Basis Dimension        Dim             ....  151

ORBITAL ENERGIES
----------------

  NO   OCC          E(Eh)            E(eV)
   0   2.0000     -11.267185      -306.5957
   1   2.0000     -11.264977      -306.5356
   2   2.0000     -11.263618      -306.4986
   3   2.0000     -11.253277      -306.2172
   4   2.0000     -11.252965      -306.2088
   5   2.0000      -1.096179       -29.8286
   6   2.0000      -1.046087       -28.4655
   7   2.0000      -0.973497       -26.4902
   8   2.0000      -0.825923       -22.4745
   9   2.0000      -0.708499       -19.2792
  10   2.0000      -0.643500       -17.5105
  11   2.0000      -0.602013       -16.3816
  12   2.0000      -0.602004       -16.3814
  13   2.0000      -0.476134       -12.9563
  14   2.0000      -0.476134       -12.9563
  15   2.0000      -0.351728        -9.5710
  16   2.0000      -0.351727        -9.5710
  17   0.0000       0.031805         0.8655
  18   0.0000       0.037145         1.0108
  19   0.0000       0.057999         1.5782
  20   0.0000       0.058000         1.5783
  21   0.0000       0.075181         2.0458

MULLIKEN ATOMIC CHARGES
-----------------------
   0 C :    1.310777
   1 C :   -1.749605
   2 C :   -0.410479
   3 C :    0.431847
   4 C :    0.776260
   5 H :   -0.743005
   6 H :    0.128003
   7 H :    0.128003
   8 H :    0.128200
Sum of atomic charges:    0.0000000

LOEWDIN ATOMIC CHARGES
----------------------
   0 C :   -0.072675
   1 C :   -0.024595
   2 C :   -0.152608
   3 C :    0.129284
   4 C :    0.235775
   5 H :   -0.099966
   6 H :   -0.005073
   7 H :   -0.005073
   8 H :   -0.005068

  Mayer bond orders larger than 0.100000
B(  0-C ,  1-C ) :   1.3992 B(  0-C ,  2-C ) :   2.3141 B(  0-C ,  3-C ) :   0.2348
B(  0-C ,  4-C ) :  -1.5301 B(  0-C ,  5-H ) :  -0.2422 B(  1-C ,  2-C ) :  -1.1841
B(  1-C ,  3-C ) :   1.6013 B(  1-C ,  4-C ) :   1.1408 B(  1-C ,  5-H ) :   0.3653
B(  1-C ,  6-H ) :   0.3755 B(  1-C ,  7-H ) :   0.3755 B(  1-C ,  8-H ) :   0.3757
B(  2-C ,  4-C ) :   2.4459 B(  2-C ,  5-H ) :   1.4379 B(  3-C ,  4-C ) :   0.1628
B(  3-C ,  5-H ) :  -0.1088 B(  3-C ,  6-H ) :   0.7035 B(  3-C ,  7-H ) :   0.7035
B(  3-C ,  8-H ) :   0.7033 B(  4-C ,  5-H ) :  -1.1779

MP2 TOTAL ENERGY:     -192.220494464 Eh
FINAL SINGLE POINT ENERGY      -192.220494463980

DIPOLE MOMENT
-------------
                                X             Y             Z
Electronic contribution:     -0.00663       4.40740      -0.00000
Nuclear contribution   :      0.00714      -4.89632       0.00000
                        -----------------------------------------
Total Dipole Moment    :      0.00051      -0.48892      -0.00000
                        -----------------------------------------
Magnitude (a.u.)       :      0.48892
Magnitude (Debye)      :      1.24274

Rotational constants in cm-1:     5.364169     0.068392     0.068392
Rotational constants in MHz : 160813.745745  2050.337403  2050.336865

                             ****ORCA TERMINATED NORMALLY****
TOTAL RUN TIME: 0 days 0 hours 0 minutes 29 seconds 314 msec
