                         Program Version 5.0.3 -  RELEASE  -
|  1> !ri-mp2 aug-cc-pvdz aug-cc-pvdz/c tightscf
|  2> %pal nprocs 16 end
|  3>
|  4> * xyz 0 1
|  5> N      1.116569    0.323298        0.000000
|  6> N      0.000000    1.033096        0.000000
|  7> N     -1.109966    0.315745        0.000000
|  8> N     -0.722852   -0.930666        0.000000
|  9> C      0.629718   -0.907123        0.000000
| 10> H     -0.009536    2.040913        0.000000
| 11> H      1.244977   -1.788487        0.000000
| 12> *
| 13>
| 14>                          ****END OF INPUT****

CARTESIAN COORDINATES (ANGSTROEM)
---------------------------------
  N      1.116569    0.323298    0.000000
  N      0.000000    1.033096    0.000000
  N     -1.109966    0.315745    0.000000
  N     -0.722852   -0.930666    0.000000
  C      0.629718   -0.907123    0.000000
  H     -0.009536    2.040913    0.000000
  H      1.244977   -1.788487    0.000000

 Total Charge           Charge          ....    0
 Multiplicity           Mult            ....    1
 Number of Electrons    NEL             ....   36
 Basis Dimension        Dim             ....  133

ORBITAL ENERGIES
----------------

  NO   OCC          E(Eh)            E(eV)
   0   2.0000     -15.717216      -427.6872
   1   2.0000     -15.686463      -426.8503
   2   2.0000     -15.645134      -425.7257
   3   2.0000     -15.626190      -425.2103
   4   2.0000     -11.316142      -307.9279
   5   2.0000      -1.517930       -41.3050
   6   2.0000      -1.276753       -34.7422
   7   2.0000      -1.193364       -32.4731
   8   2.0000      -0.929925       -25.3045
   9   2.0000      -0.886978       -24.1359
  10   2.0000      -0.789783       -21.4911
  11   2.0000      -0.689875       -18.7724
  12   2.0000      -0.656940       -17.8762
  13   2.0000      -0.579627       -15.7725
  14   2.0000      -0.510153       -13.8820
  15   2.0000      -0.480224       -13.0675
  16   2.0000      -0.452950       -12.3254
  17   2.0000      -0.418499       -11.3879
  18   0.0000       0.031158         0.8478
  19   0.0000       0.043057         1.1716
  20   0.0000       0.089230         2.4281
  21   0.0000       0.093565         2.5460
  22   0.0000       0.106385         2.8949

MULLIKEN ATOMIC CHARGES
-----------------------
   0 N :   -0.470100
   1 N :    0.047733
   2 N :   -0.147016
   3 N :   -0.474141
   4 C :    1.074072
   5 H :    0.075289
   6 H :   -0.105838
Sum of atomic charges:    0.0000000

LOEWDIN ATOMIC CHARGES
----------------------
   0 N :    0.054690
   1 N :   -0.028378
   2 N :    0.035635
   3 N :   -0.019073
   4 C :   -0.076569
   5 H :    0.038987
   6 H :   -0.005293

  Mayer bond orders larger than 0.100000
B(  0-N ,  1-N ) :   1.1566 B(  0-N ,  2-N ) :   0.1156 B(  0-N ,  4-C ) :   1.3748
B(  1-N ,  2-N ) :   1.1048 B(  1-N ,  4-C ) :  -0.1550 B(  1-N ,  5-H ) :   1.0779
B(  2-N ,  3-N ) :   1.1404 B(  2-N ,  5-H ) :  -0.1030 B(  3-N ,  4-C ) :   1.1021
B(  4-C ,  6-H ) :   0.9550

MP2 TOTAL ENERGY:     -257.619011956 Eh
FINAL SINGLE POINT ENERGY      -257.619011956379

DIPOLE MOMENT
-------------
                                X             Y             Z
Electronic contribution:     -0.63061       0.42144       0.00000
Nuclear contribution   :      1.18828       0.24782       0.00000
                        -----------------------------------------
Total Dipole Moment    :      0.55766       0.66926       0.00000
                        -----------------------------------------
Magnitude (a.u.)       :      0.87115
Magnitude (Debye)      :      2.21428

Rotational constants in cm-1:     0.357971     0.347594     0.176353
Rotational constants in MHz : 10731.713843 10420.615773  5286.938535

                             ****ORCA TERMINATED NORMALLY****
TOTAL RUN TIME: 0 days 0 hours 0 minutes 35 seconds 113 msec
