                         Program Version 5.0.3 -  RELEASE  -
|  1> !ri-mp2 aug-cc-pvdz aug-cc-pvdz/c tightscf
|  2> %pal nprocs 16 end
|  3> %maxcore 3800
|  4>
|  5> * xyz 0 1
|  6> C     -3.260747    0.996763    0.430923
|  7> C     -1.865684    1.229535    0.570709
|  8> C     -3.546891   -0.215226   -0.118964
|  9> C     -1.112417    0.187192    0.114195
| 10> C      2.381637    1.125229   -0.488236
| 11> C      2.306330   -1.101133    0.504790
| 12> C      1.033891    1.153086   -0.447360
| 13> C      0.961179   -1.008421    0.530032
| 14> C      3.145966   -0.022380   -0.008396
| 15> N      0.292939    0.105453    0.062562
| 16> O      4.374161   -0.076554   -0.036314
| 17> S     -2.114227   -1.095088   -0.513823
| 18> H     -4.018281    1.696745    0.749056
| 19> H     -1.438528    2.118035    1.010517
| 20> H     -4.511080   -0.656491   -0.304364
| 21> H      2.922894    1.963430   -0.901979
| 22> H      2.789940   -1.988514    0.885958
| 23> H      0.451171    1.981024   -0.821014
| 24> H      0.328052   -1.786428    0.929407
| 25> *
| 26>
| 27>                          ****END OF INPUT****

CARTESIAN COORDINATES (ANGSTROEM)
---------------------------------
  C     -3.260747    0.996763    0.430923
  C     -1.865684    1.229535    0.570709
  C     -3.546891   -0.215226   -0.118964
  C     -1.112417    0.187192    0.114195
  C      2.381637    1.125229   -0.488236
  C      2.306330   -1.101133    0.504790
  C      1.033891    1.153086   -0.447360
  C      0.961179   -1.008421    0.530032
  C      3.145966   -0.022380   -0.008396
  N      0.292939    0.105453    0.062562
  O      4.374161   -0.076554   -0.036314
  S     -2.114227   -1.095088   -0.513823
  H     -4.018281    1.696745    0.749056
  H     -1.438528    2.118035    1.010517
  H     -4.511080   -0.656491   -0.304364
  H      2.922894    1.963430   -0.901979
  H      2.789940   -1.988514    0.885958
  H      0.451171    1.981024   -0.821014
  H      0.328052   -1.786428    0.929407

 Total Charge           Charge          ....    0
 Multiplicity           Mult            ....    1
 Number of Electrons    NEL             ....   92
 Basis Dimension        Dim             ....  343

ORBITAL ENERGIES
----------------

  NO   OCC          E(Eh)            E(eV)
   0   2.0000     -92.013351     -2503.8106
   1   2.0000     -20.517656      -558.3138
   2   2.0000     -15.660678      -426.1487
   3   2.0000     -11.338430      -308.5344
   4   2.0000     -11.324104      -308.1445
   5   2.0000     -11.317889      -307.9754
   6   2.0000     -11.317695      -307.9701
   7   2.0000     -11.292318      -307.2796
   8   2.0000     -11.270771      -306.6933
   9   2.0000     -11.269565      -306.6605
  10   2.0000     -11.243888      -305.9618
  11   2.0000     -11.243640      -305.9550
  12   2.0000      -9.015627      -245.3277
  13   2.0000      -6.697233      -182.2410
  14   2.0000      -6.696386      -182.2179
  15   2.0000      -6.694444      -182.1651
  16   2.0000      -1.356143       -36.9025
  17   2.0000      -1.342862       -36.5411
  18   2.0000      -1.199464       -32.6391
  19   2.0000      -1.093952       -29.7680
  20   2.0000      -1.073469       -29.2106
  21   2.0000      -1.018585       -27.7171
  22   2.0000      -0.998279       -27.1645
  23   2.0000      -0.889271       -24.1983
  24   2.0000      -0.869198       -23.6521
  25   2.0000      -0.812865       -22.1192
  26   2.0000      -0.788736       -21.4626
  27   2.0000      -0.739277       -20.1167
  28   2.0000      -0.704819       -19.1791
  29   2.0000      -0.681961       -18.5571
  30   2.0000      -0.658860       -17.9285
  31   2.0000      -0.636399       -17.3173
  32   2.0000      -0.629500       -17.1296
  33   2.0000      -0.613894       -16.7049
  34   2.0000      -0.587064       -15.9748
  35   2.0000      -0.570266       -15.5177
  36   2.0000      -0.560444       -15.2504
  37   2.0000      -0.547372       -14.8947
  38   2.0000      -0.543213       -14.7816
  39   2.0000      -0.510960       -13.9039
  40   2.0000      -0.499532       -13.5930
  41   2.0000      -0.401751       -10.9322
  42   2.0000      -0.392837       -10.6896
  43   2.0000      -0.376586       -10.2474
  44   2.0000      -0.368905       -10.0384
  45   2.0000      -0.312934        -8.5154
  46   0.0000       0.024387         0.6636
  47   0.0000       0.034146         0.9291
  48   0.0000       0.039110         1.0642
  49   0.0000       0.042617         1.1597
  50   0.0000       0.051912         1.4126

MULLIKEN ATOMIC CHARGES
-----------------------
   0 C :    0.463304
   1 C :    0.518806
   2 C :   -0.033622
   3 C :    0.145781
   4 C :    0.747523
   5 C :    0.812686
   6 C :    0.879267
   7 C :    0.873495
   8 C :   -0.326951
   9 N :   -0.707163
  10 O :   -0.842574
  11 S :    0.601441
  12 H :   -0.311009
  13 H :   -0.472144
  14 H :   -0.340818
  15 H :   -0.469941
  16 H :   -0.468452
  17 H :   -0.538379
  18 H :   -0.531248
Sum of atomic charges:   -0.0000000

LOEWDIN ATOMIC CHARGES
----------------------
   0 C :   -0.086500
   1 C :   -0.027134
   2 C :   -0.271564
   3 C :   -0.435070
   4 C :    0.081674
   5 C :    0.080954
   6 C :    0.067275
   7 C :    0.055505
   8 C :   -0.338228
   9 N :   -0.135295
  10 O :   -0.010050
  11 S :    1.018067
  12 H :   -0.004669
  13 H :    0.006628
  14 H :   -0.052964
  15 H :    0.007151
  16 H :    0.007409
  17 H :    0.023300
  18 H :    0.013513

  Mayer bond orders larger than 0.100000
B(  0-C ,  1-C ) :   1.6430 B(  0-C ,  2-C ) :   1.9185 B(  0-C , 11-S ) :  -0.1129
B(  0-C , 12-H ) :   0.6322 B(  0-C , 14-H ) :   0.1062 B(  1-C ,  3-C ) :   2.4815
B(  1-C ,  9-N ) :  -0.1646 B(  1-C , 11-S ) :   0.3338 B(  1-C , 12-H ) :   0.1245
B(  1-C , 13-H ) :   0.2335 B(  2-C , 11-S ) :   1.0530 B(  2-C , 14-H ) :   0.8557
B(  3-C ,  9-N ) :   0.9036 B(  3-C , 11-S ) :   0.5804 B(  3-C , 13-H ) :   0.4905
B(  3-C , 17-H ) :   0.1516 B(  3-C , 18-H ) :   0.1705 B(  4-C ,  6-C ) :   1.9343
B(  4-C ,  8-C ) :   1.0293 B(  4-C ,  9-N ) :  -0.1712 B(  4-C , 15-H ) :   0.2991
B(  4-C , 17-H ) :   0.3840 B(  5-C ,  7-C ) :   1.9850 B(  5-C ,  8-C ) :   1.0208
B(  5-C ,  9-N ) :  -0.1384 B(  5-C , 16-H ) :   0.3070 B(  5-C , 18-H ) :   0.2834
B(  6-C ,  7-C ) :   0.1883 B(  6-C ,  8-C ) :   0.1692 B(  6-C ,  9-N ) :   1.1344
B(  6-C , 15-H ) :   0.1516 B(  6-C , 17-H ) :   0.1631 B(  7-C ,  8-C ) :   0.1546
B(  7-C ,  9-N ) :   1.0849 B(  7-C , 16-H ) :   0.1242 B(  7-C , 18-H ) :   0.2441
B(  8-C ,  9-N ) :  -0.1132 B(  8-C , 10-O ) :   1.2717 B(  8-C , 15-H ) :   0.3031
B(  8-C , 16-H ) :   0.3279 B( 11-S , 14-H ) :  -0.1551

MP2 TOTAL ENERGY:     -873.466335495 Eh
FINAL SINGLE POINT ENERGY      -873.466335494832

DIPOLE MOMENT
-------------
                                X             Y             Z
Electronic contribution:      0.32978      -2.88183      -1.32794
Nuclear contribution   :     -3.25627       3.27683       1.52408
                        -----------------------------------------
Total Dipole Moment    :     -2.92649       0.39500       0.19614
                        -----------------------------------------
Magnitude (a.u.)       :      2.95953
Magnitude (Debye)      :      7.52254

Rotational constants in cm-1:     0.092594     0.014684     0.013303
Rotational constants in MHz :  2775.907989   440.217701   398.824330

                             ****ORCA TERMINATED NORMALLY****
TOTAL RUN TIME: 0 days 0 hours 2 minutes 23 seconds 707 msec
