                         Program Version 5.0.3 -  RELEASE  -
|  1> !ri-mp2 aug-cc-pvdz aug-cc-pvdz/c tightscf
|  2> %pal nprocs 16 end
|  3>
|  4> * xyz 0 1
|  5> C     0.000000     0.000000    1.478573
|  6> C     0.000000     0.000000   -0.023472
|  7> H     0.000000    -1.026225    1.838151
|  8> H     0.888737     0.513112    1.838151
|  9> H    -0.888737     0.513112    1.838151
| 10> F     0.000000     1.253973   -0.527595
| 11> F    -1.085973    -0.626987   -0.527595
| 12> F     1.085973    -0.626987   -0.527595
| 13> *
| 14>
| 15>                          ****END OF INPUT****

CARTESIAN COORDINATES (ANGSTROEM)
---------------------------------
  C      0.000000    0.000000    1.478573
  C      0.000000    0.000000   -0.023472
  H      0.000000   -1.026225    1.838151
  H      0.888737    0.513112    1.838151
  H     -0.888737    0.513112    1.838151
  F      0.000000    1.253973   -0.527595
  F     -1.085973   -0.626987   -0.527595
  F      1.085973   -0.626987   -0.527595

 Total Charge           Charge          ....    0
 Multiplicity           Mult            ....    1
 Number of Electrons    NEL             ....   42
 Basis Dimension        Dim             ....  142

ORBITAL ENERGIES
----------------

  NO   OCC          E(Eh)            E(eV)
   0   2.0000     -26.346527      -716.9254
   1   2.0000     -26.346527      -716.9254
   2   2.0000     -26.346495      -716.9246
   3   2.0000     -11.515496      -313.3526
   4   2.0000     -11.268022      -306.6185
   5   2.0000      -1.726240       -46.9734
   6   2.0000      -1.632287       -44.4168
   7   2.0000      -1.632287       -44.4168
   8   2.0000      -1.073609       -29.2144
   9   2.0000      -0.924920       -25.1683
  10   2.0000      -0.818922       -22.2840
  11   2.0000      -0.818922       -22.2840
  12   2.0000      -0.776882       -21.1400
  13   2.0000      -0.706830       -19.2338
  14   2.0000      -0.706830       -19.2338
  15   2.0000      -0.659589       -17.9483
  16   2.0000      -0.659589       -17.9483
  17   2.0000      -0.643501       -17.5106
  18   2.0000      -0.589896       -16.0519
  19   2.0000      -0.589896       -16.0519
  20   2.0000      -0.568283       -15.4638
  21   0.0000       0.032907         0.8954
  22   0.0000       0.055425         1.5082
  23   0.0000       0.055425         1.5082
  24   0.0000       0.080315         2.1855
  25   0.0000       0.114872         3.1258

MULLIKEN ATOMIC CHARGES
-----------------------
   0 C :    0.043124
   1 C :    1.805063
   2 H :    0.008519
   3 H :    0.008519
   4 H :    0.008519
   5 F :   -0.624581
   6 F :   -0.624581
   7 F :   -0.624581
Sum of atomic charges:    0.0000000

LOEWDIN ATOMIC CHARGES
----------------------
   0 C :    0.196595
   1 C :   -0.400516
   2 H :    0.000018
   3 H :    0.000018
   4 H :    0.000018
   5 F :    0.067956
   6 F :    0.067955
   7 F :    0.067955

  Mayer bond orders larger than 0.100000
B(  0-C ,  1-C ) :   1.3143 B(  0-C ,  2-H ) :   0.9231 B(  0-C ,  3-H ) :   0.9231
B(  0-C ,  4-H ) :   0.9231 B(  1-C ,  5-F ) :   0.3006 B(  1-C ,  6-F ) :   0.3006
B(  1-C ,  7-F ) :   0.3006

MP2 TOTAL ENERGY:     -376.760517778 Eh
FINAL SINGLE POINT ENERGY      -376.760517778316

DIPOLE MOMENT
-------------
                                X             Y             Z
Electronic contribution:     -0.00000       0.00000      -5.61151
Nuclear contribution   :      0.00000      -0.00000       6.64296
                        -----------------------------------------
Total Dipole Moment    :     -0.00000       0.00000       1.03145
                        -----------------------------------------
Magnitude (a.u.)       :      1.03145
Magnitude (Debye)      :      2.62173

Rotational constants in cm-1:     0.181646     0.171735     0.171735
Rotational constants in MHz :  5445.613635  5148.494179  5148.493081

                             ****ORCA TERMINATED NORMALLY****
TOTAL RUN TIME: 0 days 0 hours 0 minutes 25 seconds 294 msec
