                         Program Version 5.0.3 -  RELEASE  -
|  1> !ri-mp2 aug-cc-pvdz aug-cc-pvdz/c tightscf
|  2> %pal nprocs 16 end
|  3>
|  4> * xyz 0 1
|  5> C      0.414691    1.407380    0.525760
|  6> N      0.414691    0.576813   -0.674955
|  7> N     -0.414691   -0.576813   -0.674955
|  8> C     -0.414691   -1.407380    0.525760
|  9> H     -1.350955   -0.279245   -0.913971
| 10> H     -0.587418    1.808180    0.689219
| 11> H      0.736630    0.902508    1.444977
| 12> H      1.084191    2.249794    0.349899
| 13> H      1.350955    0.279245   -0.913971
| 14> H     -1.084191   -2.249794    0.349899
| 15> H     -0.736630   -0.902508    1.444977
| 16> H      0.587418   -1.808180    0.689219
| 17> *
| 18>
| 19>                          ****END OF INPUT****

CARTESIAN COORDINATES (ANGSTROEM)
---------------------------------
  C      0.414691    1.407380    0.525760
  N      0.414691    0.576813   -0.674955
  N     -0.414691   -0.576813   -0.674955
  C     -0.414691   -1.407380    0.525760
  H     -1.350955   -0.279245   -0.913971
  H     -0.587418    1.808180    0.689219
  H      0.736630    0.902508    1.444977
  H      1.084191    2.249794    0.349899
  H      1.350955    0.279245   -0.913971
  H     -1.084191   -2.249794    0.349899
  H     -0.736630   -0.902508    1.444977
  H      0.587418   -1.808180    0.689219

 Total Charge           Charge          ....    0
 Multiplicity           Mult            ....    1
 Number of Electrons    NEL             ....   34
 Basis Dimension        Dim             ....  164

ORBITAL ENERGIES
----------------

  NO   OCC          E(Eh)            E(eV)
   0   2.0000     -15.573584      -423.7788
   1   2.0000     -15.573107      -423.7658
   2   2.0000     -11.249466      -306.1135
   3   2.0000     -11.249459      -306.1133
   4   2.0000      -1.276233       -34.7281
   5   2.0000      -1.077664       -29.3247
   6   2.0000      -0.929941       -25.3050
   7   2.0000      -0.856808       -23.3149
   8   2.0000      -0.662432       -18.0257
   9   2.0000      -0.661037       -17.9877
  10   2.0000      -0.607207       -16.5229
  11   2.0000      -0.592554       -16.1242
  12   2.0000      -0.546365       -14.8674
  13   2.0000      -0.541590       -14.7374
  14   2.0000      -0.512264       -13.9394
  15   2.0000      -0.383629       -10.4391
  16   2.0000      -0.370137       -10.0719
  17   0.0000       0.035394         0.9631
  18   0.0000       0.045205         1.2301
  19   0.0000       0.049683         1.3519
  20   0.0000       0.053648         1.4598
  21   0.0000       0.070079         1.9069

MULLIKEN ATOMIC CHARGES
-----------------------
   0 C :    0.855515
   1 N :   -0.385206
   2 N :   -0.385206
   3 C :    0.855515
   4 H :   -0.009094
   5 H :   -0.162855
   6 H :   -0.097544
   7 H :   -0.200816
   8 H :   -0.009094
   9 H :   -0.200816
  10 H :   -0.097544
  11 H :   -0.162855
Sum of atomic charges:   -0.0000000

LOEWDIN ATOMIC CHARGES
----------------------
   0 C :    0.117557
   1 N :   -0.015020
   2 N :   -0.015020
   3 C :    0.117557
   4 H :   -0.030482
   5 H :   -0.018803
   6 H :   -0.031831
   7 H :   -0.021422
   8 H :   -0.030482
   9 H :   -0.021422
  10 H :   -0.031831
  11 H :   -0.018803

  Mayer bond orders larger than 0.100000
B(  0-C ,  1-N ) :   0.7978 B(  0-C ,  5-H ) :   0.9513 B(  0-C ,  6-H ) :   0.9119
B(  0-C ,  7-H ) :   0.9997 B(  1-N ,  2-N ) :   0.8831 B(  1-N ,  4-H ) :  -0.1004
B(  1-N ,  8-H ) :   1.0796 B(  2-N ,  3-C ) :   0.7978 B(  2-N ,  4-H ) :   1.0796
B(  2-N ,  8-H ) :  -0.1004 B(  3-C ,  9-H ) :   0.9997 B(  3-C , 10-H ) :   0.9119
B(  3-C , 11-H ) :   0.9513

MP2 TOTAL ENERGY:     -189.926821477 Eh
FINAL SINGLE POINT ENERGY      -189.926821477409

DIPOLE MOMENT
-------------
                                X             Y             Z
Electronic contribution:     -0.00000      -0.00000      -2.68295
Nuclear contribution   :      0.00000      -0.00000       3.32800
                        -----------------------------------------
Total Dipole Moment    :     -0.00000      -0.00000       0.64505
                        -----------------------------------------
Magnitude (a.u.)       :      0.64505
Magnitude (Debye)      :      1.63959

Rotational constants in cm-1:     0.502719     0.182672     0.151287
Rotational constants in MHz : 15071.135607  5476.383470  4535.458474

                             ****ORCA TERMINATED NORMALLY****
TOTAL RUN TIME: 0 days 0 hours 0 minutes 50 seconds 434 msec
