                         Program Version 5.0.3 -  RELEASE  -
|  1> !ri-mp2 aug-cc-pvdz aug-cc-pvdz/c tightscf
|  2> %pal nprocs 16 end
|  3>
|  4> * xyz 0 1
|  5> C     -2.640949   -0.019049    0.026517
|  6> C     -1.209042    0.058303   -0.500284
|  7> C     -0.194938   -0.085420    0.631445
|  8> N      1.205024   -0.003386    0.081039
|  9> O      1.765014   -1.053167   -0.189400
| 10> O      1.672267    1.111046   -0.088501
| 11> H     -2.833745   -0.973366    0.519100
| 12> H     -2.844646    0.776897    0.744558
| 13> H     -3.353672    0.081711   -0.791461
| 14> H     -1.043315    1.011913   -1.003038
| 15> H     -1.035929   -0.731717   -1.232936
| 16> H     -0.270535   -1.051673    1.121825
| 17> H     -0.282005    0.723902    1.351821
| 18> *
| 19>
| 20>                          ****END OF INPUT****

CARTESIAN COORDINATES (ANGSTROEM)
---------------------------------
  C     -2.640949   -0.019049    0.026517
  C     -1.209042    0.058303   -0.500284
  C     -0.194938   -0.085420    0.631445
  N      1.205024   -0.003386    0.081039
  O      1.765014   -1.053167   -0.189400
  O      1.672267    1.111046   -0.088501
  H     -2.833745   -0.973366    0.519100
  H     -2.844646    0.776897    0.744558
  H     -3.353672    0.081711   -0.791461
  H     -1.043315    1.011913   -1.003038
  H     -1.035929   -0.731717   -1.232936
  H     -0.270535   -1.051673    1.121825
  H     -0.282005    0.723902    1.351821

 Total Charge           Charge          ....    0
 Multiplicity           Mult            ....    1
 Number of Electrons    NEL             ....   48
 Basis Dimension        Dim             ....  201

ORBITAL ENERGIES
----------------

  NO   OCC          E(Eh)            E(eV)
   0   2.0000     -20.613152      -560.9124
   1   2.0000     -20.612186      -560.8861
   2   2.0000     -15.851896      -431.3520
   3   2.0000     -11.312861      -307.8386
   4   2.0000     -11.264668      -306.5272
   5   2.0000     -11.249065      -306.1026
   6   2.0000      -1.610494       -43.8238
   7   2.0000      -1.405312       -38.2405
   8   2.0000      -1.133138       -30.8343
   9   2.0000      -1.027836       -27.9688
  10   2.0000      -0.888130       -24.1672
  11   2.0000      -0.837218       -22.7819
  12   2.0000      -0.753269       -20.4975
  13   2.0000      -0.736178       -20.0324
  14   2.0000      -0.712262       -19.3816
  15   2.0000      -0.671003       -18.2589
  16   2.0000      -0.602804       -16.4031
  17   2.0000      -0.586679       -15.9644
  18   2.0000      -0.552035       -15.0216
  19   2.0000      -0.520435       -14.1618
  20   2.0000      -0.513374       -13.9696
  21   2.0000      -0.490569       -13.3491
  22   2.0000      -0.479938       -13.0598
  23   2.0000      -0.452588       -12.3155
  24   0.0000       0.029621         0.8060
  25   0.0000       0.040321         1.0972
  26   0.0000       0.045057         1.2261
  27   0.0000       0.052934         1.4404
  28   0.0000       0.068631         1.8675

MULLIKEN ATOMIC CHARGES
-----------------------
   0 C :    0.336956
   1 C :    0.038609
   2 C :    1.060421
   3 N :    0.797242
   4 O :   -0.792212
   5 O :   -0.796986
   6 H :   -0.049474
   7 H :   -0.048129
   8 H :   -0.071143
   9 H :   -0.068357
  10 H :   -0.079878
  11 H :   -0.170890
  12 H :   -0.156159
Sum of atomic charges:    0.0000000

LOEWDIN ATOMIC CHARGES
----------------------
   0 C :    0.144919
   1 C :   -0.051199
   2 C :    0.077492
   3 N :   -0.368995
   4 O :    0.077309
   5 O :    0.076876
   6 H :   -0.015444
   7 H :   -0.015288
   8 H :   -0.014219
   9 H :    0.018583
  10 H :    0.019863
  11 H :    0.024020
  12 H :    0.026083

  Mayer bond orders larger than 0.100000
B(  0-C ,  1-C ) :   1.1975 B(  0-C ,  6-H ) :   0.9404 B(  0-C ,  7-H ) :   0.9441
B(  0-C ,  8-H ) :   0.9316 B(  1-C ,  2-C ) :   1.2185 B(  1-C ,  9-H ) :   0.8254
B(  1-C , 10-H ) :   0.8103 B(  2-C ,  3-N ) :   0.5511 B(  2-C , 11-H ) :   0.8278
B(  2-C , 12-H ) :   0.8417 B(  3-N ,  4-O ) :   1.1540 B(  3-N ,  5-O ) :   1.1349
B(  4-O ,  5-O ) :   0.1840 B( 11-H , 12-H ) :  -0.1392

MP2 TOTAL ENERGY:     -322.815693114 Eh
FINAL SINGLE POINT ENERGY      -322.815693113709

DIPOLE MOMENT
-------------
                                X             Y             Z
Electronic contribution:     10.02055       0.09115      -0.24095
Nuclear contribution   :    -11.73978      -0.16335       0.71431
                        -----------------------------------------
Total Dipole Moment    :     -1.71923      -0.07220       0.47337
                        -----------------------------------------
Magnitude (a.u.)       :      1.78467
Magnitude (Debye)      :      4.53627

Rotational constants in cm-1:     0.290052     0.064628     0.058624
Rotational constants in MHz :  8695.536949  1937.501033  1757.512351

                             ****ORCA TERMINATED NORMALLY****
TOTAL RUN TIME: 0 days 0 hours 0 minutes 49 seconds 627 msec
