                         Program Version 5.0.3 -  RELEASE  -
|  1> !ri-mp2 aug-cc-pvdz aug-cc-pvdz/c tightscf
|  2> %pal nprocs 16 end
|  3>
|  4> * xyz 0 1
|  5> C     -0.690377   -1.160681        0.000000
|  6> C      1.195972   -0.095042        0.000000
|  7> N      0.670277   -1.287237        0.000000
|  8> N     -1.238357    0.028231        0.000000
|  9> S      0.000000    1.143132        0.000000
| 10> H     -1.314687   -2.042848        0.000000
| 11> H      2.257676    0.100119        0.000000
| 12> *
| 13>
| 14>                          ****END OF INPUT****

CARTESIAN COORDINATES (ANGSTROEM)
---------------------------------
  C     -0.690377   -1.160681    0.000000
  C      1.195972   -0.095042    0.000000
  N      0.670277   -1.287237    0.000000
  N     -1.238357    0.028231    0.000000
  S      0.000000    1.143132    0.000000
  H     -1.314687   -2.042848    0.000000
  H      2.257676    0.100119    0.000000

 Total Charge           Charge          ....    0
 Multiplicity           Mult            ....    1
 Number of Electrons    NEL             ....   44
 Basis Dimension        Dim             ....  137

ORBITAL ENERGIES
----------------

  NO   OCC          E(Eh)            E(eV)
   0   2.0000     -92.032111     -2504.3211
   1   2.0000     -15.611994      -424.8240
   2   2.0000     -15.598024      -424.4438
   3   2.0000     -11.343131      -308.6623
   4   2.0000     -11.328756      -308.2711
   5   2.0000      -9.032152      -245.7774
   6   2.0000      -6.713636      -182.6873
   7   2.0000      -6.712408      -182.6539
   8   2.0000      -6.710604      -182.6048
   9   2.0000      -1.349476       -36.7211
  10   2.0000      -1.189431       -32.3661
  11   2.0000      -1.047184       -28.4953
  12   2.0000      -0.848170       -23.0799
  13   2.0000      -0.809529       -22.0284
  14   2.0000      -0.706266       -19.2185
  15   2.0000      -0.627755       -17.0821
  16   2.0000      -0.602073       -16.3832
  17   2.0000      -0.541924       -14.7465
  18   2.0000      -0.483596       -13.1593
  19   2.0000      -0.451840       -12.2952
  20   2.0000      -0.426570       -11.6076
  21   2.0000      -0.384530       -10.4636
  22   0.0000       0.033250         0.9048
  23   0.0000       0.044880         1.2212
  24   0.0000       0.070702         1.9239
  25   0.0000       0.072695         1.9781
  26   0.0000       0.086217         2.3461

MULLIKEN ATOMIC CHARGES
-----------------------
   0 C :    0.921554
   1 C :    0.110398
   2 N :   -0.625023
   3 N :   -0.904900
   4 S :    0.756793
   5 H :   -0.094720
   6 H :   -0.164102
Sum of atomic charges:   -0.0000000

LOEWDIN ATOMIC CHARGES
----------------------
   0 C :   -0.203449
   1 C :   -0.308353
   2 N :   -0.061756
   3 N :   -0.315753
   4 S :    0.935113
   5 H :   -0.004045
   6 H :   -0.041758

  Mayer bond orders larger than 0.100000
B(  0-C ,  1-C ) :  -0.1164 B(  0-C ,  2-N ) :   1.0493 B(  0-C ,  3-N ) :   1.5427
B(  0-C ,  5-H ) :   0.9806 B(  1-C ,  2-N ) :   1.5424 B(  1-C ,  3-N ) :   0.1117
B(  1-C ,  4-S ) :   1.1487 B(  1-C ,  6-H ) :   1.0775 B(  3-N ,  4-S ) :   0.9131

MP2 TOTAL ENERGY:     -584.078855448 Eh
FINAL SINGLE POINT ENERGY      -584.078855447536

DIPOLE MOMENT
-------------
                                X             Y             Z
Electronic contribution:     -0.29371       2.13474      -0.00000
Nuclear contribution   :      0.90172      -1.90523       0.00000
                        -----------------------------------------
Total Dipole Moment    :      0.60800       0.22951      -0.00000
                        -----------------------------------------
Magnitude (a.u.)       :      0.64988
Magnitude (Debye)      :      1.65186

Rotational constants in cm-1:     0.293269     0.196839     0.117784
Rotational constants in MHz :  8791.977653  5901.094349  3531.071626

                             ****ORCA TERMINATED NORMALLY****
TOTAL RUN TIME: 0 days 0 hours 0 minutes 52 seconds 686 msec
