                         Program Version 5.0.3 -  RELEASE  -
|  1> !ri-mp2 aug-cc-pvdz aug-cc-pvdz/c tightscf
|  2> %pal nprocs 16 end
|  3>
|  4> * xyz 0 1
|  5> C      0.965240    1.519566    0.000000
|  6> C      0.317239    0.938668    1.261849
|  7> C      0.317239    0.938668   -1.261849
|  8> C      0.317239   -0.596952    1.207472
|  9> C      0.317239   -0.596952   -1.207472
| 10> C     -1.745453   -1.132476    0.000000
| 11> N     -0.291486   -1.154914    0.000000
| 12> H      0.900662    2.609587    0.000000
| 13> H      2.032300    1.270920    0.000000
| 14> H      0.848574    1.272756    2.156437
| 15> H     -0.708429    1.307685    1.352481
| 16> H     -0.708429    1.307685   -1.352481
| 17> H      0.848574    1.272756   -2.156437
| 18> H      1.353737   -0.949519    1.247433
| 19> H     -0.193487   -1.015270    2.076593
| 20> H     -0.193487   -1.015270   -2.076593
| 21> H      1.353737   -0.949519   -1.247433
| 22> H     -2.112988   -1.660457   -0.881168
| 23> H     -2.199834   -0.129627    0.000000
| 24> H     -2.112988   -1.660457    0.881168
| 25> *
| 26>
| 27>                          ****END OF INPUT****

CARTESIAN COORDINATES (ANGSTROEM)
---------------------------------
  C      0.965240    1.519566    0.000000
  C      0.317239    0.938668    1.261849
  C      0.317239    0.938668   -1.261849
  C      0.317239   -0.596952    1.207472
  C      0.317239   -0.596952   -1.207472
  C     -1.745453   -1.132476    0.000000
  N     -0.291486   -1.154914    0.000000
  H      0.900662    2.609587    0.000000
  H      2.032300    1.270920    0.000000
  H      0.848574    1.272756    2.156437
  H     -0.708429    1.307685    1.352481
  H     -0.708429    1.307685   -1.352481
  H      0.848574    1.272756   -2.156437
  H      1.353737   -0.949519    1.247433
  H     -0.193487   -1.015270    2.076593
  H     -0.193487   -1.015270   -2.076593
  H      1.353737   -0.949519   -1.247433
  H     -2.112988   -1.660457   -0.881168
  H     -2.199834   -0.129627    0.000000
  H     -2.112988   -1.660457    0.881168

 Total Charge           Charge          ....    0
 Multiplicity           Mult            ....    1
 Number of Electrons    NEL             ....   56
 Basis Dimension        Dim             ....  278

ORBITAL ENERGIES
----------------

  NO   OCC          E(Eh)            E(eV)
   0   2.0000     -15.542371      -422.9294
   1   2.0000     -11.245299      -306.0001
   2   2.0000     -11.245282      -305.9997
   3   2.0000     -11.243174      -305.9423
   4   2.0000     -11.221211      -305.3447
   5   2.0000     -11.218468      -305.2700
   6   2.0000     -11.218392      -305.2680
   7   2.0000      -1.224610       -33.3233
   8   2.0000      -1.063630       -28.9428
   9   2.0000      -1.010340       -27.4928
  10   2.0000      -0.939208       -25.5571
  11   2.0000      -0.845760       -23.0143
  12   2.0000      -0.833894       -22.6914
  13   2.0000      -0.746876       -20.3235
  14   2.0000      -0.657030       -17.8787
  15   2.0000      -0.630364       -17.1531
  16   2.0000      -0.612925       -16.6785
  17   2.0000      -0.601758       -16.3747
  18   2.0000      -0.568230       -15.4623
  19   2.0000      -0.562289       -15.3006
  20   2.0000      -0.528044       -14.3688
  21   2.0000      -0.510388       -13.8884
  22   2.0000      -0.502128       -13.6636
  23   2.0000      -0.482272       -13.1233
  24   2.0000      -0.480419       -13.0729
  25   2.0000      -0.452040       -12.3006
  26   2.0000      -0.442873       -12.0512
  27   2.0000      -0.332406        -9.0452
  28   0.0000       0.036481         0.9927
  29   0.0000       0.044108         1.2002
  30   0.0000       0.045474         1.2374
  31   0.0000       0.047298         1.2870
  32   0.0000       0.062366         1.6971

MULLIKEN ATOMIC CHARGES
-----------------------
   0 C :    0.380080
   1 C :    0.196051
   2 C :    0.196051
   3 C :    0.632722
   4 C :    0.632722
   5 C :    0.750326
   6 N :   -0.833694
   7 H :   -0.123507
   8 H :   -0.135216
   9 H :   -0.127573
  10 H :   -0.138618
  11 H :   -0.138618
  12 H :   -0.127573
  13 H :   -0.172408
  14 H :   -0.204908
  15 H :   -0.204908
  16 H :   -0.172408
  17 H :   -0.180444
  18 H :   -0.047633
  19 H :   -0.180444
Sum of atomic charges:    0.0000000

LOEWDIN ATOMIC CHARGES
----------------------
   0 C :   -0.027905
   1 C :   -0.015859
   2 C :   -0.015859
   3 C :   -0.014161
   4 C :   -0.014161
   5 C :    0.137786
   6 N :   -0.161134
   7 H :    0.012692
   8 H :    0.016746
   9 H :    0.014580
  10 H :    0.011075
  11 H :    0.011075
  12 H :    0.014580
  13 H :    0.021049
  14 H :    0.016306
  15 H :    0.016306
  16 H :    0.021049
  17 H :   -0.013581
  18 H :   -0.017003
  19 H :   -0.013581

  Mayer bond orders larger than 0.100000
B(  0-C ,  1-C ) :   1.2499 B(  0-C ,  2-C ) :   1.2499 B(  0-C ,  7-H ) :   0.7912
B(  0-C ,  8-H ) :   0.7281 B(  1-C ,  3-C ) :   1.2054 B(  1-C ,  9-H ) :   0.8130
B(  1-C , 10-H ) :   0.8143 B(  2-C ,  4-C ) :   1.2054 B(  2-C , 11-H ) :   0.8143
B(  2-C , 12-H ) :   0.8130 B(  3-C ,  6-N ) :   0.8747 B(  3-C , 13-H ) :   0.8658
B(  3-C , 14-H ) :   0.9008 B(  4-C ,  6-N ) :   0.8747 B(  4-C , 15-H ) :   0.9008
B(  4-C , 16-H ) :   0.8658 B(  5-C ,  6-N ) :   1.0180 B(  5-C , 17-H ) :   0.9736
B(  5-C , 18-H ) :   0.8091 B(  5-C , 19-H ) :   0.9736 B(  6-N , 18-H ) :   0.2103
B(  7-H ,  8-H ) :  -0.1480 B(  9-H , 10-H ) :  -0.1442 B( 11-H , 12-H ) :  -0.1442
B( 13-H , 14-H ) :  -0.1938 B( 15-H , 16-H ) :  -0.1938 B( 17-H , 19-H ) :  -0.1207

MP2 TOTAL ENERGY:     -290.313166617 Eh
FINAL SINGLE POINT ENERGY      -290.313166616791

DIPOLE MOMENT
-------------
                                X             Y             Z
Electronic contribution:      0.88551      -1.40454      -0.00000
Nuclear contribution   :     -0.94780       1.75450       0.00000
                        -----------------------------------------
Total Dipole Moment    :     -0.06229       0.34996      -0.00000
                        -----------------------------------------
Magnitude (a.u.)       :      0.35546
Magnitude (Debye)      :      0.90352

Rotational constants in cm-1:     0.124627     0.086409     0.065015
Rotational constants in MHz :  3736.228708  2590.484516  1949.095637

                             ****ORCA TERMINATED NORMALLY****
TOTAL RUN TIME: 0 days 0 hours 1 minutes 27 seconds 391 msec
