                         Program Version 5.0.3 -  RELEASE  -
|  1> !ri-mp2 aug-cc-pvdz aug-cc-pvdz/c tightscf
|  2> %pal nprocs 16 end
|  3>
|  4> * xyz 0 1
|  5> S     -2.085780   -0.900716    0.006105
|  6> O      2.215947   -1.569659    0.000507
|  7> N      0.569237   -0.210430    0.014654
|  8> N     -0.824348    1.471103   -0.076104
|  9> N      1.006426   -1.480170    0.031513
| 10> C     -0.797846    0.120492   -0.016313
| 11> C      1.454352    0.955921   -0.068349
| 12> C      0.468196    2.125120    0.088754
| 13> H     -1.707844    1.945974   -0.009085
| 14> H      1.968507    0.956565   -1.029568
| 15> H      2.206495    0.910570    0.715423
| 16> H      0.550123    2.589299    1.074075
| 17> H      0.620197    2.893610   -0.667587
| 18> *
| 19>
| 20>                          ****END OF INPUT****

CARTESIAN COORDINATES (ANGSTROEM)
---------------------------------
  S     -2.085780   -0.900716    0.006105
  O      2.215947   -1.569659    0.000507
  N      0.569237   -0.210430    0.014654
  N     -0.824348    1.471103   -0.076104
  N      1.006426   -1.480170    0.031513
  C     -0.797846    0.120492   -0.016313
  C      1.454352    0.955921   -0.068349
  C      0.468196    2.125120    0.088754
  H     -1.707844    1.945974   -0.009085
  H      1.968507    0.956565   -1.029568
  H      2.206495    0.910570    0.715423
  H      0.550123    2.589299    1.074075
  H      0.620197    2.893610   -0.667587

 Total Charge           Charge          ....    0
 Multiplicity           Mult            ....    1
 Number of Electrons    NEL             ....   68
 Basis Dimension        Dim             ....  233

ORBITAL ENERGIES
----------------

  NO   OCC          E(Eh)            E(eV)
   0   2.0000     -91.913390     -2501.0905
   1   2.0000     -20.630268      -561.3781
   2   2.0000     -15.763098      -428.9357
   3   2.0000     -15.672848      -426.4799
   4   2.0000     -15.635130      -425.4535
   5   2.0000     -11.407204      -310.4058
   6   2.0000     -11.321818      -308.0823
   7   2.0000     -11.318251      -307.9853
   8   2.0000      -8.916989      -242.6436
   9   2.0000      -6.599505      -179.5817
  10   2.0000      -6.596430      -179.4980
  11   2.0000      -6.595399      -179.4699
  12   2.0000      -1.554335       -42.2956
  13   2.0000      -1.376751       -37.4633
  14   2.0000      -1.257830       -34.2273
  15   2.0000      -1.099587       -29.9213
  16   2.0000      -1.026338       -27.9281
  17   2.0000      -0.950531       -25.8653
  18   2.0000      -0.901676       -24.5359
  19   2.0000      -0.809215       -22.0199
  20   2.0000      -0.733500       -19.9596
  21   2.0000      -0.730836       -19.8870
  22   2.0000      -0.720773       -19.6132
  23   2.0000      -0.676668       -18.4131
  24   2.0000      -0.649114       -17.6633
  25   2.0000      -0.622563       -16.9408
  26   2.0000      -0.584809       -15.9135
  27   2.0000      -0.573770       -15.6131
  28   2.0000      -0.544366       -14.8129
  29   2.0000      -0.533190       -14.5088
  30   2.0000      -0.444900       -12.1063
  31   2.0000      -0.420452       -11.4411
  32   2.0000      -0.343911        -9.3583
  33   2.0000      -0.339500        -9.2383
  34   0.0000       0.020274         0.5517
  35   0.0000       0.037799         1.0286
  36   0.0000       0.038958         1.0601
  37   0.0000       0.053555         1.4573
  38   0.0000       0.063943         1.7400

MULLIKEN ATOMIC CHARGES
-----------------------
   0 S :    0.091512
   1 O :   -0.634457
   2 N :   -0.245525
   3 N :   -0.499844
   4 N :    0.134433
   5 C :    0.212192
   6 C :    0.932374
   7 C :    0.813094
   8 H :   -0.129113
   9 H :   -0.215290
  10 H :   -0.180787
  11 H :   -0.163275
  12 H :   -0.115314
Sum of atomic charges:   -0.0000000

LOEWDIN ATOMIC CHARGES
----------------------
   0 S :    0.549704
   1 O :    0.005982
   2 N :   -0.179678
   3 N :    0.055093
   4 N :    0.025827
   5 C :   -0.692557
   6 C :    0.074451
   7 C :    0.060344
   8 H :    0.018742
   9 H :    0.025220
  10 H :    0.019037
  11 H :    0.019610
  12 H :    0.018224

  Mayer bond orders larger than 0.100000
B(  0-S ,  2-N ) :  -0.1892 B(  0-S ,  5-C ) :   1.9335 B(  1-O ,  4-N ) :   1.1777
B(  2-N ,  4-N ) :   0.8618 B(  2-N ,  5-C ) :   0.9717 B(  2-N ,  6-C ) :   0.7747
B(  3-N ,  5-C ) :   0.9941 B(  3-N ,  7-C ) :   0.7770 B(  3-N ,  8-H ) :   1.2104
B(  5-C ,  6-C ) :  -0.1184 B(  6-C ,  7-C ) :   1.2887 B(  6-C ,  9-H ) :   0.7619
B(  6-C , 10-H ) :   0.8200 B(  6-C , 11-H ) :   0.1242 B(  7-C ,  8-H ) :  -0.1235
B(  7-C , 11-H ) :   0.7592 B(  7-C , 12-H ) :   0.8959

MP2 TOTAL ENERGY:     -753.484448518 Eh
FINAL SINGLE POINT ENERGY      -753.484448518449

DIPOLE MOMENT
-------------
                                X             Y             Z
Electronic contribution:     -2.87706      -6.44914      -0.03042
Nuclear contribution   :      3.64294       9.05362       0.08073
                        -----------------------------------------
Total Dipole Moment    :      0.76588       2.60448       0.05031
                        -----------------------------------------
Magnitude (a.u.)       :      2.71522
Magnitude (Debye)      :      6.90155

Rotational constants in cm-1:     0.078106     0.056580     0.033258
Rotational constants in MHz :  2341.567734  1696.237308   997.050711

                             ****ORCA TERMINATED NORMALLY****
TOTAL RUN TIME: 0 days 0 hours 1 minutes 13 seconds 467 msec
