                         Program Version 5.0.3 -  RELEASE  -
|  1> !ri-mp2 aug-cc-pvdz aug-cc-pvdz/c tightscf
|  2> %pal nprocs 16 end
|  3>
|  4> * xyz 0 1
|  5> Cl     2.286656   -0.909638   -0.094329
|  6> O     -0.348592   -1.741340    0.570157
|  7> O     -3.591259    0.368778   -0.156789
|  8> N      0.834131   -0.041900   -0.440896
|  9> N     -1.480456    0.074394   -0.263918
| 10> N     -2.680962   -0.317585    0.233515
| 11> C      1.034960    1.411899   -0.556362
| 12> C      1.208429    2.133260    0.774373
| 13> C     -0.314225   -0.670944    0.029846
| 14> H      0.193913    1.822214   -1.115508
| 15> H      1.908061    1.546450   -1.191269
| 16> H      1.383554    3.194973    0.597832
| 17> H      0.320409    2.034185    1.398486
| 18> H      2.061221    1.735025    1.322072
| 19> H     -1.505481    0.861831   -0.903010
| 20> *
| 21>
| 22>                          ****END OF INPUT****

CARTESIAN COORDINATES (ANGSTROEM)
---------------------------------
  Cl     2.286656   -0.909638   -0.094329
  O     -0.348592   -1.741340    0.570157
  O     -3.591259    0.368778   -0.156789
  N      0.834131   -0.041900   -0.440896
  N     -1.480456    0.074394   -0.263918
  N     -2.680962   -0.317585    0.233515
  C      1.034960    1.411899   -0.556362
  C      1.208429    2.133260    0.774373
  C     -0.314225   -0.670944    0.029846
  H      0.193913    1.822214   -1.115508
  H      1.908061    1.546450   -1.191269
  H      1.383554    3.194973    0.597832
  H      0.320409    2.034185    1.398486
  H      2.061221    1.735025    1.322072
  H     -1.505481    0.861831   -0.903010

 Total Charge           Charge          ....    0
 Multiplicity           Mult            ....    1
 Number of Electrons    NEL             ....   78
 Basis Dimension        Dim             ....  265

ORBITAL ENERGIES
----------------

  NO   OCC          E(Eh)            E(eV)
   0   2.0000    -104.885077     -2854.0681
   1   2.0000     -20.640793      -561.6645
   2   2.0000     -20.567878      -559.6804
   3   2.0000     -15.772626      -429.1950
   4   2.0000     -15.672067      -426.4586
   5   2.0000     -15.669314      -426.3837
   6   2.0000     -11.436443      -311.2014
   7   2.0000     -11.319004      -308.0058
   8   2.0000     -11.255582      -306.2800
   9   2.0000     -10.607626      -288.6482
  10   2.0000      -8.075690      -219.7507
  11   2.0000      -8.071418      -219.6344
  12   2.0000      -8.071125      -219.6265
  13   2.0000      -1.565879       -42.6097
  14   2.0000      -1.447554       -39.3900
  15   2.0000      -1.314005       -35.7559
  16   2.0000      -1.285519       -34.9808
  17   2.0000      -1.101831       -29.9824
  18   2.0000      -1.054126       -28.6842
  19   2.0000      -0.965238       -26.2655
  20   2.0000      -0.910114       -24.7655
  21   2.0000      -0.845454       -23.0060
  22   2.0000      -0.769396       -20.9363
  23   2.0000      -0.737739       -20.0749
  24   2.0000      -0.700450       -19.0602
  25   2.0000      -0.682613       -18.5748
  26   2.0000      -0.662722       -18.0336
  27   2.0000      -0.644629       -17.5412
  28   2.0000      -0.642676       -17.4881
  29   2.0000      -0.605626       -16.4799
  30   2.0000      -0.582266       -15.8443
  31   2.0000      -0.559374       -15.2213
  32   2.0000      -0.537546       -14.6274
  33   2.0000      -0.518943       -14.1212
  34   2.0000      -0.494068       -13.4443
  35   2.0000      -0.475809       -12.9474
  36   2.0000      -0.453825       -12.3492
  37   2.0000      -0.446672       -12.1546
  38   2.0000      -0.407455       -11.0874
  39   0.0000       0.024109         0.6560
  40   0.0000       0.039305         1.0696
  41   0.0000       0.044959         1.2234
  42   0.0000       0.053590         1.4583
  43   0.0000       0.067186         1.8282

MULLIKEN ATOMIC CHARGES
-----------------------
   0 Cl:    0.252259
   1 O :   -0.626395
   2 O :   -0.620842
   3 N :   -0.808138
   4 N :   -0.022590
   5 N :    0.340719
   6 C :    0.608460
   7 C :    0.384652
   8 C :    1.059316
   9 H :   -0.147297
  10 H :   -0.230786
  11 H :   -0.060174
  12 H :   -0.076685
  13 H :   -0.026405
  14 H :   -0.026093
Sum of atomic charges:    0.0000000

LOEWDIN ATOMIC CHARGES
----------------------
   0 Cl:    0.621296
   1 O :    0.050214
   2 O :    0.002488
   3 N :   -0.375884
   4 N :    0.071842
   5 N :    0.026566
   6 C :   -0.085793
   7 C :    0.151318
   8 C :   -0.418600
   9 H :   -0.000112
  10 H :    0.007153
  11 H :   -0.010883
  12 H :   -0.015196
  13 H :   -0.020778
  14 H :   -0.003630

  Mayer bond orders larger than 0.100000
B(  0-Cl,  3-N ) :   0.8650 B(  1-O ,  8-C ) :   1.6128 B(  2-O ,  5-N ) :   1.2626
B(  3-N ,  4-N ) :  -0.1565 B(  3-N ,  6-C ) :   0.7532 B(  3-N ,  8-C ) :   1.1259
B(  4-N ,  5-N ) :   1.0504 B(  4-N ,  8-C ) :   0.8114 B(  4-N , 14-H ) :   1.0011
B(  5-N ,  8-C ) :  -0.1005 B(  6-C ,  7-C ) :   1.1894 B(  6-C ,  9-H ) :   0.8635
B(  6-C , 10-H ) :   0.9402 B(  7-C , 11-H ) :   0.9008 B(  7-C , 12-H ) :   0.9964
B(  7-C , 13-H ) :   0.9469 B(  9-H , 10-H ) :  -0.1341

MP2 TOTAL ENERGY:     -891.091258535 Eh
FINAL SINGLE POINT ENERGY      -891.091258535138

DIPOLE MOMENT
-------------
                                X             Y             Z
Electronic contribution:      0.11158     -10.20645      -0.93885
Nuclear contribution   :      0.97493      12.05604       0.23904
                        -----------------------------------------
Total Dipole Moment    :      1.08650       1.84959      -0.69981
                        -----------------------------------------
Magnitude (a.u.)       :      2.25637
Magnitude (Debye)      :      5.73524

Rotational constants in cm-1:     0.077704     0.027726     0.021971
Rotational constants in MHz :  2329.505723   831.190791   658.676360

                             ****ORCA TERMINATED NORMALLY****
TOTAL RUN TIME: 0 days 0 hours 1 minutes 14 seconds 201 msec
