                         Program Version 5.0.3 -  RELEASE  -
|  1> !ri-mp2 aug-cc-pvdz aug-cc-pvdz/c tightscf
|  2> %pal nprocs 16 end
|  3> %maxcore 3800
|  4>
|  5> * xyz 0 1
|  6> C     -0.002677    0.695637    2.287492
|  7> C      0.002677   -0.695637    2.287492
|  8> C     -0.005281    1.380849    1.083628
|  9> C      0.005281   -1.380849    1.083628
| 10> C      0.002677    0.706828   -0.143419
| 11> C     -0.002677   -0.706828   -0.143419
| 12> C      0.504833    2.671718   -1.602985
| 13> C     -0.504833   -2.671718   -1.602985
| 14> C     -0.027936    1.466513   -1.404857
| 15> C      0.027936   -1.466513   -1.404857
| 16> H     -0.012494    1.242389    3.220751
| 17> H      0.012494   -1.242389    3.220751
| 18> H     -0.044540    2.461435    1.086304
| 19> H      0.044540   -2.461435    1.086304
| 20> H      0.415967    3.169418   -2.558579
| 21> H      1.054385    3.194867   -0.831116
| 22> H     -0.415967   -3.169418   -2.558579
| 23> H     -1.054385   -3.194867   -0.831116
| 24> H     -0.534592    0.991304   -2.236512
| 25> H      0.534592   -0.991304   -2.236512
| 26> *
| 27>
| 28>                          ****END OF INPUT****

CARTESIAN COORDINATES (ANGSTROEM)
---------------------------------
  C     -0.002677    0.695637    2.287492
  C      0.002677   -0.695637    2.287492
  C     -0.005281    1.380849    1.083628
  C      0.005281   -1.380849    1.083628
  C      0.002677    0.706828   -0.143419
  C     -0.002677   -0.706828   -0.143419
  C      0.504833    2.671718   -1.602985
  C     -0.504833   -2.671718   -1.602985
  C     -0.027936    1.466513   -1.404857
  C      0.027936   -1.466513   -1.404857
  H     -0.012494    1.242389    3.220751
  H      0.012494   -1.242389    3.220751
  H     -0.044540    2.461435    1.086304
  H      0.044540   -2.461435    1.086304
  H      0.415967    3.169418   -2.558579
  H      1.054385    3.194867   -0.831116
  H     -0.415967   -3.169418   -2.558579
  H     -1.054385   -3.194867   -0.831116
  H     -0.534592    0.991304   -2.236512
  H      0.534592   -0.991304   -2.236512

 Total Charge           Charge          ....    0
 Multiplicity           Mult            ....    1
 Number of Electrons    NEL             ....   70
 Basis Dimension        Dim             ....  320

ORBITAL ENERGIES
----------------

  NO   OCC          E(Eh)            E(eV)
   0   2.0000     -11.251781      -306.1765
   1   2.0000     -11.250695      -306.1470
   2   2.0000     -11.246426      -306.0308
   3   2.0000     -11.246425      -306.0308
   4   2.0000     -11.241380      -305.8935
   5   2.0000     -11.240542      -305.8707
   6   2.0000     -11.239635      -305.8460
   7   2.0000     -11.239282      -305.8364
   8   2.0000     -11.236754      -305.7676
   9   2.0000     -11.236753      -305.7676
  10   2.0000      -1.170309       -31.8457
  11   2.0000      -1.079130       -29.3646
  12   2.0000      -1.074275       -29.2325
  13   2.0000      -1.000669       -27.2296
  14   2.0000      -0.988845       -26.9078
  15   2.0000      -0.857193       -23.3254
  16   2.0000      -0.851303       -23.1651
  17   2.0000      -0.773427       -21.0460
  18   2.0000      -0.763001       -20.7623
  19   2.0000      -0.698944       -19.0192
  20   2.0000      -0.658094       -17.9076
  21   2.0000      -0.646688       -17.5973
  22   2.0000      -0.613807       -16.7025
  23   2.0000      -0.611897       -16.6506
  24   2.0000      -0.590775       -16.0758
  25   2.0000      -0.581989       -15.8367
  26   2.0000      -0.542621       -14.7655
  27   2.0000      -0.521101       -14.1799
  28   2.0000      -0.513829       -13.9820
  29   2.0000      -0.493639       -13.4326
  30   2.0000      -0.478726       -13.0268
  31   2.0000      -0.405015       -11.0210
  32   2.0000      -0.403614       -10.9829
  33   2.0000      -0.323475        -8.8022
  34   2.0000      -0.301866        -8.2142
  35   0.0000       0.035504         0.9661
  36   0.0000       0.038098         1.0367
  37   0.0000       0.039212         1.0670
  38   0.0000       0.051044         1.3890
  39   0.0000       0.055777         1.5178

MULLIKEN ATOMIC CHARGES
-----------------------
   0 C :    0.126128
   1 C :    0.126128
   2 C :    0.294767
   3 C :    0.294767
   4 C :    0.470246
   5 C :    0.470246
   6 C :    0.537865
   7 C :    0.537865
   8 C :    0.760636
   9 C :    0.760636
  10 H :   -0.465310
  11 H :   -0.465310
  12 H :   -0.600453
  13 H :   -0.600453
  14 H :   -0.339249
  15 H :   -0.360003
  16 H :   -0.339249
  17 H :   -0.360003
  18 H :   -0.424627
  19 H :   -0.424627
Sum of atomic charges:    0.0000000

LOEWDIN ATOMIC CHARGES
----------------------
   0 C :    0.014076
   1 C :    0.014076
   2 C :    0.048895
   3 C :    0.048895
   4 C :   -0.143475
   5 C :   -0.143475
   6 C :    0.188398
   7 C :    0.188398
   8 C :   -0.030545
   9 C :   -0.030545
  10 H :    0.000751
  11 H :    0.000751
  12 H :    0.001836
  13 H :    0.001836
  14 H :   -0.040615
  15 H :   -0.037653
  16 H :   -0.040615
  17 H :   -0.037653
  18 H :   -0.001669
  19 H :   -0.001669

  Mayer bond orders larger than 0.100000
B(  0-C ,  1-C ) :   1.9934 B(  0-C ,  2-C ) :   1.8696 B(  0-C ,  4-C ) :  -0.2270
B(  0-C , 10-H ) :   0.1234 B(  0-C , 11-H ) :   0.1753 B(  0-C , 12-H ) :   0.2033
B(  0-C , 13-H ) :  -0.1307 B(  1-C ,  3-C ) :   1.8696 B(  1-C ,  5-C ) :  -0.2270
B(  1-C , 10-H ) :   0.1753 B(  1-C , 11-H ) :   0.1234 B(  1-C , 12-H ) :  -0.1307
B(  1-C , 13-H ) :   0.2033 B(  2-C ,  3-C ) :   0.1642 B(  2-C ,  4-C ) :   1.2140
B(  2-C ,  5-C ) :  -1.0295 B(  2-C ,  8-C ) :  -0.6514 B(  2-C , 10-H ) :   0.4233
B(  2-C , 12-H ) :  -0.1803 B(  3-C ,  4-C ) :  -1.0295 B(  3-C ,  5-C ) :   1.2140
B(  3-C ,  9-C ) :  -0.6514 B(  3-C , 11-H ) :   0.4233 B(  3-C , 13-H ) :  -0.1803
B(  4-C ,  5-C ) :   2.3980 B(  4-C ,  8-C ) :   1.6469 B(  4-C ,  9-C ) :  -0.2354
B(  4-C , 12-H ) :   0.6722 B(  4-C , 14-H ) :   0.1064 B(  4-C , 18-H ) :   0.5043
B(  5-C ,  8-C ) :  -0.2354 B(  5-C ,  9-C ) :   1.6469 B(  5-C , 13-H ) :   0.6722
B(  5-C , 16-H ) :   0.1064 B(  5-C , 19-H ) :   0.5043 B(  6-C ,  8-C ) :   1.7672
B(  6-C , 14-H ) :   0.6991 B(  6-C , 15-H ) :   0.7928 B(  7-C ,  9-C ) :   1.7672
B(  7-C , 16-H ) :   0.6991 B(  7-C , 17-H ) :   0.7928 B(  8-C , 14-H ) :   0.1337
B(  9-C , 16-H ) :   0.1337 B( 14-H , 15-H ) :  -0.2025 B( 16-H , 17-H ) :  -0.2025

MP2 TOTAL ENERGY:     -385.866231778 Eh
FINAL SINGLE POINT ENERGY      -385.866231778370

DIPOLE MOMENT
-------------
                                X             Y             Z
Electronic contribution:     -0.00000       0.00000       2.68809
Nuclear contribution   :      0.00000      -0.00000      -2.66414
                        -----------------------------------------
Total Dipole Moment    :     -0.00000       0.00000       0.02395
                        -----------------------------------------
Magnitude (a.u.)       :      0.02395
Magnitude (Debye)      :      0.06087

Rotational constants in cm-1:     0.053300     0.046825     0.025288
Rotational constants in MHz :  1597.886808  1403.784062   758.110773

                             ****ORCA TERMINATED NORMALLY****
TOTAL RUN TIME: 0 days 0 hours 1 minutes 32 seconds 14 msec
