                         Program Version 5.0.3 -  RELEASE  -
|  1> !ri-mp2 aug-cc-pvdz aug-cc-pvdz/c tightscf
|  2> %pal nprocs 16 end
|  3>
|  4> * xyz 0 1
|  5> S     2.173408   -0.484649    -0.218616
|  6> O     1.706873    1.062931     0.309144
|  7> O    -2.406268    1.061439    -0.306376
|  8> O    -2.347569   -1.153252     0.077835
|  9> N     0.354539    1.209545    -0.199575
| 10> C    -0.337365    0.073070     0.423591
| 11> C    -1.793433    0.075562     0.003121
| 12> C     0.479207   -1.171035     0.031849
| 13> H    -3.285795   -1.061746    -0.148192
| 14> H     0.051131    2.086883     0.215271
| 15> H    -0.334047    0.154184     1.518761
| 16> H     0.458740   -1.921418     0.816656
| 17> H     0.138929   -1.604861    -0.903801
| 18> *
| 19>
| 20>                          ****END OF INPUT****

CARTESIAN COORDINATES (ANGSTROEM)
---------------------------------
  S      2.173408   -0.484649   -0.218616
  O      1.706873    1.062931    0.309144
  O     -2.406268    1.061439   -0.306376
  O     -2.347569   -1.153252    0.077835
  N      0.354539    1.209545   -0.199575
  C     -0.337365    0.073070    0.423591
  C     -1.793433    0.075562    0.003121
  C      0.479207   -1.171035    0.031849
  H     -3.285795   -1.061746   -0.148192
  H      0.051131    2.086883    0.215271
  H     -0.334047    0.154184    1.518761
  H      0.458740   -1.921418    0.816656
  H      0.138929   -1.604861   -0.903801

 Total Charge           Charge          ....    0
 Multiplicity           Mult            ....    1
 Number of Electrons    NEL             ....   70
 Basis Dimension        Dim             ....  233

ORBITAL ENERGIES
----------------

  NO   OCC          E(Eh)            E(eV)
   0   2.0000     -92.011502     -2503.7603
   1   2.0000     -20.646322      -561.8150
   2   2.0000     -20.631502      -561.4117
   3   2.0000     -20.584745      -560.1394
   4   2.0000     -15.643501      -425.6813
   5   2.0000     -11.420996      -310.7811
   6   2.0000     -11.317268      -307.9585
   7   2.0000     -11.291792      -307.2653
   8   2.0000      -9.007137      -245.0967
   9   2.0000      -6.689136      -182.0206
  10   2.0000      -6.687255      -181.9695
  11   2.0000      -6.684503      -181.8946
  12   2.0000      -1.495357       -40.6907
  13   2.0000      -1.432175       -38.9715
  14   2.0000      -1.392975       -37.9048
  15   2.0000      -1.166636       -31.7458
  16   2.0000      -1.078211       -29.3396
  17   2.0000      -0.947917       -25.7941
  18   2.0000      -0.856522       -23.3072
  19   2.0000      -0.828894       -22.5554
  20   2.0000      -0.740543       -20.1512
  21   2.0000      -0.726652       -19.7732
  22   2.0000      -0.724091       -19.7035
  23   2.0000      -0.655149       -17.8275
  24   2.0000      -0.639178       -17.3929
  25   2.0000      -0.622076       -16.9275
  26   2.0000      -0.603618       -16.4253
  27   2.0000      -0.578205       -15.7338
  28   2.0000      -0.559259       -15.2182
  29   2.0000      -0.534739       -14.5510
  30   2.0000      -0.504827       -13.7370
  31   2.0000      -0.487959       -13.2780
  32   2.0000      -0.462170       -12.5763
  33   2.0000      -0.423929       -11.5357
  34   2.0000      -0.352126        -9.5818
  35   0.0000       0.028094         0.7645
  36   0.0000       0.041962         1.1418
  37   0.0000       0.046882         1.2757
  38   0.0000       0.053874         1.4660
  39   0.0000       0.068662         1.8684

MULLIKEN ATOMIC CHARGES
-----------------------
   0 S :    0.827760
   1 O :   -0.986054
   2 O :   -0.753233
   3 O :   -0.714463
   4 N :   -0.165676
   5 C :    0.196747
   6 C :    1.247547
   7 C :    0.132861
   8 H :    0.224179
   9 H :    0.093813
  10 H :    0.012188
  11 H :   -0.034683
  12 H :   -0.080986
Sum of atomic charges:    0.0000000

LOEWDIN ATOMIC CHARGES
----------------------
   0 S :    0.821620
   1 O :   -0.307056
   2 O :    0.059752
   3 O :    0.210958
   4 N :    0.028402
   5 C :   -0.236601
   6 C :   -0.309984
   7 C :   -0.224202
   8 H :   -0.009810
   9 H :   -0.022839
  10 H :    0.049496
  11 H :   -0.028477
  12 H :   -0.031259

  Mayer bond orders larger than 0.100000
B(  0-S ,  1-O ) :   0.5499 B(  0-S ,  7-C ) :   1.0862 B(  1-O ,  4-N ) :   0.7667
B(  1-O ,  5-C ) :  -0.2529 B(  2-O ,  5-C ) :   0.1733 B(  2-O ,  6-C ) :   1.3398
B(  3-O ,  5-C ) :   0.1679 B(  3-O ,  6-C ) :   0.4815 B(  3-O ,  8-H ) :   1.0040
B(  4-N ,  5-C ) :   0.7365 B(  4-N ,  9-H ) :   0.9487 B(  5-C ,  6-C ) :   0.7983
B(  5-C ,  7-C ) :   1.2648 B(  5-C ,  9-H ) :   0.1031 B(  5-C , 10-H ) :   0.8792
B(  5-C , 11-H ) :   0.1789 B(  7-C , 11-H ) :   0.8377 B(  7-C , 12-H ) :   0.9065

MP2 TOTAL ENERGY:     -794.378767267 Eh
FINAL SINGLE POINT ENERGY      -794.378767266868

DIPOLE MOMENT
-------------
                                X             Y             Z
Electronic contribution:      2.18930       1.24421      -0.90096
Nuclear contribution   :     -3.00026      -2.24684       1.46463
                        -----------------------------------------
Total Dipole Moment    :     -0.81096      -1.00263       0.56367
                        -----------------------------------------
Magnitude (a.u.)       :      1.40735
Magnitude (Debye)      :      3.57721

Rotational constants in cm-1:     0.134782     0.037813     0.030741
Rotational constants in MHz :  4040.676795  1133.611746   921.587296

                             ****ORCA TERMINATED NORMALLY****
TOTAL RUN TIME: 0 days 0 hours 0 minutes 58 seconds 408 msec
