                         Program Version 5.0.3 -  RELEASE  -
|  1> !ri-mp2 aug-cc-pvdz aug-cc-pvdz/c tightscf
|  2> %pal nprocs 16 end
|  3>
|  4> * xyz 0 1
|  5> O     -1.918563   -0.173683   -0.195389
|  6> H     -2.312775    0.187830    0.609427
|  7> O     -0.661485   -0.686944    0.324121
|  8> C      1.651684   -0.787137    0.026852
|  9> H      1.820412   -0.777766    1.104424
| 10> H      1.554045   -1.821145   -0.300398
| 11> H      2.523590   -0.349504   -0.459304
| 12> C      0.487776    1.469705    0.103519
| 13> H      0.672394    1.540668    1.177022
| 14> H      1.301951    1.974955   -0.418152
| 15> H     -0.436230    1.995634   -0.131444
| 16> C      0.408750    0.013954   -0.330908
| 17> H      0.227738   -0.044785   -1.408201
| 18> *
| 19>
| 20>                          ****END OF INPUT****

CARTESIAN COORDINATES (ANGSTROEM)
---------------------------------
  O     -1.918563   -0.173683   -0.195389
  H     -2.312775    0.187830    0.609427
  O     -0.661485   -0.686944    0.324121
  C      1.651684   -0.787137    0.026852
  H      1.820412   -0.777766    1.104424
  H      1.554045   -1.821145   -0.300398
  H      2.523590   -0.349504   -0.459304
  C      0.487776    1.469705    0.103519
  H      0.672394    1.540668    1.177022
  H      1.301951    1.974955   -0.418152
  H     -0.436230    1.995634   -0.131444
  C      0.408750    0.013954   -0.330908
  H      0.227738   -0.044785   -1.408201

 Total Charge           Charge          ....    0
 Multiplicity           Mult            ....    1
 Number of Electrons    NEL             ....   42
 Basis Dimension        Dim             ....  187

ORBITAL ENERGIES
----------------

  NO   OCC          E(Eh)            E(eV)
   0   2.0000     -20.627410      -561.3003
   1   2.0000     -20.626775      -561.2831
   2   2.0000     -11.291896      -307.2681
   3   2.0000     -11.227215      -305.5081
   4   2.0000     -11.225305      -305.4561
   5   2.0000      -1.468945       -39.9720
   6   2.0000      -1.230981       -33.4967
   7   2.0000      -1.038265       -28.2526
   8   2.0000      -0.945803       -25.7366
   9   2.0000      -0.804072       -21.8799
  10   2.0000      -0.719109       -19.5680
  11   2.0000      -0.656447       -17.8628
  12   2.0000      -0.636674       -17.3248
  13   2.0000      -0.621697       -16.9172
  14   2.0000      -0.550734       -14.9862
  15   2.0000      -0.547980       -14.9113
  16   2.0000      -0.535096       -14.5607
  17   2.0000      -0.519069       -14.1246
  18   2.0000      -0.492815       -13.4102
  19   2.0000      -0.476372       -12.9627
  20   2.0000      -0.439234       -11.9522
  21   0.0000       0.036331         0.9886
  22   0.0000       0.044220         1.2033
  23   0.0000       0.049783         1.3547
  24   0.0000       0.051703         1.4069
  25   0.0000       0.068907         1.8751

MULLIKEN ATOMIC CHARGES
-----------------------
   0 O :   -0.314994
   1 H :    0.224517
   2 O :   -0.665444
   3 C :    0.435072
   4 H :   -0.019243
   5 H :   -0.056537
   6 H :   -0.010333
   7 C :    0.376950
   8 H :    0.016096
   9 H :   -0.021106
  10 H :   -0.083502
  11 C :    0.293691
  12 H :   -0.175168
Sum of atomic charges:    0.0000000

LOEWDIN ATOMIC CHARGES
----------------------
   0 O :    0.114807
   1 H :   -0.078291
   2 O :    0.010673
   3 C :    0.156298
   4 H :   -0.011677
   5 H :   -0.012549
   6 H :   -0.011031
   7 C :    0.154197
   8 H :   -0.010299
   9 H :   -0.012159
  10 H :   -0.023258
  11 C :   -0.305510
  12 H :    0.028799

  Mayer bond orders larger than 0.100000
B(  0-O ,  1-H ) :   0.9686 B(  0-O ,  2-O ) :   0.9098 B(  0-O , 11-C ) :  -0.1469
B(  2-O , 11-C ) :   0.1793 B(  3-C ,  4-H ) :   0.9215 B(  3-C ,  5-H ) :   0.8714
B(  3-C ,  6-H ) :   0.8971 B(  3-C ,  7-C ) :  -0.1194 B(  3-C , 11-C ) :   1.3398
B(  5-H , 11-C ) :   0.1266 B(  7-C ,  8-H ) :   0.8967 B(  7-C ,  9-H ) :   0.8676
B(  7-C , 10-H ) :   0.9175 B(  7-C , 11-C ) :   1.3588 B(  8-H , 10-H ) :  -0.1001
B( 10-H , 11-C ) :   0.1150 B( 11-C , 12-H ) :   0.7536

MP2 TOTAL ENERGY:     -268.777284701 Eh
FINAL SINGLE POINT ENERGY      -268.777284701161

DIPOLE MOMENT
-------------
                                X             Y             Z
Electronic contribution:     -5.13296      -2.20124       0.02542
Nuclear contribution   :      5.50474       2.79082       0.18182
                        -----------------------------------------
Total Dipole Moment    :      0.37178       0.58958       0.20724
                        -----------------------------------------
Magnitude (a.u.)       :      0.72717
Magnitude (Debye)      :      1.84832

Rotational constants in cm-1:     0.259713     0.127247     0.094202
Rotational constants in MHz :  7785.990381  3814.782296  2824.113219

                             ****ORCA TERMINATED NORMALLY****
TOTAL RUN TIME: 0 days 0 hours 0 minutes 43 seconds 735 msec
