                         Program Version 5.0.3 -  RELEASE  -
|  1> !ri-mp2 aug-cc-pvdz aug-cc-pvdz/c tightscf
|  2> %pal nprocs 16 end
|  3>
|  4> * xyz 0 1
|  5> C      0.000000    0.000000   -1.307744
|  6> N      0.000000    1.191556   -0.712170
|  7> N      0.000000   -1.191556   -0.712170
|  8> C      0.000000   -1.180628    0.620975
|  9> C      0.000000    1.180628    0.620975
| 10> C      0.000000    0.000000    1.349488
| 11> H      0.000000    0.000000    2.429940
| 12> H      0.000000    0.000000   -2.391534
| 13> H      0.000000   -2.145739    1.114908
| 14> H      0.000000    2.145739    1.114908
| 15> *
| 16>
| 17>                          ****END OF INPUT****

CARTESIAN COORDINATES (ANGSTROEM)
---------------------------------
  C      0.000000    0.000000   -1.307744
  N      0.000000    1.191556   -0.712170
  N      0.000000   -1.191556   -0.712170
  C      0.000000   -1.180628    0.620975
  C      0.000000    1.180628    0.620975
  C      0.000000    0.000000    1.349488
  H      0.000000    0.000000    2.429940
  H      0.000000    0.000000   -2.391534
  H      0.000000   -2.145739    1.114908
  H      0.000000    2.145739    1.114908

 Total Charge           Charge          ....    0
 Multiplicity           Mult            ....    1
 Number of Electrons    NEL             ....   42
 Basis Dimension        Dim             ....  174

ORBITAL ENERGIES
----------------

  NO   OCC          E(Eh)            E(eV)
   0   2.0000     -15.583768      -424.0559
   1   2.0000     -15.583739      -424.0551
   2   2.0000     -11.322257      -308.0943
   3   2.0000     -11.307172      -307.6838
   4   2.0000     -11.307161      -307.6835
   5   2.0000     -11.256884      -306.3154
   6   2.0000      -1.319996       -35.9189
   7   2.0000      -1.201797       -32.7026
   8   2.0000      -1.080254       -29.3952
   9   2.0000      -0.899399       -24.4739
  10   2.0000      -0.895583       -24.3701
  11   2.0000      -0.742049       -20.1922
  12   2.0000      -0.705893       -19.2083
  13   2.0000      -0.653272       -17.7764
  14   2.0000      -0.597888       -16.2694
  15   2.0000      -0.589352       -16.0371
  16   2.0000      -0.579439       -15.7673
  17   2.0000      -0.474628       -12.9153
  18   2.0000      -0.424103       -11.5404
  19   2.0000      -0.416010       -11.3202
  20   2.0000      -0.379117       -10.3163
  21   0.0000       0.030639         0.8337
  22   0.0000       0.042434         1.1547
  23   0.0000       0.047412         1.2902
  24   0.0000       0.058695         1.5972
  25   0.0000       0.079735         2.1697

MULLIKEN ATOMIC CHARGES
-----------------------
   0 C :    0.710490
   1 N :   -0.705988
   2 N :   -0.705988
   3 C :    0.522059
   4 C :    0.522059
   5 C :    0.741051
   6 H :   -0.371843
   7 H :   -0.189112
   8 H :   -0.261364
   9 H :   -0.261364
Sum of atomic charges:   -0.0000000

LOEWDIN ATOMIC CHARGES
----------------------
   0 C :   -0.070204
   1 N :    0.032705
   2 N :    0.032705
   3 C :   -0.019646
   4 C :   -0.019646
   5 C :    0.026355
   6 H :   -0.002635
   7 H :    0.002832
   8 H :    0.008767
   9 H :    0.008767

  Mayer bond orders larger than 0.100000
B(  0-C ,  1-N ) :   1.3295 B(  0-C ,  2-N ) :   1.3295 B(  0-C ,  7-H ) :   0.9977
B(  1-N ,  4-C ) :   1.2072 B(  2-N ,  3-C ) :   1.2072 B(  3-C ,  4-C ) :   0.1967
B(  3-C ,  5-C ) :   1.3394 B(  3-C ,  8-H ) :   0.8637 B(  4-C ,  5-C ) :   1.3394
B(  4-C ,  9-H ) :   0.8637 B(  5-C ,  6-H ) :   0.7117

MP2 TOTAL ENERGY:     -263.588535287 Eh
FINAL SINGLE POINT ENERGY      -263.588535287100

DIPOLE MOMENT
-------------
                                X             Y             Z
Electronic contribution:      0.00000       0.00000      -1.28038
Nuclear contribution   :      0.00000       0.00000       2.22569
                        -----------------------------------------
Total Dipole Moment    :      0.00000       0.00000       0.94531
                        -----------------------------------------
Magnitude (a.u.)       :      0.94531
Magnitude (Debye)      :      2.40279

Rotational constants in cm-1:     0.210599     0.204235     0.103684
Rotational constants in MHz :  6313.612540  6122.817961  3108.375852

                             ****ORCA TERMINATED NORMALLY****
TOTAL RUN TIME: 0 days 0 hours 0 minutes 37 seconds 950 msec
