                         Program Version 5.0.3 -  RELEASE  -
|  1> !ri-mp2 aug-cc-pvdz aug-cc-pvdz/c tightscf
|  2> %pal nprocs 16 end
|  3>
|  4> * xyz 0 1
|  5> C      3.493846   -0.421699    0.204243
|  6> C     -3.184549   -0.384832    0.026086
|  7> C      2.208239    0.268987   -0.251395
|  8> C     -1.762741   -0.898519    0.195965
|  9> C      0.966634   -0.554479    0.069940
| 10> O     -0.668107    1.544752    0.490797
| 11> S     -0.558033    0.349232   -0.423484
| 12> H      4.366226    0.187832   -0.033018
| 13> H      3.490187   -0.590172    1.282549
| 14> H      3.622266   -1.390088   -0.283365
| 15> H     -3.313566    0.561793    0.548967
| 16> H     -3.430342   -0.232732   -1.025459
| 17> H     -3.894890   -1.102230    0.438056
| 18> H      2.251096    0.456272   -1.327242
| 19> H      2.117148    1.242262    0.233126
| 20> H     -1.584775   -1.813954   -0.371007
| 21> H     -1.518743   -1.069941    1.245101
| 22> H      0.880940   -0.746643    1.141226
| 23> H      0.959278   -1.504876   -0.468592
| 24> *
| 25>
| 26>                          ****END OF INPUT****

CARTESIAN COORDINATES (ANGSTROEM)
---------------------------------
  C      3.493846   -0.421699    0.204243
  C     -3.184549   -0.384832    0.026086
  C      2.208239    0.268987   -0.251395
  C     -1.762741   -0.898519    0.195965
  C      0.966634   -0.554479    0.069940
  O     -0.668107    1.544752    0.490797
  S     -0.558033    0.349232   -0.423484
  H      4.366226    0.187832   -0.033018
  H      3.490187   -0.590172    1.282549
  H      3.622266   -1.390088   -0.283365
  H     -3.313566    0.561793    0.548967
  H     -3.430342   -0.232732   -1.025459
  H     -3.894890   -1.102230    0.438056
  H      2.251096    0.456272   -1.327242
  H      2.117148    1.242262    0.233126
  H     -1.584775   -1.813954   -0.371007
  H     -1.518743   -1.069941    1.245101
  H      0.880940   -0.746643    1.141226
  H      0.959278   -1.504876   -0.468592

 Total Charge           Charge          ....    0
 Multiplicity           Mult            ....    1
 Number of Electrons    NEL             ....   66
 Basis Dimension        Dim             ....  273

ORBITAL ENERGIES
----------------

  NO   OCC          E(Eh)            E(eV)
   0   2.0000     -92.065899     -2505.2405
   1   2.0000     -20.506817      -558.0189
   2   2.0000     -11.271824      -306.7219
   3   2.0000     -11.268824      -306.6403
   4   2.0000     -11.240456      -305.8684
   5   2.0000     -11.236692      -305.7659
   6   2.0000     -11.231017      -305.6115
   7   2.0000      -9.055051      -246.4005
   8   2.0000      -6.737383      -183.3335
   9   2.0000      -6.736541      -183.3106
  10   2.0000      -6.734612      -183.2581
  11   2.0000      -1.326440       -36.0943
  12   2.0000      -1.093945       -29.7677
  13   2.0000      -1.062424       -28.9100
  14   2.0000      -0.979950       -26.6658
  15   2.0000      -0.896451       -24.3937
  16   2.0000      -0.824230       -22.4284
  17   2.0000      -0.796205       -21.6658
  18   2.0000      -0.662357       -18.0236
  19   2.0000      -0.640800       -17.4371
  20   2.0000      -0.633008       -17.2250
  21   2.0000      -0.602541       -16.3960
  22   2.0000      -0.572685       -15.5836
  23   2.0000      -0.566896       -15.4260
  24   2.0000      -0.554363       -15.0850
  25   2.0000      -0.526421       -14.3246
  26   2.0000      -0.526045       -14.3144
  27   2.0000      -0.503099       -13.6900
  28   2.0000      -0.500044       -13.6069
  29   2.0000      -0.494265       -13.4496
  30   2.0000      -0.485998       -13.2247
  31   2.0000      -0.399991       -10.8843
  32   2.0000      -0.356512        -9.7012
  33   0.0000       0.031172         0.8482
  34   0.0000       0.037247         1.0135
  35   0.0000       0.043812         1.1922
  36   0.0000       0.046881         1.2757
  37   0.0000       0.059162         1.6099

MULLIKEN ATOMIC CHARGES
-----------------------
   0 C :    0.485033
   1 C :    0.459431
   2 C :    0.398616
   3 C :   -0.005790
   4 C :   -0.158187
   5 O :   -1.203615
   6 S :    1.304956
   7 H :   -0.075542
   8 H :   -0.086172
   9 H :   -0.086693
  10 H :   -0.036155
  11 H :   -0.071029
  12 H :   -0.035428
  13 H :   -0.150648
  14 H :   -0.120507
  15 H :   -0.158073
  16 H :   -0.129963
  17 H :   -0.165157
  18 H :   -0.165077
Sum of atomic charges:    0.0000000

LOEWDIN ATOMIC CHARGES
----------------------
   0 C :    0.133191
   1 C :    0.088367
   2 C :   -0.118388
   3 C :   -0.212827
   4 C :   -0.183122
   5 O :   -0.559382
   6 S :    1.028562
   7 H :   -0.018389
   8 H :   -0.018514
   9 H :   -0.020397
  10 H :   -0.020746
  11 H :   -0.022040
  12 H :   -0.019851
  13 H :    0.007179
  14 H :    0.007844
  15 H :   -0.022673
  16 H :   -0.019042
  17 H :   -0.013362
  18 H :   -0.016410

  Mayer bond orders larger than 0.100000
B(  0-C ,  2-C ) :   1.1336 B(  0-C ,  7-H ) :   0.9071 B(  0-C ,  8-H ) :   0.9372
B(  0-C ,  9-H ) :   0.9245 B(  1-C ,  3-C ) :   1.2347 B(  1-C , 10-H ) :   0.9500
B(  1-C , 11-H ) :   0.9258 B(  1-C , 12-H ) :   0.9197 B(  2-C ,  4-C ) :   1.2900
B(  2-C , 13-H ) :   0.7414 B(  2-C , 14-H ) :   0.8024 B(  3-C ,  6-S ) :   1.0227
B(  3-C , 15-H ) :   0.8830 B(  3-C , 16-H ) :   0.8728 B(  4-C ,  6-S ) :   1.0391
B(  4-C , 17-H ) :   0.9154 B(  4-C , 18-H ) :   0.9002 B(  5-O ,  6-S ) :   0.8483
B(  6-S , 18-H ) :  -0.1171

MP2 TOTAL ENERGY:     -669.806885141 Eh
FINAL SINGLE POINT ENERGY      -669.806885141336

DIPOLE MOMENT
-------------
                                X             Y             Z
Electronic contribution:     -3.82543       4.48246      -1.77995
Nuclear contribution   :      4.07454      -6.17537       1.44477
                        -----------------------------------------
Total Dipole Moment    :      0.24911      -1.69291      -0.33518
                        -----------------------------------------
Magnitude (a.u.)       :      1.74366
Magnitude (Debye)      :      4.43203

Rotational constants in cm-1:     0.181852     0.032965     0.029853
Rotational constants in MHz :  5451.797447   988.252663   894.968358

                             ****ORCA TERMINATED NORMALLY****
TOTAL RUN TIME: 0 days 0 hours 1 minutes 2 seconds 996 msec
