                         Program Version 5.0.3 -  RELEASE  -
|  1> !ri-mp2 aug-cc-pvdz aug-cc-pvdz/c tightscf
|  2> %pal nprocs 16 end
|  3>
|  4> * xyz 0 1
|  5> O      0.000000    3.490824    0.071542
|  6> N      0.000000    2.463811   -0.588557
|  7> O      0.000000    2.410623   -1.806860
|  8> C      0.000000    1.181426    0.151124
|  9> C      0.000000    0.000000   -0.570360
| 10> C      0.000000   -1.181426    0.151124
| 11> N      0.000000   -2.463811   -0.588557
| 12> O      0.000000   -3.490824    0.071542
| 13> O      0.000000   -2.410623   -1.806860
| 14> C      0.000000   -1.204752    1.538926
| 15> C      0.000000    0.000000    2.229613
| 16> C      0.000000    1.204752    1.538926
| 17> H      0.000000    0.000000   -1.647700
| 18> H      0.000000   -2.152894    2.053303
| 19> H      0.000000    0.000000    3.309868
| 20> H      0.000000    2.152894    2.053303
| 21> *
| 22>
| 23>                          ****END OF INPUT****

CARTESIAN COORDINATES (ANGSTROEM)
---------------------------------
  O      0.000000    3.490824    0.071542
  N      0.000000    2.463811   -0.588557
  O      0.000000    2.410623   -1.806860
  C      0.000000    1.181426    0.151124
  C      0.000000    0.000000   -0.570360
  C      0.000000   -1.181426    0.151124
  N      0.000000   -2.463811   -0.588557
  O      0.000000   -3.490824    0.071542
  O      0.000000   -2.410623   -1.806860
  C      0.000000   -1.204752    1.538926
  C      0.000000    0.000000    2.229613
  C      0.000000    1.204752    1.538926
  H      0.000000    0.000000   -1.647700
  H      0.000000   -2.152894    2.053303
  H      0.000000    0.000000    3.309868
  H      0.000000    2.152894    2.053303

 Total Charge           Charge          ....    0
 Multiplicity           Mult            ....    1
 Number of Electrons    NEL             ....   86
 Basis Dimension        Dim             ....  312

ORBITAL ENERGIES
----------------

  NO   OCC          E(Eh)            E(eV)
   0   2.0000     -20.634098      -561.4824
   1   2.0000     -20.634098      -561.4824
   2   2.0000     -20.633397      -561.4633
   3   2.0000     -20.633397      -561.4633
   4   2.0000     -15.884075      -432.2276
   5   2.0000     -15.884074      -432.2276
   6   2.0000     -11.346193      -308.7456
   7   2.0000     -11.346169      -308.7449
   8   2.0000     -11.319811      -308.0277
   9   2.0000     -11.316067      -307.9258
  10   2.0000     -11.316028      -307.9248
  11   2.0000     -11.300253      -307.4955
  12   2.0000      -1.636053       -44.5193
  13   2.0000      -1.635834       -44.5133
  14   2.0000      -1.429341       -38.8944
  15   2.0000      -1.429160       -38.8894
  16   2.0000      -1.246884       -33.9294
  17   2.0000      -1.146101       -31.1870
  18   2.0000      -1.110053       -30.2061
  19   2.0000      -1.002787       -27.2872
  20   2.0000      -0.989929       -26.9373
  21   2.0000      -0.885095       -24.0847
  22   2.0000      -0.850399       -23.1405
  23   2.0000      -0.821382       -22.3509
  24   2.0000      -0.767637       -20.8885
  25   2.0000      -0.755479       -20.5576
  26   2.0000      -0.746431       -20.3114
  27   2.0000      -0.745328       -20.2814
  28   2.0000      -0.741047       -20.1649
  29   2.0000      -0.737818       -20.0771
  30   2.0000      -0.692522       -18.8445
  31   2.0000      -0.669692       -18.2233
  32   2.0000      -0.600086       -16.3292
  33   2.0000      -0.584838       -15.9142
  34   2.0000      -0.571587       -15.5537
  35   2.0000      -0.523195       -14.2369
  36   2.0000      -0.517352       -14.0779
  37   2.0000      -0.515251       -14.0207
  38   2.0000      -0.511617       -13.9218
  39   2.0000      -0.475731       -12.9453
  40   2.0000      -0.475112       -12.9285
  41   2.0000      -0.413963       -11.2645
  42   2.0000      -0.404953       -11.0193
  43   0.0000       0.007703         0.2096
  44   0.0000       0.021859         0.5948
  45   0.0000       0.025697         0.6993
  46   0.0000       0.040460         1.1010
  47   0.0000       0.044108         1.2002

MULLIKEN ATOMIC CHARGES
-----------------------
   0 O :   -0.813792
   1 N :    0.451878
   2 O :   -0.787226
   3 C :    1.478822
   4 C :    0.024172
   5 C :    1.478822
   6 N :    0.451878
   7 O :   -0.813792
   8 O :   -0.787226
   9 C :    0.239629
  10 C :    0.625685
  11 C :    0.239629
  12 H :   -0.446498
  13 H :   -0.461117
  14 H :   -0.419749
  15 H :   -0.461117
Sum of atomic charges:   -0.0000000

LOEWDIN ATOMIC CHARGES
----------------------
   0 O :    0.097410
   1 N :   -0.332638
   2 O :    0.104328
   3 C :   -0.094018
   4 C :    0.139936
   5 C :   -0.094018
   6 N :   -0.332638
   7 O :    0.097410
   8 O :    0.104328
   9 C :    0.100120
  10 C :    0.053639
  11 C :    0.100120
  12 H :    0.014120
  13 H :    0.014653
  14 H :    0.012595
  15 H :    0.014653

  Mayer bond orders larger than 0.100000
B(  0-O ,  1-N ) :   1.0454 B(  0-O ,  2-O ) :   0.2314 B(  0-O ,  3-C ) :  -0.1171
B(  1-N ,  2-O ) :   1.0851 B(  1-N ,  3-C ) :   0.1393 B(  3-C ,  4-C ) :   1.4957
B(  3-C ,  9-C ) :  -0.1535 B(  3-C , 10-C ) :  -0.2075 B(  3-C , 11-C ) :   1.2584
B(  3-C , 12-H ) :   0.2106 B(  3-C , 15-H ) :   0.3651 B(  4-C ,  5-C ) :   1.4957
B(  4-C ,  9-C ) :   0.2616 B(  4-C , 11-C ) :   0.2616 B(  4-C , 12-H ) :   0.3994
B(  5-C ,  6-N ) :   0.1393 B(  5-C ,  7-O ) :  -0.1171 B(  5-C ,  9-C ) :   1.2584
B(  5-C , 10-C ) :  -0.2075 B(  5-C , 11-C ) :  -0.1535 B(  5-C , 12-H ) :   0.2106
B(  5-C , 13-H ) :   0.3651 B(  6-N ,  7-O ) :   1.0454 B(  6-N ,  8-O ) :   1.0851
B(  7-O ,  8-O ) :   0.2314 B(  9-C , 10-C ) :   1.9580 B(  9-C , 11-C ) :   0.5109
B(  9-C , 13-H ) :   0.2530 B(  9-C , 14-H ) :   0.3082 B( 10-C , 11-C ) :   1.9580
B( 10-C , 13-H ) :   0.1119 B( 10-C , 14-H ) :   0.1821 B( 10-C , 15-H ) :   0.1119
B( 11-C , 14-H ) :   0.3082 B( 11-C , 15-H ) :   0.2530

MP2 TOTAL ENERGY:     -639.688514043 Eh
FINAL SINGLE POINT ENERGY      -639.688514043030

DIPOLE MOMENT
-------------
                                X             Y             Z
Electronic contribution:     -0.00000      -0.00000      -3.58233
Nuclear contribution   :      0.00000      -0.00000       5.48330
                        -----------------------------------------
Total Dipole Moment    :     -0.00000      -0.00000       1.90097
                        -----------------------------------------
Magnitude (a.u.)       :      1.90097
Magnitude (Debye)      :      4.83189

Rotational constants in cm-1:     0.065473     0.020467     0.015593
Rotational constants in MHz :  1962.817191   613.576928   467.451518

                             ****ORCA TERMINATED NORMALLY****
TOTAL RUN TIME: 0 days 0 hours 1 minutes 31 seconds 345 msec
