                         Program Version 5.0.3 -  RELEASE  -
|  1> !ri-mp2 aug-cc-pvdz aug-cc-pvdz/c tightscf
|  2> %pal nprocs 16 end
|  3>
|  4> * xyz 0 1
|  5> O     1.527751   -0.041787   -0.537922
|  6> O     2.903656   -0.081519   -0.081598
|  7> O    -2.550243   -0.648905   -0.302870
|  8> N    -0.622833    0.129378    0.252599
|  9> N    -1.430434   -0.925890    0.075880
| 10> C     0.715920   -0.171147    0.638713
| 11> C    -1.072890    1.482292   -0.050054
| 12> H     1.075986    0.533849    1.388665
| 13> H     0.743524   -1.191858    1.019263
| 14> H    -0.254370    2.165555    0.153369
| 15> H    -1.938584    1.731739    0.562219
| 16> H    -1.363685    1.558623   -1.097009
| 17> H     3.202517   -0.911507   -0.478692
| 18> *
| 19>
| 20>                          ****END OF INPUT****

CARTESIAN COORDINATES (ANGSTROEM)
---------------------------------
  O      1.527751   -0.041787   -0.537922
  O      2.903656   -0.081519   -0.081598
  O     -2.550243   -0.648905   -0.302870
  N     -0.622833    0.129378    0.252599
  N     -1.430434   -0.925890    0.075880
  C      0.715920   -0.171147    0.638713
  C     -1.072890    1.482292   -0.050054
  H      1.075986    0.533849    1.388665
  H      0.743524   -1.191858    1.019263
  H     -0.254370    2.165555    0.153369
  H     -1.938584    1.731739    0.562219
  H     -1.363685    1.558623   -1.097009
  H      3.202517   -0.911507   -0.478692

 Total Charge           Charge          ....    0
 Multiplicity           Mult            ....    1
 Number of Electrons    NEL             ....   56
 Basis Dimension        Dim             ....  215

ORBITAL ENERGIES
----------------

  NO   OCC          E(Eh)            E(eV)
   0   2.0000     -20.652491      -561.9829
   1   2.0000     -20.651798      -561.9640
   2   2.0000     -20.602844      -560.6319
   3   2.0000     -15.743064      -428.3905
   4   2.0000     -15.646114      -425.7524
   5   2.0000     -11.351019      -308.8769
   6   2.0000     -11.283874      -307.0498
   7   2.0000      -1.530821       -41.6558
   8   2.0000      -1.497493       -40.7489
   9   2.0000      -1.311614       -35.6908
  10   2.0000      -1.230434       -33.4818
  11   2.0000      -1.023633       -27.8545
  12   2.0000      -0.976830       -26.5809
  13   2.0000      -0.818425       -22.2705
  14   2.0000      -0.751300       -20.4439
  15   2.0000      -0.743050       -20.2194
  16   2.0000      -0.711581       -19.3631
  17   2.0000      -0.694519       -18.8988
  18   2.0000      -0.643172       -17.5016
  19   2.0000      -0.636307       -17.3148
  20   2.0000      -0.611165       -16.6307
  21   2.0000      -0.583031       -15.8651
  22   2.0000      -0.573096       -15.5947
  23   2.0000      -0.562989       -15.3197
  24   2.0000      -0.517181       -14.0732
  25   2.0000      -0.475977       -12.9520
  26   2.0000      -0.423001       -11.5104
  27   2.0000      -0.409637       -11.1468
  28   0.0000       0.031728         0.8634
  29   0.0000       0.040089         1.0909
  30   0.0000       0.049460         1.3459
  31   0.0000       0.055450         1.5089
  32   0.0000       0.065548         1.7836

MULLIKEN ATOMIC CHARGES
-----------------------
   0 O :   -0.598337
   1 O :   -0.274793
   2 O :   -0.670363
   3 N :   -0.344606
   4 N :    0.127918
   5 C :    1.397155
   6 C :    0.879993
   7 H :   -0.188282
   8 H :   -0.202510
   9 H :   -0.201390
  10 H :   -0.090184
  11 H :   -0.057224
  12 H :    0.222623
Sum of atomic charges:    0.0000000

LOEWDIN ATOMIC CHARGES
----------------------
   0 O :    0.003878
   1 O :    0.117170
   2 O :   -0.019548
   3 N :   -0.207128
   4 N :    0.001402
   5 C :   -0.017663
   6 C :    0.197767
   7 H :    0.011596
   8 H :    0.009843
   9 H :   -0.008882
  10 H :   -0.010666
  11 H :   -0.006318
  12 H :   -0.071452

  Mayer bond orders larger than 0.100000
B(  0-O ,  1-O ) :   0.8569 B(  0-O ,  3-N ) :   0.2253 B(  0-O ,  5-C ) :   0.4372
B(  1-O ,  5-C ) :  -0.1650 B(  1-O , 12-H ) :   0.9693 B(  2-O ,  4-N ) :   1.1627
B(  3-N ,  4-N ) :   0.9476 B(  3-N ,  5-C ) :   0.8040 B(  3-N ,  6-C ) :   0.8193
B(  3-N ,  8-H ) :  -0.1168 B(  5-C ,  7-H ) :   0.9254 B(  5-C ,  8-H ) :   1.0316
B(  6-C ,  9-H ) :   0.9819 B(  6-C , 10-H ) :   0.9241 B(  6-C , 11-H ) :   0.9084

MP2 TOTAL ENERGY:     -413.815331183 Eh
FINAL SINGLE POINT ENERGY      -413.815331183087

DIPOLE MOMENT
-------------
                                X             Y             Z
Electronic contribution:     -0.51144      -3.52843      -0.99214
Nuclear contribution   :      1.47028       3.83640       1.52205
                        -----------------------------------------
Total Dipole Moment    :      0.95884       0.30797       0.52991
                        -----------------------------------------
Magnitude (a.u.)       :      1.13799
Magnitude (Debye)      :      2.89255

Rotational constants in cm-1:     0.224636     0.046150     0.041459
Rotational constants in MHz :  6734.408349  1383.545306  1242.905248

                             ****ORCA TERMINATED NORMALLY****
TOTAL RUN TIME: 0 days 0 hours 0 minutes 42 seconds 5 msec
