                         Program Version 5.0.3 -  RELEASE  -
|  1> !ri-mp2 aug-cc-pvdz aug-cc-pvdz/c tightscf
|  2> %pal nprocs 16 end
|  3>
|  4> * xyz 0 1
|  5> Cl   -1.920947    0.002248    0.086589
|  6> N    -0.262504    0.015809   -0.439109
|  7> N     0.411868   -1.174015   -0.049153
|  8> N     1.602483   -0.955892    0.169301
|  9> C     0.539461    1.153832    0.050933
| 10> C     1.913135    0.495408    0.023525
| 11> H     0.436411    1.995512   -0.626647
| 12> H     0.234666    1.446107    1.058692
| 13> H     2.588289    0.800194    0.817850
| 14> H     2.418220    0.623228   -0.935934
| 15> *
| 16>
| 17>                          ****END OF INPUT****

CARTESIAN COORDINATES (ANGSTROEM)
---------------------------------
  Cl    -1.920947    0.002248    0.086589
  N     -0.262504    0.015809   -0.439109
  N      0.411868   -1.174015   -0.049153
  N      1.602483   -0.955892    0.169301
  C      0.539461    1.153832    0.050933
  C      1.913135    0.495408    0.023525
  H      0.436411    1.995512   -0.626647
  H      0.234666    1.446107    1.058692
  H      2.588289    0.800194    0.817850
  H      2.418220    0.623228   -0.935934

 Total Charge           Charge          ....    0
 Multiplicity           Mult            ....    1
 Number of Electrons    NEL             ....   54
 Basis Dimension        Dim             ....  178

ORBITAL ENERGIES
----------------

  NO   OCC          E(Eh)            E(eV)
   0   2.0000    -104.870908     -2853.6825
   1   2.0000     -15.689618      -426.9362
   2   2.0000     -15.673978      -426.5106
   3   2.0000     -15.645170      -425.7267
   4   2.0000     -11.300051      -307.4900
   5   2.0000     -11.294974      -307.3519
   6   2.0000     -10.593896      -288.2746
   7   2.0000      -8.061824      -219.3734
   8   2.0000      -8.057765      -219.2629
   9   2.0000      -8.057497      -219.2556
  10   2.0000      -1.449606       -39.4458
  11   2.0000      -1.247679       -33.9511
  12   2.0000      -1.097466       -29.8636
  13   2.0000      -1.052496       -28.6399
  14   2.0000      -0.887583       -24.1524
  15   2.0000      -0.813358       -22.1326
  16   2.0000      -0.714131       -19.4325
  17   2.0000      -0.704045       -19.1580
  18   2.0000      -0.642042       -17.4708
  19   2.0000      -0.591343       -16.0913
  20   2.0000      -0.569616       -15.5000
  21   2.0000      -0.565205       -15.3800
  22   2.0000      -0.539848       -14.6900
  23   2.0000      -0.482458       -13.1283
  24   2.0000      -0.476735       -12.9726
  25   2.0000      -0.429131       -11.6772
  26   2.0000      -0.390677       -10.6309
  27   0.0000       0.030063         0.8181
  28   0.0000       0.044363         1.2072
  29   0.0000       0.047829         1.3015
  30   0.0000       0.064881         1.7655
  31   0.0000       0.080480         2.1900

MULLIKEN ATOMIC CHARGES
-----------------------
   0 Cl:    0.294754
   1 N :   -0.713953
   2 N :   -0.213409
   3 N :   -0.403752
   4 C :    0.885145
   5 C :    0.719634
   6 H :   -0.137757
   7 H :   -0.196160
   8 H :   -0.128630
   9 H :   -0.105872
Sum of atomic charges:    0.0000000

LOEWDIN ATOMIC CHARGES
----------------------
   0 Cl:    0.502143
   1 N :   -0.456950
   2 N :   -0.040047
   3 N :    0.010167
   4 C :   -0.043599
   5 C :   -0.005865
   6 H :    0.010095
   7 H :    0.002051
   8 H :    0.007577
   9 H :    0.014429

  Mayer bond orders larger than 0.100000
B(  0-Cl,  1-N ) :   0.8047 B(  1-N ,  2-N ) :   0.8413 B(  1-N ,  4-C ) :   0.7307
B(  2-N ,  3-N ) :   1.3836 B(  3-N ,  5-C ) :   0.7321 B(  4-C ,  5-C ) :   1.2180
B(  4-C ,  6-H ) :   0.8541 B(  4-C ,  7-H ) :   0.8696 B(  5-C ,  8-H ) :   0.8894
B(  5-C ,  9-H ) :   0.8853

MP2 TOTAL ENERGY:     -701.779740430 Eh
FINAL SINGLE POINT ENERGY      -701.779740429798

DIPOLE MOMENT
-------------
                                X             Y             Z
Electronic contribution:     -7.51175      -3.29682      -0.06917
Nuclear contribution   :      8.10736       4.66045       0.18088
                        -----------------------------------------
Total Dipole Moment    :      0.59561       1.36363       0.11171
                        -----------------------------------------
Magnitude (a.u.)       :      1.49221
Magnitude (Debye)      :      3.79291

Rotational constants in cm-1:     0.261951     0.071282     0.058573
Rotational constants in MHz :  7853.083929  2136.982819  1755.966831

                             ****ORCA TERMINATED NORMALLY****
TOTAL RUN TIME: 0 days 0 hours 0 minutes 37 seconds 499 msec
