                         Program Version 5.0.3 -  RELEASE  -
|  1> !ri-mp2 aug-cc-pvdz aug-cc-pvdz/c tightscf
|  2> %pal nprocs 16 end
|  3>
|  4> * xyz 0 1
|  5> C      2.555199   -0.206184   -0.030002
|  6> C      1.904094   -1.432601   -0.092797
|  7> C      1.822358    0.969098    0.049255
|  8> C      0.521008   -1.464364   -0.071553
|  9> C      0.424347    0.981756    0.050347
| 10> C     -0.196494   -0.273992   -0.013060
| 11> C     -0.290301    2.302138    0.145550
| 12> N     -1.666810   -0.404509   -0.018623
| 13> O     -2.143297   -1.460414    0.374057
| 14> O     -2.328126    0.540642   -0.426159
| 15> H      3.635895   -0.163364   -0.037093
| 16> H      2.465502   -2.353997   -0.153385
| 17> H      2.342694    1.915301    0.114787
| 18> H     -0.021103   -2.396371   -0.103663
| 19> H     -0.772031    2.558749   -0.796957
| 20> H     -1.076089    2.289354    0.898913
| 21> H      0.422924    3.084965    0.398137
| 22> *
| 23>
| 24>                          ****END OF INPUT****

CARTESIAN COORDINATES (ANGSTROEM)
---------------------------------
  C      2.555199   -0.206184   -0.030002
  C      1.904094   -1.432601   -0.092797
  C      1.822358    0.969098    0.049255
  C      0.521008   -1.464364   -0.071553
  C      0.424347    0.981756    0.050347
  C     -0.196494   -0.273992   -0.013060
  C     -0.290301    2.302138    0.145550
  N     -1.666810   -0.404509   -0.018623
  O     -2.143297   -1.460414    0.374057
  O     -2.328126    0.540642   -0.426159
  H      3.635895   -0.163364   -0.037093
  H      2.465502   -2.353997   -0.153385
  H      2.342694    1.915301    0.114787
  H     -0.021103   -2.396371   -0.103663
  H     -0.772031    2.558749   -0.796957
  H     -1.076089    2.289354    0.898913
  H      0.422924    3.084965    0.398137

 Total Charge           Charge          ....    0
 Multiplicity           Mult            ....    1
 Number of Electrons    NEL             ....   72
 Basis Dimension        Dim             ....  293

ORBITAL ENERGIES
----------------

  NO   OCC          E(Eh)            E(eV)
   0   2.0000     -20.611215      -560.8597
   1   2.0000     -20.609769      -560.8203
   2   2.0000     -15.859383      -431.5558
   3   2.0000     -11.312840      -307.8380
   4   2.0000     -11.290971      -307.2429
   5   2.0000     -11.276308      -306.8439
   6   2.0000     -11.273723      -306.7736
   7   2.0000     -11.263366      -306.4918
   8   2.0000     -11.262330      -306.4636
   9   2.0000     -11.244042      -305.9659
  10   2.0000      -1.611132       -43.8411
  11   2.0000      -1.403380       -38.1879
  12   2.0000      -1.203193       -32.7406
  13   2.0000      -1.094131       -29.7728
  14   2.0000      -1.076656       -29.2973
  15   2.0000      -0.984372       -26.7861
  16   2.0000      -0.935933       -25.4680
  17   2.0000      -0.851088       -23.1593
  18   2.0000      -0.829377       -22.5685
  19   2.0000      -0.769142       -20.9294
  20   2.0000      -0.728113       -19.8130
  21   2.0000      -0.720972       -19.6186
  22   2.0000      -0.695547       -18.9268
  23   2.0000      -0.664615       -18.0851
  24   2.0000      -0.639550       -17.4030
  25   2.0000      -0.601464       -16.3667
  26   2.0000      -0.590680       -16.0732
  27   2.0000      -0.565538       -15.3891
  28   2.0000      -0.544257       -14.8100
  29   2.0000      -0.523786       -14.2529
  30   2.0000      -0.521674       -14.1955
  31   2.0000      -0.492963       -13.4142
  32   2.0000      -0.485634       -13.2148
  33   2.0000      -0.452326       -12.3084
  34   2.0000      -0.373188       -10.1550
  35   2.0000      -0.357026        -9.7152
  36   0.0000       0.027607         0.7512
  37   0.0000       0.035918         0.9774
  38   0.0000       0.042976         1.1694
  39   0.0000       0.044371         1.2074
  40   0.0000       0.056550         1.5388

MULLIKEN ATOMIC CHARGES
-----------------------
   0 C :    0.158265
   1 C :    0.405788
   2 C :    0.878886
   3 C :    0.430422
   4 C :   -0.307257
   5 C :    1.134674
   6 C :    0.572592
   7 N :    0.304473
   8 O :   -0.785930
   9 O :   -0.792160
  10 H :   -0.452581
  11 H :   -0.418983
  12 H :   -0.594036
  13 H :   -0.530273
  14 H :    0.144629
  15 H :    0.070491
  16 H :   -0.219000
Sum of atomic charges:   -0.0000000

LOEWDIN ATOMIC CHARGES
----------------------
   0 C :    0.034279
   1 C :    0.025166
   2 C :    0.051287
   3 C :    0.070346
   4 C :   -0.145349
   5 C :   -0.072195
   6 C :    0.177290
   7 N :   -0.328126
   8 O :    0.089058
   9 O :    0.099250
  10 H :    0.009455
  11 H :    0.004831
  12 H :    0.006825
  13 H :    0.006407
  14 H :   -0.003809
  15 H :   -0.009135
  16 H :   -0.015581

  Mayer bond orders larger than 0.100000
B(  0-C ,  1-C ) :   1.8186 B(  0-C ,  2-C ) :   1.2961 B(  0-C ,  3-C ) :   0.1945
B(  0-C ,  6-C ) :   0.3249 B(  0-C , 10-H ) :   0.2830 B(  0-C , 11-H ) :   0.1589
B(  0-C , 12-H ) :   0.2166 B(  0-C , 13-H ) :  -0.1136 B(  1-C ,  2-C ) :  -0.1623
B(  1-C ,  3-C ) :   2.0953 B(  1-C ,  4-C ) :   0.3769 B(  1-C ,  5-C ) :  -0.2615
B(  1-C , 10-H ) :   0.1821 B(  1-C , 11-H ) :   0.2625 B(  1-C , 12-H ) :  -0.1233
B(  1-C , 13-H ) :   0.2770 B(  2-C ,  4-C ) :   2.0038 B(  2-C ,  5-C ) :  -0.7221
B(  2-C ,  6-C ) :  -0.3779 B(  2-C , 10-H ) :   0.2472 B(  2-C , 12-H ) :  -0.2666
B(  2-C , 16-H ) :  -0.1366 B(  3-C ,  4-C ) :  -0.2786 B(  3-C ,  5-C ) :   1.4010
B(  3-C ,  6-C ) :   0.1717 B(  3-C , 11-H ) :   0.3209 B(  3-C , 12-H ) :   0.1038
B(  3-C , 13-H ) :  -0.2363 B(  4-C ,  5-C ) :   1.5084 B(  4-C ,  6-C ) :   1.3944
B(  4-C ,  7-N ) :  -0.1224 B(  4-C , 12-H ) :   0.6928 B(  4-C , 13-H ) :  -0.1038
B(  4-C , 14-H ) :   0.2921 B(  4-C , 15-H ) :   0.2634 B(  4-C , 16-H ) :   0.3591
B(  5-C ,  6-C ) :  -0.1584 B(  5-C ,  7-N ) :   0.3548 B(  5-C ,  8-O ) :  -0.1941
B(  5-C ,  9-O ) :  -0.1298 B(  5-C , 13-H ) :   0.7803 B(  5-C , 14-H ) :  -0.1088
B(  5-C , 15-H ) :  -0.1475 B(  6-C , 14-H ) :   0.7834 B(  6-C , 15-H ) :   0.7893
B(  6-C , 16-H ) :   0.6885 B(  7-N ,  8-O ) :   1.2008 B(  7-N ,  9-O ) :   1.1812
B(  8-O ,  9-O ) :   0.1857

MP2 TOTAL ENERGY:     -474.806721231 Eh
FINAL SINGLE POINT ENERGY      -474.806721231274

DIPOLE MOMENT
-------------
                                X             Y             Z
Electronic contribution:     -4.95049      -4.48786      -0.30404
Nuclear contribution   :      6.82084       4.84903       0.31534
                        -----------------------------------------
Total Dipole Moment    :      1.87035       0.36117       0.01130
                        -----------------------------------------
Magnitude (a.u.)       :      1.90494
Magnitude (Debye)      :      4.84196

Rotational constants in cm-1:     0.075593     0.041947     0.027621
Rotational constants in MHz :  2266.230310  1257.547886   828.062224

                             ****ORCA TERMINATED NORMALLY****
TOTAL RUN TIME: 0 days 0 hours 1 minutes 27 seconds 564 msec
