                         Program Version 5.0.3 -  RELEASE  -
|  1> !ri-mp2 aug-cc-pvdz aug-cc-pvdz/c tightscf
|  2> %pal nprocs 16 end
|  3>
|  4> * xyz 0 1
|  5> C      1.696861   -1.488658    0.000000
|  6> C      1.351488   -0.149893    0.000000
|  7> C      0.678555   -2.438597    0.000000
|  8> C     -0.937596   -0.833228    0.000000
|  9> C      0.000000    0.201553    0.000000
| 10> C     -0.380417    1.650164    0.000000
| 11> C     -1.846581    2.020736    0.000000
| 12> N     -0.617071   -2.126889    0.000000
| 13> O      0.479637    2.507928    0.000000
| 14> H      2.731891   -1.800787    0.000000
| 15> H      2.096554    0.633301    0.000000
| 16> H      0.915030   -3.496491    0.000000
| 17> H     -1.998650   -0.616441    0.000000
| 18> H     -2.350642    1.614767    0.878826
| 19> H     -2.350642    1.614767   -0.878826
| 20> H     -1.935004    3.103219    0.000000
| 21> *
| 22>
| 23>                          ****END OF INPUT****

CARTESIAN COORDINATES (ANGSTROEM)
---------------------------------
  C      1.696861   -1.488658    0.000000
  C      1.351488   -0.149893    0.000000
  C      0.678555   -2.438597    0.000000
  C     -0.937596   -0.833228    0.000000
  C      0.000000    0.201553    0.000000
  C     -0.380417    1.650164    0.000000
  C     -1.846581    2.020736    0.000000
  N     -0.617071   -2.126889    0.000000
  O      0.479637    2.507928    0.000000
  H      2.731891   -1.800787    0.000000
  H      2.096554    0.633301    0.000000
  H      0.915030   -3.496491    0.000000
  H     -1.998650   -0.616441    0.000000
  H     -2.350642    1.614767    0.878826
  H     -2.350642    1.614767   -0.878826
  H     -1.935004    3.103219    0.000000

 Total Charge           Charge          ....    0
 Multiplicity           Mult            ....    1
 Number of Electrons    NEL             ....   64
 Basis Dimension        Dim             ....  270

ORBITAL ENERGIES
----------------

  NO   OCC          E(Eh)            E(eV)
   0   2.0000     -20.562690      -559.5393
   1   2.0000     -15.585947      -424.1152
   2   2.0000     -11.351880      -308.9004
   3   2.0000     -11.300522      -307.5028
   4   2.0000     -11.298804      -307.4561
   5   2.0000     -11.276140      -306.8394
   6   2.0000     -11.260787      -306.4216
   7   2.0000     -11.257272      -306.3259
   8   2.0000     -11.248187      -306.0787
   9   2.0000      -1.400277       -38.1035
  10   2.0000      -1.279167       -34.8079
  11   2.0000      -1.112529       -30.2735
  12   2.0000      -1.068262       -29.0689
  13   2.0000      -1.011355       -27.5204
  14   2.0000      -0.894486       -24.3402
  15   2.0000      -0.873843       -23.7785
  16   2.0000      -0.779281       -21.2053
  17   2.0000      -0.730280       -19.8719
  18   2.0000      -0.688060       -18.7231
  19   2.0000      -0.670182       -18.2366
  20   2.0000      -0.632043       -17.1988
  21   2.0000      -0.616499       -16.7758
  22   2.0000      -0.614084       -16.7101
  23   2.0000      -0.585129       -15.9222
  24   2.0000      -0.562897       -15.3172
  25   2.0000      -0.556810       -15.1516
  26   2.0000      -0.541932       -14.7467
  27   2.0000      -0.510473       -13.8907
  28   2.0000      -0.440178       -11.9778
  29   2.0000      -0.420368       -11.4388
  30   2.0000      -0.393791       -10.7156
  31   2.0000      -0.362345        -9.8599
  32   0.0000       0.031944         0.8692
  33   0.0000       0.035892         0.9767
  34   0.0000       0.046596         1.2679
  35   0.0000       0.052696         1.4339
  36   0.0000       0.055422         1.5081

MULLIKEN ATOMIC CHARGES
-----------------------
   0 C :    0.559685
   1 C :    0.010985
   2 C :    0.374989
   3 C :    0.695333
   4 C :    1.138311
   5 C :    0.004453
   6 C :    0.410497
   7 N :   -0.684623
   8 O :   -0.848870
   9 H :   -0.388017
  10 H :   -0.571745
  11 H :   -0.330044
  12 H :   -0.468167
  13 H :    0.133258
  14 H :    0.133258
  15 H :   -0.169303
Sum of atomic charges:    0.0000000

LOEWDIN ATOMIC CHARGES
----------------------
   0 C :    0.032804
   1 C :    0.080576
   2 C :   -0.015096
   3 C :    0.013238
   4 C :   -0.127041
   5 C :   -0.274959
   6 C :    0.195510
   7 N :    0.037617
   8 O :    0.047426
   9 H :    0.001702
  10 H :    0.017542
  11 H :    0.006036
  12 H :    0.001189
  13 H :   -0.004341
  14 H :   -0.004341
  15 H :   -0.007861

  Mayer bond orders larger than 0.100000
B(  0-C ,  1-C ) :   1.8739 B(  0-C ,  2-C ) :   1.2305 B(  0-C ,  4-C ) :  -0.1351
B(  0-C ,  5-C ) :   0.1229 B(  0-C ,  7-N ) :  -0.1069 B(  0-C ,  9-H ) :   0.4304
B(  0-C , 10-H ) :   0.1365 B(  1-C ,  2-C ) :   0.2312 B(  1-C ,  3-C ) :  -0.4840
B(  1-C ,  4-C ) :   0.8979 B(  1-C ,  5-C ) :  -0.5947 B(  1-C ,  6-C ) :   0.1099
B(  1-C ,  9-H ) :   0.3144 B(  1-C , 10-H ) :   0.1365 B(  1-C , 11-H ) :   0.1206
B(  1-C , 12-H ) :   0.1675 B(  2-C ,  7-N ) :   1.4769 B(  2-C , 11-H ) :   0.8684
B(  3-C ,  4-C ) :   1.3999 B(  3-C ,  5-C ) :  -0.1649 B(  3-C ,  6-C ) :  -0.1101
B(  3-C ,  7-N ) :   1.1696 B(  3-C , 12-H ) :   0.7043 B(  4-C ,  5-C ) :   0.9769
B(  4-C ,  8-O ) :  -0.1198 B(  4-C , 10-H ) :   0.4263 B(  5-C ,  6-C ) :   1.0641
B(  5-C ,  8-O ) :   1.4154 B(  5-C , 15-H ) :   0.1509 B(  6-C , 13-H ) :   0.8982
B(  6-C , 14-H ) :   0.8982 B(  6-C , 15-H ) :   0.7985 B(  7-N , 12-H ) :  -0.1196

MP2 TOTAL ENERGY:     -399.820141410 Eh
FINAL SINGLE POINT ENERGY      -399.820141410271

DIPOLE MOMENT
-------------
                                X             Y             Z
Electronic contribution:      2.70327      -1.52258      -0.00000
Nuclear contribution   :     -2.86506       1.07099       0.00000
                        -----------------------------------------
Total Dipole Moment    :     -0.16179      -0.45159      -0.00000
                        -----------------------------------------
Magnitude (a.u.)       :      0.47970
Magnitude (Debye)      :      1.21930

Rotational constants in cm-1:     0.125952     0.041168     0.031206
Rotational constants in MHz :  3775.947284  1234.200357   935.529301

                             ****ORCA TERMINATED NORMALLY****
TOTAL RUN TIME: 0 days 0 hours 1 minutes 21 seconds 374 msec
