                         Program Version 5.0.3 -  RELEASE  -
|  1> !ri-mp2 aug-cc-pvdz aug-cc-pvdz/c tightscf
|  2> %pal nprocs 16 end
|  3> %maxcore 3800
|  4>
|  5> * xyz 0 1
|  6> C     3.077395    0.196598   -0.111658
|  7> C     2.666570   -1.128501   -0.161156
|  8> C     2.129143    1.205688    0.034852
|  9> C     1.317412   -1.453527   -0.078360
| 10> C     0.776833    0.911753    0.133669
| 11> C     0.382349   -0.432412    0.060180
| 12> C    -2.008325    0.164976   -0.109593
| 13> C    -0.286188    1.954073    0.363802
| 14> C    -1.588515    1.593777   -0.354663
| 15> N    -0.990799   -0.704017    0.145273
| 16> O    -3.161157   -0.254175   -0.157240
| 17> O    -1.361171   -2.042198    0.243835
| 18> H     4.126728    0.446250   -0.182912
| 19> H     3.395360   -1.919947   -0.269911
| 20> H     2.445503    2.240189    0.082160
| 21> H     0.987299   -2.479262   -0.120828
| 22> H    -0.484242    2.028309    1.438806
| 23> H     0.064034    2.934551    0.042685
| 24> H    -1.473721    1.707651   -1.437370
| 25> H    -2.413797    2.234873   -0.051575
| 26> H    -2.332996   -1.968059    0.126836
| 27> *
| 28>
| 29>                          ****END OF INPUT****

CARTESIAN COORDINATES (ANGSTROEM)
---------------------------------
  C      3.077395    0.196598   -0.111658
  C      2.666570   -1.128501   -0.161156
  C      2.129143    1.205688    0.034852
  C      1.317412   -1.453527   -0.078360
  C      0.776833    0.911753    0.133669
  C      0.382349   -0.432412    0.060180
  C     -2.008325    0.164976   -0.109593
  C     -0.286188    1.954073    0.363802
  C     -1.588515    1.593777   -0.354663
  N     -0.990799   -0.704017    0.145273
  O     -3.161157   -0.254175   -0.157240
  O     -1.361171   -2.042198    0.243835
  H      4.126728    0.446250   -0.182912
  H      3.395360   -1.919947   -0.269911
  H      2.445503    2.240189    0.082160
  H      0.987299   -2.479262   -0.120828
  H     -0.484242    2.028309    1.438806
  H      0.064034    2.934551    0.042685
  H     -1.473721    1.707651   -1.437370
  H     -2.413797    2.234873   -0.051575
  H     -2.332996   -1.968059    0.126836

 Total Charge           Charge          ....    0
 Multiplicity           Mult            ....    1
 Number of Electrons    NEL             ....   86
 Basis Dimension        Dim             ....  357

ORBITAL ENERGIES
----------------

  NO   OCC          E(Eh)            E(eV)
   0   2.0000     -20.625250      -561.2416
   1   2.0000     -20.553819      -559.2979
   2   2.0000     -15.668825      -426.3704
   3   2.0000     -11.379653      -309.6561
   4   2.0000     -11.303166      -307.5748
   5   2.0000     -11.265181      -306.5412
   6   2.0000     -11.261542      -306.4421
   7   2.0000     -11.258878      -306.3696
   8   2.0000     -11.252491      -306.1958
   9   2.0000     -11.250403      -306.1390
  10   2.0000     -11.246501      -306.0329
  11   2.0000     -11.243674      -305.9559
  12   2.0000      -1.476956       -40.1900
  13   2.0000      -1.383076       -37.6354
  14   2.0000      -1.231176       -33.5020
  15   2.0000      -1.149044       -31.2671
  16   2.0000      -1.094134       -29.7729
  17   2.0000      -1.029242       -28.0071
  18   2.0000      -1.021405       -27.7939
  19   2.0000      -0.907445       -24.6928
  20   2.0000      -0.879309       -23.9272
  21   2.0000      -0.843717       -22.9587
  22   2.0000      -0.776280       -21.1237
  23   2.0000      -0.730332       -19.8733
  24   2.0000      -0.712855       -19.3978
  25   2.0000      -0.687255       -18.7012
  26   2.0000      -0.663689       -18.0599
  27   2.0000      -0.655039       -17.8245
  28   2.0000      -0.630503       -17.1568
  29   2.0000      -0.625089       -17.0095
  30   2.0000      -0.608209       -16.5502
  31   2.0000      -0.596191       -16.2232
  32   2.0000      -0.571834       -15.5604
  33   2.0000      -0.564838       -15.3700
  34   2.0000      -0.561279       -15.2732
  35   2.0000      -0.518990       -14.1224
  36   2.0000      -0.512877       -13.9561
  37   2.0000      -0.502675       -13.6785
  38   2.0000      -0.493565       -13.4306
  39   2.0000      -0.448617       -12.2075
  40   2.0000      -0.427828       -11.6418
  41   2.0000      -0.346072        -9.4171
  42   2.0000      -0.309626        -8.4253
  43   0.0000       0.030290         0.8242
  44   0.0000       0.035828         0.9749
  45   0.0000       0.042760         1.1636
  46   0.0000       0.047607         1.2954
  47   0.0000       0.053202         1.4477

MULLIKEN ATOMIC CHARGES
-----------------------
   0 C :    0.308646
   1 C :    0.284307
   2 C :    1.192347
   3 C :    0.441489
   4 C :    0.188074
   5 C :    0.679129
   6 C :    0.836185
   7 C :    0.255872
   8 C :    0.219039
   9 N :   -0.870276
  10 O :   -0.923194
  11 O :   -0.678033
  12 H :   -0.467521
  13 H :   -0.461155
  14 H :   -0.601623
  15 H :   -0.570164
  16 H :    0.022365
  17 H :   -0.076166
  18 H :    0.024042
  19 H :   -0.000610
  20 H :    0.197246
Sum of atomic charges:    0.0000000

LOEWDIN ATOMIC CHARGES
----------------------
   0 C :    0.010453
   1 C :    0.017740
   2 C :    0.051155
   3 C :    0.074948
   4 C :   -0.130651
   5 C :   -0.105496
   6 C :   -0.265917
   7 C :    0.034082
   8 C :    0.074714
   9 N :   -0.070498
  10 O :    0.036829
  11 O :    0.204782
  12 H :   -0.002072
  13 H :    0.003552
  14 H :    0.009542
  15 H :   -0.000930
  16 H :    0.034490
  17 H :    0.024529
  18 H :    0.039700
  19 H :    0.032063
  20 H :   -0.073016

  Mayer bond orders larger than 0.100000
B(  0-C ,  1-C ) :   1.8662 B(  0-C ,  2-C ) :   1.2715 B(  0-C ,  3-C ) :   0.2217
B(  0-C ,  5-C ) :  -0.2389 B(  0-C ,  7-C ) :   0.3776 B(  0-C , 12-H ) :   0.2214
B(  0-C , 13-H ) :   0.1324 B(  0-C , 14-H ) :   0.2551 B(  1-C ,  3-C ) :   2.1010
B(  1-C ,  4-C ) :   0.4005 B(  1-C ,  5-C ) :  -0.3075 B(  1-C ,  9-N ) :   0.1095
B(  1-C , 12-H ) :   0.2500 B(  1-C , 13-H ) :   0.1444 B(  1-C , 14-H ) :  -0.1427
B(  1-C , 15-H ) :   0.3934 B(  2-C ,  4-C ) :   1.6782 B(  2-C ,  5-C ) :  -0.6150
B(  2-C ,  7-C ) :  -0.3275 B(  2-C , 12-H ) :   0.1910 B(  2-C , 14-H ) :  -0.6639
B(  2-C , 17-H ) :  -0.3384 B(  3-C ,  4-C ) :  -0.3945 B(  3-C ,  5-C ) :   1.5850
B(  3-C ,  7-C ) :   0.2660 B(  3-C ,  9-N ) :  -0.2345 B(  3-C , 13-H ) :   0.4281
B(  3-C , 14-H ) :   0.1169 B(  3-C , 15-H ) :  -0.4384 B(  4-C ,  5-C ) :   1.2730
B(  4-C ,  7-C ) :   1.2098 B(  4-C ,  9-N ) :  -0.1698 B(  4-C , 14-H ) :   1.0663
B(  4-C , 15-H ) :  -0.1386 B(  4-C , 16-H ) :   0.2805 B(  4-C , 17-H ) :   0.5473
B(  5-C ,  6-C ) :  -0.1128 B(  5-C ,  7-C ) :  -0.4696 B(  5-C ,  9-N ) :   0.4263
B(  5-C , 10-O ) :   0.1242 B(  5-C , 11-O ) :  -0.4097 B(  5-C , 14-H ) :  -0.1341
B(  5-C , 15-H ) :   0.8455 B(  6-C ,  8-C ) :   0.9646 B(  6-C ,  9-N ) :   1.3697
B(  6-C , 10-O ) :   1.1755 B(  7-C ,  8-C ) :   1.2102 B(  7-C , 14-H ) :   0.1078
B(  7-C , 16-H ) :   0.7765 B(  7-C , 17-H ) :   0.5132 B(  8-C , 18-H ) :   0.8976
B(  8-C , 19-H ) :   0.7574 B(  9-N , 11-O ) :   1.0032 B( 11-O , 20-H ) :   1.0678
B( 16-H , 17-H ) :  -0.1260 B( 18-H , 19-H ) :  -0.1036

MP2 TOTAL ENERGY:     -552.055297808 Eh
FINAL SINGLE POINT ENERGY      -552.055297807527

DIPOLE MOMENT
-------------
                                X             Y             Z
Electronic contribution:     -3.20313      -4.19974       0.28521
Nuclear contribution   :      4.19391       5.13143      -0.36612
                        -----------------------------------------
Total Dipole Moment    :      0.99079       0.93169      -0.08092
                        -----------------------------------------
Magnitude (a.u.)       :      1.36244
Magnitude (Debye)      :      3.46306

Rotational constants in cm-1:     0.062007     0.026928     0.019203
Rotational constants in MHz :  1858.915492   807.273810   575.678935

                             ****ORCA TERMINATED NORMALLY****
TOTAL RUN TIME: 0 days 0 hours 2 minutes 39 seconds 293 msec
