                         Program Version 5.0.3 -  RELEASE  -
|  1> !ri-mp2 aug-cc-pvdz aug-cc-pvdz/c tightscf
|  2> %pal nprocs 16 end
|  3>
|  4> * xyz 0 1
|  5> C      0.672289   -0.872864        0.000000
|  6> C      0.000000    1.080516        0.000000
|  7> N      1.115151    0.428577        0.000000
|  8> N     -0.618412   -1.018822        0.000000
|  9> O     -1.086341    0.307970        0.000000
| 10> H      1.331150   -1.725351        0.000000
| 11> H     -0.151329    2.147397        0.000000
| 12> *
| 13>
| 14>                          ****END OF INPUT****

CARTESIAN COORDINATES (ANGSTROEM)
---------------------------------
  C      0.672289   -0.872864    0.000000
  C      0.000000    1.080516    0.000000
  N      1.115151    0.428577    0.000000
  N     -0.618412   -1.018822    0.000000
  O     -1.086341    0.307970    0.000000
  H      1.331150   -1.725351    0.000000
  H     -0.151329    2.147397    0.000000

 Total Charge           Charge          ....    0
 Multiplicity           Mult            ....    1
 Number of Electrons    NEL             ....   36
 Basis Dimension        Dim             ....  133

ORBITAL ENERGIES
----------------

  NO   OCC          E(Eh)            E(eV)
   0   2.0000     -20.682327      -562.7947
   1   2.0000     -15.651986      -425.9122
   2   2.0000     -15.598965      -424.4694
   3   2.0000     -11.379496      -309.6518
   4   2.0000     -11.331885      -308.3563
   5   2.0000      -1.539529       -41.8927
   6   2.0000      -1.272460       -34.6254
   7   2.0000      -1.179978       -32.1088
   8   2.0000      -0.882071       -24.0024
   9   2.0000      -0.871003       -23.7012
  10   2.0000      -0.767787       -20.8925
  11   2.0000      -0.691284       -18.8108
  12   2.0000      -0.633198       -17.2302
  13   2.0000      -0.609439       -16.5837
  14   2.0000      -0.537543       -14.6273
  15   2.0000      -0.485335       -13.2066
  16   2.0000      -0.482129       -13.1194
  17   2.0000      -0.421253       -11.4629
  18   0.0000       0.033268         0.9053
  19   0.0000       0.041384         1.1261
  20   0.0000       0.078465         2.1351
  21   0.0000       0.085062         2.3147
  22   0.0000       0.092621         2.5203

MULLIKEN ATOMIC CHARGES
-----------------------
   0 C :    0.772801
   1 C :    0.910943
   2 N :   -0.685663
   3 N :   -0.119832
   4 O :   -0.738569
   5 H :   -0.059719
   6 H :   -0.079961
Sum of atomic charges:    0.0000000

LOEWDIN ATOMIC CHARGES
----------------------
   0 C :   -0.096727
   1 C :   -0.022202
   2 N :    0.015394
   3 N :    0.038499
   4 O :    0.043217
   5 H :    0.005566
   6 H :    0.016253

  Mayer bond orders larger than 0.100000
B(  0-C ,  2-N ) :   1.0166 B(  0-C ,  3-N ) :   1.4521 B(  0-C ,  5-H ) :   0.9915
B(  1-C ,  2-N ) :   1.6541 B(  1-C ,  4-O ) :   0.8698 B(  1-C ,  6-H ) :   0.9910
B(  3-N ,  4-O ) :   0.6136

MP2 TOTAL ENERGY:     -261.434092638 Eh
FINAL SINGLE POINT ENERGY      -261.434092638191

DIPOLE MOMENT
-------------
                                X             Y             Z
Electronic contribution:     -0.81149       0.05931      -0.00000
Nuclear contribution   :      1.12501       0.40868       0.00000
                        -----------------------------------------
Total Dipole Moment    :      0.31352       0.46799      -0.00000
                        -----------------------------------------
Magnitude (a.u.)       :      0.56330
Magnitude (Debye)      :      1.43180

Rotational constants in cm-1:     0.346777     0.339103     0.171448
Rotational constants in MHz : 10396.102765 10166.041653  5139.892590

                             ****ORCA TERMINATED NORMALLY****
TOTAL RUN TIME: 0 days 0 hours 0 minutes 36 seconds 71 msec
