                         Program Version 5.0.3 -  RELEASE  -
|  1> !ri-mp2 aug-cc-pvdz aug-cc-pvdz/c tightscf
|  2> %pal nprocs 16 end
|  3>
|  4> * xyz 0 1
|  5> C      0.000000    1.191371    0.693954
|  6> C      0.000000    0.000000    1.397434
|  7> C      0.000000   -1.191371    0.693954
|  8> C      0.000000   -1.191371   -0.693954
|  9> C      0.000000    0.000000   -1.397434
| 10> C      0.000000    1.191371   -0.693954
| 11> F      0.000000    2.357926    1.354335
| 12> H      0.000000    0.000000    2.477199
| 13> F      0.000000   -2.357926    1.354335
| 14> F      0.000000   -2.357926   -1.354335
| 15> H      0.000000    0.000000   -2.477199
| 16> F      0.000000    2.357926   -1.354335
| 17> *
| 18>
| 19>                          ****END OF INPUT****

CARTESIAN COORDINATES (ANGSTROEM)
---------------------------------
  C      0.000000    1.191371    0.693954
  C      0.000000    0.000000    1.397434
  C      0.000000   -1.191371    0.693954
  C      0.000000   -1.191371   -0.693954
  C      0.000000    0.000000   -1.397434
  C      0.000000    1.191371   -0.693954
  F      0.000000    2.357926    1.354335
  H      0.000000    0.000000    2.477199
  F      0.000000   -2.357926    1.354335
  F      0.000000   -2.357926   -1.354335
  H      0.000000    0.000000   -2.477199
  F      0.000000    2.357926   -1.354335

 Total Charge           Charge          ....    0
 Multiplicity           Mult            ....    1
 Number of Electrons    NEL             ....   74
 Basis Dimension        Dim             ....  248

ORBITAL ENERGIES
----------------

  NO   OCC          E(Eh)            E(eV)
   0   2.0000     -26.353054      -717.1031
   1   2.0000     -26.353052      -717.1030
   2   2.0000     -26.353050      -717.1029
   3   2.0000     -26.353049      -717.1029
   4   2.0000     -11.372320      -309.4566
   5   2.0000     -11.372303      -309.4561
   6   2.0000     -11.371096      -309.4233
   7   2.0000     -11.371073      -309.4226
   8   2.0000     -11.292311      -307.2794
   9   2.0000     -11.292290      -307.2788
  10   2.0000      -1.670390       -45.4536
  11   2.0000      -1.669662       -45.4338
  12   2.0000      -1.656509       -45.0759
  13   2.0000      -1.655988       -45.0617
  14   2.0000      -1.213730       -33.0273
  15   2.0000      -1.080861       -29.4117
  16   2.0000      -1.062514       -28.9125
  17   2.0000      -0.924586       -25.1593
  18   2.0000      -0.899219       -24.4690
  19   2.0000      -0.808399       -21.9977
  20   2.0000      -0.808270       -21.9942
  21   2.0000      -0.796653       -21.6780
  22   2.0000      -0.749050       -20.3827
  23   2.0000      -0.742952       -20.2168
  24   2.0000      -0.731481       -19.9046
  25   2.0000      -0.721566       -19.6348
  26   2.0000      -0.711383       -19.3577
  27   2.0000      -0.707818       -19.2607
  28   2.0000      -0.705967       -19.2103
  29   2.0000      -0.688247       -18.7281
  30   2.0000      -0.658335       -17.9142
  31   2.0000      -0.633653       -17.2426
  32   2.0000      -0.597457       -16.2576
  33   2.0000      -0.577990       -15.7279
  34   2.0000      -0.534417       -14.5422
  35   2.0000      -0.387427       -10.5424
  36   2.0000      -0.364389        -9.9155
  37   0.0000       0.034186         0.9302
  38   0.0000       0.038817         1.0563
  39   0.0000       0.073421         1.9979
  40   0.0000       0.073660         2.0044
  41   0.0000       0.083817         2.2808

MULLIKEN ATOMIC CHARGES
-----------------------
   0 C :    0.814432
   1 C :    0.274672
   2 C :    0.814432
   3 C :    0.814432
   4 C :    0.274672
   5 C :    0.814432
   6 F :   -0.780264
   7 H :   -0.343009
   8 F :   -0.780264
   9 F :   -0.780264
  10 H :   -0.343009
  11 F :   -0.780264
Sum of atomic charges:   -0.0000000

LOEWDIN ATOMIC CHARGES
----------------------
   0 C :   -0.154322
   1 C :    0.108704
   2 C :   -0.154322
   3 C :   -0.154322
   4 C :    0.108704
   5 C :   -0.154322
   6 F :    0.086371
   7 H :    0.027199
   8 F :    0.086371
   9 F :    0.086371
  10 H :    0.027199
  11 F :    0.086371

  Mayer bond orders larger than 0.100000
B(  0-C ,  1-C ) :   1.6861 B(  0-C ,  5-C ) :   1.3394 B(  0-C ,  6-F ) :  -0.5279
B(  0-C ,  7-H ) :   0.1288 B(  0-C , 11-F ) :   0.3031 B(  1-C ,  2-C ) :   1.6861
B(  1-C ,  4-C ) :   0.3418 B(  1-C ,  6-F ) :   0.3186 B(  1-C ,  7-H ) :   0.4919
B(  1-C ,  8-F ) :   0.3186 B(  2-C ,  3-C ) :   1.3394 B(  2-C ,  7-H ) :   0.1288
B(  2-C ,  8-F ) :  -0.5279 B(  2-C ,  9-F ) :   0.3031 B(  3-C ,  4-C ) :   1.6861
B(  3-C ,  8-F ) :   0.3031 B(  3-C ,  9-F ) :  -0.5279 B(  3-C , 10-H ) :   0.1288
B(  4-C ,  5-C ) :   1.6861 B(  4-C ,  9-F ) :   0.3186 B(  4-C , 10-H ) :   0.4919
B(  4-C , 11-F ) :   0.3186 B(  5-C ,  6-F ) :   0.3031 B(  5-C , 10-H ) :   0.1288
B(  5-C , 11-F ) :  -0.5279

MP2 TOTAL ENERGY:     -627.753662322 Eh
FINAL SINGLE POINT ENERGY      -627.753662321916

DIPOLE MOMENT
-------------
                                X             Y             Z
Electronic contribution:      0.00000       0.00000       0.00000
Nuclear contribution   :      0.00000       0.00000       0.00000
                        -----------------------------------------
Total Dipole Moment    :      0.00000       0.00000       0.00000
                        -----------------------------------------
Magnitude (a.u.)       :      0.00000
Magnitude (Debye)      :      0.00000

Rotational constants in cm-1:     0.076002     0.034355     0.023660
Rotational constants in MHz :  2278.487078  1029.929179   709.306249

                             ****ORCA TERMINATED NORMALLY****
TOTAL RUN TIME: 0 days 0 hours 1 minutes 20 seconds 428 msec
