                         Program Version 5.0.3 -  RELEASE  -
|  1> !ri-mp2 aug-cc-pvdz aug-cc-pvdz/c tightscf
|  2> %pal nprocs 16 end
|  3> %maxcore 3800
|  4>
|  5> * xyz 0 1
|  6> C    -0.156412     0.744515    1.198880
|  7> C     0.156412    -0.744515    1.198880
|  8> C    -0.156412     0.744515   -1.198880
|  9> C     0.156412    -0.744515   -1.198880
| 10> C     0.156412     2.817089    0.000000
| 11> C    -0.156412    -2.817089    0.000000
| 12> N     0.372203     1.382577    0.000000
| 13> N    -0.372203    -1.382577    0.000000
| 14> H    -1.249175     0.882535    1.278396
| 15> H     0.300386     1.211676    2.073396
| 16> H     1.249175    -0.882535    1.278396
| 17> H    -0.300386    -1.211676    2.073396
| 18> H     0.300386     1.211676   -2.073396
| 19> H    -1.249175     0.882535   -1.278396
| 20> H    -0.300386    -1.211676   -2.073396
| 21> H     1.249175    -0.882535   -1.278396
| 22> H     0.618271     3.260208    0.882966
| 23> H    -0.912825     3.090807    0.000000
| 24> H     0.618271     3.260208   -0.882966
| 25> H     0.912825    -3.090807    0.000000
| 26> H    -0.618271    -3.260208   -0.882966
| 27> H    -0.618271    -3.260208    0.882966
| 28> *
| 29>
| 30>                          ****END OF INPUT****

CARTESIAN COORDINATES (ANGSTROEM)
---------------------------------
  C     -0.156412    0.744515    1.198880
  C      0.156412   -0.744515    1.198880
  C     -0.156412    0.744515   -1.198880
  C      0.156412   -0.744515   -1.198880
  C      0.156412    2.817089    0.000000
  C     -0.156412   -2.817089    0.000000
  N      0.372203    1.382577    0.000000
  N     -0.372203   -1.382577    0.000000
  H     -1.249175    0.882535    1.278396
  H      0.300386    1.211676    2.073396
  H      1.249175   -0.882535    1.278396
  H     -0.300386   -1.211676    2.073396
  H      0.300386    1.211676   -2.073396
  H     -1.249175    0.882535   -1.278396
  H     -0.300386   -1.211676   -2.073396
  H      1.249175   -0.882535   -1.278396
  H      0.618271    3.260208    0.882966
  H     -0.912825    3.090807    0.000000
  H      0.618271    3.260208   -0.882966
  H      0.912825   -3.090807    0.000000
  H     -0.618271   -3.260208   -0.882966
  H     -0.618271   -3.260208    0.882966

 Total Charge           Charge          ....    0
 Multiplicity           Mult            ....    1
 Number of Electrons    NEL             ....   64
 Basis Dimension        Dim             ....  310

ORBITAL ENERGIES
----------------

  NO   OCC          E(Eh)            E(eV)
   0   2.0000     -15.549662      -423.1278
   1   2.0000     -15.549660      -423.1278
   2   2.0000     -11.248127      -306.0771
   3   2.0000     -11.248107      -306.0765
   4   2.0000     -11.247497      -306.0600
   5   2.0000     -11.247486      -306.0596
   6   2.0000     -11.246023      -306.0199
   7   2.0000     -11.246023      -306.0198
   8   2.0000      -1.254598       -34.1394
   9   2.0000      -1.204202       -32.7680
  10   2.0000      -1.024967       -27.8908
  11   2.0000      -0.991772       -26.9875
  12   2.0000      -0.910846       -24.7854
  13   2.0000      -0.866249       -23.5718
  14   2.0000      -0.835337       -22.7307
  15   2.0000      -0.753386       -20.5007
  16   2.0000      -0.664086       -18.0707
  17   2.0000      -0.635693       -17.2981
  18   2.0000      -0.629820       -17.1383
  19   2.0000      -0.624352       -16.9895
  20   2.0000      -0.619614       -16.8606
  21   2.0000      -0.580138       -15.7863
  22   2.0000      -0.548674       -14.9302
  23   2.0000      -0.544000       -14.8030
  24   2.0000      -0.541537       -14.7360
  25   2.0000      -0.515396       -14.0246
  26   2.0000      -0.496007       -13.4970
  27   2.0000      -0.489723       -13.3260
  28   2.0000      -0.464728       -12.6459
  29   2.0000      -0.457809       -12.4576
  30   2.0000      -0.352945        -9.6041
  31   2.0000      -0.348444        -9.4816
  32   0.0000       0.037817         1.0291
  33   0.0000       0.042495         1.1563
  34   0.0000       0.045392         1.2352
  35   0.0000       0.049142         1.3372
  36   0.0000       0.059845         1.6285

MULLIKEN ATOMIC CHARGES
-----------------------
   0 C :    0.710548
   1 C :    0.710548
   2 C :    0.710548
   3 C :    0.710548
   4 C :    0.690752
   5 C :    0.690752
   6 N :   -0.943283
   7 N :   -0.943283
   8 H :   -0.121162
   9 H :   -0.260945
  10 H :   -0.121162
  11 H :   -0.260945
  12 H :   -0.260945
  13 H :   -0.121162
  14 H :   -0.260945
  15 H :   -0.121162
  16 H :   -0.191254
  17 H :   -0.021842
  18 H :   -0.191254
  19 H :   -0.021842
  20 H :   -0.191254
  21 H :   -0.191254
Sum of atomic charges:   -0.0000000

LOEWDIN ATOMIC CHARGES
----------------------
   0 C :   -0.016551
   1 C :   -0.016551
   2 C :   -0.016551
   3 C :   -0.016551
   4 C :    0.134695
   5 C :    0.134695
   6 N :   -0.162910
   7 N :   -0.162910
   8 H :    0.028832
   9 H :    0.020314
  10 H :    0.028832
  11 H :    0.020314
  12 H :    0.020314
  13 H :    0.028832
  14 H :    0.020314
  15 H :    0.028832
  16 H :   -0.014767
  17 H :   -0.007443
  18 H :   -0.014767
  19 H :   -0.007443
  20 H :   -0.014767
  21 H :   -0.014767

  Mayer bond orders larger than 0.100000
B(  0-C ,  1-C ) :   1.3557 B(  0-C ,  6-N ) :   0.9928 B(  0-C ,  7-N ) :  -0.1078
B(  0-C ,  8-H ) :   0.8227 B(  0-C ,  9-H ) :   0.8384 B(  1-C ,  6-N ) :  -0.1078
B(  1-C ,  7-N ) :   0.9928 B(  1-C , 10-H ) :   0.8227 B(  1-C , 11-H ) :   0.8384
B(  2-C ,  3-C ) :   1.3557 B(  2-C ,  6-N ) :   0.9928 B(  2-C ,  7-N ) :  -0.1078
B(  2-C , 12-H ) :   0.8384 B(  2-C , 13-H ) :   0.8227 B(  3-C ,  6-N ) :  -0.1078
B(  3-C ,  7-N ) :   0.9928 B(  3-C , 14-H ) :   0.8384 B(  3-C , 15-H ) :   0.8227
B(  4-C ,  6-N ) :   1.0860 B(  4-C , 16-H ) :   0.9926 B(  4-C , 17-H ) :   0.8023
B(  4-C , 18-H ) :   0.9926 B(  5-C ,  7-N ) :   1.0860 B(  5-C , 19-H ) :   0.8023
B(  5-C , 20-H ) :   0.9926 B(  5-C , 21-H ) :   0.9926 B(  6-N ,  8-H ) :   0.1298
B(  6-N , 13-H ) :   0.1298 B(  6-N , 17-H ) :   0.1805 B(  7-N , 10-H ) :   0.1298
B(  7-N , 15-H ) :   0.1298 B(  7-N , 19-H ) :   0.1805 B(  8-H ,  9-H ) :  -0.1067
B( 10-H , 11-H ) :  -0.1067 B( 12-H , 13-H ) :  -0.1067 B( 14-H , 15-H ) :  -0.1067
B( 16-H , 18-H ) :  -0.1292 B( 20-H , 21-H ) :  -0.1292

MP2 TOTAL ENERGY:     -345.517534354 Eh
FINAL SINGLE POINT ENERGY      -345.517534353816

DIPOLE MOMENT
-------------
                                X             Y             Z
Electronic contribution:     -0.00000       0.00000      -0.00000
Nuclear contribution   :      0.00000      -0.00000       0.00000
                        -----------------------------------------
Total Dipole Moment    :     -0.00000       0.00000      -0.00000
                        -----------------------------------------
Magnitude (a.u.)       :      0.00000
Magnitude (Debye)      :      0.00000

Rotational constants in cm-1:     0.152483     0.047152     0.038383
Rotational constants in MHz :  4571.316845  1413.592912  1150.679134

                             ****ORCA TERMINATED NORMALLY****
TOTAL RUN TIME: 0 days 0 hours 1 minutes 31 seconds 605 msec
