                         Program Version 5.0.3 -  RELEASE  -
|  1> !ri-mp2 aug-cc-pvdz aug-cc-pvdz/c tightscf
|  2> %pal nprocs 16 end
|  3>
|  4> * xyz 0 1
|  5> O      1.787242    0.003282   -0.184204
|  6> N      0.624265   -0.739187    0.193069
|  7> N     -1.728663   -0.614242   -0.065776
|  8> N     -0.477517    1.325874    0.083465
|  9> C     -0.595184   -0.035554    0.023160
| 10> H      2.301487    0.044235    0.629806
| 11> H      0.630705   -1.583507   -0.364470
| 12> H     -1.653756   -1.625649   -0.018118
| 13> H     -1.320486    1.821828   -0.150356
| 14> H      0.388624    1.723041   -0.237498
| 15> *
| 16>
| 17>                          ****END OF INPUT****

CARTESIAN COORDINATES (ANGSTROEM)
---------------------------------
  O      1.787242    0.003282   -0.184204
  N      0.624265   -0.739187    0.193069
  N     -1.728663   -0.614242   -0.065776
  N     -0.477517    1.325874    0.083465
  C     -0.595184   -0.035554    0.023160
  H      2.301487    0.044235    0.629806
  H      0.630705   -1.583507   -0.364470
  H     -1.653756   -1.625649   -0.018118
  H     -1.320486    1.821828   -0.150356
  H      0.388624    1.723041   -0.237498

 Total Charge           Charge          ....    0
 Multiplicity           Mult            ....    1
 Number of Electrons    NEL             ....   40
 Basis Dimension        Dim             ....  160

ORBITAL ENERGIES
----------------

  NO   OCC          E(Eh)            E(eV)
   0   2.0000     -20.633547      -561.4674
   1   2.0000     -15.649199      -425.8364
   2   2.0000     -15.581333      -423.9896
   3   2.0000     -15.525001      -422.4568
   4   2.0000     -11.358408      -309.0780
   5   2.0000      -1.443837       -39.2888
   6   2.0000      -1.280255       -34.8375
   7   2.0000      -1.160923       -31.5903
   8   2.0000      -1.106930       -30.1211
   9   2.0000      -0.825556       -22.4645
  10   2.0000      -0.752272       -20.4704
  11   2.0000      -0.727337       -19.7919
  12   2.0000      -0.677530       -18.4365
  13   2.0000      -0.649144       -17.6641
  14   2.0000      -0.622579       -16.9412
  15   2.0000      -0.555273       -15.1097
  16   2.0000      -0.528504       -14.3813
  17   2.0000      -0.445377       -12.1193
  18   2.0000      -0.421788       -11.4774
  19   2.0000      -0.362379        -9.8608
  20   0.0000       0.031167         0.8481
  21   0.0000       0.042775         1.1640
  22   0.0000       0.048026         1.3069
  23   0.0000       0.066308         1.8043
  24   0.0000       0.074139         2.0174

MULLIKEN ATOMIC CHARGES
-----------------------
   0 O :   -0.650271
   1 N :   -0.043751
   2 N :   -0.473251
   3 N :   -0.314095
   4 C :    1.192913
   5 H :    0.210155
   6 H :    0.081437
   7 H :   -0.030642
   8 H :    0.007589
   9 H :    0.019916
Sum of atomic charges:    0.0000000

LOEWDIN ATOMIC CHARGES
----------------------
   0 O :    0.135128
   1 N :    0.100913
   2 N :    0.141973
   3 N :    0.272888
   4 C :   -0.418412
   5 H :   -0.053127
   6 H :   -0.014654
   7 H :   -0.102300
   8 H :   -0.013920
   9 H :   -0.048489

  Mayer bond orders larger than 0.100000
B(  0-O ,  1-N ) :   0.8168 B(  0-O ,  4-C ) :  -0.1127 B(  0-O ,  5-H ) :   1.0241
B(  1-N ,  4-C ) :   0.8668 B(  1-N ,  6-H ) :   1.0310 B(  2-N ,  4-C ) :   1.5694
B(  2-N ,  7-H ) :   1.0184 B(  3-N ,  4-C ) :   0.8946 B(  3-N ,  8-H ) :   1.0927
B(  3-N ,  9-H ) :   1.1060

MP2 TOTAL ENERGY:     -279.840811476 Eh
FINAL SINGLE POINT ENERGY      -279.840811476290

DIPOLE MOMENT
-------------
                                X             Y             Z
Electronic contribution:      0.80036      -0.31391       0.08468
Nuclear contribution   :      0.36572       0.38010      -0.14240
                        -----------------------------------------
Total Dipole Moment    :      1.16607       0.06619      -0.05772
                        -----------------------------------------
Magnitude (a.u.)       :      1.16938
Magnitude (Debye)      :      2.97232

Rotational constants in cm-1:     0.330971     0.142720     0.101923
Rotational constants in MHz :  9922.249972  4278.641121  3055.567086

                             ****ORCA TERMINATED NORMALLY****
TOTAL RUN TIME: 0 days 0 hours 0 minutes 42 seconds 829 msec
