                         Program Version 5.0.3 -  RELEASE  -
|  1> !ri-mp2 aug-cc-pvdz aug-cc-pvdz/c tightscf
|  2> %pal nprocs 16 end
|  3>
|  4> * xyz 0 1
|  5> O      0.710722   -1.733894        0.000000
|  6> N     -0.691138   -1.797404        0.000000
|  7> N     -0.085068    2.920338        0.000000
|  8> C      0.000000    0.355924        0.000000
|  9> C      1.091283   -0.460386        0.000000
| 10> C     -1.094603   -0.562112        0.000000
| 11> C     -0.038720    1.769277        0.000000
| 12> H      2.149576   -0.263840        0.000000
| 13> H     -2.149674   -0.341769        0.000000
| 14> *
| 15>
| 16>                          ****END OF INPUT****

CARTESIAN COORDINATES (ANGSTROEM)
---------------------------------
  O      0.710722   -1.733894    0.000000
  N     -0.691138   -1.797404    0.000000
  N     -0.085068    2.920338    0.000000
  C      0.000000    0.355924    0.000000
  C      1.091283   -0.460386    0.000000
  C     -1.094603   -0.562112    0.000000
  C     -0.038720    1.769277    0.000000
  H      2.149576   -0.263840    0.000000
  H     -2.149674   -0.341769    0.000000

 Total Charge           Charge          ....    0
 Multiplicity           Mult            ....    1
 Number of Electrons    NEL             ....   48
 Basis Dimension        Dim             ....  179

ORBITAL ENERGIES
----------------

  NO   OCC          E(Eh)            E(eV)
   0   2.0000     -20.698156      -563.2255
   1   2.0000     -15.670904      -426.4270
   2   2.0000     -15.604352      -424.6160
   3   2.0000     -11.375939      -309.5550
   4   2.0000     -11.329991      -308.3047
   5   2.0000     -11.310221      -307.7667
   6   2.0000     -11.308916      -307.7313
   7   2.0000      -1.542437       -41.9718
   8   2.0000      -1.249728       -34.0068
   9   2.0000      -1.215632       -33.0790
  10   2.0000      -1.132483       -30.8164
  11   2.0000      -0.917260       -24.9599
  12   2.0000      -0.866470       -23.5779
  13   2.0000      -0.815965       -22.2035
  14   2.0000      -0.716622       -19.5003
  15   2.0000      -0.697541       -18.9810
  16   2.0000      -0.639897       -17.4125
  17   2.0000      -0.612479       -16.6664
  18   2.0000      -0.579144       -15.7593
  19   2.0000      -0.538391       -14.6504
  20   2.0000      -0.530645       -14.4396
  21   2.0000      -0.483940       -13.1687
  22   2.0000      -0.460453       -12.5296
  23   2.0000      -0.396147       -10.7797
  24   0.0000       0.029225         0.7952
  25   0.0000       0.036825         1.0021
  26   0.0000       0.060970         1.6591
  27   0.0000       0.072979         1.9859
  28   0.0000       0.077348         2.1047

MULLIKEN ATOMIC CHARGES
-----------------------
   0 O :   -0.861999
   1 N :   -0.291028
   2 N :   -0.320234
   3 C :    1.007108
   4 C :    0.897921
   5 C :    0.616751
   6 C :   -0.498535
   7 H :   -0.297492
   8 H :   -0.252492
Sum of atomic charges:    0.0000000

LOEWDIN ATOMIC CHARGES
----------------------
   0 O :    0.053924
   1 N :    0.055725
   2 N :    0.094363
   3 C :   -0.231765
   4 C :    0.103165
   5 C :    0.006450
   6 C :   -0.129146
   7 H :    0.026294
   8 H :    0.020990

  Mayer bond orders larger than 0.100000
B(  0-O ,  1-N ) :   0.6431 B(  0-O ,  3-C ) :   0.2715 B(  0-O ,  4-C ) :   0.6352
B(  1-N ,  3-C ) :   0.1471 B(  1-N ,  5-C ) :   1.3257 B(  2-N ,  6-C ) :   2.5060
B(  3-C ,  4-C ) :   1.1378 B(  3-C ,  5-C ) :   0.9681 B(  3-C ,  6-C ) :   0.4771
B(  3-C ,  7-H ) :  -0.1780 B(  4-C ,  5-C ) :  -0.1664 B(  4-C ,  7-H ) :   0.9921
B(  5-C ,  8-H ) :   0.8928

MP2 TOTAL ENERGY:     -337.407326887 Eh
FINAL SINGLE POINT ENERGY      -337.407326886522

DIPOLE MOMENT
-------------
                                X             Y             Z
Electronic contribution:      0.29682       0.09141       0.00000
Nuclear contribution   :      0.00628      -0.60021       0.00000
                        -----------------------------------------
Total Dipole Moment    :      0.30309      -0.50881       0.00000
                        -----------------------------------------
Magnitude (a.u.)       :      0.59224
Magnitude (Debye)      :      1.50536

Rotational constants in cm-1:     0.319418     0.065193     0.054143
Rotational constants in MHz :  9575.910017  1954.449418  1623.161174

                             ****ORCA TERMINATED NORMALLY****
TOTAL RUN TIME: 0 days 0 hours 0 minutes 50 seconds 915 msec
