                         Program Version 5.0.3 -  RELEASE  -
|  1> !ri-mp2 aug-cc-pvdz aug-cc-pvdz/c tightscf
|  2> %pal nprocs 16 end
|  3>
|  4> * xyz 0 1
|  5> S     -0.195948    2.519947    0.000000
|  6> C     -0.116097    0.874513    0.000000
|  7> S     -0.033616    0.069956    1.548701
|  8> C     -0.033616   -1.749646    1.260469
|  9> C      0.684442   -2.198644    0.000000
| 10> C     -0.033616   -1.749646   -1.260469
| 11> S     -0.033616    0.069956   -1.548701
| 12> H      0.452909   -2.143490    2.151791
| 13> H     -1.066908   -2.096687    1.261615
| 14> H      1.716281   -1.844930    0.000000
| 15> H      0.715928   -3.291933    0.000000
| 16> H      0.452909   -2.143490   -2.151791
| 17> H     -1.066908   -2.096687   -1.261615
| 18> *
| 19>
| 20>                          ****END OF INPUT****

CARTESIAN COORDINATES (ANGSTROEM)
---------------------------------
  S     -0.195948    2.519947    0.000000
  C     -0.116097    0.874513    0.000000
  S     -0.033616    0.069956    1.548701
  C     -0.033616   -1.749646    1.260469
  C      0.684442   -2.198644    0.000000
  C     -0.033616   -1.749646   -1.260469
  S     -0.033616    0.069956   -1.548701
  H      0.452909   -2.143490    2.151791
  H     -1.066908   -2.096687    1.261615
  H      1.716281   -1.844930    0.000000
  H      0.715928   -3.291933    0.000000
  H      0.452909   -2.143490   -2.151791
  H     -1.066908   -2.096687   -1.261615

 Total Charge           Charge          ....    0
 Multiplicity           Mult            ....    1
 Number of Electrons    NEL             ....   78
 Basis Dimension        Dim             ....  227

ORBITAL ENERGIES
----------------

  NO   OCC          E(Eh)            E(eV)
   0   2.0000     -91.994539     -2503.2987
   1   2.0000     -91.994538     -2503.2986
   2   2.0000     -91.924106     -2501.3821
   3   2.0000     -11.377513      -309.5979
   4   2.0000     -11.296477      -307.3928
   5   2.0000     -11.296471      -307.3926
   6   2.0000     -11.274426      -306.7927
   7   2.0000      -8.996355      -244.8033
   8   2.0000      -8.996341      -244.8029
   9   2.0000      -8.927353      -242.9256
  10   2.0000      -6.678200      -181.7231
  11   2.0000      -6.678197      -181.7230
  12   2.0000      -6.676233      -181.6695
  13   2.0000      -6.676232      -181.6695
  14   2.0000      -6.674605      -181.6252
  15   2.0000      -6.674604      -181.6252
  16   2.0000      -6.609407      -179.8511
  17   2.0000      -6.606940      -179.7840
  18   2.0000      -6.605539      -179.7458
  19   2.0000      -1.165290       -31.7092
  20   2.0000      -1.093131       -29.7456
  21   2.0000      -1.053651       -28.6713
  22   2.0000      -0.948182       -25.8013
  23   2.0000      -0.900500       -24.5038
  24   2.0000      -0.838693       -22.8220
  25   2.0000      -0.711444       -19.3594
  26   2.0000      -0.659048       -17.9336
  27   2.0000      -0.628649       -17.1064
  28   2.0000      -0.619416       -16.8552
  29   2.0000      -0.609949       -16.5976
  30   2.0000      -0.543939       -14.8013
  31   2.0000      -0.543795       -14.7974
  32   2.0000      -0.525623       -14.3029
  33   2.0000      -0.493147       -13.4192
  34   2.0000      -0.457972       -12.4620
  35   2.0000      -0.442469       -12.0402
  36   2.0000      -0.376019       -10.2320
  37   2.0000      -0.333037        -9.0624
  38   2.0000      -0.327868        -8.9217
  39   0.0000       0.023374         0.6360
  40   0.0000       0.037649         1.0245
  41   0.0000       0.039325         1.0701
  42   0.0000       0.049766         1.3542
  43   0.0000       0.053569         1.4577

MULLIKEN ATOMIC CHARGES
-----------------------
   0 S :   -0.047128
   1 C :   -0.814569
   2 S :    0.635274
   3 C :   -0.188281
   4 C :    0.284932
   5 C :   -0.188281
   6 S :    0.635274
   7 H :    0.009213
   8 H :   -0.059076
   9 H :   -0.166267
  10 H :   -0.051226
  11 H :    0.009213
  12 H :   -0.059076
Sum of atomic charges:    0.0000000

LOEWDIN ATOMIC CHARGES
----------------------
   0 S :    0.441366
   1 C :   -1.408475
   2 S :    0.853371
   3 C :   -0.263795
   4 C :   -0.137397
   5 C :   -0.263795
   6 S :    0.853371
   7 H :   -0.027175
   8 H :   -0.028069
   9 H :    0.015958
  10 H :    0.019886
  11 H :   -0.027175
  12 H :   -0.028069

  Mayer bond orders larger than 0.100000
B(  0-S ,  1-C ) :   1.7638 B(  1-C ,  2-S ) :   1.0563 B(  1-C ,  6-S ) :   1.0563
B(  2-S ,  3-C ) :   1.0554 B(  3-C ,  4-C ) :   1.2558 B(  3-C ,  7-H ) :   0.8817
B(  3-C ,  8-H ) :   0.9433 B(  4-C ,  5-C ) :   1.2558 B(  4-C ,  7-H ) :   0.1040
B(  4-C ,  9-H ) :   0.8844 B(  4-C , 10-H ) :   0.7724 B(  4-C , 11-H ) :   0.1040
B(  5-C ,  6-S ) :   1.0554 B(  5-C , 11-H ) :   0.8817 B(  5-C , 12-H ) :   0.9433
B(  9-H , 10-H ) :  -0.1010

MP2 TOTAL ENERGY:    -1348.561760823 Eh
FINAL SINGLE POINT ENERGY     -1348.561760822867

DIPOLE MOMENT
-------------
                                X             Y             Z
Electronic contribution:     -1.04138      10.73063       0.00000
Nuclear contribution   :      1.18182     -13.35448       0.00000
                        -----------------------------------------
Total Dipole Moment    :      0.14043      -2.62386       0.00000
                        -----------------------------------------
Magnitude (a.u.)       :      2.62761
Magnitude (Debye)      :      6.67886

Rotational constants in cm-1:     0.078733     0.043310     0.028860
Rotational constants in MHz :  2360.347101  1298.395830   865.198253

                             ****ORCA TERMINATED NORMALLY****
TOTAL RUN TIME: 0 days 0 hours 0 minutes 54 seconds 277 msec
