                         Program Version 5.0.3 -  RELEASE  -
|  1> !ri-mp2 aug-cc-pvdz aug-cc-pvdz/c tightscf
|  2> %pal nprocs 16 end
|  3>
|  4> * xyz 0 1
|  5> C     -0.355891    0.007246    0.000000
|  6> C     -0.817838    1.438371    0.000000
|  7> Cl     1.445175   -0.130990    0.000000
|  8> F     -0.817838   -0.654552    1.085396
|  9> F     -0.817838   -0.654552   -1.085396
| 10> H     -1.907414    1.446254    0.000000
| 11> H     -0.448549    1.944401    0.887913
| 12> H     -0.448549    1.944401   -0.887913
| 13> *
| 14>
| 15>                          ****END OF INPUT****

CARTESIAN COORDINATES (ANGSTROEM)
---------------------------------
  C     -0.355891    0.007246    0.000000
  C     -0.817838    1.438371    0.000000
  Cl     1.445175   -0.130990    0.000000
  F     -0.817838   -0.654552    1.085396
  F     -0.817838   -0.654552   -1.085396
  H     -1.907414    1.446254    0.000000
  H     -0.448549    1.944401    0.887913
  H     -0.448549    1.944401   -0.887913

 Total Charge           Charge          ....    0
 Multiplicity           Mult            ....    1
 Number of Electrons    NEL             ....   50
 Basis Dimension        Dim             ....  146

ORBITAL ENERGIES
----------------

  NO   OCC          E(Eh)            E(eV)
   0   2.0000    -104.852026     -2853.1687
   1   2.0000     -26.350569      -717.0354
   2   2.0000     -26.350548      -717.0349
   3   2.0000     -11.495838      -312.8177
   4   2.0000     -11.269621      -306.6620
   5   2.0000     -10.578775      -287.8631
   6   2.0000      -8.046389      -218.9534
   7   2.0000      -8.042987      -218.8608
   8   2.0000      -8.042980      -218.8606
   9   2.0000      -1.700341       -46.2686
  10   2.0000      -1.633742       -44.4564
  11   2.0000      -1.157644       -31.5011
  12   2.0000      -1.048428       -28.5292
  13   2.0000      -0.900241       -24.4968
  14   2.0000      -0.796145       -21.6642
  15   2.0000      -0.767185       -20.8762
  16   2.0000      -0.760817       -20.7029
  17   2.0000      -0.694342       -18.8940
  18   2.0000      -0.656577       -17.8664
  19   2.0000      -0.640212       -17.4211
  20   2.0000      -0.591420       -16.0934
  21   2.0000      -0.586275       -15.9534
  22   2.0000      -0.532040       -14.4776
  23   2.0000      -0.477718       -12.9994
  24   2.0000      -0.472724       -12.8635
  25   0.0000       0.034137         0.9289
  26   0.0000       0.056117         1.5270
  27   0.0000       0.056139         1.5276
  28   0.0000       0.080192         2.1821
  29   0.0000       0.094418         2.5693

MULLIKEN ATOMIC CHARGES
-----------------------
   0 C :    0.996930
   1 C :    0.333393
   2 Cl:   -0.160378
   3 F :   -0.609056
   4 F :   -0.609056
   5 H :   -0.000492
   6 H :    0.024330
   7 H :    0.024330
Sum of atomic charges:   -0.0000000

LOEWDIN ATOMIC CHARGES
----------------------
   0 C :   -0.693439
   1 C :    0.133620
   2 Cl:    0.511372
   3 F :    0.031812
   4 F :    0.031812
   5 H :   -0.001278
   6 H :   -0.006949
   7 H :   -0.006949

  Mayer bond orders larger than 0.100000
B(  0-C ,  1-C ) :   1.1818 B(  0-C ,  2-Cl) :   1.1363 B(  0-C ,  3-F ) :   0.2847
B(  0-C ,  4-F ) :   0.2847 B(  1-C ,  3-F ) :   0.1197 B(  1-C ,  4-F ) :   0.1197
B(  1-C ,  5-H ) :   0.8752 B(  1-C ,  6-H ) :   0.9391 B(  1-C ,  7-H ) :   0.9391

MP2 TOTAL ENERGY:     -736.748289362 Eh
FINAL SINGLE POINT ENERGY      -736.748289362284

DIPOLE MOMENT
-------------
                                X             Y             Z
Electronic contribution:      2.76113      -5.43690       0.00000
Nuclear contribution   :     -3.04308       6.36831       0.00000
                        -----------------------------------------
Total Dipole Moment    :     -0.28195       0.93140       0.00000
                        -----------------------------------------
Magnitude (a.u.)       :      0.97314
Magnitude (Debye)      :      2.47353

Rotational constants in cm-1:     0.173816     0.105550     0.102795
Rotational constants in MHz :  5210.872909  3164.320410  3081.701662

                             ****ORCA TERMINATED NORMALLY****
TOTAL RUN TIME: 0 days 0 hours 0 minutes 37 seconds 838 msec
