                         Program Version 5.0.3 -  RELEASE  -
|  1> !ri-mp2 aug-cc-pvdz aug-cc-pvdz/c tightscf
|  2> %pal nprocs 16 end
|  3>
|  4> * xyz 0 1
|  5> O      1.184971    1.329150   -0.264204
|  6> H      2.036345    1.691201   -0.001541
|  7> O     -2.681176   -0.346785   -0.166650
|  8> H     -3.437773    0.227118   -0.020588
|  9> C      2.195242   -0.882182   -0.037797
| 10> H      2.250223   -1.017985   -1.118621
| 11> H      3.142448   -0.457668    0.302556
| 12> H      2.084428   -1.861246    0.430820
| 13> C      1.029926    0.029059    0.326369
| 14> H      0.993181    0.139993    1.418550
| 15> C     -0.305850   -0.521316   -0.153420
| 16> H     -0.443749   -1.523300    0.259028
| 17> H     -0.284509   -0.618015   -1.241427
| 18> C     -1.493637    0.335082    0.248850
| 19> H     -1.499349    0.479259    1.336354
| 20> H     -1.425692    1.317864   -0.222316
| 21> *
| 22>
| 23>                          ****END OF INPUT****

CARTESIAN COORDINATES (ANGSTROEM)
---------------------------------
  O      1.184971    1.329150   -0.264204
  H      2.036345    1.691201   -0.001541
  O     -2.681176   -0.346785   -0.166650
  H     -3.437773    0.227118   -0.020588
  C      2.195242   -0.882182   -0.037797
  H      2.250223   -1.017985   -1.118621
  H      3.142448   -0.457668    0.302556
  H      2.084428   -1.861246    0.430820
  C      1.029926    0.029059    0.326369
  H      0.993181    0.139993    1.418550
  C     -0.305850   -0.521316   -0.153420
  H     -0.443749   -1.523300    0.259028
  H     -0.284509   -0.618015   -1.241427
  C     -1.493637    0.335082    0.248850
  H     -1.499349    0.479259    1.336354
  H     -1.425692    1.317864   -0.222316

 Total Charge           Charge          ....    0
 Multiplicity           Mult            ....    1
 Number of Electrons    NEL             ....   50
 Basis Dimension        Dim             ....  228

ORBITAL ENERGIES
----------------

  NO   OCC          E(Eh)            E(eV)
   0   2.0000     -20.566585      -559.6452
   1   2.0000     -20.560853      -559.4893
   2   2.0000     -11.288746      -307.1824
   3   2.0000     -11.273916      -306.7789
   4   2.0000     -11.226694      -305.4939
   5   2.0000     -11.221247      -305.3457
   6   2.0000      -1.362420       -37.0733
   7   2.0000      -1.352962       -36.8160
   8   2.0000      -1.062503       -28.9122
   9   2.0000      -0.981827       -26.7169
  10   2.0000      -0.861811       -23.4511
  11   2.0000      -0.793702       -21.5977
  12   2.0000      -0.705930       -19.2093
  13   2.0000      -0.684848       -18.6357
  14   2.0000      -0.632713       -17.2170
  15   2.0000      -0.621595       -16.9145
  16   2.0000      -0.597818       -16.2675
  17   2.0000      -0.556436       -15.1414
  18   2.0000      -0.541205       -14.7269
  19   2.0000      -0.523109       -14.2345
  20   2.0000      -0.513105       -13.9623
  21   2.0000      -0.490474       -13.3465
  22   2.0000      -0.466718       -12.7000
  23   2.0000      -0.440244       -11.9796
  24   2.0000      -0.435305       -11.8453
  25   0.0000       0.033733         0.9179
  26   0.0000       0.041290         1.1236
  27   0.0000       0.048592         1.3223
  28   0.0000       0.049286         1.3411
  29   0.0000       0.062750         1.7075

MULLIKEN ATOMIC CHARGES
-----------------------
   0 O :   -0.800258
   1 H :    0.118607
   2 O :   -0.729035
   3 H :    0.142310
   4 C :    0.464852
   5 H :    0.002058
   6 H :   -0.094847
   7 H :   -0.043092
   8 C :    0.442577
   9 H :   -0.198311
  10 C :    0.068903
  11 H :   -0.080719
  12 H :   -0.100702
  13 C :    1.115482
  14 H :   -0.186731
  15 H :   -0.121092
Sum of atomic charges:   -0.0000000

LOEWDIN ATOMIC CHARGES
----------------------
   0 O :    0.131278
   1 H :   -0.060612
   2 O :    0.108920
   3 H :   -0.065284
   4 C :    0.162123
   5 H :   -0.007425
   6 H :   -0.017950
   7 H :   -0.011098
   8 C :   -0.269174
   9 H :    0.030678
  10 C :   -0.016739
  11 H :    0.023862
  12 H :    0.026946
  13 C :   -0.042547
  14 H :    0.004533
  15 H :    0.002489

  Mayer bond orders larger than 0.100000
B(  0-O ,  1-H ) :   1.1009 B(  0-O ,  8-C ) :   0.2560 B(  2-O ,  3-H ) :   1.1079
B(  2-O , 13-C ) :   0.5114 B(  4-C ,  5-H ) :   0.9127 B(  4-C ,  6-H ) :   0.8620
B(  4-C ,  7-H ) :   0.8539 B(  4-C ,  8-C ) :   1.2600 B(  5-H ,  6-H ) :  -0.1023
B(  6-H ,  8-C ) :   0.1623 B(  8-C ,  9-H ) :   0.6540 B(  8-C , 10-C ) :   1.2927
B(  8-C , 12-H ) :   0.1010 B( 10-C , 11-H ) :   0.8309 B( 10-C , 12-H ) :   0.7972
B( 10-C , 13-C ) :   1.2221 B( 11-H , 12-H ) :  -0.1016 B( 13-C , 14-H ) :   0.8564
B( 13-C , 15-H ) :   0.8526

MP2 TOTAL ENERGY:     -308.056550161 Eh
FINAL SINGLE POINT ENERGY      -308.056550160515

DIPOLE MOMENT
-------------
                                X             Y             Z
Electronic contribution:     -3.00277       1.94467      -0.56725
Nuclear contribution   :      3.53430      -1.67474       1.18369
                        -----------------------------------------
Total Dipole Moment    :      0.53153       0.26993       0.61645
                        -----------------------------------------
Magnitude (a.u.)       :      0.85755
Magnitude (Debye)      :      2.17972

Rotational constants in cm-1:     0.250651     0.058515     0.050536
Rotational constants in MHz :  7514.339662  1754.239220  1515.018418

                             ****ORCA TERMINATED NORMALLY****
TOTAL RUN TIME: 0 days 0 hours 0 minutes 42 seconds 422 msec
