                         Program Version 5.0.3 -  RELEASE  -
|  1> !ri-mp2 aug-cc-pvdz aug-cc-pvdz/c tightscf
|  2> %pal nprocs 16 end
|  3>
|  4> * xyz 0 1
|  5> O     -0.672368   -0.891320        0.000000
|  6> N      0.733709   -0.902550        0.000000
|  7> N      1.120509    0.284725        0.000000
|  8> C      0.000000    1.089677        0.000000
|  9> N     -1.090635    0.393352        0.000000
| 10> H      0.033864    2.163813        0.000000
| 11> *
| 12>
| 13>                          ****END OF INPUT****

CARTESIAN COORDINATES (ANGSTROEM)
---------------------------------
  O     -0.672368   -0.891320    0.000000
  N      0.733709   -0.902550    0.000000
  N      1.120509    0.284725    0.000000
  C      0.000000    1.089677    0.000000
  N     -1.090635    0.393352    0.000000
  H      0.033864    2.163813    0.000000

 Total Charge           Charge          ....    0
 Multiplicity           Mult            ....    1
 Number of Electrons    NEL             ....   36
 Basis Dimension        Dim             ....  124

ORBITAL ENERGIES
----------------

  NO   OCC          E(Eh)            E(eV)
   0   2.0000     -20.721346      -563.8565
   1   2.0000     -15.746327      -428.4793
   2   2.0000     -15.693801      -427.0500
   3   2.0000     -15.675213      -426.5442
   4   2.0000     -11.349600      -308.8383
   5   2.0000      -1.602913       -43.6175
   6   2.0000      -1.365435       -37.1554
   7   2.0000      -1.234035       -33.5798
   8   2.0000      -0.950500       -25.8644
   9   2.0000      -0.911108       -24.7925
  10   2.0000      -0.777257       -21.1502
  11   2.0000      -0.728139       -19.8137
  12   2.0000      -0.649295       -17.6682
  13   2.0000      -0.609784       -16.5931
  14   2.0000      -0.537888       -14.6367
  15   2.0000      -0.525558       -14.3012
  16   2.0000      -0.511958       -13.9311
  17   2.0000      -0.459004       -12.4901
  18   0.0000       0.031872         0.8673
  19   0.0000       0.058396         1.5890
  20   0.0000       0.081575         2.2198
  21   0.0000       0.084847         2.3088
  22   0.0000       0.087220         2.3734

MULLIKEN ATOMIC CHARGES
-----------------------
   0 O :   -0.783215
   1 N :    0.167852
   2 N :   -0.338204
   3 C :    1.063900
   4 N :   -0.049488
   5 H :   -0.060846
Sum of atomic charges:    0.0000000

LOEWDIN ATOMIC CHARGES
----------------------
   0 O :    0.001963
   1 N :    0.058973
   2 N :   -0.022614
   3 C :   -0.071553
   4 N :    0.034062
   5 H :   -0.000830

  Mayer bond orders larger than 0.100000
B(  0-O ,  1-N ) :   0.7545 B(  0-O ,  3-C ) :  -0.1062 B(  0-O ,  4-N ) :   0.8213
B(  1-N ,  2-N ) :   1.2474 B(  2-N ,  3-C ) :   0.9065 B(  3-C ,  4-N ) :   1.4648
B(  3-C ,  5-H ) :   0.9650

MP2 TOTAL ENERGY:     -277.416651194 Eh
FINAL SINGLE POINT ENERGY      -277.416651194371

DIPOLE MOMENT
-------------
                                X             Y             Z
Electronic contribution:      0.05283      -1.15509       0.00000
Nuclear contribution   :      0.02641       2.04476       0.00000
                        -----------------------------------------
Total Dipole Moment    :      0.07924       0.88967       0.00000
                        -----------------------------------------
Magnitude (a.u.)       :      0.89319
Magnitude (Debye)      :      2.27031

Rotational constants in cm-1:     0.367175     0.340899     0.176775
Rotational constants in MHz : 11007.638176 10219.903875  5299.577491

                             ****ORCA TERMINATED NORMALLY****
TOTAL RUN TIME: 0 days 0 hours 0 minutes 53 seconds 243 msec
