                         Program Version 5.0.3 -  RELEASE  -
|  1> !ri-mp2 aug-cc-pvdz aug-cc-pvdz/c tightscf
|  2> %pal nprocs 16 end
|  3> %maxcore 3800
|  4>
|  5> * xyz 0 1
|  6> C    -1.656245   -2.355698    0.000000
|  7> S     0.088738   -1.905377    0.000000
|  8> O     0.654560   -2.357841    1.267005
|  9> O     0.654560   -2.357841   -1.267005
| 10> C     0.080334   -0.110707    0.000000
| 11> C     0.087584    0.574569   -1.208898
| 12> C     0.087584    1.962499   -1.199749
| 13> C     0.081470    2.677518    0.000000
| 14> C     0.055105    4.182111    0.000000
| 15> C     0.087584    1.962499    1.199749
| 16> C     0.087584    0.574569    1.208898
| 17> H    -2.123209   -1.961947   -0.898464
| 18> H    -1.678863   -3.443534    0.000000
| 19> H    -2.123209   -1.961947    0.898464
| 20> H     0.119138    0.024829   -2.138786
| 21> H     0.104503    2.498591   -2.139961
| 22> H     0.546532    4.588743    0.883175
| 23> H    -0.973845    4.550449    0.000000
| 24> H     0.546532    4.588743   -0.883175
| 25> H     0.104503    2.498591    2.139961
| 26> H     0.119138    0.024829    2.138786
| 27> *
| 28>
| 29>                          ****END OF INPUT****

CARTESIAN COORDINATES (ANGSTROEM)
---------------------------------
  C     -1.656245   -2.355698    0.000000
  S      0.088738   -1.905377    0.000000
  O      0.654560   -2.357841    1.267005
  O      0.654560   -2.357841   -1.267005
  C      0.080334   -0.110707    0.000000
  C      0.087584    0.574569   -1.208898
  C      0.087584    1.962499   -1.199749
  C      0.081470    2.677518    0.000000
  C      0.055105    4.182111    0.000000
  C      0.087584    1.962499    1.199749
  C      0.087584    0.574569    1.208898
  H     -2.123209   -1.961947   -0.898464
  H     -1.678863   -3.443534    0.000000
  H     -2.123209   -1.961947    0.898464
  H      0.119138    0.024829   -2.138786
  H      0.104503    2.498591   -2.139961
  H      0.546532    4.588743    0.883175
  H     -0.973845    4.550449    0.000000
  H      0.546532    4.588743   -0.883175
  H      0.104503    2.498591    2.139961
  H      0.119138    0.024829    2.138786

 Total Charge           Charge          ....    0
 Multiplicity           Mult            ....    1
 Number of Electrons    NEL             ....   90
 Basis Dimension        Dim             ....  347

ORBITAL ENERGIES
----------------

  NO   OCC          E(Eh)            E(eV)
   0   2.0000     -92.197421     -2508.8194
   1   2.0000     -20.548419      -559.1509
   2   2.0000     -20.548401      -559.1504
   3   2.0000     -11.280128      -306.9479
   4   2.0000     -11.279102      -306.9200
   5   2.0000     -11.275687      -306.8270
   6   2.0000     -11.270764      -306.6931
   7   2.0000     -11.270659      -306.6902
   8   2.0000     -11.257384      -306.3290
   9   2.0000     -11.257338      -306.3277
  10   2.0000     -11.248885      -306.0977
  11   2.0000      -9.169756      -249.5217
  12   2.0000      -6.855170      -186.5387
  13   2.0000      -6.853848      -186.5027
  14   2.0000      -6.853413      -186.4909
  15   2.0000      -1.446860       -39.3711
  16   2.0000      -1.333463       -36.2854
  17   2.0000      -1.188919       -32.3521
  18   2.0000      -1.087598       -29.5950
  19   2.0000      -1.044447       -28.4208
  20   2.0000      -1.037317       -28.2268
  21   2.0000      -0.967251       -26.3202
  22   2.0000      -0.869696       -23.6656
  23   2.0000      -0.858972       -23.3738
  24   2.0000      -0.799545       -21.7567
  25   2.0000      -0.725456       -19.7407
  26   2.0000      -0.674102       -18.3432
  27   2.0000      -0.667542       -18.1647
  28   2.0000      -0.656785       -17.8720
  29   2.0000      -0.641497       -17.4560
  30   2.0000      -0.635860       -17.3026
  31   2.0000      -0.613173       -16.6853
  32   2.0000      -0.597079       -16.2473
  33   2.0000      -0.596403       -16.2290
  34   2.0000      -0.593572       -16.1519
  35   2.0000      -0.560958       -15.2645
  36   2.0000      -0.532431       -14.4882
  37   2.0000      -0.517514       -14.0823
  38   2.0000      -0.513096       -13.9621
  39   2.0000      -0.489685       -13.3250
  40   2.0000      -0.484564       -13.1857
  41   2.0000      -0.461836       -12.5672
  42   2.0000      -0.431467       -11.7408
  43   2.0000      -0.360835        -9.8188
  44   2.0000      -0.357478        -9.7275
  45   0.0000       0.027426         0.7463
  46   0.0000       0.035462         0.9650
  47   0.0000       0.037736         1.0268
  48   0.0000       0.046480         1.2648
  49   0.0000       0.049641         1.3508

MULLIKEN ATOMIC CHARGES
-----------------------
   0 C :   -0.073837
   1 S :    2.806236
   2 O :   -1.257153
   3 O :   -1.257153
   4 C :    0.790452
   5 C :   -0.310494
   6 C :    0.963062
   7 C :   -0.472367
   8 C :    0.657344
   9 C :    0.963062
  10 C :   -0.310494
  11 H :   -0.019774
  12 H :   -0.031570
  13 H :   -0.019774
  14 H :   -0.582460
  15 H :   -0.610420
  16 H :   -0.075547
  17 H :    0.109315
  18 H :   -0.075547
  19 H :   -0.610420
  20 H :   -0.582460
Sum of atomic charges:    0.0000000

LOEWDIN ATOMIC CHARGES
----------------------
   0 C :    0.088019
   1 S :    0.928980
   2 O :   -0.395756
   3 O :   -0.395756
   4 C :   -0.262543
   5 C :    0.020720
   6 C :    0.053186
   7 C :   -0.201233
   8 C :    0.182777
   9 C :    0.053186
  10 C :    0.020720
  11 H :   -0.033051
  12 H :   -0.029971
  13 H :   -0.033051
  14 H :    0.004890
  15 H :    0.008854
  16 H :   -0.010820
  17 H :   -0.002074
  18 H :   -0.010820
  19 H :    0.008854
  20 H :    0.004890

  Mayer bond orders larger than 0.100000
B(  0-C ,  1-S ) :   0.9221 B(  0-C ,  2-O ) :   0.1908 B(  0-C ,  3-O ) :   0.1908
B(  0-C ,  4-C ) :  -0.1942 B(  0-C , 11-H ) :   0.9627 B(  0-C , 12-H ) :   0.9629
B(  0-C , 13-H ) :   0.9627 B(  1-S ,  2-O ) :   0.6050 B(  1-S ,  3-O ) :   0.6050
B(  1-S ,  4-C ) :   1.0691 B(  1-S ,  5-C ) :  -0.1508 B(  1-S , 10-C ) :  -0.1508
B(  2-O ,  3-O ) :   0.1089 B(  2-O ,  4-C ) :   0.1883 B(  2-O ,  5-C ) :  -0.1993
B(  2-O , 10-C ) :   0.1373 B(  3-O ,  4-C ) :   0.1883 B(  3-O ,  5-C ) :   0.1373
B(  3-O , 10-C ) :  -0.1993 B(  4-C ,  5-C ) :   1.1887 B(  4-C ,  6-C ) :  -0.2747
B(  4-C ,  7-C ) :   0.5219 B(  4-C ,  9-C ) :  -0.2747 B(  4-C , 10-C ) :   1.1887
B(  4-C , 11-H ) :  -0.1652 B(  4-C , 13-H ) :  -0.1652 B(  4-C , 14-H ) :   0.6413
B(  4-C , 15-H ) :  -0.2341 B(  4-C , 19-H ) :  -0.2341 B(  4-C , 20-H ) :   0.6413
B(  5-C ,  6-C ) :   2.1974 B(  5-C ,  7-C ) :  -0.4725 B(  5-C ,  8-C ) :   0.4490
B(  5-C , 10-C ) :   0.1836 B(  5-C , 11-H ) :   0.1169 B(  5-C , 14-H ) :  -0.1747
B(  5-C , 15-H ) :   0.4349 B(  6-C ,  7-C ) :   1.9705 B(  6-C ,  8-C ) :  -0.6612
B(  6-C ,  9-C ) :  -0.4016 B(  6-C , 14-H ) :   0.2279 B(  6-C , 15-H ) :  -0.4596
B(  6-C , 18-H ) :  -0.1428 B(  7-C ,  8-C ) :   1.6659 B(  7-C ,  9-C ) :   1.9705
B(  7-C , 10-C ) :  -0.4725 B(  7-C , 14-H ) :  -0.1473 B(  7-C , 15-H ) :   0.7000
B(  7-C , 16-H ) :   0.4512 B(  7-C , 17-H ) :   0.2629 B(  7-C , 18-H ) :   0.4512
B(  7-C , 19-H ) :   0.7000 B(  7-C , 20-H ) :  -0.1473 B(  8-C ,  9-C ) :  -0.6612
B(  8-C , 10-C ) :   0.4490 B(  8-C , 16-H ) :   0.6772 B(  8-C , 17-H ) :   0.8618
B(  8-C , 18-H ) :   0.6772 B(  9-C , 10-C ) :   2.1974 B(  9-C , 16-H ) :  -0.1428
B(  9-C , 19-H ) :  -0.4596 B(  9-C , 20-H ) :   0.2279 B( 10-C , 13-H ) :   0.1169
B( 10-C , 19-H ) :   0.4349 B( 10-C , 20-H ) :  -0.1747

MP2 TOTAL ENERGY:     -857.667489873 Eh
FINAL SINGLE POINT ENERGY      -857.667489873376

DIPOLE MOMENT
-------------
                                X             Y             Z
Electronic contribution:      3.73332      -9.43973      -0.00000
Nuclear contribution   :     -5.30325      11.31153       0.00000
                        -----------------------------------------
Total Dipole Moment    :     -1.56993       1.87180      -0.00000
                        -----------------------------------------
Magnitude (a.u.)       :      2.44301
Magnitude (Debye)      :      6.20965

Rotational constants in cm-1:     0.082992     0.018455     0.016930
Rotational constants in MHz :  2488.050880   553.278764   507.555718

                             ****ORCA TERMINATED NORMALLY****
TOTAL RUN TIME: 0 days 0 hours 2 minutes 30 seconds 985 msec
