                         Program Version 5.0.3 -  RELEASE  -
|  1> !ri-mp2 aug-cc-pvdz aug-cc-pvdz/c tightscf
|  2> %pal nprocs 16 end
|  3>
|  4> * xyz 0 1
|  5> C      0.000000    0.513378    0.000000
|  6> C      1.126362    1.500699    0.000000
|  7> C     -0.434875   -1.838472    0.000000
|  8> N     -1.214300    0.871560    0.000000
|  9> O      0.493529   -0.759900    0.000000
| 10> H      1.755164    1.352520    0.878602
| 11> H      1.755164    1.352520   -0.878602
| 12> H      0.727889    2.509956    0.000000
| 13> H      0.161301   -2.746313    0.000000
| 14> H     -1.064794   -1.818499   -0.892116
| 15> H     -1.064794   -1.818499    0.892116
| 16> H     -1.866987    0.092961    0.000000
| 17> *
| 18>
| 19>                          ****END OF INPUT****

CARTESIAN COORDINATES (ANGSTROEM)
---------------------------------
  C      0.000000    0.513378    0.000000
  C      1.126362    1.500699    0.000000
  C     -0.434875   -1.838472    0.000000
  N     -1.214300    0.871560    0.000000
  O      0.493529   -0.759900    0.000000
  H      1.755164    1.352520    0.878602
  H      1.755164    1.352520   -0.878602
  H      0.727889    2.509956    0.000000
  H      0.161301   -2.746313    0.000000
  H     -1.064794   -1.818499   -0.892116
  H     -1.064794   -1.818499    0.892116
  H     -1.866987    0.092961    0.000000

 Total Charge           Charge          ....    0
 Multiplicity           Mult            ....    1
 Number of Electrons    NEL             ....   40
 Basis Dimension        Dim             ....  178

ORBITAL ENERGIES
----------------

  NO   OCC          E(Eh)            E(eV)
   0   2.0000     -20.606336      -560.7269
   1   2.0000     -15.543124      -422.9499
   2   2.0000     -11.346752      -308.7608
   3   2.0000     -11.300255      -307.4956
   4   2.0000     -11.233462      -305.6780
   5   2.0000      -1.429684       -38.9037
   6   2.0000      -1.196828       -32.5673
   7   2.0000      -1.019606       -27.7449
   8   2.0000      -0.947039       -25.7702
   9   2.0000      -0.768697       -20.9173
  10   2.0000      -0.721265       -19.6266
  11   2.0000      -0.668519       -18.1913
  12   2.0000      -0.661018       -17.9872
  13   2.0000      -0.582083       -15.8393
  14   2.0000      -0.566358       -15.4114
  15   2.0000      -0.547222       -14.8907
  16   2.0000      -0.522586       -14.2203
  17   2.0000      -0.501959       -13.6590
  18   2.0000      -0.433096       -11.7852
  19   2.0000      -0.404235       -10.9998
  20   0.0000       0.032993         0.8978
  21   0.0000       0.045935         1.2499
  22   0.0000       0.050646         1.3782
  23   0.0000       0.053794         1.4638
  24   0.0000       0.070439         1.9167

MULLIKEN ATOMIC CHARGES
-----------------------
   0 C :    0.612629
   1 C :    0.364723
   2 C :    0.848445
   3 N :   -0.474692
   4 O :   -0.912201
   5 H :    0.025473
   6 H :    0.025473
   7 H :   -0.045355
   8 H :   -0.294569
   9 H :   -0.073463
  10 H :   -0.073463
  11 H :   -0.002999
Sum of atomic charges:   -0.0000000

LOEWDIN ATOMIC CHARGES
----------------------
   0 C :   -0.360873
   1 C :    0.189894
   2 C :    0.161252
   3 N :    0.165830
   4 O :    0.034861
   5 H :   -0.007243
   6 H :   -0.007243
   7 H :   -0.010143
   8 H :   -0.023597
   9 H :   -0.015996
  10 H :   -0.015996
  11 H :   -0.110745

  Mayer bond orders larger than 0.100000
B(  0-C ,  1-C ) :   1.1973 B(  0-C ,  3-N ) :   1.7105 B(  0-C ,  4-O ) :   0.4905
B(  0-C ,  7-H ) :   0.1711 B(  1-C ,  4-O ) :   0.1557 B(  1-C ,  5-H ) :   0.9267
B(  1-C ,  6-H ) :   0.9267 B(  1-C ,  7-H ) :   0.8250 B(  2-C ,  4-O ) :   0.6096
B(  2-C ,  8-H ) :   1.0503 B(  2-C ,  9-H ) :   0.9612 B(  2-C , 10-H ) :   0.9612
B(  3-N , 11-H ) :   1.0114

MP2 TOTAL ENERGY:     -247.815648764 Eh
FINAL SINGLE POINT ENERGY      -247.815648764322

DIPOLE MOMENT
-------------
                                X             Y             Z
Electronic contribution:     -0.20181       0.25122      -0.00000
Nuclear contribution   :      0.41479      -1.11224       0.00000
                        -----------------------------------------
Total Dipole Moment    :      0.21298      -0.86102      -0.00000
                        -----------------------------------------
Magnitude (a.u.)       :      0.88697
Magnitude (Debye)      :      2.25451

Rotational constants in cm-1:     0.322276     0.136353     0.099385
Rotational constants in MHz :  9661.587376  4087.745578  2979.489040

                             ****ORCA TERMINATED NORMALLY****
TOTAL RUN TIME: 0 days 0 hours 0 minutes 37 seconds 248 msec
