                         Program Version 5.0.3 -  RELEASE  -
|  1> !ri-mp2 aug-cc-pvdz aug-cc-pvdz/c tightscf
|  2> %pal nprocs 16 end
|  3>
|  4> * xyz 0 1
|  5> C      0.000000    0.000000    0.731800
|  6> C      0.000000    1.274009   -0.097804
|  7> C      0.000000   -1.274009   -0.097804
|  8> Cl     0.132799    2.700697    0.986148
|  9> Cl    -1.483724    1.397852   -1.115518
| 10> Cl     1.483724   -1.397852   -1.115518
| 11> Cl    -0.132799   -2.700697    0.986148
| 12> H     -0.881449   -0.008441    1.372394
| 13> H      0.881449    0.008441    1.372394
| 14> H      0.836615    1.328750   -0.781690
| 15> H     -0.836615   -1.328750   -0.781690
| 16> *
| 17>
| 18>                          ****END OF INPUT****

CARTESIAN COORDINATES (ANGSTROEM)
---------------------------------
  C      0.000000    0.000000    0.731800
  C      0.000000    1.274009   -0.097804
  C      0.000000   -1.274009   -0.097804
  Cl     0.132799    2.700697    0.986148
  Cl    -1.483724    1.397852   -1.115518
  Cl     1.483724   -1.397852   -1.115518
  Cl    -0.132799   -2.700697    0.986148
  H     -0.881449   -0.008441    1.372394
  H      0.881449    0.008441    1.372394
  H      0.836615    1.328750   -0.781690
  H     -0.836615   -1.328750   -0.781690

 Total Charge           Charge          ....    0
 Multiplicity           Mult            ....    1
 Number of Electrons    NEL             ....   90
 Basis Dimension        Dim             ....  213

ORBITAL ENERGIES
----------------

  NO   OCC          E(Eh)            E(eV)
   0   2.0000    -104.857326     -2853.3129
   1   2.0000    -104.857325     -2853.3129
   2   2.0000    -104.856861     -2853.3003
   3   2.0000    -104.856861     -2853.3003
   4   2.0000     -11.393059      -310.0209
   5   2.0000     -11.393051      -310.0207
   6   2.0000     -11.294643      -307.3429
   7   2.0000     -10.583442      -287.9901
   8   2.0000     -10.583436      -287.9899
   9   2.0000     -10.582832      -287.9735
  10   2.0000     -10.582830      -287.9734
  11   2.0000      -8.051039      -219.0799
  12   2.0000      -8.051039      -219.0799
  13   2.0000      -8.050478      -219.0646
  14   2.0000      -8.050478      -219.0646
  15   2.0000      -8.047788      -218.9914
  16   2.0000      -8.047788      -218.9914
  17   2.0000      -8.047649      -218.9877
  18   2.0000      -8.047649      -218.9877
  19   2.0000      -8.047111      -218.9730
  20   2.0000      -8.047111      -218.9730
  21   2.0000      -8.047032      -218.9709
  22   2.0000      -8.047031      -218.9709
  23   2.0000      -1.229866       -33.4664
  24   2.0000      -1.194410       -32.5016
  25   2.0000      -1.106650       -30.1135
  26   2.0000      -1.105052       -30.0700
  27   2.0000      -1.046432       -28.4748
  28   2.0000      -0.897197       -24.4140
  29   2.0000      -0.835252       -22.7284
  30   2.0000      -0.711389       -19.3579
  31   2.0000      -0.648557       -17.6481
  32   2.0000      -0.647951       -17.6316
  33   2.0000      -0.630648       -17.1608
  34   2.0000      -0.576079       -15.6759
  35   2.0000      -0.565812       -15.3965
  36   2.0000      -0.546894       -14.8818
  37   2.0000      -0.492872       -13.4117
  38   2.0000      -0.487470       -13.2647
  39   2.0000      -0.478573       -13.0226
  40   2.0000      -0.477496       -12.9933
  41   2.0000      -0.464218       -12.6320
  42   2.0000      -0.455641       -12.3986
  43   2.0000      -0.454208       -12.3596
  44   2.0000      -0.449614       -12.2346
  45   0.0000       0.043083         1.1724
  46   0.0000       0.049494         1.3468
  47   0.0000       0.051961         1.4139
  48   0.0000       0.062765         1.7079
  49   0.0000       0.075045         2.0421

MULLIKEN ATOMIC CHARGES
-----------------------
   0 C :    0.820593
   1 C :   -0.438577
   2 C :   -0.438577
   3 Cl:   -0.034531
   4 Cl:   -0.077226
   5 Cl:   -0.077226
   6 Cl:   -0.034531
   7 H :    0.030846
   8 H :    0.030846
   9 H :    0.109192
  10 H :    0.109192
Sum of atomic charges:    0.0000000

LOEWDIN ATOMIC CHARGES
----------------------
   0 C :   -0.228698
   1 C :   -0.826306
   2 C :   -0.826306
   3 Cl:    0.500905
   4 Cl:    0.500684
   5 Cl:    0.500684
   6 Cl:    0.500905
   7 H :    0.009693
   8 H :    0.009693
   9 H :   -0.070627
  10 H :   -0.070627

  Mayer bond orders larger than 0.100000
B(  0-C ,  1-C ) :   1.0456 B(  0-C ,  2-C ) :   1.0456 B(  0-C ,  3-Cl) :  -0.1238
B(  0-C ,  6-Cl) :  -0.1238 B(  0-C ,  7-H ) :   0.8901 B(  0-C ,  8-H ) :   0.8901
B(  1-C ,  3-Cl) :   1.2439 B(  1-C ,  4-Cl) :   1.1716 B(  1-C ,  9-H ) :   0.9240
B(  2-C ,  5-Cl) :   1.1716 B(  2-C ,  6-Cl) :   1.2439 B(  2-C , 10-H ) :   0.9240

MP2 TOTAL ENERGY:    -1954.996849315 Eh
FINAL SINGLE POINT ENERGY     -1954.996849314702

DIPOLE MOMENT
-------------
                                X             Y             Z
Electronic contribution:      0.00000       0.00000      -1.37453
Nuclear contribution   :     -0.00000       0.00000       1.44195
                        -----------------------------------------
Total Dipole Moment    :      0.00000       0.00000       0.06742
                        -----------------------------------------
Magnitude (a.u.)       :      0.06742
Magnitude (Debye)      :      0.17137

Rotational constants in cm-1:     0.055473     0.019634     0.018889
Rotational constants in MHz :  1663.034425   588.612977   566.290731

                             ****ORCA TERMINATED NORMALLY****
TOTAL RUN TIME: 0 days 0 hours 0 minutes 44 seconds 393 msec
