                         Program Version 5.0.3 -  RELEASE  -
|  1> !ri-mp2 aug-cc-pvdz aug-cc-pvdz/c tightscf
|  2> %pal nprocs 16 end
|  3>
|  4> * xyz 0 1
|  5> C     -0.718665   -1.555127    0.000000
|  6> C     -2.163694    0.226359    0.000000
|  7> C      0.315607   -0.659942    0.000000
|  8> C      0.000000    0.695721    0.000000
|  9> C      2.228992    0.497352    0.000000
| 10> N     -1.985417   -1.080489    0.000000
| 11> N     -1.205174    1.183491    0.000000
| 12> O      1.668909   -0.830309    0.000000
| 13> O      1.140201    1.432865    0.000000
| 14> H     -0.576224   -2.627468    0.000000
| 15> H     -3.184942    0.584348    0.000000
| 16> H      2.824495    0.637742    0.902050
| 17> H      2.824495    0.637742   -0.902050
| 18> *
| 19>
| 20>                          ****END OF INPUT****

CARTESIAN COORDINATES (ANGSTROEM)
---------------------------------
  C     -0.718665   -1.555127    0.000000
  C     -2.163694    0.226359    0.000000
  C      0.315607   -0.659942    0.000000
  C      0.000000    0.695721    0.000000
  C      2.228992    0.497352    0.000000
  N     -1.985417   -1.080489    0.000000
  N     -1.205174    1.183491    0.000000
  O      1.668909   -0.830309    0.000000
  O      1.140201    1.432865    0.000000
  H     -0.576224   -2.627468    0.000000
  H     -3.184942    0.584348    0.000000
  H      2.824495    0.637742    0.902050
  H      2.824495    0.637742   -0.902050

 Total Charge           Charge          ....    0
 Multiplicity           Mult            ....    1
 Number of Electrons    NEL             ....   64
 Basis Dimension        Dim             ....  243

ORBITAL ENERGIES
----------------

  NO   OCC          E(Eh)            E(eV)
   0   2.0000     -20.639912      -561.6405
   1   2.0000     -20.632711      -561.4446
   2   2.0000     -15.591836      -424.2754
   3   2.0000     -15.583675      -424.0534
   4   2.0000     -11.386487      -309.8421
   5   2.0000     -11.371789      -309.4421
   6   2.0000     -11.325880      -308.1929
   7   2.0000     -11.321430      -308.0718
   8   2.0000     -11.308201      -307.7118
   9   2.0000      -1.511212       -41.1222
  10   2.0000      -1.408733       -38.3336
  11   2.0000      -1.323653       -36.0184
  12   2.0000      -1.207468       -32.8569
  13   2.0000      -1.086714       -29.5710
  14   2.0000      -0.962123       -26.1807
  15   2.0000      -0.908184       -24.7129
  16   2.0000      -0.897361       -24.4184
  17   2.0000      -0.768340       -20.9076
  18   2.0000      -0.750376       -20.4188
  19   2.0000      -0.741849       -20.1867
  20   2.0000      -0.705311       -19.1925
  21   2.0000      -0.648294       -17.6410
  22   2.0000      -0.615373       -16.7452
  23   2.0000      -0.605585       -16.4788
  24   2.0000      -0.599151       -16.3037
  25   2.0000      -0.590903       -16.0793
  26   2.0000      -0.579158       -15.7597
  27   2.0000      -0.513032       -13.9603
  28   2.0000      -0.489475       -13.3193
  29   2.0000      -0.426702       -11.6112
  30   2.0000      -0.421358       -11.4657
  31   2.0000      -0.343185        -9.3385
  32   0.0000       0.031392         0.8542
  33   0.0000       0.041727         1.1355
  34   0.0000       0.048205         1.3117
  35   0.0000       0.048363         1.3160
  36   0.0000       0.076592         2.0842

MULLIKEN ATOMIC CHARGES
-----------------------
   0 C :    0.937235
   1 C :    0.719613
   2 C :    0.663516
   3 C :    0.875733
   4 C :    1.208052
   5 N :   -0.755946
   6 N :   -0.720649
   7 O :   -1.097631
   8 O :   -0.977591
   9 H :   -0.267142
  10 H :   -0.221943
  11 H :   -0.181624
  12 H :   -0.181624
Sum of atomic charges:   -0.0000000

LOEWDIN ATOMIC CHARGES
----------------------
   0 C :    0.045447
   1 C :   -0.061087
   2 C :   -0.165343
   3 C :   -0.226985
   4 C :    0.093098
   5 N :    0.027955
   6 N :    0.092795
   7 O :    0.066536
   8 O :    0.095052
   9 H :    0.013369
  10 H :    0.001477
  11 H :    0.008843
  12 H :    0.008843

  Mayer bond orders larger than 0.100000
B(  0-C ,  1-C ) :  -0.1134 B(  0-C ,  2-C ) :   1.5826 B(  0-C ,  3-C ) :   0.3498
B(  0-C ,  5-N ) :   1.0618 B(  0-C ,  9-H ) :   0.4996 B(  1-C ,  3-C ) :  -0.1126
B(  1-C ,  5-N ) :   1.4870 B(  1-C ,  6-N ) :   1.1939 B(  1-C , 10-H ) :   0.9731
B(  2-C ,  3-C ) :   1.0451 B(  2-C ,  7-O ) :   0.1162 B(  2-C ,  8-O ) :   0.1537
B(  2-C ,  9-H ) :   0.2472 B(  3-C ,  6-N ) :   1.3367 B(  3-C ,  7-O ) :   0.1506
B(  3-C ,  8-O ) :   0.2459 B(  3-C , 10-H ) :   0.1040 B(  4-C ,  7-O ) :   0.7683
B(  4-C ,  8-O ) :   0.7798 B(  4-C , 11-H ) :   0.9719 B(  4-C , 12-H ) :   0.9719

MP2 TOTAL ENERGY:     -451.700446694 Eh
FINAL SINGLE POINT ENERGY      -451.700446693919

DIPOLE MOMENT
-------------
                                X             Y             Z
Electronic contribution:     -0.78152       0.48182       0.00000
Nuclear contribution   :      1.85321      -0.73371       0.00000
                        -----------------------------------------
Total Dipole Moment    :      1.07169      -0.25189       0.00000
                        -----------------------------------------
Magnitude (a.u.)       :      1.10090
Magnitude (Debye)      :      2.79825

Rotational constants in cm-1:     0.134160     0.056171     0.039901
Rotational constants in MHz :  4022.025579  1683.965400  1196.207185

                             ****ORCA TERMINATED NORMALLY****
TOTAL RUN TIME: 0 days 0 hours 0 minutes 59 seconds 362 msec
