                         Program Version 5.0.3 -  RELEASE  -
|  1> !ri-mp2 aug-cc-pvdz aug-cc-pvdz/c tightscf
|  2> %pal nprocs 16 end
|  3> %maxcore 3800
|  4>
|  5> * xyz 0 1
|  6> C      0.001554    0.695598    2.566237
|  7> C     -0.001554   -0.695598    2.566237
|  8> C      0.001554    1.377725    1.359666
|  9> C     -0.001554   -1.377725    1.359666
| 10> C     -0.000611    0.700261    0.137630
| 11> C      0.000611   -0.700261    0.137630
| 12> C     -0.033424    1.492200   -1.154152
| 13> C      0.033424   -1.492200   -1.154152
| 14> C      0.363799    0.671723   -2.381520
| 15> C     -0.363799   -0.671723   -2.381520
| 16> H      0.004381    1.242851    3.499649
| 17> H     -0.004381   -1.242851    3.499649
| 18> H      0.004118    2.461556    1.357812
| 19> H     -0.004118   -2.461556    1.357812
| 20> H     -1.048027    1.879885   -1.300277
| 21> H      0.609583    2.369836   -1.057795
| 22> H      1.048027   -1.879885   -1.300277
| 23> H     -0.609583   -2.369836   -1.057795
| 24> H      0.142317    1.233423   -3.290989
| 25> H      1.444186    0.496649   -2.375566
| 26> H     -0.142317   -1.233423   -3.290989
| 27> H     -1.444186   -0.496649   -2.375566
| 28> *
| 29>
| 30>                          ****END OF INPUT****

CARTESIAN COORDINATES (ANGSTROEM)
---------------------------------
  C      0.001554    0.695598    2.566237
  C     -0.001554   -0.695598    2.566237
  C      0.001554    1.377725    1.359666
  C     -0.001554   -1.377725    1.359666
  C     -0.000611    0.700261    0.137630
  C      0.000611   -0.700261    0.137630
  C     -0.033424    1.492200   -1.154152
  C      0.033424   -1.492200   -1.154152
  C      0.363799    0.671723   -2.381520
  C     -0.363799   -0.671723   -2.381520
  H      0.004381    1.242851    3.499649
  H     -0.004381   -1.242851    3.499649
  H      0.004118    2.461556    1.357812
  H     -0.004118   -2.461556    1.357812
  H     -1.048027    1.879885   -1.300277
  H      0.609583    2.369836   -1.057795
  H      1.048027   -1.879885   -1.300277
  H     -0.609583   -2.369836   -1.057795
  H      0.142317    1.233423   -3.290989
  H      1.444186    0.496649   -2.375566
  H     -0.142317   -1.233423   -3.290989
  H     -1.444186   -0.496649   -2.375566

 Total Charge           Charge          ....    0
 Multiplicity           Mult            ....    1
 Number of Electrons    NEL             ....   72
 Basis Dimension        Dim             ....  338

ORBITAL ENERGIES
----------------

  NO   OCC          E(Eh)            E(eV)
   0   2.0000     -11.236695      -305.7660
   1   2.0000     -11.235534      -305.7344
   2   2.0000     -11.231469      -305.6238
   3   2.0000     -11.230444      -305.5959
   4   2.0000     -11.229238      -305.5631
   5   2.0000     -11.229228      -305.5628
   6   2.0000     -11.229161      -305.5610
   7   2.0000     -11.228999      -305.5566
   8   2.0000     -11.225557      -305.4629
   9   2.0000     -11.224952      -305.4465
  10   2.0000      -1.162417       -31.6310
  11   2.0000      -1.093664       -29.7601
  12   2.0000      -1.039658       -28.2905
  13   2.0000      -1.004048       -27.3215
  14   2.0000      -0.972202       -26.4550
  15   2.0000      -0.864788       -23.5321
  16   2.0000      -0.828861       -22.5545
  17   2.0000      -0.813537       -22.1375
  18   2.0000      -0.749783       -20.4026
  19   2.0000      -0.680589       -18.5198
  20   2.0000      -0.644759       -17.5448
  21   2.0000      -0.639416       -17.3994
  22   2.0000      -0.607501       -16.5309
  23   2.0000      -0.588264       -16.0075
  24   2.0000      -0.587514       -15.9871
  25   2.0000      -0.561500       -15.2792
  26   2.0000      -0.537747       -14.6328
  27   2.0000      -0.534978       -14.5575
  28   2.0000      -0.519847       -14.1458
  29   2.0000      -0.493904       -13.4398
  30   2.0000      -0.471319       -12.8252
  31   2.0000      -0.469853       -12.7853
  32   2.0000      -0.448306       -12.1990
  33   2.0000      -0.443537       -12.0693
  34   2.0000      -0.324291        -8.8244
  35   2.0000      -0.315455        -8.5840
  36   0.0000       0.036258         0.9866
  37   0.0000       0.038684         1.0526
  38   0.0000       0.039799         1.0830
  39   0.0000       0.048928         1.3314
  40   0.0000       0.052433         1.4268

MULLIKEN ATOMIC CHARGES
-----------------------
   0 C :    0.077751
   1 C :    0.077751
   2 C :    0.294816
   3 C :    0.294817
   4 C :    0.240675
   5 C :    0.240675
   6 C :    0.077322
   7 C :    0.077322
   8 C :    0.626154
   9 C :    0.626154
  10 H :   -0.471166
  11 H :   -0.471166
  12 H :   -0.679562
  13 H :   -0.679562
  14 H :    0.109441
  15 H :   -0.008114
  16 H :    0.109441
  17 H :   -0.008114
  18 H :   -0.075191
  19 H :   -0.192126
  20 H :   -0.075191
  21 H :   -0.192126
Sum of atomic charges:    0.0000000

LOEWDIN ATOMIC CHARGES
----------------------
   0 C :    0.004878
   1 C :    0.004878
   2 C :    0.042627
   3 C :    0.042627
   4 C :   -0.131888
   5 C :   -0.131888
   6 C :    0.012094
   7 C :    0.012094
   8 C :   -0.016686
   9 C :   -0.016686
  10 H :   -0.001915
  11 H :   -0.001915
  12 H :    0.006740
  13 H :    0.006740
  14 H :    0.026468
  15 H :    0.019760
  16 H :    0.026468
  17 H :    0.019760
  18 H :    0.016145
  19 H :    0.021775
  20 H :    0.016145
  21 H :    0.021775

  Mayer bond orders larger than 0.100000
B(  0-C ,  1-C ) :   1.9784 B(  0-C ,  2-C ) :   1.8595 B(  0-C ,  3-C ) :   0.1593
B(  0-C ,  4-C ) :  -0.1932 B(  0-C ,  5-C ) :  -0.1836 B(  0-C ,  6-C ) :   0.3568
B(  0-C , 10-H ) :   0.1716 B(  0-C , 11-H ) :   0.2122 B(  0-C , 12-H ) :   0.4032
B(  0-C , 13-H ) :  -0.1470 B(  1-C ,  2-C ) :   0.1593 B(  1-C ,  3-C ) :   1.8595
B(  1-C ,  4-C ) :  -0.1836 B(  1-C ,  5-C ) :  -0.1932 B(  1-C ,  7-C ) :   0.3568
B(  1-C , 10-H ) :   0.2122 B(  1-C , 11-H ) :   0.1716 B(  1-C , 12-H ) :  -0.1470
B(  1-C , 13-H ) :   0.4032 B(  2-C ,  3-C ) :   0.4444 B(  2-C ,  4-C ) :   1.0989
B(  2-C ,  5-C ) :  -1.2021 B(  2-C ,  6-C ) :  -0.6576 B(  2-C ,  7-C ) :   0.2126
B(  2-C , 10-H ) :   0.2877 B(  2-C , 12-H ) :  -0.6771 B(  2-C , 13-H ) :   0.1194
B(  2-C , 14-H ) :  -0.1389 B(  2-C , 15-H ) :  -0.2000 B(  3-C ,  4-C ) :  -1.2021
B(  3-C ,  5-C ) :   1.0989 B(  3-C ,  6-C ) :   0.2126 B(  3-C ,  7-C ) :  -0.6576
B(  3-C , 11-H ) :   0.2877 B(  3-C , 12-H ) :   0.1194 B(  3-C , 13-H ) :  -0.6771
B(  3-C , 16-H ) :  -0.1389 B(  3-C , 17-H ) :  -0.2000 B(  4-C ,  5-C ) :   2.1542
B(  4-C ,  6-C ) :   1.2821 B(  4-C ,  7-C ) :  -0.3513 B(  4-C , 10-H ) :   0.1070
B(  4-C , 12-H ) :   0.9603 B(  4-C , 13-H ) :  -0.1764 B(  4-C , 14-H ) :   0.3435
B(  4-C , 15-H ) :   0.6005 B(  4-C , 16-H ) :   0.1303 B(  5-C ,  6-C ) :  -0.3513
B(  5-C ,  7-C ) :   1.2821 B(  5-C , 11-H ) :   0.1070 B(  5-C , 12-H ) :  -0.1764
B(  5-C , 13-H ) :   0.9603 B(  5-C , 14-H ) :   0.1303 B(  5-C , 16-H ) :   0.3435
B(  5-C , 17-H ) :   0.6005 B(  6-C ,  8-C ) :   1.1357 B(  6-C , 12-H ) :   0.1271
B(  6-C , 14-H ) :   0.7273 B(  6-C , 15-H ) :   0.4814 B(  6-C , 21-H ) :   0.1279
B(  7-C ,  9-C ) :   1.1357 B(  7-C , 13-H ) :   0.1271 B(  7-C , 16-H ) :   0.7273
B(  7-C , 17-H ) :   0.4814 B(  7-C , 19-H ) :   0.1279 B(  8-C ,  9-C ) :   1.2059
B(  8-C , 18-H ) :   0.7106 B(  8-C , 19-H ) :   0.8262 B(  9-C , 20-H ) :   0.7106
B(  9-C , 21-H ) :   0.8262 B( 14-H , 15-H ) :  -0.1465 B( 16-H , 17-H ) :  -0.1465
B( 18-H , 19-H ) :  -0.1337 B( 20-H , 21-H ) :  -0.1337

MP2 TOTAL ENERGY:     -387.118347609 Eh
FINAL SINGLE POINT ENERGY      -387.118347608888

DIPOLE MOMENT
-------------
                                X             Y             Z
Electronic contribution:     -0.00000      -0.00000       6.16866
Nuclear contribution   :      0.00000      -0.00000      -6.47880
                        -----------------------------------------
Total Dipole Moment    :     -0.00000      -0.00000      -0.31014
                        -----------------------------------------
Magnitude (a.u.)       :      0.31014
Magnitude (Debye)      :      0.78832

Rotational constants in cm-1:     0.093093     0.037585     0.027674
Rotational constants in MHz :  2790.870361  1126.782182   829.651414

                             ****ORCA TERMINATED NORMALLY****
TOTAL RUN TIME: 0 days 0 hours 1 minutes 56 seconds 943 msec
