                         Program Version 5.0.3 -  RELEASE  -
|  1> !ri-mp2 aug-cc-pvdz aug-cc-pvdz/c tightscf
|  2> %pal nprocs 16 end
|  3>
|  4> * xyz 0 1
|  5> C      0.728933   -1.997108        0.000000
|  6> N     -0.543008   -1.810437        0.000000
|  7> C     -0.914571   -0.487179        0.000000
|  8> C      0.000000    0.605212        0.000000
|  9> C     -0.793070    1.736321        0.000000
| 10> N     -2.058612    1.279355        0.000000
| 11> N     -2.176192   -0.065847        0.000000
| 12> N      1.685510   -1.008834        0.000000
| 13> C      1.424753    0.375734        0.000000
| 14> H      1.120457   -3.007750        0.000000
| 15> O      2.329973    1.187587        0.000000
| 16> H     -0.552002    2.784573        0.000000
| 17> H      2.661361   -1.265449        0.000000
| 18> H     -2.899755    1.830394        0.000000
| 19> *
| 20>
| 21>                          ****END OF INPUT****

CARTESIAN COORDINATES (ANGSTROEM)
---------------------------------
  C      0.728933   -1.997108    0.000000
  N     -0.543008   -1.810437    0.000000
  C     -0.914571   -0.487179    0.000000
  C      0.000000    0.605212    0.000000
  C     -0.793070    1.736321    0.000000
  N     -2.058612    1.279355    0.000000
  N     -2.176192   -0.065847    0.000000
  N      1.685510   -1.008834    0.000000
  C      1.424753    0.375734    0.000000
  H      1.120457   -3.007750    0.000000
  O      2.329973    1.187587    0.000000
  H     -0.552002    2.784573    0.000000
  H      2.661361   -1.265449    0.000000
  H     -2.899755    1.830394    0.000000

 Total Charge           Charge          ....    0
 Multiplicity           Mult            ....    1
 Number of Electrons    NEL             ....   70
 Basis Dimension        Dim             ....  266

ORBITAL ENERGIES
----------------

  NO   OCC          E(Eh)            E(eV)
   0   2.0000     -20.550087      -559.1963
   1   2.0000     -15.676349      -426.5752
   2   2.0000     -15.638614      -425.5483
   3   2.0000     -15.605268      -424.6409
   4   2.0000     -15.580382      -423.9638
   5   2.0000     -11.387912      -309.8808
   6   2.0000     -11.359842      -309.1170
   7   2.0000     -11.319743      -308.0259
   8   2.0000     -11.313502      -307.8560
   9   2.0000     -11.249767      -306.1217
  10   2.0000      -1.414464       -38.4895
  11   2.0000      -1.402019       -38.1509
  12   2.0000      -1.322785       -35.9948
  13   2.0000      -1.222630       -33.2695
  14   2.0000      -1.116684       -30.3865
  15   2.0000      -1.096658       -29.8416
  16   2.0000      -0.946229       -25.7482
  17   2.0000      -0.901376       -24.5277
  18   2.0000      -0.821457       -22.3530
  19   2.0000      -0.785073       -21.3629
  20   2.0000      -0.763237       -20.7687
  21   2.0000      -0.724411       -19.7122
  22   2.0000      -0.685807       -18.6618
  23   2.0000      -0.653911       -17.7938
  24   2.0000      -0.634324       -17.2608
  25   2.0000      -0.619355       -16.8535
  26   2.0000      -0.616314       -16.7708
  27   2.0000      -0.605190       -16.4681
  28   2.0000      -0.530664       -14.4401
  29   2.0000      -0.499461       -13.5910
  30   2.0000      -0.450114       -12.2482
  31   2.0000      -0.442983       -12.0542
  32   2.0000      -0.441938       -12.0257
  33   2.0000      -0.373878       -10.1737
  34   2.0000      -0.341057        -9.2806
  35   0.0000       0.027064         0.7365
  36   0.0000       0.029447         0.8013
  37   0.0000       0.050031         1.3614
  38   0.0000       0.057137         1.5548
  39   0.0000       0.068341         1.8597

MULLIKEN ATOMIC CHARGES
-----------------------
   0 C :    0.894143
   1 N :   -0.657804
   2 C :    0.494170
   3 C :    0.472194
   4 C :    1.127938
   5 N :   -0.515084
   6 N :   -0.688599
   7 N :   -0.615292
   8 C :    0.983896
   9 H :   -0.238379
  10 O :   -0.864256
  11 H :   -0.363089
  12 H :   -0.032468
  13 H :    0.002630
Sum of atomic charges:   -0.0000000

LOEWDIN ATOMIC CHARGES
----------------------
   0 C :    0.003649
   1 N :    0.077621
   2 C :   -0.268974
   3 C :   -0.096543
   4 C :    0.144973
   5 N :    0.032098
   6 N :    0.095887
   7 N :    0.149947
   8 C :   -0.284224
   9 H :    0.025387
  10 O :    0.028891
  11 H :    0.024933
  12 H :    0.031981
  13 H :    0.034374

  Mayer bond orders larger than 0.100000
B(  0-C ,  1-N ) :   1.7217 B(  0-C ,  2-C ) :  -0.1195 B(  0-C ,  7-N ) :   0.8235
B(  0-C ,  8-C ) :  -0.1096 B(  0-C ,  9-H ) :   1.0273 B(  0-C , 12-H ) :  -0.1427
B(  1-N ,  2-C ) :   0.8307 B(  2-C ,  3-C ) :   0.9957 B(  2-C ,  4-C ) :  -0.2386
B(  2-C ,  5-N ) :  -0.3076 B(  2-C ,  6-N ) :   1.2513 B(  2-C , 11-H ) :   0.1117
B(  3-C ,  4-C ) :   1.2024 B(  3-C ,  5-N ) :   0.1704 B(  3-C ,  8-C ) :   0.5656
B(  3-C , 11-H ) :   0.2687 B(  4-C ,  5-N ) :   1.0145 B(  4-C ,  6-N ) :  -0.1038
B(  4-C ,  8-C ) :  -0.2131 B(  4-C , 11-H ) :   0.2883 B(  4-C , 13-H ) :  -0.1172
B(  5-N ,  6-N ) :   1.0671 B(  5-N , 11-H ) :   0.1562 B(  5-N , 13-H ) :   1.1690
B(  6-N , 13-H ) :  -0.1421 B(  7-N ,  8-C ) :   0.7326 B(  7-N , 12-H ) :   1.1773
B(  8-C , 10-O ) :   1.2438

MP2 TOTAL ENERGY:     -485.919430186 Eh
FINAL SINGLE POINT ENERGY      -485.919430185811

DIPOLE MOMENT
-------------
                                X             Y             Z
Electronic contribution:     -0.28258      -0.07481      -0.00000
Nuclear contribution   :      0.33673       0.33907       0.00000
                        -----------------------------------------
Total Dipole Moment    :      0.05416       0.26426      -0.00000
                        -----------------------------------------
Magnitude (a.u.)       :      0.26976
Magnitude (Debye)      :      0.68567

Rotational constants in cm-1:     0.080709     0.050493     0.031061
Rotational constants in MHz :  2419.604036  1513.748634   931.183296

                             ****ORCA TERMINATED NORMALLY****
TOTAL RUN TIME: 0 days 0 hours 1 minutes 5 seconds 759 msec
