                         Program Version 5.0.3 -  RELEASE  -
|  1> !ri-mp2 aug-cc-pvdz aug-cc-pvdz/c tightscf
|  2> %pal nprocs 16 end
|  3>
|  4> * xyz 0 1
|  5> C      0.575831   -0.555754        0.000000
|  6> C      0.000000    0.742606        0.000000
|  7> C     -0.120645   -1.693322        0.000000
|  8> C     -0.451906    1.856856        0.000000
|  9> H      1.660286   -0.592176        0.000000
| 10> H      0.382293   -2.649906        0.000000
| 11> H     -1.201790   -1.696289        0.000000
| 12> H     -0.860469    2.836051        0.000000
| 13> *
| 14>
| 15>                          ****END OF INPUT****

CARTESIAN COORDINATES (ANGSTROEM)
---------------------------------
  C      0.575831   -0.555754    0.000000
  C      0.000000    0.742606    0.000000
  C     -0.120645   -1.693322    0.000000
  C     -0.451906    1.856856    0.000000
  H      1.660286   -0.592176    0.000000
  H      0.382293   -2.649906    0.000000
  H     -1.201790   -1.696289    0.000000
  H     -0.860469    2.836051    0.000000

 Total Charge           Charge          ....    0
 Multiplicity           Mult            ....    1
 Number of Electrons    NEL             ....   28
 Basis Dimension        Dim             ....  128

ORBITAL ENERGIES
----------------

  NO   OCC          E(Eh)            E(eV)
   0   2.0000     -11.269078      -306.6472
   1   2.0000     -11.255150      -306.2682
   2   2.0000     -11.248537      -306.0882
   3   2.0000     -11.239835      -305.8515
   4   2.0000      -1.097051       -29.8523
   5   2.0000      -1.010388       -27.4941
   6   2.0000      -0.846551       -23.0358
   7   2.0000      -0.724220       -19.7070
   8   2.0000      -0.675986       -18.3945
   9   2.0000      -0.625842       -17.0300
  10   2.0000      -0.542495       -14.7620
  11   2.0000      -0.467031       -12.7086
  12   2.0000      -0.398088       -10.8325
  13   2.0000      -0.346052        -9.4165
  14   0.0000       0.036396         0.9904
  15   0.0000       0.040686         1.1071
  16   0.0000       0.050408         1.3717
  17   0.0000       0.062104         1.6899
  18   0.0000       0.079306         2.1580

MULLIKEN ATOMIC CHARGES
-----------------------
   0 C :    0.650626
   1 C :   -0.384122
   2 C :    0.505048
   3 C :    0.654632
   4 H :   -0.402140
   5 H :   -0.266139
   6 H :   -0.288264
   7 H :   -0.469641
Sum of atomic charges:   -0.0000000

LOEWDIN ATOMIC CHARGES
----------------------
   0 C :   -0.111530
   1 C :   -0.123090
   2 C :    0.194967
   3 C :    0.214910
   4 H :   -0.002412
   5 H :   -0.036873
   6 H :   -0.030268
   7 H :   -0.105706

  Mayer bond orders larger than 0.100000
B(  0-C ,  1-C ) :   1.2797 B(  0-C ,  2-C ) :   1.7436 B(  0-C ,  4-H ) :   0.7596
B(  0-C ,  5-H ) :   0.1108 B(  0-C ,  7-H ) :   0.1155 B(  1-C ,  3-C ) :   2.8390
B(  1-C ,  7-H ) :   0.2062 B(  2-C ,  3-C ) :   0.1038 B(  2-C ,  5-H ) :   0.7804
B(  2-C ,  6-H ) :   0.9803 B(  3-C ,  7-H ) :   0.1751 B(  5-H ,  6-H ) :  -0.1678

MP2 TOTAL ENERGY:     -154.256094966 Eh
FINAL SINGLE POINT ENERGY      -154.256094965656

DIPOLE MOMENT
-------------
                                X             Y             Z
Electronic contribution:      0.03354       1.91483       0.00000
Nuclear contribution   :     -0.01987      -2.12291       0.00000
                        -----------------------------------------
Total Dipole Moment    :      0.01367      -0.20808       0.00000
                        -----------------------------------------
Magnitude (a.u.)       :      0.20853
Magnitude (Debye)      :      0.53005

Rotational constants in cm-1:     1.737002     0.158176     0.144974
Rotational constants in MHz : 52074.011402  4742.005242  4346.225758

                             ****ORCA TERMINATED NORMALLY****
TOTAL RUN TIME: 0 days 0 hours 0 minutes 31 seconds 818 msec
