                         Program Version 5.0.3 -  RELEASE  -
|  1> !ri-mp2 aug-cc-pvdz aug-cc-pvdz/c tightscf
|  2> %pal nprocs 16 end
|  3>
|  4> * xyz 0 1
|  5> C      0.000000    0.000000   -2.055605
|  6> C      0.000000    1.208669   -1.369465
|  7> C      0.000000    1.195102    0.013528
|  8> C      0.000000    0.000000    0.720519
|  9> C      0.000000   -1.195102    0.013528
| 10> C      0.000000   -1.208669   -1.369465
| 11> F      0.000000   -2.344755    0.704591
| 12> F      0.000000    0.000000    2.056059
| 13> F      0.000000    2.344755    0.704591
| 14> H      0.000000    0.000000   -3.135818
| 15> H      0.000000    2.157806   -1.884800
| 16> H      0.000000   -2.157806   -1.884800
| 17> *
| 18>
| 19>                          ****END OF INPUT****

CARTESIAN COORDINATES (ANGSTROEM)
---------------------------------
  C      0.000000    0.000000   -2.055605
  C      0.000000    1.208669   -1.369465
  C      0.000000    1.195102    0.013528
  C      0.000000    0.000000    0.720519
  C      0.000000   -1.195102    0.013528
  C      0.000000   -1.208669   -1.369465
  F      0.000000   -2.344755    0.704591
  F      0.000000    0.000000    2.056059
  F      0.000000    2.344755    0.704591
  H      0.000000    0.000000   -3.135818
  H      0.000000    2.157806   -1.884800
  H      0.000000   -2.157806   -1.884800

 Total Charge           Charge          ....    0
 Multiplicity           Mult            ....    1
 Number of Electrons    NEL             ....   66
 Basis Dimension        Dim             ....  234

ORBITAL ENERGIES
----------------

  NO   OCC          E(Eh)            E(eV)
   0   2.0000     -26.347643      -716.9558
   1   2.0000     -26.346100      -716.9138
   2   2.0000     -26.346100      -716.9138
   3   2.0000     -11.364761      -309.2509
   4   2.0000     -11.364559      -309.2454
   5   2.0000     -11.360993      -309.1483
   6   2.0000     -11.278757      -306.9106
   7   2.0000     -11.272228      -306.7329
   8   2.0000     -11.272099      -306.7294
   9   2.0000      -1.667040       -45.3625
  10   2.0000      -1.656001       -45.0621
  11   2.0000      -1.647345       -44.8265
  12   2.0000      -1.198552       -32.6143
  13   2.0000      -1.058422       -28.8011
  14   2.0000      -1.058422       -28.8011
  15   2.0000      -0.898566       -24.4512
  16   2.0000      -0.891390       -24.2560
  17   2.0000      -0.795974       -21.6595
  18   2.0000      -0.780705       -21.2441
  19   2.0000      -0.771052       -20.9814
  20   2.0000      -0.737540       -20.0695
  21   2.0000      -0.712601       -19.3909
  22   2.0000      -0.708881       -19.2896
  23   2.0000      -0.698895       -19.0179
  24   2.0000      -0.686393       -18.6777
  25   2.0000      -0.675474       -18.3806
  26   2.0000      -0.671275       -18.2663
  27   2.0000      -0.602348       -16.3907
  28   2.0000      -0.562273       -15.3002
  29   2.0000      -0.562162       -15.2972
  30   2.0000      -0.527118       -14.3436
  31   2.0000      -0.366580        -9.9751
  32   2.0000      -0.365232        -9.9385
  33   0.0000       0.029331         0.7981
  34   0.0000       0.040650         1.1061
  35   0.0000       0.049715         1.3528
  36   0.0000       0.079860         2.1731
  37   0.0000       0.090162         2.4534

MULLIKEN ATOMIC CHARGES
-----------------------
   0 C :    0.813135
   1 C :    0.086888
   2 C :    1.053345
   3 C :    0.452351
   4 C :    1.053345
   5 C :    0.086888
   6 F :   -0.812024
   7 F :   -0.729602
   8 F :   -0.812024
   9 H :   -0.416142
  10 H :   -0.388080
  11 H :   -0.388080
Sum of atomic charges:   -0.0000000

LOEWDIN ATOMIC CHARGES
----------------------
   0 C :    0.020970
   1 C :    0.054272
   2 C :   -0.153490
   3 C :   -0.121211
   4 C :   -0.153490
   5 C :    0.054272
   6 F :    0.084875
   7 F :    0.097182
   8 F :    0.084875
   9 H :    0.006135
  10 H :    0.012804
  11 H :    0.012804

  Mayer bond orders larger than 0.100000
B(  0-C ,  1-C ) :   1.6525 B(  0-C ,  5-C ) :   1.6525 B(  0-C ,  9-H ) :   0.3904
B(  1-C ,  2-C ) :   1.5680 B(  1-C ,  3-C ) :   0.2332 B(  1-C ,  5-C ) :   0.3347
B(  1-C ,  8-F ) :   0.2625 B(  1-C ,  9-H ) :   0.1839 B(  1-C , 10-H ) :   0.4892
B(  2-C ,  3-C ) :   1.3882 B(  2-C ,  4-C ) :  -0.1233 B(  2-C ,  7-F ) :   0.3240
B(  2-C ,  8-F ) :  -0.4318 B(  2-C , 10-H ) :   0.2106 B(  3-C ,  4-C ) :   1.3882
B(  3-C ,  5-C ) :   0.2332 B(  3-C ,  6-F ) :   0.3670 B(  3-C ,  7-F ) :  -0.5191
B(  3-C ,  8-F ) :   0.3670 B(  4-C ,  5-C ) :   1.5680 B(  4-C ,  6-F ) :  -0.4318
B(  4-C ,  7-F ) :   0.3240 B(  4-C , 11-H ) :   0.2106 B(  5-C ,  6-F ) :   0.2625
B(  5-C ,  9-H ) :   0.1839 B(  5-C , 11-H ) :   0.4892

MP2 TOTAL ENERGY:     -528.699651871 Eh
FINAL SINGLE POINT ENERGY      -528.699651870626

DIPOLE MOMENT
-------------
                                X             Y             Z
Electronic contribution:      0.00000      -0.00000       8.31446
Nuclear contribution   :      0.00000       0.00000      -9.69188
                        -----------------------------------------
Total Dipole Moment    :      0.00000      -0.00000      -1.37741
                        -----------------------------------------
Magnitude (a.u.)       :      1.37741
Magnitude (Debye)      :      3.50111

Rotational constants in cm-1:     0.077508     0.058597     0.033369
Rotational constants in MHz :  2323.635132  1756.697837  1000.390126

                             ****ORCA TERMINATED NORMALLY****
TOTAL RUN TIME: 0 days 0 hours 0 minutes 58 seconds 326 msec
