                         Program Version 5.0.3 -  RELEASE  -
|  1> !ri-mp2 aug-cc-pvdz aug-cc-pvdz/c tightscf
|  2> %pal nprocs 16 end
|  3>
|  4> * xyz 0 1
|  5> N      0.000000    1.067552        0.000000
|  6> N     -1.127818    0.334603        0.000000
|  7> N     -0.769838   -0.912161        0.000000
|  8> C      0.589795   -0.989098        0.000000
|  9> C      1.100389    0.282255        0.000000
| 10> H     -0.062722    2.071574        0.000000
| 11> H      1.103956   -1.933077        0.000000
| 12> H      2.101258    0.672603        0.000000
| 13> *
| 14>
| 15>                          ****END OF INPUT****

CARTESIAN COORDINATES (ANGSTROEM)
---------------------------------
  N      0.000000    1.067552    0.000000
  N     -1.127818    0.334603    0.000000
  N     -0.769838   -0.912161    0.000000
  C      0.589795   -0.989098    0.000000
  C      1.100389    0.282255    0.000000
  H     -0.062722    2.071574    0.000000
  H      1.103956   -1.933077    0.000000
  H      2.101258    0.672603    0.000000

 Total Charge           Charge          ....    0
 Multiplicity           Mult            ....    1
 Number of Electrons    NEL             ....   36
 Basis Dimension        Dim             ....  142

ORBITAL ENERGIES
----------------

  NO   OCC          E(Eh)            E(eV)
   0   2.0000     -15.670651      -426.4201
   1   2.0000     -15.652543      -425.9274
   2   2.0000     -15.608733      -424.7352
   3   2.0000     -11.298297      -307.4423
   4   2.0000     -11.265931      -306.5616
   5   2.0000      -1.448351       -39.4116
   6   2.0000      -1.210854       -32.9490
   7   2.0000      -1.091568       -29.7031
   8   2.0000      -0.876632       -23.8544
   9   2.0000      -0.842541       -22.9267
  10   2.0000      -0.771463       -20.9926
  11   2.0000      -0.644041       -17.5252
  12   2.0000      -0.638731       -17.3808
  13   2.0000      -0.622835       -16.9482
  14   2.0000      -0.519083       -14.1250
  15   2.0000      -0.444961       -12.1080
  16   2.0000      -0.423948       -11.5362
  17   2.0000      -0.364878        -9.9288
  18   0.0000       0.025174         0.6850
  19   0.0000       0.041875         1.1395
  20   0.0000       0.050729         1.3804
  21   0.0000       0.095037         2.5861
  22   0.0000       0.105603         2.8736

MULLIKEN ATOMIC CHARGES
-----------------------
   0 N :   -0.225532
   1 N :   -0.315223
   2 N :   -0.530794
   3 C :    0.742417
   4 C :    0.748759
   5 H :   -0.002575
   6 H :   -0.198074
   7 H :   -0.218979
Sum of atomic charges:    0.0000000

LOEWDIN ATOMIC CHARGES
----------------------
   0 N :    0.015389
   1 N :    0.004069
   2 N :   -0.031024
   3 C :   -0.047134
   4 C :    0.041586
   5 H :    0.030716
   6 H :   -0.013935
   7 H :    0.000332

  Mayer bond orders larger than 0.100000
B(  0-N ,  1-N ) :   1.1414 B(  0-N ,  4-C ) :   0.9822 B(  0-N ,  5-H ) :   1.1507
B(  1-N ,  2-N ) :   1.1658 B(  1-N ,  5-H ) :  -0.1192 B(  2-N ,  3-C ) :   0.9864
B(  3-C ,  4-C ) :   1.6206 B(  3-C ,  6-H ) :   0.8738 B(  4-C ,  7-H ) :   0.8353

MP2 TOTAL ENERGY:     -241.595746779 Eh
FINAL SINGLE POINT ENERGY      -241.595746779138

DIPOLE MOMENT
-------------
                                X             Y             Z
Electronic contribution:     -1.58440       0.22468       0.00000
Nuclear contribution   :      3.06532       0.79681       0.00000
                        -----------------------------------------
Total Dipole Moment    :      1.48093       1.02149       0.00000
                        -----------------------------------------
Magnitude (a.u.)       :      1.79905
Magnitude (Debye)      :      4.57283

Rotational constants in cm-1:     0.336974     0.331922     0.167214
Rotational constants in MHz : 10102.218102  9950.761505  5012.958920

                             ****ORCA TERMINATED NORMALLY****
TOTAL RUN TIME: 0 days 0 hours 0 minutes 36 seconds 352 msec
