                         Program Version 5.0.3 -  RELEASE  -
|  1> !ri-mp2 aug-cc-pvdz aug-cc-pvdz/c tightscf
|  2> %pal nprocs 16 end
|  3>
|  4> * xyz 0 1
|  5> C      0.327267   -0.588904    1.198224
|  6> N      0.327267    0.236816    0.000000
|  7> N     -0.931112    0.994972    0.000000
|  8> H     -0.869402    1.616300    0.803103
|  9> H     -0.869402    1.616300   -0.803103
| 10> H      0.334815    0.048085    2.083911
| 11> H     -0.549984   -1.250736    1.251362
| 12> H      1.234428   -1.191485    1.209716
| 13> C      0.327267   -0.588904   -1.198224
| 14> H      0.334815    0.048085   -2.083911
| 15> H     -0.549984   -1.250736   -1.251362
| 16> H      1.234428   -1.191485   -1.209716
| 17> *
| 18>
| 19>                          ****END OF INPUT****

CARTESIAN COORDINATES (ANGSTROEM)
---------------------------------
  C      0.327267   -0.588904    1.198224
  N      0.327267    0.236816    0.000000
  N     -0.931112    0.994972    0.000000
  H     -0.869402    1.616300    0.803103
  H     -0.869402    1.616300   -0.803103
  H      0.334815    0.048085    2.083911
  H     -0.549984   -1.250736    1.251362
  H      1.234428   -1.191485    1.209716
  C      0.327267   -0.588904   -1.198224
  H      0.334815    0.048085   -2.083911
  H     -0.549984   -1.250736   -1.251362
  H      1.234428   -1.191485   -1.209716

 Total Charge           Charge          ....    0
 Multiplicity           Mult            ....    1
 Number of Electrons    NEL             ....   34
 Basis Dimension        Dim             ....  164

ORBITAL ENERGIES
----------------

  NO   OCC          E(Eh)            E(eV)
   0   2.0000     -15.583464      -424.0476
   1   2.0000     -15.578055      -423.9004
   2   2.0000     -11.247968      -306.0728
   3   2.0000     -11.247950      -306.0723
   4   2.0000      -1.278672       -34.7944
   5   2.0000      -1.073191       -29.2030
   6   2.0000      -0.955894       -26.0112
   7   2.0000      -0.824828       -22.4447
   8   2.0000      -0.670643       -18.2491
   9   2.0000      -0.652556       -17.7570
  10   2.0000      -0.625683       -17.0257
  11   2.0000      -0.562091       -15.2953
  12   2.0000      -0.536468       -14.5980
  13   2.0000      -0.514388       -13.9972
  14   2.0000      -0.508976       -13.8499
  15   2.0000      -0.480046       -13.0627
  16   2.0000      -0.337643        -9.1877
  17   0.0000       0.036354         0.9892
  18   0.0000       0.048513         1.3201
  19   0.0000       0.049154         1.3376
  20   0.0000       0.061251         1.6667
  21   0.0000       0.070060         1.9064

MULLIKEN ATOMIC CHARGES
-----------------------
   0 C :    0.758759
   1 N :   -0.794740
   2 N :   -0.176545
   3 H :    0.041359
   4 H :    0.041359
   5 H :   -0.194922
   6 H :    0.012024
   7 H :   -0.131578
   8 C :    0.758759
   9 H :   -0.194922
  10 H :    0.012024
  11 H :   -0.131578
Sum of atomic charges:    0.0000000

LOEWDIN ATOMIC CHARGES
----------------------
   0 C :    0.118381
   1 N :   -0.221185
   2 N :    0.193170
   3 H :   -0.056336
   4 H :   -0.056336
   5 H :   -0.020961
   6 H :   -0.010514
   7 H :   -0.016562
   8 C :    0.118381
   9 H :   -0.020961
  10 H :   -0.010514
  11 H :   -0.016562

  Mayer bond orders larger than 0.100000
B(  0-C ,  1-N ) :   0.8996 B(  0-C ,  5-H ) :   1.0074 B(  0-C ,  6-H ) :   0.8938
B(  0-C ,  7-H ) :   0.9525 B(  1-N ,  2-N ) :   0.7926 B(  1-N ,  8-C ) :   0.8996
B(  2-N ,  3-H ) :   1.0458 B(  2-N ,  4-H ) :   1.0458 B(  5-H ,  7-H ) :  -0.1031
B(  8-C ,  9-H ) :   1.0074 B(  8-C , 10-H ) :   0.8938 B(  8-C , 11-H ) :   0.9525
B(  9-H , 11-H ) :  -0.1031

MP2 TOTAL ENERGY:     -189.931221020 Eh
FINAL SINGLE POINT ENERGY      -189.931221020337

DIPOLE MOMENT
-------------
                                X             Y             Z
Electronic contribution:     -0.14287       1.73261      -0.00000
Nuclear contribution   :      0.31467      -1.64517       0.00000
                        -----------------------------------------
Total Dipole Moment    :      0.17180       0.08743      -0.00000
                        -----------------------------------------
Magnitude (a.u.)       :      0.19277
Magnitude (Debye)      :      0.48998

Rotational constants in cm-1:     0.301689     0.296938     0.167889
Rotational constants in MHz :  9044.413365  8901.989191  5033.199135

                             ****ORCA TERMINATED NORMALLY****
TOTAL RUN TIME: 0 days 0 hours 0 minutes 29 seconds 26 msec
