                         Program Version 5.0.3 -  RELEASE  -
|  1> !ri-mp2 aug-cc-pvdz aug-cc-pvdz/c tightscf
|  2> %pal nprocs 16 end
|  3>
|  4> * xyz 0 1
|  5> O     -2.903943    0.542304    0.000007
|  6> O     -2.224534   -1.527721   -0.000004
|  7> N     -0.718011    0.114913    0.000001
|  8> N     -2.064664   -0.328750    0.000001
|  9> N      3.923133   -0.694141   -0.000009
| 10> C      1.475503    0.087120    0.000000
| 11> C      0.370315   -0.724286   -0.000004
| 12> C     -0.330392    1.446894    0.000007
| 13> C      1.027257    1.456025    0.000005
| 14> C      2.822191   -0.353769   -0.000005
| 15> H      0.260075   -1.791459   -0.000009
| 16> H     -1.062361    2.231220    0.000012
| 17> H      1.657653    2.327515    0.000009
| 18> *
| 19>
| 20>                          ****END OF INPUT****

CARTESIAN COORDINATES (ANGSTROEM)
---------------------------------
  O     -2.903943    0.542304    0.000007
  O     -2.224534   -1.527721   -0.000004
  N     -0.718011    0.114913    0.000001
  N     -2.064664   -0.328750    0.000001
  N      3.923133   -0.694141   -0.000009
  C      1.475503    0.087120    0.000000
  C      0.370315   -0.724286   -0.000004
  C     -0.330392    1.446894    0.000007
  C      1.027257    1.456025    0.000005
  C      2.822191   -0.353769   -0.000005
  H      0.260075   -1.791459   -0.000009
  H     -1.062361    2.231220    0.000012
  H      1.657653    2.327515    0.000009

 Total Charge           Charge          ....    0
 Multiplicity           Mult            ....    1
 Number of Electrons    NEL             ....   70
 Basis Dimension        Dim             ....  257

ORBITAL ENERGIES
----------------

  NO   OCC          E(Eh)            E(eV)
   0   2.0000     -20.663023      -562.2694
   1   2.0000     -20.662689      -562.2604
   2   2.0000     -15.947809      -433.9620
   3   2.0000     -15.727596      -427.9696
   4   2.0000     -15.598169      -424.4478
   5   2.0000     -11.342150      -308.6356
   6   2.0000     -11.325968      -308.1953
   7   2.0000     -11.311016      -307.7884
   8   2.0000     -11.301562      -307.5311
   9   2.0000     -11.288581      -307.1779
  10   2.0000      -1.687871       -45.9293
  11   2.0000      -1.474618       -40.1264
  12   2.0000      -1.390412       -37.8350
  13   2.0000      -1.242532       -33.8110
  14   2.0000      -1.166902       -31.7530
  15   2.0000      -1.068539       -29.0764
  16   2.0000      -1.001741       -27.2587
  17   2.0000      -0.889153       -24.1951
  18   2.0000      -0.855078       -23.2679
  19   2.0000      -0.816215       -22.2103
  20   2.0000      -0.799365       -21.7518
  21   2.0000      -0.783605       -21.3230
  22   2.0000      -0.746695       -20.3186
  23   2.0000      -0.659763       -17.9531
  24   2.0000      -0.653145       -17.7730
  25   2.0000      -0.636591       -17.3225
  26   2.0000      -0.618924       -16.8418
  27   2.0000      -0.573583       -15.6080
  28   2.0000      -0.558276       -15.1915
  29   2.0000      -0.545313       -14.8387
  30   2.0000      -0.523110       -14.2345
  31   2.0000      -0.508463       -13.8360
  32   2.0000      -0.482276       -13.1234
  33   2.0000      -0.411318       -11.1925
  34   2.0000      -0.368487       -10.0270
  35   0.0000       0.022361         0.6085
  36   0.0000       0.027246         0.7414
  37   0.0000       0.040292         1.0964
  38   0.0000       0.046157         1.2560
  39   0.0000       0.075099         2.0435

MULLIKEN ATOMIC CHARGES
-----------------------
   0 O :   -0.690737
   1 O :   -0.705024
   2 N :   -0.637477
   3 N :    1.150627
   4 N :   -0.247984
   5 C :    1.260398
   6 C :    0.577411
   7 C :    0.929582
   8 C :    0.222408
   9 C :   -0.686114
  10 H :   -0.420215
  11 H :   -0.317966
  12 H :   -0.434911
Sum of atomic charges:   -0.0000000

LOEWDIN ATOMIC CHARGES
----------------------
   0 O :    0.133227
   1 O :    0.132375
   2 N :   -0.044162
   3 N :   -0.340175
   4 N :    0.094113
   5 C :   -0.219004
   6 C :    0.152181
   7 C :    0.094703
   8 C :    0.076034
   9 C :   -0.117280
  10 H :    0.019979
  11 H :    0.005665
  12 H :    0.012344

  Mayer bond orders larger than 0.100000
B(  0-O ,  1-O ) :   0.1294 B(  0-O ,  3-N ) :   1.1274 B(  1-O ,  3-N ) :   1.1142
B(  2-N ,  3-N ) :   0.8556 B(  2-N ,  5-C ) :  -0.1771 B(  2-N ,  6-C ) :   1.3091
B(  2-N ,  7-C ) :   1.0839 B(  2-N ,  8-C ) :  -0.2065 B(  2-N , 11-H ) :   0.1147
B(  3-N ,  6-C ) :  -0.2301 B(  3-N ,  7-C ) :  -0.2193 B(  3-N ,  8-C ) :   0.1244
B(  4-N ,  9-C ) :   2.5262 B(  5-C ,  6-C ) :   1.1369 B(  5-C ,  7-C ) :   0.1982
B(  5-C ,  8-C ) :   1.3304 B(  5-C ,  9-C ) :  -0.2216 B(  5-C , 10-H ) :  -0.1971
B(  5-C , 12-H ) :   0.1703 B(  6-C ,  9-C ) :   0.2758 B(  6-C , 10-H ) :   0.8086
B(  7-C ,  8-C ) :   1.7595 B(  7-C ,  9-C ) :  -0.2493 B(  7-C , 11-H ) :   0.4963
B(  8-C , 12-H ) :   0.4912

MP2 TOTAL ENERGY:     -505.620424887 Eh
FINAL SINGLE POINT ENERGY      -505.620424886899

DIPOLE MOMENT
-------------
                                X             Y             Z
Electronic contribution:     -1.48011      -1.78542      -0.00001
Nuclear contribution   :      0.74912       2.63357       0.00001
                        -----------------------------------------
Total Dipole Moment    :     -0.73099       0.84815       0.00001
                        -----------------------------------------
Magnitude (a.u.)       :      1.11969
Magnitude (Debye)      :      2.84603

Rotational constants in cm-1:     0.137440     0.026422     0.022161
Rotational constants in MHz :  4120.345078   792.103593   664.381525

                             ****ORCA TERMINATED NORMALLY****
TOTAL RUN TIME: 0 days 0 hours 1 minutes 24 seconds 344 msec
