                         Program Version 5.0.3 -  RELEASE  -
|  1> !ri-mp2 aug-cc-pvdz aug-cc-pvdz/c tightscf
|  2> %pal nprocs 16 end
|  3>
|  4> * xyz 0 1
|  5> C     -2.900530   -2.061190    0.000000
|  6> C     -2.210491   -0.698205    0.000000
|  7> C      2.318193    2.117672    0.000000
|  8> S      1.820699    0.367544    0.000000
|  9> C      0.000000    0.560581    0.000000
| 10> C     -0.683216   -0.803015    0.000000
| 11> H      3.406072    2.138869    0.000000
| 12> H     -3.986273   -1.956738    0.000000
| 13> H     -2.623158   -2.643745    0.880787
| 14> H     -2.623158   -2.643745   -0.880787
| 15> H     -2.533340   -0.125846    0.874655
| 16> H     -2.533340   -0.125846   -0.874655
| 17> H      1.955763    2.628694    0.891218
| 18> H      1.955763    2.628694   -0.891218
| 19> H     -0.357222   -1.371028   -0.875684
| 20> H     -0.357222   -1.371028    0.875684
| 21> H     -0.289402    1.132982   -0.883547
| 22> H     -0.289402    1.132982    0.883547
| 23> *
| 24>
| 25>                          ****END OF INPUT****

CARTESIAN COORDINATES (ANGSTROEM)
---------------------------------
  C     -2.900530   -2.061190    0.000000
  C     -2.210491   -0.698205    0.000000
  C      2.318193    2.117672    0.000000
  S      1.820699    0.367544    0.000000
  C      0.000000    0.560581    0.000000
  C     -0.683216   -0.803015    0.000000
  H      3.406072    2.138869    0.000000
  H     -3.986273   -1.956738    0.000000
  H     -2.623158   -2.643745    0.880787
  H     -2.623158   -2.643745   -0.880787
  H     -2.533340   -0.125846    0.874655
  H     -2.533340   -0.125846   -0.874655
  H      1.955763    2.628694    0.891218
  H      1.955763    2.628694   -0.891218
  H     -0.357222   -1.371028   -0.875684
  H     -0.357222   -1.371028    0.875684
  H     -0.289402    1.132982   -0.883547
  H     -0.289402    1.132982    0.883547

 Total Charge           Charge          ....    0
 Multiplicity           Mult            ....    1
 Number of Electrons    NEL             ....   58
 Basis Dimension        Dim             ....  250

ORBITAL ENERGIES
----------------

  NO   OCC          E(Eh)            E(eV)
   0   2.0000     -91.940908     -2501.8393
   1   2.0000     -11.257887      -306.3427
   2   2.0000     -11.256054      -306.2928
   3   2.0000     -11.230460      -305.5963
   4   2.0000     -11.228960      -305.5555
   5   2.0000     -11.220962      -305.3379
   6   2.0000      -8.942352      -243.3338
   7   2.0000      -6.624399      -180.2591
   8   2.0000      -6.622996      -180.2209
   9   2.0000      -6.620948      -180.1651
  10   2.0000      -1.093813       -29.7642
  11   2.0000      -1.041311       -28.3355
  12   2.0000      -0.977713       -26.6049
  13   2.0000      -0.885645       -24.0996
  14   2.0000      -0.807085       -21.9619
  15   2.0000      -0.789889       -21.4940
  16   2.0000      -0.652711       -17.7612
  17   2.0000      -0.597281       -16.2529
  18   2.0000      -0.596582       -16.2338
  19   2.0000      -0.588526       -16.0146
  20   2.0000      -0.571729       -15.5575
  21   2.0000      -0.543363       -14.7857
  22   2.0000      -0.529020       -14.3954
  23   2.0000      -0.508361       -13.8332
  24   2.0000      -0.479584       -13.0501
  25   2.0000      -0.470175       -12.7941
  26   2.0000      -0.452193       -12.3048
  27   2.0000      -0.423415       -11.5217
  28   2.0000      -0.332205        -9.0397
  29   0.0000       0.036134         0.9833
  30   0.0000       0.039928         1.0865
  31   0.0000       0.047591         1.2950
  32   0.0000       0.048360         1.3159
  33   0.0000       0.057088         1.5534

MULLIKEN ATOMIC CHARGES
-----------------------
   0 C :    0.462202
   1 C :    0.306445
   2 C :    0.202509
   3 S :    0.379703
   4 C :    0.040922
   5 C :    0.175953
   6 H :   -0.123183
   7 H :   -0.075050
   8 H :   -0.083884
   9 H :   -0.083884
  10 H :   -0.175962
  11 H :   -0.175962
  12 H :   -0.088030
  13 H :   -0.088030
  14 H :   -0.173200
  15 H :   -0.173200
  16 H :   -0.163675
  17 H :   -0.163675
Sum of atomic charges:   -0.0000000

LOEWDIN ATOMIC CHARGES
----------------------
   0 C :    0.131812
   1 C :   -0.076919
   2 C :   -0.143488
   3 S :    0.789094
   4 C :   -0.297259
   5 C :   -0.109857
   6 H :   -0.073493
   7 H :   -0.021493
   8 H :   -0.019204
   9 H :   -0.019204
  10 H :    0.010397
  11 H :    0.010397
  12 H :   -0.069661
  13 H :   -0.069661
  14 H :    0.009267
  15 H :    0.009267
  16 H :   -0.029997
  17 H :   -0.029997

  Mayer bond orders larger than 0.100000
B(  0-C ,  1-C ) :   1.1786 B(  0-C ,  7-H ) :   0.9142 B(  0-C ,  8-H ) :   0.9243
B(  0-C ,  9-H ) :   0.9243 B(  1-C ,  5-C ) :   1.2426 B(  1-C , 10-H ) :   0.7783
B(  1-C , 11-H ) :   0.7783 B(  2-C ,  3-S ) :   0.9860 B(  2-C ,  6-H ) :   0.9991
B(  2-C , 12-H ) :   0.9982 B(  2-C , 13-H ) :   0.9982 B(  3-S ,  4-C ) :   1.1372
B(  3-S ,  5-C ) :  -0.1254 B(  3-S , 16-H ) :  -0.1042 B(  3-S , 17-H ) :  -0.1042
B(  4-C ,  5-C ) :   1.4010 B(  4-C , 16-H ) :   0.9059 B(  4-C , 17-H ) :   0.9059
B(  5-C , 14-H ) :   0.8359 B(  5-C , 15-H ) :   0.8359

MP2 TOTAL ENERGY:     -594.780641363 Eh
FINAL SINGLE POINT ENERGY      -594.780641362707

DIPOLE MOMENT
-------------
                                X             Y             Z
Electronic contribution:      8.21184       1.14072      -0.00000
Nuclear contribution   :     -8.70822      -0.61367       0.00000
                        -----------------------------------------
Total Dipole Moment    :     -0.49637       0.52705      -0.00000
                        -----------------------------------------
Magnitude (a.u.)       :      0.72399
Magnitude (Debye)      :      1.84025

Rotational constants in cm-1:     0.369289     0.031353     0.029696
Rotational constants in MHz : 11071.006315   939.938807   890.274220

                             ****ORCA TERMINATED NORMALLY****
TOTAL RUN TIME: 0 days 0 hours 1 minutes 4 seconds 268 msec
