                         Program Version 5.0.3 -  RELEASE  -
|  1> !ri-mp2 aug-cc-pvdz aug-cc-pvdz/c tightscf
|  2> %pal nprocs 16 end
|  3>
|  4> * xyz 0 1
|  5> S      1.186410   -0.064006    0.045138
|  6> O     -0.061150   -1.221903   -0.137878
|  7> N      0.175744    1.267799   -0.042280
|  8> C     -1.314499   -0.572652    0.090963
|  9> C     -1.045628    0.909737   -0.039631
| 10> H     -2.026854   -0.942923   -0.648855
| 11> H     -1.699331   -0.803961    1.095565
| 12> H     -1.836625    1.649104   -0.077924
| 13> *
| 14>
| 15>                          ****END OF INPUT****

CARTESIAN COORDINATES (ANGSTROEM)
---------------------------------
  S      1.186410   -0.064006    0.045138
  O     -0.061150   -1.221903   -0.137878
  N      0.175744    1.267799   -0.042280
  C     -1.314499   -0.572652    0.090963
  C     -1.045628    0.909737   -0.039631
  H     -2.026854   -0.942923   -0.648855
  H     -1.699331   -0.803961    1.095565
  H     -1.836625    1.649104   -0.077924

 Total Charge           Charge          ....    0
 Multiplicity           Mult            ....    1
 Number of Electrons    NEL             ....   46
 Basis Dimension        Dim             ....  146

ORBITAL ENERGIES
----------------

  NO   OCC          E(Eh)            E(eV)
   0   2.0000     -92.037987     -2504.4809
   1   2.0000     -20.608385      -560.7827
   2   2.0000     -15.621967      -425.0953
   3   2.0000     -11.321671      -308.0783
   4   2.0000     -11.314548      -307.8845
   5   2.0000      -9.031657      -245.7639
   6   2.0000      -6.713529      -182.6844
   7   2.0000      -6.711669      -182.6338
   8   2.0000      -6.708462      -182.5465
   9   2.0000      -1.408802       -38.3354
  10   2.0000      -1.258655       -34.2497
  11   2.0000      -1.035010       -28.1641
  12   2.0000      -0.892192       -24.2778
  13   2.0000      -0.807424       -21.9711
  14   2.0000      -0.703851       -19.1528
  15   2.0000      -0.680881       -18.5277
  16   2.0000      -0.625772       -17.0281
  17   2.0000      -0.567606       -15.4453
  18   2.0000      -0.530082       -14.4243
  19   2.0000      -0.512008       -13.9324
  20   2.0000      -0.499703       -13.5976
  21   2.0000      -0.461227       -12.5506
  22   2.0000      -0.329199        -8.9580
  23   0.0000       0.030256         0.8233
  24   0.0000       0.048352         1.3157
  25   0.0000       0.050075         1.3626
  26   0.0000       0.075779         2.0620
  27   0.0000       0.084799         2.3075

MULLIKEN ATOMIC CHARGES
-----------------------
   0 S :    0.934533
   1 O :   -0.995212
   2 N :   -0.856888
   3 C :    0.811558
   4 C :    0.425587
   5 H :   -0.108144
   6 H :   -0.047066
   7 H :   -0.164369
Sum of atomic charges:    0.0000000

LOEWDIN ATOMIC CHARGES
----------------------
   0 S :    0.832947
   1 O :   -0.308126
   2 N :   -0.335802
   3 C :   -0.071996
   4 C :   -0.124888
   5 H :    0.001363
   6 H :    0.007959
   7 H :   -0.001458

  Mayer bond orders larger than 0.100000
B(  0-S ,  1-O ) :   0.4811 B(  0-S ,  2-N ) :   0.7472 B(  1-O ,  3-C ) :   0.6169
B(  1-O ,  4-C ) :   0.1223 B(  2-N ,  4-C ) :   1.7372 B(  3-C ,  4-C ) :   1.1101
B(  3-C ,  5-H ) :   0.9474 B(  3-C ,  6-H ) :   0.9077 B(  4-C ,  7-H ) :   0.9369

MP2 TOTAL ENERGY:     -605.062025160 Eh
FINAL SINGLE POINT ENERGY      -605.062025160112

DIPOLE MOMENT
-------------
                                X             Y             Z
Electronic contribution:      4.27414       0.17604      -0.22197
Nuclear contribution   :     -5.42840      -0.10434       0.35383
                        -----------------------------------------
Total Dipole Moment    :     -1.15426       0.07170       0.13185
                        -----------------------------------------
Magnitude (a.u.)       :      1.16397
Magnitude (Debye)      :      2.95859

Rotational constants in cm-1:     0.252181     0.183712     0.109242
Rotational constants in MHz :  7560.193220  5507.540371  3274.994059

                             ****ORCA TERMINATED NORMALLY****
TOTAL RUN TIME: 0 days 0 hours 0 minutes 39 seconds 879 msec
