                         Program Version 5.0.3 -  RELEASE  -
|  1> !ri-mp2 aug-cc-pvdz aug-cc-pvdz/c tightscf
|  2> %pal nprocs 16 end
|  3>
|  4> * xyz 0 1
|  5> N      1.990811   -0.622856   -0.629420
|  6> H      1.931431    0.145537   -1.286847
|  7> H      2.964238   -0.880555   -0.536839
|  8> C     -2.421072   -0.350244   -0.096681
|  9> H     -3.045807   -1.165912   -0.462671
| 10> H     -2.766459   -0.095407    0.908123
| 11> H     -2.614499    0.507889   -0.743569
| 12> N      0.014105    1.506798   -0.328520
| 13> H      0.497986    2.259825    0.146270
| 14> H     -0.921393    1.837328   -0.524861
| 15> C     -0.946476   -0.754688   -0.096316
| 16> H     -0.829081   -1.675676    0.479986
| 17> H     -0.616481   -0.980777   -1.110214
| 18> C      1.427116   -0.214502    0.656216
| 19> H      2.012213    0.572109    1.158562
| 20> H      1.424096   -1.077830    1.325625
| 21> C     -0.009887    0.295010    0.507813
| 22> H     -0.368749    0.512414    1.525817
| 23> *
| 24>
| 25>                          ****END OF INPUT****

CARTESIAN COORDINATES (ANGSTROEM)
---------------------------------
  N      1.990811   -0.622856   -0.629420
  H      1.931431    0.145537   -1.286847
  H      2.964238   -0.880555   -0.536839
  C     -2.421072   -0.350244   -0.096681
  H     -3.045807   -1.165912   -0.462671
  H     -2.766459   -0.095407    0.908123
  H     -2.614499    0.507889   -0.743569
  N      0.014105    1.506798   -0.328520
  H      0.497986    2.259825    0.146270
  H     -0.921393    1.837328   -0.524861
  C     -0.946476   -0.754688   -0.096316
  H     -0.829081   -1.675676    0.479986
  H     -0.616481   -0.980777   -1.110214
  C      1.427116   -0.214502    0.656216
  H      2.012213    0.572109    1.158562
  H      1.424096   -1.077830    1.325625
  C     -0.009887    0.295010    0.507813
  H     -0.368749    0.512414    1.525817

 Total Charge           Charge          ....    0
 Multiplicity           Mult            ....    1
 Number of Electrons    NEL             ....   50
 Basis Dimension        Dim             ....  246

ORBITAL ENERGIES
----------------

  NO   OCC          E(Eh)            E(eV)
   0   2.0000     -15.546177      -423.0330
   1   2.0000     -15.535146      -422.7328
   2   2.0000     -11.254469      -306.2497
   3   2.0000     -11.247403      -306.0574
   4   2.0000     -11.217848      -305.2532
   5   2.0000     -11.214798      -305.1702
   6   2.0000      -1.199243       -32.6331
   7   2.0000      -1.150468       -31.3058
   8   2.0000      -1.032461       -28.0947
   9   2.0000      -0.949196       -25.8289
  10   2.0000      -0.850281       -23.1373
  11   2.0000      -0.763586       -20.7782
  12   2.0000      -0.677637       -18.4395
  13   2.0000      -0.662857       -18.0373
  14   2.0000      -0.616767       -16.7831
  15   2.0000      -0.603346       -16.4179
  16   2.0000      -0.575155       -15.6508
  17   2.0000      -0.561878       -15.2895
  18   2.0000      -0.538890       -14.6639
  19   2.0000      -0.510878       -13.9017
  20   2.0000      -0.478560       -13.0223
  21   2.0000      -0.472942       -12.8694
  22   2.0000      -0.460932       -12.5426
  23   2.0000      -0.390129       -10.6160
  24   2.0000      -0.375407       -10.2153
  25   0.0000       0.034696         0.9441
  26   0.0000       0.043170         1.1747
  27   0.0000       0.046579         1.2675
  28   0.0000       0.046980         1.2784
  29   0.0000       0.063590         1.7304

MULLIKEN ATOMIC CHARGES
-----------------------
   0 N :   -0.346870
   1 H :    0.066108
   2 H :   -0.083867
   3 C :    0.492717
   4 H :   -0.073678
   5 H :   -0.083989
   6 H :   -0.113991
   7 N :   -0.328015
   8 H :   -0.032664
   9 H :   -0.039620
  10 C :    0.464318
  11 H :   -0.117919
  12 H :   -0.100033
  13 C :    1.078948
  14 H :   -0.105038
  15 H :   -0.184537
  16 C :   -0.308988
  17 H :   -0.182882
Sum of atomic charges:   -0.0000000

LOEWDIN ATOMIC CHARGES
----------------------
   0 N :    0.188161
   1 H :   -0.058999
   2 H :   -0.054854
   3 C :    0.138436
   4 H :   -0.019636
   5 H :   -0.017541
   6 H :   -0.028765
   7 N :    0.212029
   8 H :   -0.043647
   9 H :   -0.065003
  10 C :   -0.032841
  11 H :    0.018576
  12 H :    0.014613
  13 C :   -0.050481
  14 H :    0.008000
  15 H :    0.012740
  16 C :   -0.256676
  17 H :    0.035888

  Mayer bond orders larger than 0.100000
B(  0-N ,  1-H ) :   1.0288 B(  0-N ,  2-H ) :   1.0781 B(  0-N , 13-C ) :   0.8969
B(  3-C ,  4-H ) :   0.9049 B(  3-C ,  5-H ) :   0.9246 B(  3-C ,  6-H ) :   0.9400
B(  3-C , 10-C ) :   1.1413 B(  7-N ,  8-H ) :   1.0166 B(  7-N ,  9-H ) :   1.0057
B(  7-N , 16-C ) :   0.6634 B( 10-C , 11-H ) :   0.7278 B( 10-C , 12-H ) :   0.7648
B( 10-C , 16-C ) :   1.2020 B( 11-H , 16-C ) :   0.1188 B( 12-H , 16-C ) :   0.2188
B( 13-C , 14-H ) :   0.7980 B( 13-C , 15-H ) :   0.7497 B( 13-C , 16-C ) :   1.3147
B( 14-H , 15-H ) :  -0.1208 B( 14-H , 16-C ) :   0.1184 B( 15-H , 16-C ) :   0.1500
B( 16-C , 17-H ) :   0.7144

MP2 TOTAL ENERGY:     -268.356332414 Eh
FINAL SINGLE POINT ENERGY      -268.356332414325

DIPOLE MOMENT
-------------
                                X             Y             Z
Electronic contribution:      2.49385       0.50573      -0.39284
Nuclear contribution   :     -2.47210      -0.03820       0.93075
                        -----------------------------------------
Total Dipole Moment    :      0.02175       0.46752       0.53791
                        -----------------------------------------
Magnitude (a.u.)       :      0.71302
Magnitude (Debye)      :      1.81236

Rotational constants in cm-1:     0.187212     0.072518     0.062478
Rotational constants in MHz :  5612.463384  2174.023664  1873.050621

                             ****ORCA TERMINATED NORMALLY****
TOTAL RUN TIME: 0 days 0 hours 0 minutes 59 seconds 226 msec
