                         Program Version 5.0.3 -  RELEASE  -
|  1> !ri-mp2 aug-cc-pvdz aug-cc-pvdz/c tightscf
|  2> %pal nprocs 16 end
|  3>
|  4> * xyz 0 1
|  5> C    -0.749149   -2.765389    0.000000
|  6> C    -0.579479   -0.671889    0.000000
|  7> C     0.123559    2.779879    0.000000
|  8> C    -0.748568    1.763546    0.000000
|  9> C     1.389116    0.865788    0.000000
| 10> N    -1.948842   -2.317880    0.000000
| 11> N    -1.848213   -0.922014    0.000000
| 12> N     1.407751    2.245729    0.000000
| 13> N     0.000000    0.571384    0.000000
| 14> O     2.321679    0.097408    0.000000
| 15> O     0.193548   -1.775534    0.000000
| 16> H    -0.403540   -3.783062    0.000000
| 17> H    -0.057518    3.838204    0.000000
| 18> H    -1.820876    1.742621    0.000000
| 19> H     2.272372    2.755109    0.000000
| 20> *
| 21>
| 22>                          ****END OF INPUT****

CARTESIAN COORDINATES (ANGSTROEM)
---------------------------------
  C     -0.749149   -2.765389    0.000000
  C     -0.579479   -0.671889    0.000000
  C      0.123559    2.779879    0.000000
  C     -0.748568    1.763546    0.000000
  C      1.389116    0.865788    0.000000
  N     -1.948842   -2.317880    0.000000
  N     -1.848213   -0.922014    0.000000
  N      1.407751    2.245729    0.000000
  N      0.000000    0.571384    0.000000
  O      2.321679    0.097408    0.000000
  O      0.193548   -1.775534    0.000000
  H     -0.403540   -3.783062    0.000000
  H     -0.057518    3.838204    0.000000
  H     -1.820876    1.742621    0.000000
  H      2.272372    2.755109    0.000000

 Total Charge           Charge          ....    0
 Multiplicity           Mult            ....    1
 Number of Electrons    NEL             ....   78
 Basis Dimension        Dim             ....  289

ORBITAL ENERGIES
----------------

  NO   OCC          E(Eh)            E(eV)
   0   2.0000     -20.676637      -562.6399
   1   2.0000     -20.551083      -559.2234
   2   2.0000     -15.660469      -426.1430
   3   2.0000     -15.637876      -425.5282
   4   2.0000     -15.617991      -424.9871
   5   2.0000     -15.605373      -424.6438
   6   2.0000     -11.420162      -310.7584
   7   2.0000     -11.408585      -310.4434
   8   2.0000     -11.354232      -308.9644
   9   2.0000     -11.308641      -307.7238
  10   2.0000     -11.300994      -307.5157
  11   2.0000      -1.542545       -41.9748
  12   2.0000      -1.436338       -39.0848
  13   2.0000      -1.349791       -36.7297
  14   2.0000      -1.318256       -35.8716
  15   2.0000      -1.264047       -34.3965
  16   2.0000      -1.127311       -30.6757
  17   2.0000      -1.048927       -28.5428
  18   2.0000      -0.935690       -25.4614
  19   2.0000      -0.908006       -24.7081
  20   2.0000      -0.850602       -23.1460
  21   2.0000      -0.814856       -22.1733
  22   2.0000      -0.759314       -20.6620
  23   2.0000      -0.739761       -20.1299
  24   2.0000      -0.716983       -19.5101
  25   2.0000      -0.693708       -18.8767
  26   2.0000      -0.660123       -17.9629
  27   2.0000      -0.647532       -17.6202
  28   2.0000      -0.643197       -17.5023
  29   2.0000      -0.638876       -17.3847
  30   2.0000      -0.630061       -17.1448
  31   2.0000      -0.530392       -14.4327
  32   2.0000      -0.505713       -13.7611
  33   2.0000      -0.504985       -13.7413
  34   2.0000      -0.494713       -13.4618
  35   2.0000      -0.471212       -12.8223
  36   2.0000      -0.463138       -12.6026
  37   2.0000      -0.385330       -10.4854
  38   2.0000      -0.326978        -8.8975
  39   0.0000       0.023244         0.6325
  40   0.0000       0.039246         1.0679
  41   0.0000       0.042154         1.1471
  42   0.0000       0.054985         1.4962
  43   0.0000       0.074586         2.0296

MULLIKEN ATOMIC CHARGES
-----------------------
   0 C :    0.970100
   1 C :    0.674464
   2 C :    0.824316
   3 C :    0.992813
   4 C :    0.927735
   5 N :   -0.507218
   6 N :   -0.499223
   7 N :   -0.530028
   8 N :   -0.557622
   9 O :   -0.675848
  10 O :   -0.656039
  11 H :   -0.236926
  12 H :   -0.224035
  13 H :   -0.356297
  14 H :   -0.146192
Sum of atomic charges:    0.0000000

LOEWDIN ATOMIC CHARGES
----------------------
   0 C :   -0.012578
   1 C :   -0.236563
   2 C :    0.050555
   3 C :    0.080494
   4 C :   -0.282679
   5 N :   -0.003608
   6 N :    0.026137
   7 N :    0.138131
   8 N :   -0.009175
   9 O :    0.040701
  10 O :    0.150548
  11 H :    0.007381
  12 H :    0.007179
  13 H :    0.008203
  14 H :    0.035273

  Mayer bond orders larger than 0.100000
B(  0-C ,  5-N ) :   1.6774 B(  0-C ,  6-N ) :   0.1061 B(  0-C , 10-O ) :   0.7867
B(  0-C , 11-H ) :   0.8702 B(  1-C ,  3-C ) :  -0.1293 B(  1-C ,  4-C ) :  -0.1201
B(  1-C ,  6-N ) :   1.7657 B(  1-C ,  8-N ) :   1.0352 B(  1-C , 10-O ) :   0.9050
B(  1-C , 11-H ) :   0.1720 B(  1-C , 13-H ) :   0.1107 B(  2-C ,  3-C ) :   1.9956
B(  2-C ,  7-N ) :   0.7391 B(  2-C ,  8-N ) :  -0.1525 B(  2-C , 12-H ) :   0.7098
B(  2-C , 13-H ) :   0.1076 B(  2-C , 14-H ) :  -0.1664 B(  3-C ,  6-N ) :  -0.1485
B(  3-C ,  8-N ) :   0.9201 B(  3-C , 12-H ) :   0.1443 B(  3-C , 13-H ) :   0.4965
B(  4-C ,  7-N ) :   1.1361 B(  4-C ,  8-N ) :   0.9817 B(  4-C ,  9-O ) :   1.6365
B(  5-N ,  6-N ) :   0.8405 B(  6-N ,  8-N ) :  -0.1029 B(  7-N ,  9-O ) :  -0.1119
B(  7-N , 14-H ) :   1.2396 B( 10-O , 11-H ) :  -0.1409

MP2 TOTAL ENERGY:     -560.947996594 Eh
FINAL SINGLE POINT ENERGY      -560.947996593852

DIPOLE MOMENT
-------------
                                X             Y             Z
Electronic contribution:      0.41904      -2.91026       0.00000
Nuclear contribution   :      0.01547       4.35670       0.00000
                        -----------------------------------------
Total Dipole Moment    :      0.43451       1.44643       0.00000
                        -----------------------------------------
Magnitude (a.u.)       :      1.51029
Magnitude (Debye)      :      3.83885

Rotational constants in cm-1:     0.095361     0.029180     0.022343
Rotational constants in MHz :  2858.845608   874.792977   669.828641

                             ****ORCA TERMINATED NORMALLY****
TOTAL RUN TIME: 0 days 0 hours 1 minutes 24 seconds 680 msec
