                         Program Version 5.0.3 -  RELEASE  -
|  1> !ri-mp2 aug-cc-pvdz aug-cc-pvdz/c tightscf
|  2> %pal nprocs 16 end
|  3>
|  4> * xyz 0 1
|  5> O      0.000000    0.000000    1.123780
|  6> C      0.000000    1.052759    0.266386
|  7> N      0.000000    0.701433   -0.967868
|  8> N      0.000000   -0.701433   -0.967868
|  9> C      0.000000   -1.052759    0.266386
| 10> H      0.000000    2.044558    0.681643
| 11> H      0.000000   -2.044558    0.681643
| 12> *
| 13>
| 14>                          ****END OF INPUT****

CARTESIAN COORDINATES (ANGSTROEM)
---------------------------------
  O      0.000000    0.000000    1.123780
  C      0.000000    1.052759    0.266386
  N      0.000000    0.701433   -0.967868
  N      0.000000   -0.701433   -0.967868
  C      0.000000   -1.052759    0.266386
  H      0.000000    2.044558    0.681643
  H      0.000000   -2.044558    0.681643

 Total Charge           Charge          ....    0
 Multiplicity           Mult            ....    1
 Number of Electrons    NEL             ....   36
 Basis Dimension        Dim             ....  133

ORBITAL ENERGIES
----------------

  NO   OCC          E(Eh)            E(eV)
   0   2.0000     -20.678933      -562.7024
   1   2.0000     -15.619588      -425.0306
   2   2.0000     -15.619005      -425.0147
   3   2.0000     -11.361290      -309.1564
   4   2.0000     -11.361248      -309.1553
   5   2.0000      -1.537526       -41.8382
   6   2.0000      -1.319387       -35.9024
   7   2.0000      -1.141593       -31.0643
   8   2.0000      -0.899745       -24.4833
   9   2.0000      -0.860430       -23.4135
  10   2.0000      -0.772756       -21.0278
  11   2.0000      -0.695767       -18.9328
  12   2.0000      -0.658259       -17.9121
  13   2.0000      -0.633131       -17.2284
  14   2.0000      -0.506853       -13.7922
  15   2.0000      -0.496608       -13.5134
  16   2.0000      -0.473458       -12.8835
  17   2.0000      -0.403998       -10.9934
  18   0.0000       0.031339         0.8528
  19   0.0000       0.039222         1.0673
  20   0.0000       0.074490         2.0270
  21   0.0000       0.086523         2.3544
  22   0.0000       0.099271         2.7013

MULLIKEN ATOMIC CHARGES
-----------------------
   0 O :   -0.657210
   1 C :    0.892875
   2 N :   -0.462579
   3 N :   -0.462579
   4 C :    0.892875
   5 H :   -0.101691
   6 H :   -0.101691
Sum of atomic charges:    0.0000000

LOEWDIN ATOMIC CHARGES
----------------------
   0 O :    0.083220
   1 C :   -0.031890
   2 N :   -0.016058
   3 N :   -0.016058
   4 C :   -0.031890
   5 H :    0.006338
   6 H :    0.006338

  Mayer bond orders larger than 0.100000
B(  0-O ,  1-C ) :   0.8105 B(  0-O ,  4-C ) :   0.8105 B(  1-C ,  2-N ) :   1.6072
B(  1-C ,  5-H ) :   1.0136 B(  2-N ,  3-N ) :   0.8071 B(  3-N ,  4-C ) :   1.6072
B(  4-C ,  6-H ) :   1.0136

MP2 TOTAL ENERGY:     -261.443113315 Eh
FINAL SINGLE POINT ENERGY      -261.443113315215

DIPOLE MOMENT
-------------
                                X             Y             Z
Electronic contribution:     -0.00000       0.00000       0.00006
Nuclear contribution   :      0.00000       0.00000       1.32192
                        -----------------------------------------
Total Dipole Moment    :     -0.00000       0.00000       1.32199
                        -----------------------------------------
Magnitude (a.u.)       :      1.32199
Magnitude (Debye)      :      3.36022

Rotational constants in cm-1:     0.345203     0.343596     0.172199
Rotational constants in MHz : 10348.914599 10300.755762  5162.389512

                             ****ORCA TERMINATED NORMALLY****
TOTAL RUN TIME: 0 days 0 hours 0 minutes 50 seconds 866 msec
