                         Program Version 5.0.3 -  RELEASE  -
|  1> !ri-mp2 aug-cc-pvdz aug-cc-pvdz/c tightscf
|  2> %pal nprocs 16 end
|  3>
|  4> * xyz 0 1
|  5> C      0.396947   -0.334365    0.000000
|  6> C     -0.354044    1.033767    0.000000
|  7> F      1.717331   -0.069343    0.000000
|  8> Cl    -0.012320   -1.251697    1.466556
|  9> Cl    -0.012320   -1.251697   -1.466556
| 10> F     -1.674751    0.856796    0.000000
| 11> F     -0.012320    1.737455    1.082744
| 12> F     -0.012320    1.737455   -1.082744
| 13> *
| 14>
| 15>                          ****END OF INPUT****

CARTESIAN COORDINATES (ANGSTROEM)
---------------------------------
  C      0.396947   -0.334365    0.000000
  C     -0.354044    1.033767    0.000000
  F      1.717331   -0.069343    0.000000
  Cl    -0.012320   -1.251697    1.466556
  Cl    -0.012320   -1.251697   -1.466556
  F     -1.674751    0.856796    0.000000
  F     -0.012320    1.737455    1.082744
  F     -0.012320    1.737455   -1.082744

 Total Charge           Charge          ....    0
 Multiplicity           Mult            ....    1
 Number of Electrons    NEL             ....   82
 Basis Dimension        Dim             ....  192

ORBITAL ENERGIES
----------------

  NO   OCC          E(Eh)            E(eV)
   0   2.0000    -104.886291     -2854.1011
   1   2.0000    -104.886290     -2854.1011
   2   2.0000     -26.386605      -718.0160
   3   2.0000     -26.384794      -717.9667
   4   2.0000     -26.384507      -717.9589
   5   2.0000     -26.384486      -717.9584
   6   2.0000     -11.564542      -314.6872
   7   2.0000     -11.509056      -313.1773
   8   2.0000     -10.612699      -288.7862
   9   2.0000     -10.612676      -288.7856
  10   2.0000      -8.080424      -219.8795
  11   2.0000      -8.080421      -219.8794
  12   2.0000      -8.076666      -219.7772
  13   2.0000      -8.076664      -219.7772
  14   2.0000      -8.076604      -219.7756
  15   2.0000      -8.076603      -219.7755
  16   2.0000      -1.772487       -48.2318
  17   2.0000      -1.702418       -46.3251
  18   2.0000      -1.675745       -45.5993
  19   2.0000      -1.673901       -45.5492
  20   2.0000      -1.233728       -33.5715
  21   2.0000      -1.142292       -31.0833
  22   2.0000      -1.049025       -28.5454
  23   2.0000      -0.934659       -25.4334
  24   2.0000      -0.863681       -23.5020
  25   2.0000      -0.860097       -23.4044
  26   2.0000      -0.853162       -23.2157
  27   2.0000      -0.773638       -21.0518
  28   2.0000      -0.759476       -20.6664
  29   2.0000      -0.738572       -20.0976
  30   2.0000      -0.733542       -19.9607
  31   2.0000      -0.715499       -19.4697
  32   2.0000      -0.695825       -18.9344
  33   2.0000      -0.695121       -18.9152
  34   2.0000      -0.680296       -18.5118
  35   2.0000      -0.606717       -16.5096
  36   2.0000      -0.594721       -16.1832
  37   2.0000      -0.523643       -14.2491
  38   2.0000      -0.503901       -13.7118
  39   2.0000      -0.501944       -13.6586
  40   2.0000      -0.480208       -13.0671
  41   0.0000       0.061698         1.6789
  42   0.0000       0.076612         2.0847
  43   0.0000       0.078529         2.1369
  44   0.0000       0.092083         2.5057
  45   0.0000       0.104354         2.8396

MULLIKEN ATOMIC CHARGES
-----------------------
   0 C :    0.087433
   1 C :    2.224432
   2 F :   -0.607332
   3 Cl:   -0.001857
   4 Cl:   -0.001857
   5 F :   -0.563254
   6 F :   -0.568782
   7 F :   -0.568782
Sum of atomic charges:    0.0000000

LOEWDIN ATOMIC CHARGES
----------------------
   0 C :   -0.981887
   1 C :   -0.460399
   2 F :    0.019368
   3 Cl:    0.575177
   4 Cl:    0.575177
   5 F :    0.087201
   6 F :    0.092681
   7 F :    0.092681

  Mayer bond orders larger than 0.100000
B(  0-C ,  1-C ) :   0.9094 B(  0-C ,  2-F ) :   0.3001 B(  0-C ,  3-Cl) :   1.2074
B(  0-C ,  4-Cl) :   1.2074 B(  1-C ,  2-F ) :   0.1564 B(  1-C ,  5-F ) :   0.4217
B(  1-C ,  6-F ) :   0.3615 B(  1-C ,  7-F ) :   0.3615

MP2 TOTAL ENERGY:    -1393.922896344 Eh
FINAL SINGLE POINT ENERGY     -1393.922896343663

DIPOLE MOMENT
-------------
                                X             Y             Z
Electronic contribution:     -0.10513       0.27554       0.00000
Nuclear contribution   :      0.01580      -0.56582       0.00000
                        -----------------------------------------
Total Dipole Moment    :     -0.08933      -0.29028       0.00000
                        -----------------------------------------
Magnitude (a.u.)       :      0.30372
Magnitude (Debye)      :      0.77198

Rotational constants in cm-1:     0.055917     0.045967     0.036699
Rotational constants in MHz :  1676.340067  1378.048398  1100.198162

                             ****ORCA TERMINATED NORMALLY****
TOTAL RUN TIME: 0 days 0 hours 0 minutes 32 seconds 785 msec
