                         Program Version 5.0.3 -  RELEASE  -
|  1> !ri-mp2 aug-cc-pvdz aug-cc-pvdz/c tightscf
|  2> %pal nprocs 16 end
|  3> %maxcore 3800
|  4>
|  5> * xyz 0 1
|  6> C      1.958541   -0.478093    0.193954
|  7> C     -1.985911   -0.370129    0.044281
|  8> C      3.315328   -0.651679   -0.427177
|  9> C     -2.706370   -1.406200   -0.772082
| 10> C     -0.282027    2.350782   -0.151313
| 11> C      0.025654    0.906381    0.152375
| 12> O      1.466249   -1.192700    1.024364
| 13> O     -2.348571    0.063105    1.107404
| 14> O      1.336474    0.624435   -0.316945
| 15> O     -0.847020    0.027067   -0.577278
| 16> H      3.206350   -0.834642   -1.496483
| 17> H      3.901786    0.259171   -0.311364
| 18> H      3.823877   -1.488732    0.040209
| 19> H     -2.793777   -1.084287   -1.808678
| 20> H     -2.130275   -2.332268   -0.762710
| 21> H     -3.688403   -1.585106   -0.345883
| 22> H      0.418059    2.997677    0.375816
| 23> H     -1.291702    2.583448    0.181303
| 24> H     -0.200399    2.536528   -1.221464
| 25> H     -0.053858    0.666591    1.208658
| 26> *
| 27>
| 28>                          ****END OF INPUT****

CARTESIAN COORDINATES (ANGSTROEM)
---------------------------------
  C      1.958541   -0.478093    0.193954
  C     -1.985911   -0.370129    0.044281
  C      3.315328   -0.651679   -0.427177
  C     -2.706370   -1.406200   -0.772082
  C     -0.282027    2.350782   -0.151313
  C      0.025654    0.906381    0.152375
  O      1.466249   -1.192700    1.024364
  O     -2.348571    0.063105    1.107404
  O      1.336474    0.624435   -0.316945
  O     -0.847020    0.027067   -0.577278
  H      3.206350   -0.834642   -1.496483
  H      3.901786    0.259171   -0.311364
  H      3.823877   -1.488732    0.040209
  H     -2.793777   -1.084287   -1.808678
  H     -2.130275   -2.332268   -0.762710
  H     -3.688403   -1.585106   -0.345883
  H      0.418059    2.997677    0.375816
  H     -1.291702    2.583448    0.181303
  H     -0.200399    2.536528   -1.221464
  H     -0.053858    0.666591    1.208658

 Total Charge           Charge          ....    0
 Multiplicity           Mult            ....    1
 Number of Electrons    NEL             ....   78
 Basis Dimension        Dim             ....  320

ORBITAL ENERGIES
----------------

  NO   OCC          E(Eh)            E(eV)
   0   2.0000     -20.621093      -561.1285
   1   2.0000     -20.615569      -560.9782
   2   2.0000     -20.565371      -559.6122
   3   2.0000     -20.558951      -559.4375
   4   2.0000     -11.399763      -310.2033
   5   2.0000     -11.395413      -310.0850
   6   2.0000     -11.364466      -309.2428
   7   2.0000     -11.254033      -306.2378
   8   2.0000     -11.248751      -306.0941
   9   2.0000     -11.236511      -305.7610
  10   2.0000      -1.492109       -40.6024
  11   2.0000      -1.455663       -39.6106
  12   2.0000      -1.385313       -37.6963
  13   2.0000      -1.358691       -36.9719
  14   2.0000      -1.073014       -29.1982
  15   2.0000      -1.024059       -27.8661
  16   2.0000      -1.004722       -27.3399
  17   2.0000      -0.890257       -24.2251
  18   2.0000      -0.813256       -22.1298
  19   2.0000      -0.791361       -21.5340
  20   2.0000      -0.710951       -19.3460
  21   2.0000      -0.700556       -19.0631
  22   2.0000      -0.695953       -18.9378
  23   2.0000      -0.661621       -18.0036
  24   2.0000      -0.653160       -17.7734
  25   2.0000      -0.638911       -17.3856
  26   2.0000      -0.599029       -16.3004
  27   2.0000      -0.586963       -15.9721
  28   2.0000      -0.580887       -15.8067
  29   2.0000      -0.573084       -15.5944
  30   2.0000      -0.568308       -15.4645
  31   2.0000      -0.549935       -14.9645
  32   2.0000      -0.549164       -14.9435
  33   2.0000      -0.528711       -14.3870
  34   2.0000      -0.507709       -13.8155
  35   2.0000      -0.486297       -13.2328
  36   2.0000      -0.470057       -12.7909
  37   2.0000      -0.453877       -12.3506
  38   2.0000      -0.449254       -12.2248
  39   0.0000       0.031645         0.8611
  40   0.0000       0.039896         1.0856
  41   0.0000       0.043251         1.1769
  42   0.0000       0.050373         1.3707
  43   0.0000       0.060663         1.6507

MULLIKEN ATOMIC CHARGES
-----------------------
   0 C :    0.612058
   1 C :    0.713511
   2 C :    0.307766
   3 C :    0.299970
   4 C :    0.554313
   5 C :    0.985007
   6 O :   -0.678830
   7 O :   -0.703650
   8 O :   -0.960201
   9 O :   -1.019761
  10 H :    0.042889
  11 H :    0.034890
  12 H :   -0.021657
  13 H :    0.001908
  14 H :    0.059858
  15 H :   -0.018082
  16 H :   -0.054435
  17 H :   -0.058050
  18 H :    0.009113
  19 H :   -0.106617
Sum of atomic charges:   -0.0000000

LOEWDIN ATOMIC CHARGES
----------------------
   0 C :   -0.343687
   1 C :   -0.353563
   2 C :    0.210863
   3 C :    0.210871
   4 C :    0.189115
   5 C :   -0.197352
   6 O :    0.064642
   7 O :    0.055005
   8 O :    0.092287
   9 O :    0.092000
  10 H :   -0.002586
  11 H :   -0.004908
  12 H :   -0.005793
  13 H :   -0.006771
  14 H :   -0.001046
  15 H :   -0.006195
  16 H :   -0.005641
  17 H :   -0.005017
  18 H :   -0.002818
  19 H :    0.020595

  Mayer bond orders larger than 0.100000
B(  0-C ,  2-C ) :   1.0522 B(  0-C ,  6-O ) :   1.5551 B(  0-C ,  8-O ) :   0.8351
B(  0-C , 12-H ) :   0.1180 B(  1-C ,  3-C ) :   1.0680 B(  1-C ,  7-O ) :   1.5088
B(  1-C ,  9-O ) :   0.7460 B(  1-C , 15-H ) :   0.1185 B(  2-C , 10-H ) :   0.9388
B(  2-C , 11-H ) :   0.9503 B(  2-C , 12-H ) :   0.8679 B(  3-C , 13-H ) :   0.9585
B(  3-C , 14-H ) :   0.9516 B(  3-C , 15-H ) :   0.8613 B(  4-C ,  5-C ) :   1.2308
B(  4-C , 16-H ) :   0.8520 B(  4-C , 17-H ) :   0.8652 B(  4-C , 18-H ) :   0.8829
B(  5-C ,  8-O ) :   0.4130 B(  5-C ,  9-O ) :   0.3579 B(  5-C , 16-H ) :   0.1029
B(  5-C , 17-H ) :   0.1185 B(  5-C , 19-H ) :   0.7774

MP2 TOTAL ENERGY:     -534.225151431 Eh
FINAL SINGLE POINT ENERGY      -534.225151431018

DIPOLE MOMENT
-------------
                                X             Y             Z
Electronic contribution:     -0.58279      -1.42615       2.94163
Nuclear contribution   :      1.18828       1.71491      -4.13089
                        -----------------------------------------
Total Dipole Moment    :      0.60550       0.28877      -1.18926
                        -----------------------------------------
Magnitude (a.u.)       :      1.36541
Magnitude (Debye)      :      3.47060

Rotational constants in cm-1:     0.071268     0.027701     0.023438
Rotational constants in MHz :  2136.556987   830.447820   702.644260

                             ****ORCA TERMINATED NORMALLY****
TOTAL RUN TIME: 0 days 0 hours 1 minutes 48 seconds 779 msec
