                         Program Version 5.0.3 -  RELEASE  -
|  1> !ri-mp2 aug-cc-pvdz aug-cc-pvdz/c tightscf
|  2> %pal nprocs 16 end
|  3>
|  4> * xyz 0 1
|  5> C      0.754145    0.274218   -0.000001
|  6> C      2.080251   -0.448669    0.000000
|  7> C     -2.006474    0.397153    0.000001
|  8> O      0.648332    1.474901    0.000000
|  9> S     -0.661464   -0.824798    0.000000
| 10> H      1.966836   -1.530536   -0.000035
| 11> H      2.644386   -0.141223    0.880822
| 12> H      2.644418   -0.141166   -0.880780
| 13> H     -1.944496    1.019312    0.888116
| 14> H     -2.937384   -0.164322    0.000020
| 15> H     -1.944520    1.019289   -0.888133
| 16> *
| 17>
| 18>                          ****END OF INPUT****

CARTESIAN COORDINATES (ANGSTROEM)
---------------------------------
  C      0.754145    0.274218   -0.000001
  C      2.080251   -0.448669    0.000000
  C     -2.006474    0.397153    0.000001
  O      0.648332    1.474901    0.000000
  S     -0.661464   -0.824798    0.000000
  H      1.966836   -1.530536   -0.000035
  H      2.644386   -0.141223    0.880822
  H      2.644418   -0.141166   -0.880780
  H     -1.944496    1.019312    0.888116
  H     -2.937384   -0.164322    0.000020
  H     -1.944520    1.019289   -0.888133

 Total Charge           Charge          ....    0
 Multiplicity           Mult            ....    1
 Number of Electrons    NEL             ....   48
 Basis Dimension        Dim             ....  173

ORBITAL ENERGIES
----------------

  NO   OCC          E(Eh)            E(eV)
   0   2.0000     -91.972277     -2502.6929
   1   2.0000     -20.567902      -559.6811
   2   2.0000     -11.372833      -309.4705
   3   2.0000     -11.266997      -306.5906
   4   2.0000     -11.253028      -306.2105
   5   2.0000      -8.975257      -244.2291
   6   2.0000      -6.657169      -181.1508
   7   2.0000      -6.655501      -181.1054
   8   2.0000      -6.653885      -181.0614
   9   2.0000      -1.409990       -38.3678
  10   2.0000      -1.071004       -29.1435
  11   2.0000      -1.017734       -27.6940
  12   2.0000      -0.895714       -24.3736
  13   2.0000      -0.736006       -20.0277
  14   2.0000      -0.654140       -17.8001
  15   2.0000      -0.639328       -17.3970
  16   2.0000      -0.620624       -16.8880
  17   2.0000      -0.590844       -16.0777
  18   2.0000      -0.587795       -15.9947
  19   2.0000      -0.542622       -14.7655
  20   2.0000      -0.516902       -14.0656
  21   2.0000      -0.481095       -13.0913
  22   2.0000      -0.407229       -11.0813
  23   2.0000      -0.371197       -10.1008
  24   0.0000       0.035854         0.9756
  25   0.0000       0.041490         1.1290
  26   0.0000       0.054088         1.4718
  27   0.0000       0.055935         1.5221
  28   0.0000       0.066682         1.8145

MULLIKEN ATOMIC CHARGES
-----------------------
   0 C :    0.085767
   1 C :    0.445856
   2 C :    0.068838
   3 O :   -0.780347
   4 S :    0.319502
   5 H :   -0.074146
   6 H :    0.041281
   7 H :    0.041271
   8 H :   -0.022648
   9 H :   -0.102726
  10 H :   -0.022648
Sum of atomic charges:    0.0000000

LOEWDIN ATOMIC CHARGES
----------------------
   0 C :   -0.611545
   1 C :    0.134077
   2 C :   -0.115044
   3 O :   -0.009886
   4 S :    0.840161
   5 H :   -0.031912
   6 H :   -0.007378
   7 H :   -0.007379
   8 H :   -0.060650
   9 H :   -0.069794
  10 H :   -0.060649

  Mayer bond orders larger than 0.100000
B(  0-C ,  1-C ) :   1.1539 B(  0-C ,  3-O ) :   1.4407 B(  0-C ,  4-S ) :   1.0108
B(  1-C ,  5-H ) :   0.9247 B(  1-C ,  6-H ) :   0.8898 B(  1-C ,  7-H ) :   0.8898
B(  2-C ,  4-S ) :   1.0609 B(  2-C ,  8-H ) :   0.9811 B(  2-C ,  9-H ) :   1.0246
B(  2-C , 10-H ) :   0.9811

MP2 TOTAL ENERGY:     -590.295378990 Eh
FINAL SINGLE POINT ENERGY      -590.295378990124

DIPOLE MOMENT
-------------
                                X             Y             Z
Electronic contribution:     -0.50788      -0.69558      -0.00001
Nuclear contribution   :      0.45991       0.11006       0.00001
                        -----------------------------------------
Total Dipole Moment    :     -0.04797      -0.58552       0.00000
                        -----------------------------------------
Magnitude (a.u.)       :      0.58748
Magnitude (Debye)      :      1.49325

Rotational constants in cm-1:     0.244423     0.101600     0.073749
Rotational constants in MHz :  7327.608863  3045.893160  2210.928544

                             ****ORCA TERMINATED NORMALLY****
TOTAL RUN TIME: 0 days 0 hours 0 minutes 41 seconds 622 msec
