                         Program Version 5.0.3 -  RELEASE  -
|  1> !ri-mp2 aug-cc-pvdz aug-cc-pvdz/c tightscf
|  2> %pal nprocs 16 end
|  3>
|  4> * xyz 0 1
|  5> C      0.000000    0.000000    0.000000
|  6> C      0.000000    0.000000    1.271509
|  7> C      0.000000    0.000000   -1.271509
|  8> O      0.000000    0.000000    2.431267
|  9> O      0.000000    0.000000   -2.431267
| 10> *
| 11>
| 12>                          ****END OF INPUT****

CARTESIAN COORDINATES (ANGSTROEM)
---------------------------------
  C      0.000000    0.000000    0.000000
  C      0.000000    0.000000    1.271509
  C      0.000000    0.000000   -1.271509
  O      0.000000    0.000000    2.431267
  O      0.000000    0.000000   -2.431267

 Total Charge           Charge          ....    0
 Multiplicity           Mult            ....    1
 Number of Electrons    NEL             ....   34
 Basis Dimension        Dim             ....  115

ORBITAL ENERGIES
----------------

  NO   OCC          E(Eh)            E(eV)
   0   2.0000     -20.664631      -562.3132
   1   2.0000     -20.664628      -562.3131
   2   2.0000     -11.444095      -311.4096
   3   2.0000     -11.444073      -311.4091
   4   2.0000     -11.265641      -306.5537
   5   2.0000      -1.507235       -41.0140
   6   2.0000      -1.506155       -40.9846
   7   2.0000      -1.120193       -30.4820
   8   2.0000      -0.947926       -25.7944
   9   2.0000      -0.765829       -20.8393
  10   2.0000      -0.754252       -20.5242
  11   2.0000      -0.674231       -18.3467
  12   2.0000      -0.674231       -18.3467
  13   2.0000      -0.642384       -17.4802
  14   2.0000      -0.642384       -17.4802
  15   2.0000      -0.410097       -11.1593
  16   2.0000      -0.410097       -11.1593
  17   0.0000       0.056370         1.5339
  18   0.0000       0.066677         1.8144
  19   0.0000       0.068394         1.8611
  20   0.0000       0.068394         1.8611
  21   0.0000       0.078438         2.1344

MULLIKEN ATOMIC CHARGES
-----------------------
   0 C :    1.230046
   1 C :   -0.126904
   2 C :   -0.126904
   3 O :   -0.488119
   4 O :   -0.488119
Sum of atomic charges:   -0.0000000

LOEWDIN ATOMIC CHARGES
----------------------
   0 C :   -0.001229
   1 C :   -0.126685
   2 C :   -0.126685
   3 O :    0.127299
   4 O :    0.127299

  Mayer bond orders larger than 0.100000
B(  0-C ,  1-C ) :   1.2463 B(  0-C ,  2-C ) :   1.2463 B(  0-C ,  3-O ) :  -0.3906
B(  0-C ,  4-O ) :  -0.3906 B(  1-C ,  2-C ) :   0.6515 B(  1-C ,  3-O ) :   2.2159
B(  1-C ,  4-O ) :   0.1444 B(  2-C ,  3-O ) :   0.1444 B(  2-C ,  4-O ) :   2.2159

MP2 TOTAL ENERGY:     -264.076007576 Eh
FINAL SINGLE POINT ENERGY      -264.076007575993

DIPOLE MOMENT
-------------
                                X             Y             Z
Electronic contribution:      0.00000       0.00000       0.00000
Nuclear contribution   :      0.00000       0.00000       0.00000
                        -----------------------------------------
Total Dipole Moment    :      0.00000       0.00000       0.00000
                        -----------------------------------------
Magnitude (a.u.)       :      0.00000
Magnitude (Debye)      :      0.00000

Rotational constants in cm-1:     0.000000     0.073944     0.073944
Rotational constants in MHz :     0.000000  2216.778076  2216.778076

                             ****ORCA TERMINATED NORMALLY****
TOTAL RUN TIME: 0 days 0 hours 0 minutes 39 seconds 309 msec
