                         Program Version 5.0.3 -  RELEASE  -
|  1> !ri-mp2 aug-cc-pvdz aug-cc-pvdz/c tightscf
|  2> %pal nprocs 16 end
|  3>
|  4> * xyz 0 1
|  5> S      0.913405   -0.731150   -0.602876
|  6> S     -1.659560    0.749648   -0.498267
|  7> N      3.513666   -0.356225    0.501355
|  8> N     -2.753361   -1.506382    0.868888
|  9> C      0.061580    0.725895    0.003060
| 10> C      2.453147   -0.497661    0.065289
| 11> C     -2.270244   -0.603474    0.334802
| 12> C      0.589938    1.764744    0.634480
| 13> H      1.649607    1.825737    0.840445
| 14> H     -0.039790    2.579515    0.960377
| 15> *
| 16>
| 17>                          ****END OF INPUT****

CARTESIAN COORDINATES (ANGSTROEM)
---------------------------------
  S      0.913405   -0.731150   -0.602876
  S     -1.659560    0.749648   -0.498267
  N      3.513666   -0.356225    0.501355
  N     -2.753361   -1.506382    0.868888
  C      0.061580    0.725895    0.003060
  C      2.453147   -0.497661    0.065289
  C     -2.270244   -0.603474    0.334802
  C      0.589938    1.764744    0.634480
  H      1.649607    1.825737    0.840445
  H     -0.039790    2.579515    0.960377

 Total Charge           Charge          ....    0
 Multiplicity           Mult            ....    1
 Number of Electrons    NEL             ....   72
 Basis Dimension        Dim             ....  210

ORBITAL ENERGIES
----------------

  NO   OCC          E(Eh)            E(eV)
   0   2.0000     -92.059721     -2505.0724
   1   2.0000     -92.056254     -2504.9780
   2   2.0000     -15.620061      -425.0435
   3   2.0000     -15.615711      -424.9251
   4   2.0000     -11.364811      -309.2522
   5   2.0000     -11.329550      -308.2927
   6   2.0000     -11.325630      -308.1861
   7   2.0000     -11.303746      -307.5906
   8   2.0000      -9.059597      -246.5242
   9   2.0000      -9.056802      -246.4481
  10   2.0000      -6.741736      -183.4520
  11   2.0000      -6.739870      -183.4012
  12   2.0000      -6.739035      -183.3785
  13   2.0000      -6.737724      -183.3428
  14   2.0000      -6.736932      -183.3212
  15   2.0000      -6.734707      -183.2607
  16   2.0000      -1.261558       -34.3287
  17   2.0000      -1.256010       -34.1778
  18   2.0000      -1.183127       -32.1945
  19   2.0000      -1.074234       -29.2314
  20   2.0000      -1.038853       -28.2686
  21   2.0000      -0.836294       -22.7567
  22   2.0000      -0.734034       -19.9741
  23   2.0000      -0.708495       -19.2791
  24   2.0000      -0.657446       -17.8900
  25   2.0000      -0.612326       -16.6622
  26   2.0000      -0.584971       -15.9179
  27   2.0000      -0.578327       -15.7371
  28   2.0000      -0.559877       -15.2350
  29   2.0000      -0.555590       -15.1184
  30   2.0000      -0.547646       -14.9022
  31   2.0000      -0.498720       -13.5709
  32   2.0000      -0.482420       -13.1273
  33   2.0000      -0.475868       -12.9490
  34   2.0000      -0.415396       -11.3035
  35   2.0000      -0.385774       -10.4975
  36   0.0000       0.027875         0.7585
  37   0.0000       0.051394         1.3985
  38   0.0000       0.052113         1.4181
  39   0.0000       0.057702         1.5702
  40   0.0000       0.064847         1.7646

MULLIKEN ATOMIC CHARGES
-----------------------
   0 S :    0.736167
   1 S :    0.544611
   2 N :   -0.317359
   3 N :   -0.333714
   4 C :   -0.332015
   5 C :   -0.302486
   6 C :   -0.173353
   7 C :    0.671058
   8 H :   -0.233113
   9 H :   -0.259797
Sum of atomic charges:   -0.0000000

LOEWDIN ATOMIC CHARGES
----------------------
   0 S :    0.913431
   1 S :    0.898553
   2 N :    0.012269
   3 N :    0.002419
   4 C :   -0.809342
   5 C :   -0.525320
   6 C :   -0.531991
   7 C :    0.112757
   8 H :   -0.039444
   9 H :   -0.033332

  Mayer bond orders larger than 0.100000
B(  0-S ,  4-C ) :   1.0499 B(  0-S ,  5-C ) :   0.8571 B(  1-S ,  4-C ) :   1.0055
B(  1-S ,  6-C ) :   0.8824 B(  2-N ,  5-C ) :   2.4590 B(  3-N ,  6-C ) :   2.5376
B(  4-C ,  7-C ) :   1.6881 B(  7-C ,  8-H ) :   0.8669 B(  7-C ,  9-H ) :   0.8723
B(  8-H ,  9-H ) :  -0.1691

MP2 TOTAL ENERGY:    -1057.681536122 Eh
FINAL SINGLE POINT ENERGY     -1057.681536121634

DIPOLE MOMENT
-------------
                                X             Y             Z
Electronic contribution:     -1.79514      -2.75906      -2.33954
Nuclear contribution   :      1.55702       4.17829       1.75247
                        -----------------------------------------
Total Dipole Moment    :     -0.23812       1.41923      -0.58706
                        -----------------------------------------
Magnitude (a.u.)       :      1.55421
Magnitude (Debye)      :      3.95048

Rotational constants in cm-1:     0.098429     0.029231     0.025341
Rotational constants in MHz :  2950.829160   876.337826   759.716011

                             ****ORCA TERMINATED NORMALLY****
TOTAL RUN TIME: 0 days 0 hours 0 minutes 39 seconds 41 msec
