                         Program Version 5.0.3 -  RELEASE  -
|  1> !ri-mp2 aug-cc-pvdz aug-cc-pvdz/c tightscf
|  2> %pal nprocs 16 end
|  3>
|  4> * xyz 0 1
|  5> S      2.234917   -0.046861   -0.380987
|  6> O      1.029141    0.354103    0.770290
|  7> N     -0.255522    0.153491    0.329665
|  8> N     -0.759156   -1.072879    0.283649
|  9> C     -1.110151    1.132332   -0.046094
| 10> C     -2.009920   -0.883942   -0.135575
| 11> C     -2.285470    0.479908   -0.353541
| 12> H      2.229010   -1.378082   -0.153039
| 13> H     -0.817337    2.166144   -0.049950
| 14> H     -2.661697   -1.731812   -0.260982
| 15> H     -3.205769    0.926620   -0.684484
| 16> *
| 17>
| 18>                          ****END OF INPUT****

CARTESIAN COORDINATES (ANGSTROEM)
---------------------------------
  S      2.234917   -0.046861   -0.380987
  O      1.029141    0.354103    0.770290
  N     -0.255522    0.153491    0.329665
  N     -0.759156   -1.072879    0.283649
  C     -1.110151    1.132332   -0.046094
  C     -2.009920   -0.883942   -0.135575
  C     -2.285470    0.479908   -0.353541
  H      2.229010   -1.378082   -0.153039
  H     -0.817337    2.166144   -0.049950
  H     -2.661697   -1.731812   -0.260982
  H     -3.205769    0.926620   -0.684484

 Total Charge           Charge          ....    0
 Multiplicity           Mult            ....    1
 Number of Electrons    NEL             ....   60
 Basis Dimension        Dim             ....  201

ORBITAL ENERGIES
----------------

  NO   OCC          E(Eh)            E(eV)
   0   2.0000     -92.033157     -2504.3495
   1   2.0000     -20.672893      -562.5380
   2   2.0000     -15.710912      -427.5157
   3   2.0000     -15.607457      -424.7005
   4   2.0000     -11.295045      -307.3538
   5   2.0000     -11.270013      -306.6727
   6   2.0000     -11.238495      -305.8150
   7   2.0000      -9.028572      -245.6799
   8   2.0000      -6.710712      -182.6078
   9   2.0000      -6.708529      -182.5484
  10   2.0000      -6.706118      -182.4827
  11   2.0000      -1.503572       -40.9143
  12   2.0000      -1.343555       -36.5600
  13   2.0000      -1.103183       -30.0191
  14   2.0000      -1.059544       -28.8317
  15   2.0000      -0.962954       -26.2033
  16   2.0000      -0.836428       -22.7604
  17   2.0000      -0.798845       -21.7377
  18   2.0000      -0.751468       -20.4485
  19   2.0000      -0.696136       -18.9428
  20   2.0000      -0.644130       -17.5277
  21   2.0000      -0.635079       -17.2814
  22   2.0000      -0.590932       -16.0801
  23   2.0000      -0.577758       -15.7216
  24   2.0000      -0.557891       -15.1810
  25   2.0000      -0.496680       -13.5154
  26   2.0000      -0.475878       -12.9493
  27   2.0000      -0.399671       -10.8756
  28   2.0000      -0.363541        -9.8925
  29   2.0000      -0.356904        -9.7118
  30   0.0000       0.034544         0.9400
  31   0.0000       0.042628         1.1600
  32   0.0000       0.044079         1.1994
  33   0.0000       0.055871         1.5203
  34   0.0000       0.072579         1.9750

MULLIKEN ATOMIC CHARGES
-----------------------
   0 S :    0.379833
   1 O :   -1.166805
   2 N :    0.324627
   3 N :   -0.523068
   4 C :    0.583221
   5 C :    0.536904
   6 C :    0.525797
   7 H :    0.156625
   8 H :   -0.281546
   9 H :   -0.232589
  10 H :   -0.303001
Sum of atomic charges:    0.0000000

LOEWDIN ATOMIC CHARGES
----------------------
   0 S :    0.733445
   1 O :   -0.243047
   2 N :   -0.321898
   3 N :    0.044823
   4 C :    0.068602
   5 C :   -0.043791
   6 C :    0.003148
   7 H :   -0.226090
   8 H :    0.008259
   9 H :   -0.008232
  10 H :   -0.015220

  Mayer bond orders larger than 0.100000
B(  0-S ,  1-O ) :   0.6544 B(  0-S ,  2-N ) :  -0.1849 B(  0-S ,  3-N ) :   0.1258
B(  0-S ,  7-H ) :   0.9464 B(  1-O ,  2-N ) :   0.4157 B(  1-O ,  4-C ) :  -0.1005
B(  2-N ,  3-N ) :   0.9656 B(  2-N ,  4-C ) :   1.3556 B(  2-N ,  5-C ) :  -0.1707
B(  2-N ,  6-C ) :  -0.1165 B(  3-N ,  5-C ) :   1.3808 B(  3-N ,  6-C ) :   0.1186
B(  4-C ,  6-C ) :   1.4625 B(  4-C ,  8-H ) :   0.8304 B(  5-C ,  6-C ) :   1.3214
B(  5-C ,  9-H ) :   0.9158 B(  6-C , 10-H ) :   0.7608

MP2 TOTAL ENERGY:     -698.225465277 Eh
FINAL SINGLE POINT ENERGY      -698.225465276517

DIPOLE MOMENT
-------------
                                X             Y             Z
Electronic contribution:      4.23264       0.35274       0.60326
Nuclear contribution   :     -4.38024      -0.01504      -1.08762
                        -----------------------------------------
Total Dipole Moment    :     -0.14761       0.33771      -0.48436
                        -----------------------------------------
Magnitude (a.u.)       :      0.60864
Magnitude (Debye)      :      1.54703

Rotational constants in cm-1:     0.222823     0.047584     0.043029
Rotational constants in MHz :  6680.065771  1426.522572  1289.975724

                             ****ORCA TERMINATED NORMALLY****
TOTAL RUN TIME: 0 days 0 hours 0 minutes 39 seconds 12 msec
