                         Program Version 5.0.3 -  RELEASE  -
|  1> !ri-mp2 aug-cc-pvdz aug-cc-pvdz/c tightscf
|  2> %pal nprocs 16 end
|  3>
|  4> * xyz 0 1
|  5> C     -1.004320   -0.762666    0.000000
|  6> C      1.322736   -0.237243    0.000000
|  7> C     -0.645498   -2.106337    0.000000
|  8> C      1.576680   -1.600517    0.000000
|  9> C      0.000000    0.203071    0.000000
| 10> C     -0.278823    1.682041    0.000000
| 11> C     -1.715873    2.149965    0.000000
| 12> N      0.617007   -2.529678    0.000000
| 13> O      0.639000    2.474708    0.000000
| 14> H     -2.050239   -0.492383    0.000000
| 15> H      2.126827    0.484057    0.000000
| 16> H     -1.409956   -2.874662    0.000000
| 17> H      2.596289   -1.967379    0.000000
| 18> H     -2.245005    1.777376    0.878947
| 19> H     -2.245005    1.777376   -0.878947
| 20> H     -1.733368    3.235824    0.000000
| 21> *
| 22>
| 23>                          ****END OF INPUT****

CARTESIAN COORDINATES (ANGSTROEM)
---------------------------------
  C     -1.004320   -0.762666    0.000000
  C      1.322736   -0.237243    0.000000
  C     -0.645498   -2.106337    0.000000
  C      1.576680   -1.600517    0.000000
  C      0.000000    0.203071    0.000000
  C     -0.278823    1.682041    0.000000
  C     -1.715873    2.149965    0.000000
  N      0.617007   -2.529678    0.000000
  O      0.639000    2.474708    0.000000
  H     -2.050239   -0.492383    0.000000
  H      2.126827    0.484057    0.000000
  H     -1.409956   -2.874662    0.000000
  H      2.596289   -1.967379    0.000000
  H     -2.245005    1.777376    0.878947
  H     -2.245005    1.777376   -0.878947
  H     -1.733368    3.235824    0.000000

 Total Charge           Charge          ....    0
 Multiplicity           Mult            ....    1
 Number of Electrons    NEL             ....   64
 Basis Dimension        Dim             ....  270

ORBITAL ENERGIES
----------------

  NO   OCC          E(Eh)            E(eV)
   0   2.0000     -20.572026      -559.7933
   1   2.0000     -15.588652      -424.1888
   2   2.0000     -11.357473      -309.0525
   3   2.0000     -11.291783      -307.2650
   4   2.0000     -11.288813      -307.1842
   5   2.0000     -11.278141      -306.8938
   6   2.0000     -11.265844      -306.5592
   7   2.0000     -11.257487      -306.3318
   8   2.0000     -11.252954      -306.2085
   9   2.0000      -1.408611       -38.3302
  10   2.0000      -1.276185       -34.7268
  11   2.0000      -1.120093       -30.4793
  12   2.0000      -1.051230       -28.6054
  13   2.0000      -1.022814       -27.8322
  14   2.0000      -0.900235       -24.4966
  15   2.0000      -0.871796       -23.7228
  16   2.0000      -0.783985       -21.3333
  17   2.0000      -0.716772       -19.5044
  18   2.0000      -0.687626       -18.7113
  19   2.0000      -0.662210       -18.0196
  20   2.0000      -0.636158       -17.3107
  21   2.0000      -0.621966       -16.9245
  22   2.0000      -0.618277       -16.8242
  23   2.0000      -0.611528       -16.6405
  24   2.0000      -0.560634       -15.2556
  25   2.0000      -0.555671       -15.1206
  26   2.0000      -0.528654       -14.3854
  27   2.0000      -0.515399       -14.0247
  28   2.0000      -0.444834       -12.1045
  29   2.0000      -0.423738       -11.5305
  30   2.0000      -0.393677       -10.7125
  31   2.0000      -0.358332        -9.7507
  32   0.0000       0.028849         0.7850
  33   0.0000       0.039870         1.0849
  34   0.0000       0.042512         1.1568
  35   0.0000       0.044063         1.1990
  36   0.0000       0.058621         1.5951

MULLIKEN ATOMIC CHARGES
-----------------------
   0 C :    1.090033
   1 C :    0.722925
   2 C :    0.210711
   3 C :    0.239281
   4 C :    0.386126
   5 C :    0.092394
   6 C :    0.466259
   7 N :   -0.644163
   8 O :   -0.831502
   9 H :   -0.633382
  10 H :   -0.551616
  11 H :   -0.309364
  12 H :   -0.308041
  13 H :    0.118449
  14 H :    0.118449
  15 H :   -0.166558
Sum of atomic charges:   -0.0000000

LOEWDIN ATOMIC CHARGES
----------------------
   0 C :    0.057877
   1 C :    0.075297
   2 C :   -0.022003
   3 C :   -0.015275
   4 C :   -0.131144
   5 C :   -0.260405
   6 C :    0.196375
   7 N :    0.040043
   8 O :    0.059404
   9 H :   -0.001661
  10 H :    0.009038
  11 H :    0.003214
  12 H :    0.003618
  13 H :   -0.003731
  14 H :   -0.003731
  15 H :   -0.006917

  Mayer bond orders larger than 0.100000
B(  0-C ,  1-C ) :  -0.4413 B(  0-C ,  2-C ) :   0.9048 B(  0-C ,  3-C ) :  -0.1325
B(  0-C ,  4-C ) :   1.4125 B(  0-C ,  5-C ) :  -0.3294 B(  0-C ,  6-C ) :  -0.1064
B(  0-C ,  7-N ) :  -0.1155 B(  1-C ,  3-C ) :   1.0428 B(  1-C ,  4-C ) :   1.1906
B(  1-C ,  5-C ) :  -0.5751 B(  1-C ,  7-N ) :  -0.1063 B(  2-C ,  3-C ) :   0.1731
B(  2-C ,  4-C ) :   0.1981 B(  2-C ,  5-C ) :   0.1194 B(  2-C ,  7-N ) :   1.3957
B(  2-C ,  9-H ) :   0.1768 B(  2-C , 11-H ) :   0.7879 B(  3-C ,  4-C ) :   0.2848
B(  3-C ,  7-N ) :   1.3361 B(  3-C , 10-H ) :   0.1266 B(  3-C , 12-H ) :   0.8662
B(  4-C ,  5-C ) :   1.1646 B(  4-C ,  9-H ) :   0.4963 B(  4-C , 10-H ) :   0.5402
B(  4-C , 12-H ) :   0.1283 B(  5-C ,  6-C ) :   1.1263 B(  5-C ,  8-O ) :   1.4620
B(  5-C , 15-H ) :   0.1677 B(  6-C , 13-H ) :   0.8920 B(  6-C , 14-H ) :   0.8920
B(  6-C , 15-H ) :   0.7800

MP2 TOTAL ENERGY:     -399.819809068 Eh
FINAL SINGLE POINT ENERGY      -399.819809068485

DIPOLE MOMENT
-------------
                                X             Y             Z
Electronic contribution:      3.82818      -1.97147       0.00000
Nuclear contribution   :     -4.90828       1.94909       0.00000
                        -----------------------------------------
Total Dipole Moment    :     -1.08011      -0.02238       0.00000
                        -----------------------------------------
Magnitude (a.u.)       :      1.08034
Magnitude (Debye)      :      2.74600

Rotational constants in cm-1:     0.128408     0.040377     0.030893
Rotational constants in MHz :  3849.566100  1210.469712   926.156085

                             ****ORCA TERMINATED NORMALLY****
TOTAL RUN TIME: 0 days 0 hours 1 minutes 23 seconds 692 msec
