                         Program Version 5.0.3 -  RELEASE  -
|  1> !ri-mp2 aug-cc-pvdz aug-cc-pvdz/c tightscf
|  2> %pal nprocs 16 end
|  3>
|  4> * xyz 0 1
|  5> C      2.480915   -0.213181   -0.298890
|  6> C      1.414749    0.338000    0.268186
|  7> C     -2.425591   -0.196397   -0.076523
|  8> C      0.075276   -0.316078    0.421811
|  9> C     -1.056864    0.450771   -0.277621
| 10> H      3.419178    0.318761   -0.382304
| 11> H      2.453489   -1.220352   -0.698261
| 12> H      1.492545    1.352012    0.652650
| 13> H     -2.441485   -1.215257   -0.468708
| 14> H     -3.209396    0.366453   -0.584990
| 15> H     -2.686714   -0.246940    0.982557
| 16> H      0.119287   -1.338660    0.037811
| 17> H     -0.166785   -0.392388    1.488258
| 18> H     -0.832514    0.519273   -1.344984
| 19> H     -1.078509    1.478406    0.096191
| 20> *
| 21>
| 22>                          ****END OF INPUT****

CARTESIAN COORDINATES (ANGSTROEM)
---------------------------------
  C      2.480915   -0.213181   -0.298890
  C      1.414749    0.338000    0.268186
  C     -2.425591   -0.196397   -0.076523
  C      0.075276   -0.316078    0.421811
  C     -1.056864    0.450771   -0.277621
  H      3.419178    0.318761   -0.382304
  H      2.453489   -1.220352   -0.698261
  H      1.492545    1.352012    0.652650
  H     -2.441485   -1.215257   -0.468708
  H     -3.209396    0.366453   -0.584990
  H     -2.686714   -0.246940    0.982557
  H      0.119287   -1.338660    0.037811
  H     -0.166785   -0.392388    1.488258
  H     -0.832514    0.519273   -1.344984
  H     -1.078509    1.478406    0.096191

 Total Charge           Charge          ....    0
 Multiplicity           Mult            ....    1
 Number of Electrons    NEL             ....   40
 Basis Dimension        Dim             ....  205

ORBITAL ENERGIES
----------------

  NO   OCC          E(Eh)            E(eV)
   0   2.0000     -11.236377      -305.7574
   1   2.0000     -11.228660      -305.5474
   2   2.0000     -11.226531      -305.4894
   3   2.0000     -11.223636      -305.4107
   4   2.0000     -11.219615      -305.3013
   5   2.0000      -1.089425       -29.6448
   6   2.0000      -1.024379       -27.8748
   7   2.0000      -0.924668       -25.1615
   8   2.0000      -0.812906       -22.1203
   9   2.0000      -0.756635       -20.5891
  10   2.0000      -0.649268       -17.6675
  11   2.0000      -0.615601       -16.7513
  12   2.0000      -0.590635       -16.0720
  13   2.0000      -0.565992       -15.4014
  14   2.0000      -0.537327       -14.6214
  15   2.0000      -0.509726       -13.8703
  16   2.0000      -0.482055       -13.1174
  17   2.0000      -0.470818       -12.8116
  18   2.0000      -0.469216       -12.7680
  19   2.0000      -0.357977        -9.7411
  20   0.0000       0.037787         1.0282
  21   0.0000       0.043795         1.1917
  22   0.0000       0.045807         1.2465
  23   0.0000       0.049898         1.3578
  24   0.0000       0.062338         1.6963

MULLIKEN ATOMIC CHARGES
-----------------------
   0 C :    0.405299
   1 C :    0.812496
   2 C :    0.405370
   3 C :    0.185426
   4 C :    0.029592
   5 H :   -0.293790
   6 H :   -0.286503
   7 H :   -0.461188
   8 H :   -0.082623
   9 H :   -0.078780
  10 H :   -0.068852
  11 H :   -0.216663
  12 H :   -0.070948
  13 H :   -0.117299
  14 H :   -0.161537
Sum of atomic charges:    0.0000000

LOEWDIN ATOMIC CHARGES
----------------------
   0 C :    0.156916
   1 C :   -0.069645
   2 C :    0.129823
   3 C :   -0.047590
   4 C :   -0.073123
   5 H :   -0.046363
   6 H :   -0.040776
   7 H :   -0.000868
   8 H :   -0.019732
   9 H :   -0.021675
  10 H :   -0.020188
  11 H :    0.014864
  12 H :    0.016629
  13 H :    0.012071
  14 H :    0.009655

  Mayer bond orders larger than 0.100000
B(  0-C ,  1-C ) :   1.9129 B(  0-C ,  5-H ) :   0.7441 B(  0-C ,  6-H ) :   0.9121
B(  1-C ,  3-C ) :   1.1441 B(  1-C ,  5-H ) :   0.1689 B(  1-C ,  7-H ) :   0.5822
B(  2-C ,  4-C ) :   1.2052 B(  2-C ,  8-H ) :   0.9292 B(  2-C ,  9-H ) :   0.9124
B(  2-C , 10-H ) :   0.9463 B(  3-C ,  4-C ) :   1.2388 B(  3-C , 11-H ) :   0.8070
B(  3-C , 12-H ) :   0.8605 B(  4-C , 13-H ) :   0.8702 B(  4-C , 14-H ) :   0.8257
B(  5-H ,  6-H ) :  -0.1923

MP2 TOTAL ENERGY:     -195.894176736 Eh
FINAL SINGLE POINT ENERGY      -195.894176735540

DIPOLE MOMENT
-------------
                                X             Y             Z
Electronic contribution:      2.96983       0.43334       0.26523
Nuclear contribution   :     -3.13935      -0.40562      -0.23755
                        -----------------------------------------
Total Dipole Moment    :     -0.16952       0.02772       0.02767
                        -----------------------------------------
Magnitude (a.u.)       :      0.17398
Magnitude (Debye)      :      0.44223

Rotational constants in cm-1:     0.616880     0.070431     0.069277
Rotational constants in MHz : 18493.590493  2111.482657  2076.857963

                             ****ORCA TERMINATED NORMALLY****
TOTAL RUN TIME: 0 days 0 hours 0 minutes 38 seconds 791 msec
