                         Program Version 5.0.3 -  RELEASE  -
|  1> !ri-mp2 aug-cc-pvdz aug-cc-pvdz/c tightscf
|  2> %pal nprocs 16 end
|  3>
|  4> * xyz 0 1
|  5> Cl   -2.228128   -1.021501   -0.416681
|  6> Cl   -1.176042    1.636902    0.087881
|  7> O     0.217710   -0.557728   -0.248136
|  8> O     2.451588   -0.549725   -0.247351
|  9> N    -0.936161   -0.161967    0.426500
| 10> C     1.373759   -0.430493    0.538916
| 11> C     1.403284   -0.296492    1.855640
| 12> C     2.597789    0.411824   -1.311164
| 13> H     0.502906   -0.317994    2.444647
| 14> H     2.358608   -0.182888    2.340675
| 15> H     3.551083    0.185303   -1.778270
| 16> H     1.794461    0.315767   -2.038707
| 17> H     2.613575    1.422361   -0.900703
| 18> *
| 19>
| 20>                          ****END OF INPUT****

CARTESIAN COORDINATES (ANGSTROEM)
---------------------------------
  Cl    -2.228128   -1.021501   -0.416681
  Cl    -1.176042    1.636902    0.087881
  O      0.217710   -0.557728   -0.248136
  O      2.451588   -0.549725   -0.247351
  N     -0.936161   -0.161967    0.426500
  C      1.373759   -0.430493    0.538916
  C      1.403284   -0.296492    1.855640
  C      2.597789    0.411824   -1.311164
  H      0.502906   -0.317994    2.444647
  H      2.358608   -0.182888    2.340675
  H      3.551083    0.185303   -1.778270
  H      1.794461    0.315767   -2.038707
  H      2.613575    1.422361   -0.900703

 Total Charge           Charge          ....    0
 Multiplicity           Mult            ....    1
 Number of Electrons    NEL             ....   80
 Basis Dimension        Dim             ....  237

ORBITAL ENERGIES
----------------

  NO   OCC          E(Eh)            E(eV)
   0   2.0000    -104.890018     -2854.2025
   1   2.0000    -104.876668     -2853.8392
   2   2.0000     -20.672355      -562.5234
   3   2.0000     -20.610961      -560.8528
   4   2.0000     -15.786106      -429.5618
   5   2.0000     -11.378137      -309.6148
   6   2.0000     -11.301643      -307.5333
   7   2.0000     -11.232457      -305.6507
   8   2.0000     -10.613165      -288.7989
   9   2.0000     -10.599481      -288.4266
  10   2.0000      -8.081025      -219.8959
  11   2.0000      -8.076636      -219.7764
  12   2.0000      -8.076460      -219.7717
  13   2.0000      -8.067106      -219.5171
  14   2.0000      -8.063147      -219.4094
  15   2.0000      -8.062956      -219.4042
  16   2.0000      -1.519938       -41.3596
  17   2.0000      -1.426056       -38.8050
  18   2.0000      -1.232761       -33.5451
  19   2.0000      -1.111329       -30.2408
  20   2.0000      -1.055585       -28.7239
  21   2.0000      -0.977969       -26.6119
  22   2.0000      -0.954133       -25.9633
  23   2.0000      -0.802346       -21.8329
  24   2.0000      -0.741205       -20.1692
  25   2.0000      -0.709917       -19.3178
  26   2.0000      -0.703943       -19.1553
  27   2.0000      -0.649993       -17.6872
  28   2.0000      -0.646177       -17.5834
  29   2.0000      -0.623352       -16.9623
  30   2.0000      -0.580381       -15.7930
  31   2.0000      -0.562474       -15.3057
  32   2.0000      -0.549649       -14.9567
  33   2.0000      -0.529948       -14.4206
  34   2.0000      -0.506815       -13.7911
  35   2.0000      -0.483981       -13.1698
  36   2.0000      -0.476517       -12.9667
  37   2.0000      -0.461544       -12.5592
  38   2.0000      -0.432017       -11.7558
  39   2.0000      -0.361233        -9.8297
  40   0.0000       0.035775         0.9735
  41   0.0000       0.042189         1.1480
  42   0.0000       0.047564         1.2943
  43   0.0000       0.056647         1.5414
  44   0.0000       0.060146         1.6367

MULLIKEN ATOMIC CHARGES
-----------------------
   0 Cl:    0.378902
   1 Cl:    0.207029
   2 O :   -0.727421
   3 O :   -0.947066
   4 N :   -0.391559
   5 C :    1.077851
   6 C :    0.557826
   7 C :    0.739319
   8 H :   -0.267146
   9 H :   -0.295447
  10 H :   -0.229718
  11 H :   -0.047147
  12 H :   -0.055422
Sum of atomic charges:   -0.0000000

LOEWDIN ATOMIC CHARGES
----------------------
   0 Cl:    0.444690
   1 Cl:    0.365161
   2 O :   -0.060102
   3 O :    0.037050
   4 N :   -0.644376
   5 C :   -0.362616
   6 C :    0.195429
   7 C :    0.184435
   8 H :   -0.053812
   9 H :   -0.035665
  10 H :   -0.024711
  11 H :   -0.027480
  12 H :   -0.018000

  Mayer bond orders larger than 0.100000
B(  0-Cl,  2-O ) :  -0.1549 B(  0-Cl,  4-N ) :   0.9411 B(  1-Cl,  4-N ) :   0.8403
B(  2-O ,  4-N ) :   0.9536 B(  2-O ,  5-C ) :   0.3993 B(  2-O ,  6-C ) :   0.1003
B(  3-O ,  5-C ) :   0.4378 B(  3-O ,  7-C ) :   0.6585 B(  5-C ,  6-C ) :   1.9326
B(  5-C ,  8-H ) :   0.1632 B(  6-C ,  8-H ) :   0.7828 B(  6-C ,  9-H ) :   0.8303
B(  7-C , 10-H ) :   1.0368 B(  7-C , 11-H ) :   0.9680 B(  7-C , 12-H ) :   0.9763
B(  8-H ,  9-H ) :  -0.1727

MP2 TOTAL ENERGY:    -1240.839848921 Eh
FINAL SINGLE POINT ENERGY     -1240.839848921009

DIPOLE MOMENT
-------------
                                X             Y             Z
Electronic contribution:    -14.59772      -0.11859      -0.75891
Nuclear contribution   :     14.95707       0.49806       0.50664
                        -----------------------------------------
Total Dipole Moment    :      0.35936       0.37947      -0.25227
                        -----------------------------------------
Magnitude (a.u.)       :      0.58032
Magnitude (Debye)      :      1.47507

Rotational constants in cm-1:     0.068578     0.028834     0.026380
Rotational constants in MHz :  2055.929550   864.421554   790.865669

                             ****ORCA TERMINATED NORMALLY****
TOTAL RUN TIME: 0 days 0 hours 1 minutes 14 seconds 158 msec
