                         Program Version 5.0.3 -  RELEASE  -
|  1> !ri-mp2 aug-cc-pvdz aug-cc-pvdz/c tightscf
|  2> %pal nprocs 16 end
|  3>
|  4> * xyz 0 1
|  5> S      2.227257    0.061467    0.015437
|  6> C      0.580287    0.139250    0.025344
|  7> N     -0.170607    1.260373    0.108482
|  8> C     -1.590238    1.151842   -0.196876
|  9> C     -1.989229   -0.260741    0.225693
| 10> S     -0.486681   -1.273692   -0.086772
| 11> H      0.312643    2.142650    0.044203
| 12> H     -1.765588    1.297506   -1.267875
| 13> H     -2.152266    1.906954    0.352089
| 14> H     -2.821611   -0.645528   -0.356536
| 15> H     -2.233067   -0.310700    1.285146
| 16> *
| 17>
| 18>                          ****END OF INPUT****

CARTESIAN COORDINATES (ANGSTROEM)
---------------------------------
  S      2.227257    0.061467    0.015437
  C      0.580287    0.139250    0.025344
  N     -0.170607    1.260373    0.108482
  C     -1.590238    1.151842   -0.196876
  C     -1.989229   -0.260741    0.225693
  S     -0.486681   -1.273692   -0.086772
  H      0.312643    2.142650    0.044203
  H     -1.765588    1.297506   -1.267875
  H     -2.152266    1.906954    0.352089
  H     -2.821611   -0.645528   -0.356536
  H     -2.233067   -0.310700    1.285146

 Total Charge           Charge          ....    0
 Multiplicity           Mult            ....    1
 Number of Electrons    NEL             ....   62
 Basis Dimension        Dim             ....  191

ORBITAL ENERGIES
----------------

  NO   OCC          E(Eh)            E(eV)
   0   2.0000     -91.989023     -2503.1486
   1   2.0000     -91.907786     -2500.9380
   2   2.0000     -15.626821      -425.2274
   3   2.0000     -11.381112      -309.6958
   4   2.0000     -11.312453      -307.8275
   5   2.0000     -11.297782      -307.4283
   6   2.0000      -8.991206      -244.6632
   7   2.0000      -8.911281      -242.4883
   8   2.0000      -6.672739      -181.5745
   9   2.0000      -6.671550      -181.5421
  10   2.0000      -6.669406      -181.4838
  11   2.0000      -6.593696      -179.4236
  12   2.0000      -6.590770      -179.3440
  13   2.0000      -6.589712      -179.3152
  14   2.0000      -1.310797       -35.6686
  15   2.0000      -1.086426       -29.5632
  16   2.0000      -1.063260       -28.9328
  17   2.0000      -0.934034       -25.4164
  18   2.0000      -0.863891       -23.5077
  19   2.0000      -0.796831       -21.6829
  20   2.0000      -0.702916       -19.1273
  21   2.0000      -0.677422       -18.4336
  22   2.0000      -0.598360       -16.2822
  23   2.0000      -0.583736       -15.8843
  24   2.0000      -0.577043       -15.7021
  25   2.0000      -0.522192       -14.2096
  26   2.0000      -0.506756       -13.7895
  27   2.0000      -0.477338       -12.9890
  28   2.0000      -0.383500       -10.4356
  29   2.0000      -0.332231        -9.0405
  30   2.0000      -0.326768        -8.8918
  31   0.0000       0.023561         0.6411
  32   0.0000       0.039033         1.0622
  33   0.0000       0.041379         1.1260
  34   0.0000       0.053161         1.4466
  35   0.0000       0.063580         1.7301

MULLIKEN ATOMIC CHARGES
-----------------------
   0 S :    0.050578
   1 C :   -0.217569
   2 N :   -0.473377
   3 C :    0.790448
   4 C :   -0.100536
   5 S :    0.503774
   6 H :   -0.115394
   7 H :   -0.174825
   8 H :   -0.138184
   9 H :   -0.025666
  10 H :   -0.099249
Sum of atomic charges:   -0.0000000

LOEWDIN ATOMIC CHARGES
----------------------
   0 S :    0.462737
   1 C :   -1.029324
   2 N :   -0.039078
   3 C :   -0.044993
   4 C :   -0.224903
   5 S :    0.886719
   6 H :    0.009044
   7 H :    0.018150
   8 H :    0.016632
   9 H :   -0.027408
  10 H :   -0.027577

  Mayer bond orders larger than 0.100000
B(  0-S ,  1-C ) :   1.7512 B(  1-C ,  2-N ) :   1.0813 B(  1-C ,  5-S ) :   1.0515
B(  1-C ,  6-H ) :  -0.1011 B(  2-N ,  3-C ) :   0.8128 B(  2-N ,  6-H ) :   1.1951
B(  3-C ,  4-C ) :   1.2573 B(  3-C ,  7-H ) :   0.7903 B(  3-C ,  8-H ) :   0.8974
B(  4-C ,  5-S ) :   1.0756 B(  4-C ,  9-H ) :   0.8992 B(  4-C , 10-H ) :   0.9433

MP2 TOTAL ENERGY:     -966.929716914 Eh
FINAL SINGLE POINT ENERGY      -966.929716913691

DIPOLE MOMENT
-------------
                                X             Y             Z
Electronic contribution:      6.18393      -3.38497      -0.08868
Nuclear contribution   :     -8.51286       4.33300       0.05848
                        -----------------------------------------
Total Dipole Moment    :     -2.32893       0.94803      -0.03021
                        -----------------------------------------
Magnitude (a.u.)       :      2.51467
Magnitude (Debye)      :      6.39178

Rotational constants in cm-1:     0.158027     0.061430     0.045433
Rotational constants in MHz :  4737.517645  1841.613248  1362.050352

                             ****ORCA TERMINATED NORMALLY****
TOTAL RUN TIME: 0 days 0 hours 0 minutes 38 seconds 392 msec
