                         Program Version 5.0.3 -  RELEASE  -
|  1> !ri-mp2 aug-cc-pvdz aug-cc-pvdz/c tightscf
|  2> %pal nprocs 16 end
|  3>
|  4> * xyz 0 1
|  5> C     -1.396817    0.429335    0.000000
|  6> C     -1.472698   -1.093148    0.000000
|  7> C      0.000000    1.004651    0.000000
|  8> C      1.112304    0.327742    0.000000
|  9> C      2.229478   -0.340821    0.000000
| 10> H     -1.928062    0.827718    0.870383
| 11> H     -1.928062    0.827718   -0.870383
| 12> H     -0.983848   -1.513104   -0.879616
| 13> H     -2.511270   -1.424852    0.000000
| 14> H     -0.983848   -1.513104    0.879616
| 15> H      0.069668    2.089604    0.000000
| 16> H      2.715910   -0.630267   -0.924292
| 17> H      2.715910   -0.630267    0.924292
| 18> *
| 19>
| 20>                          ****END OF INPUT****

CARTESIAN COORDINATES (ANGSTROEM)
---------------------------------
  C     -1.396817    0.429335    0.000000
  C     -1.472698   -1.093148    0.000000
  C      0.000000    1.004651    0.000000
  C      1.112304    0.327742    0.000000
  C      2.229478   -0.340821    0.000000
  H     -1.928062    0.827718    0.870383
  H     -1.928062    0.827718   -0.870383
  H     -0.983848   -1.513104   -0.879616
  H     -2.511270   -1.424852    0.000000
  H     -0.983848   -1.513104    0.879616
  H      0.069668    2.089604    0.000000
  H      2.715910   -0.630267   -0.924292
  H      2.715910   -0.630267    0.924292

 Total Charge           Charge          ....    0
 Multiplicity           Mult            ....    1
 Number of Electrons    NEL             ....   38
 Basis Dimension        Dim             ....  187

ORBITAL ENERGIES
----------------

  NO   OCC          E(Eh)            E(eV)
   0   2.0000     -11.254298      -306.2450
   1   2.0000     -11.243125      -305.9410
   2   2.0000     -11.239103      -305.8315
   3   2.0000     -11.237221      -305.7803
   4   2.0000     -11.219451      -305.2968
   5   2.0000      -1.097394       -29.8616
   6   2.0000      -1.026087       -27.9213
   7   2.0000      -0.944092       -25.6901
   8   2.0000      -0.843446       -22.9513
   9   2.0000      -0.690434       -18.7877
  10   2.0000      -0.632500       -17.2112
  11   2.0000      -0.617014       -16.7898
  12   2.0000      -0.604767       -16.4565
  13   2.0000      -0.595869       -16.2144
  14   2.0000      -0.506908       -13.7937
  15   2.0000      -0.500766       -13.6265
  16   2.0000      -0.498022       -13.5519
  17   2.0000      -0.370223       -10.0743
  18   2.0000      -0.358547        -9.7566
  19   0.0000       0.036372         0.9897
  20   0.0000       0.043122         1.1734
  21   0.0000       0.047458         1.2914
  22   0.0000       0.049105         1.3362
  23   0.0000       0.065899         1.7932

MULLIKEN ATOMIC CHARGES
-----------------------
   0 C :    0.045265
   1 C :    0.405540
   2 C :    0.660843
   3 C :   -0.690444
   4 C :    0.633247
   5 H :   -0.028729
   6 H :   -0.028729
   7 H :   -0.003678
   8 H :   -0.120417
   9 H :   -0.003678
  10 H :   -0.386651
  11 H :   -0.241284
  12 H :   -0.241284
Sum of atomic charges:    0.0000000

LOEWDIN ATOMIC CHARGES
----------------------
   0 C :   -0.072946
   1 C :    0.130793
   2 C :   -0.018547
   3 C :   -0.084251
   4 C :    0.157723
   5 H :    0.011904
   6 H :    0.011904
   7 H :   -0.015438
   8 H :   -0.020255
   9 H :   -0.015438
  10 H :   -0.000202
  11 H :   -0.042624
  12 H :   -0.042624

  Mayer bond orders larger than 0.100000
B(  0-C ,  1-C ) :   1.2283 B(  0-C ,  2-C ) :   1.0496 B(  0-C ,  3-C ) :  -0.1693
B(  0-C ,  5-H ) :   0.8249 B(  0-C ,  6-H ) :   0.8249 B(  1-C ,  2-C ) :  -0.1142
B(  1-C ,  3-C ) :   0.1367 B(  1-C ,  7-H ) :   0.9012 B(  1-C ,  8-H ) :   0.9190
B(  1-C ,  9-H ) :   0.9012 B(  2-C ,  3-C ) :   1.9263 B(  2-C ,  4-C ) :   0.3708
B(  2-C , 10-H ) :   0.6517 B(  3-C ,  4-C ) :   2.0951 B(  3-C , 11-H ) :   0.1532
B(  3-C , 12-H ) :   0.1532 B(  4-C , 10-H ) :   0.1081 B(  4-C , 11-H ) :   0.7066
B(  4-C , 12-H ) :   0.7066 B( 11-H , 12-H ) :  -0.1299

MP2 TOTAL ENERGY:     -194.659378171 Eh
FINAL SINGLE POINT ENERGY      -194.659378170516

DIPOLE MOMENT
-------------
                                X             Y             Z
Electronic contribution:      2.76529       2.07079      -0.00000
Nuclear contribution   :     -2.96870      -2.06032       0.00000
                        -----------------------------------------
Total Dipole Moment    :     -0.20341       0.01047      -0.00000
                        -----------------------------------------
Magnitude (a.u.)       :      0.20368
Magnitude (Debye)      :      0.51771

Rotational constants in cm-1:     0.344880     0.105419     0.084638
Rotational constants in MHz : 10339.253368  3160.371797  2537.398132

                             ****ORCA TERMINATED NORMALLY****
TOTAL RUN TIME: 0 days 0 hours 0 minutes 50 seconds 676 msec
