                         Program Version 5.0.3 -  RELEASE  -
|  1> !ri-mp2 aug-cc-pvdz aug-cc-pvdz/c tightscf
|  2> %pal nprocs 16 end
|  3>
|  4> * xyz 0 1
|  5> N     -0.215113    1.497969   -0.037148
|  6> N     -2.925719   -0.543036    0.011247
|  7> N      2.995579   -0.108089    0.011842
|  8> C     -0.435847    0.155615   -0.006082
|  9> C      0.526381   -0.803968   -0.007016
| 10> C     -1.814276   -0.244776   -0.000475
| 11> C      1.891978   -0.450754    0.001475
| 12> H      0.725085    1.844501    0.057268
| 13> H     -0.969933    2.136882    0.130733
| 14> H      0.252209   -1.846001   -0.016996
| 15> *
| 16>
| 17>                          ****END OF INPUT****

CARTESIAN COORDINATES (ANGSTROEM)
---------------------------------
  N     -0.215113    1.497969   -0.037148
  N     -2.925719   -0.543036    0.011247
  N      2.995579   -0.108089    0.011842
  C     -0.435847    0.155615   -0.006082
  C      0.526381   -0.803968   -0.007016
  C     -1.814276   -0.244776   -0.000475
  C      1.891978   -0.450754    0.001475
  H      0.725085    1.844501    0.057268
  H     -0.969933    2.136882    0.130733
  H      0.252209   -1.846001   -0.016996

 Total Charge           Charge          ....    0
 Multiplicity           Mult            ....    1
 Number of Electrons    NEL             ....   48
 Basis Dimension        Dim             ....  188

ORBITAL ENERGIES
----------------

  NO   OCC          E(Eh)            E(eV)
   0   2.0000     -15.638527      -425.5460
   1   2.0000     -15.629007      -425.2869
   2   2.0000     -15.598514      -424.4571
   3   2.0000     -11.389093      -309.9130
   4   2.0000     -11.323133      -308.1181
   5   2.0000     -11.301871      -307.5395
   6   2.0000     -11.298202      -307.4397
   7   2.0000      -1.309508       -35.6335
   8   2.0000      -1.259444       -34.2712
   9   2.0000      -1.239617       -33.7317
  10   2.0000      -1.103228       -30.0203
  11   2.0000      -0.958172       -26.0732
  12   2.0000      -0.804045       -21.8792
  13   2.0000      -0.774875       -21.0854
  14   2.0000      -0.698416       -19.0049
  15   2.0000      -0.662423       -18.0255
  16   2.0000      -0.607666       -16.5354
  17   2.0000      -0.598158       -16.2767
  18   2.0000      -0.572693       -15.5838
  19   2.0000      -0.518075       -14.0976
  20   2.0000      -0.514615       -14.0034
  21   2.0000      -0.496824       -13.5193
  22   2.0000      -0.483754       -13.1636
  23   2.0000      -0.363618        -9.8945
  24   0.0000       0.023332         0.6349
  25   0.0000       0.038617         1.0508
  26   0.0000       0.043084         1.1724
  27   0.0000       0.056095         1.5264
  28   0.0000       0.079063         2.1514

MULLIKEN ATOMIC CHARGES
-----------------------
   0 N :   -0.437015
   1 N :   -0.251979
   2 N :   -0.249621
   3 C :    1.067411
   4 C :    1.742287
   5 C :   -0.490787
   6 C :   -0.923013
   7 H :    0.013331
   8 H :   -0.044789
   9 H :   -0.425825
Sum of atomic charges:   -0.0000000

LOEWDIN ATOMIC CHARGES
----------------------
   0 N :    0.285688
   1 N :    0.119073
   2 N :    0.086147
   3 C :   -0.258200
   4 C :    0.023543
   5 C :   -0.076382
   6 C :   -0.176543
   7 H :   -0.004911
   8 H :   -0.004505
   9 H :    0.006091

  Mayer bond orders larger than 0.100000
B(  0-N ,  3-C ) :   0.9628 B(  0-N ,  4-C ) :  -0.1001 B(  0-N ,  7-H ) :   1.0876
B(  0-N ,  8-H ) :   1.1851 B(  1-N ,  3-C ) :  -0.2083 B(  1-N ,  5-C ) :   2.6649
B(  2-N ,  4-C ) :  -0.1053 B(  2-N ,  6-C ) :   2.5863 B(  3-C ,  4-C ) :   1.5320
B(  3-C ,  5-C ) :   0.1857 B(  3-C ,  6-C ) :   0.2480 B(  3-C ,  8-H ) :  -0.1063
B(  3-C ,  9-H ) :   0.3602 B(  4-C ,  6-C ) :  -0.1835 B(  4-C ,  9-H ) :   0.2372
B(  5-C ,  9-H ) :  -0.1360 B(  6-C ,  9-H ) :   0.2639

MP2 TOTAL ENERGY:     -317.591452223 Eh
FINAL SINGLE POINT ENERGY      -317.591452222753

DIPOLE MOMENT
-------------
                                X             Y             Z
Electronic contribution:     -0.47786      -1.33655      -0.03236
Nuclear contribution   :      0.00630       2.07272       0.16552
                        -----------------------------------------
Total Dipole Moment    :     -0.47156       0.73617       0.13316
                        -----------------------------------------
Magnitude (a.u.)       :      0.88433
Magnitude (Debye)      :      2.24780

Rotational constants in cm-1:     0.288673     0.050177     0.042756
Rotational constants in MHz :  8654.189724  1504.258362  1281.779086

                             ****ORCA TERMINATED NORMALLY****
TOTAL RUN TIME: 0 days 0 hours 0 minutes 40 seconds 245 msec
