                         Program Version 5.0.3 -  RELEASE  -
|  1> !ri-mp2 aug-cc-pvdz aug-cc-pvdz/c tightscf
|  2> %pal nprocs 16 end
|  3> %maxcore 3800
|  4>
|  5> * xyz 0 1
|  6> C     -3.230761   -0.667661    0.267528
|  7> C      1.613648   -1.548109   -1.362053
|  8> C      1.930118    0.028520    1.827269
|  9> C     -0.095597    2.218883   -0.923603
| 10> C     -0.975112   -0.563177   -0.371630
| 11> C      0.386263    0.049656   -0.003455
| 12> O     -1.977896   -0.047508    0.468903
| 13> O      1.332271   -0.191322   -1.040678
| 14> O      0.777361   -0.532375    1.194775
| 15> O      0.352154    1.427453    0.171175
| 16> H     -3.588767   -0.528974   -0.760344
| 17> H     -3.934183   -0.201346    0.953910
| 18> H     -3.183230   -1.742606    0.478392
| 19> H      1.786633   -2.144110   -0.464434
| 20> H      2.519368   -1.537660   -1.964779
| 21> H      0.811054   -2.004198   -1.948597
| 22> H      2.760884    0.121924    1.126655
| 23> H      2.196807   -0.665495    2.620743
| 24> H      1.704697    1.005239    2.252683
| 25> H     -1.160540    2.065114   -1.111288
| 26> H      0.478256    2.010258   -1.826711
| 27> H      0.061973    3.253034   -0.626958
| 28> H     -0.901685   -1.650429   -0.263497
| 29> H     -1.193741   -0.339419   -1.423512
| 30> *
| 31>
| 32>                          ****END OF INPUT****

CARTESIAN COORDINATES (ANGSTROEM)
---------------------------------
  C     -3.230761   -0.667661    0.267528
  C      1.613648   -1.548109   -1.362053
  C      1.930118    0.028520    1.827269
  C     -0.095597    2.218883   -0.923603
  C     -0.975112   -0.563177   -0.371630
  C      0.386263    0.049656   -0.003455
  O     -1.977896   -0.047508    0.468903
  O      1.332271   -0.191322   -1.040678
  O      0.777361   -0.532375    1.194775
  O      0.352154    1.427453    0.171175
  H     -3.588767   -0.528974   -0.760344
  H     -3.934183   -0.201346    0.953910
  H     -3.183230   -1.742606    0.478392
  H      1.786633   -2.144110   -0.464434
  H      2.519368   -1.537660   -1.964779
  H      0.811054   -2.004198   -1.948597
  H      2.760884    0.121924    1.126655
  H      2.196807   -0.665495    2.620743
  H      1.704697    1.005239    2.252683
  H     -1.160540    2.065114   -1.111288
  H      0.478256    2.010258   -1.826711
  H      0.061973    3.253034   -0.626958
  H     -0.901685   -1.650429   -0.263497
  H     -1.193741   -0.339419   -1.423512

 Total Charge           Charge          ....    0
 Multiplicity           Mult            ....    1
 Number of Electrons    NEL             ....   82
 Basis Dimension        Dim             ....  356

ORBITAL ENERGIES
----------------

  NO   OCC          E(Eh)            E(eV)
   0   2.0000     -20.570406      -559.7492
   1   2.0000     -20.567966      -559.6828
   2   2.0000     -20.567536      -559.6711
   3   2.0000     -20.567004      -559.6566
   4   2.0000     -11.393905      -310.0439
   5   2.0000     -11.284557      -307.0684
   6   2.0000     -11.280711      -306.9638
   7   2.0000     -11.279724      -306.9369
   8   2.0000     -11.272527      -306.7411
   9   2.0000     -11.267646      -306.6082
  10   2.0000      -1.456257       -39.6268
  11   2.0000      -1.380307       -37.5601
  12   2.0000      -1.349080       -36.7103
  13   2.0000      -1.347679       -36.6722
  14   2.0000      -1.023474       -27.8502
  15   2.0000      -0.961385       -26.1606
  16   2.0000      -0.932030       -25.3618
  17   2.0000      -0.926206       -25.2033
  18   2.0000      -0.888803       -24.1855
  19   2.0000      -0.780492       -21.2383
  20   2.0000      -0.713215       -19.4076
  21   2.0000      -0.706980       -19.2379
  22   2.0000      -0.698131       -18.9971
  23   2.0000      -0.662492       -18.0273
  24   2.0000      -0.649417       -17.6715
  25   2.0000      -0.621109       -16.9012
  26   2.0000      -0.615771       -16.7560
  27   2.0000      -0.603098       -16.4111
  28   2.0000      -0.595714       -16.2102
  29   2.0000      -0.583124       -15.8676
  30   2.0000      -0.576255       -15.6807
  31   2.0000      -0.554348       -15.0846
  32   2.0000      -0.539967       -14.6932
  33   2.0000      -0.516964       -14.0673
  34   2.0000      -0.498754       -13.5718
  35   2.0000      -0.485150       -13.2016
  36   2.0000      -0.473824       -12.8934
  37   2.0000      -0.444418       -12.0932
  38   2.0000      -0.439270       -11.9531
  39   2.0000      -0.426170       -11.5967
  40   2.0000      -0.424342       -11.5469
  41   0.0000       0.033662         0.9160
  42   0.0000       0.041495         1.1291
  43   0.0000       0.045091         1.2270
  44   0.0000       0.047113         1.2820
  45   0.0000       0.058595         1.5945

MULLIKEN ATOMIC CHARGES
-----------------------
   0 C :    0.782699
   1 C :    1.021511
   2 C :    0.826604
   3 C :    0.896926
   4 C :    1.095635
   5 C :    1.607532
   6 O :   -0.876168
   7 O :   -1.119326
   8 O :   -1.073093
   9 O :   -1.092958
  10 H :   -0.051153
  11 H :   -0.301602
  12 H :   -0.064741
  13 H :   -0.070587
  14 H :   -0.284124
  15 H :   -0.146375
  16 H :   -0.062388
  17 H :   -0.256720
  18 H :   -0.077498
  19 H :   -0.132551
  20 H :   -0.064240
  21 H :   -0.269200
  22 H :   -0.226131
  23 H :   -0.062050
Sum of atomic charges:   -0.0000000

LOEWDIN ATOMIC CHARGES
----------------------
   0 C :    0.130463
   1 C :    0.147333
   2 C :    0.163964
   3 C :    0.164098
   4 C :   -0.005839
   5 C :   -0.439111
   6 O :   -0.000953
   7 O :    0.017455
   8 O :    0.034599
   9 O :    0.042645
  10 H :   -0.022002
  11 H :   -0.025493
  12 H :   -0.021725
  13 H :   -0.020870
  14 H :   -0.024619
  15 H :   -0.026438
  16 H :   -0.020382
  17 H :   -0.026839
  18 H :   -0.025499
  19 H :   -0.024886
  20 H :   -0.023757
  21 H :   -0.024527
  22 H :    0.013083
  23 H :    0.019299

  Mayer bond orders larger than 0.100000
B(  0-C ,  6-O ) :   0.7829 B(  0-C , 10-H ) :   0.9289 B(  0-C , 11-H ) :   1.0469
B(  0-C , 12-H ) :   0.9441 B(  1-C ,  7-O ) :   0.7206 B(  1-C , 13-H ) :   0.9323
B(  1-C , 14-H ) :   0.9879 B(  1-C , 15-H ) :   0.9024 B(  2-C ,  8-O ) :   0.7786
B(  2-C , 16-H ) :   0.9282 B(  2-C , 17-H ) :   0.9880 B(  2-C , 18-H ) :   0.9483
B(  3-C ,  9-O ) :   0.7414 B(  3-C , 19-H ) :   0.9327 B(  3-C , 20-H ) :   0.9412
B(  3-C , 21-H ) :   0.9840 B(  4-C ,  5-C ) :   1.2210 B(  4-C ,  6-O ) :   0.5900
B(  4-C ,  7-O ) :   0.2224 B(  4-C , 19-H ) :  -0.1311 B(  4-C , 22-H ) :   0.8932
B(  4-C , 23-H ) :   0.7921 B(  5-C ,  7-O ) :  -0.3069 B(  5-C ,  8-O ) :   0.1000
B(  5-C ,  9-O ) :   0.1119 B(  5-C , 15-H ) :   0.1416 B(  5-C , 19-H ) :   0.2633
B(  7-O ,  8-O ) :   0.1461 B( 10-H , 11-H ) :  -0.1005 B( 13-H , 14-H ) :  -0.1127
B( 14-H , 15-H ) :  -0.1120 B( 17-H , 18-H ) :  -0.1179 B( 20-H , 21-H ) :  -0.1100

MP2 TOTAL ENERGY:     -536.506561830 Eh
FINAL SINGLE POINT ENERGY      -536.506561829971

DIPOLE MOMENT
-------------
                                X             Y             Z
Electronic contribution:      1.47880       1.87929       2.31014
Nuclear contribution   :     -1.67652      -2.40818      -3.02029
                        -----------------------------------------
Total Dipole Moment    :     -0.19772      -0.52889      -0.71016
                        -----------------------------------------
Magnitude (a.u.)       :      0.90727
Magnitude (Debye)      :      2.30610

Rotational constants in cm-1:     0.052367     0.031507     0.030181
Rotational constants in MHz :  1569.924064   944.551972   904.798595

                             ****ORCA TERMINATED NORMALLY****
TOTAL RUN TIME: 0 days 0 hours 1 minutes 50 seconds 591 msec
