                         Program Version 5.0.3 -  RELEASE  -
|  1> !ri-mp2 aug-cc-pvdz aug-cc-pvdz/c tightscf
|  2> %pal nprocs 16 end
|  3>
|  4> * xyz 0 1
|  5> C      0.000000    0.000000    2.379326
|  6> C     -0.540152    1.120038    1.453423
|  7> C      0.540152   -1.120038    1.453423
|  8> C      0.000000    0.780705    0.063279
|  9> C      0.000000   -0.780705    0.063279
| 10> Cl    -0.918814    1.530370   -1.269894
| 11> Cl     1.722064    1.361119   -0.048861
| 12> Cl    -1.722064   -1.361119   -0.048861
| 13> Cl     0.918814   -1.530370   -1.269894
| 14> H      0.795834    0.369632    3.021692
| 15> H     -0.795834   -0.369632    3.021692
| 16> H     -1.626332    1.099741    1.409111
| 17> H     -0.232881    2.118369    1.749841
| 18> H      1.626332   -1.099741    1.409111
| 19> H      0.232881   -2.118369    1.749841
| 20> *
| 21>
| 22>                          ****END OF INPUT****

CARTESIAN COORDINATES (ANGSTROEM)
---------------------------------
  C      0.000000    0.000000    2.379326
  C     -0.540152    1.120038    1.453423
  C      0.540152   -1.120038    1.453423
  C      0.000000    0.780705    0.063279
  C      0.000000   -0.780705    0.063279
  Cl    -0.918814    1.530370   -1.269894
  Cl     1.722064    1.361119   -0.048861
  Cl    -1.722064   -1.361119   -0.048861
  Cl     0.918814   -1.530370   -1.269894
  H      0.795834    0.369632    3.021692
  H     -0.795834   -0.369632    3.021692
  H     -1.626332    1.099741    1.409111
  H     -0.232881    2.118369    1.749841
  H      1.626332   -1.099741    1.409111
  H      0.232881   -2.118369    1.749841

 Total Charge           Charge          ....    0
 Multiplicity           Mult            ....    1
 Number of Electrons    NEL             ....  104
 Basis Dimension        Dim             ....  277

ORBITAL ENERGIES
----------------

  NO   OCC          E(Eh)            E(eV)
   0   2.0000    -104.849981     -2853.1130
   1   2.0000    -104.849981     -2853.1130
   2   2.0000    -104.849398     -2853.0972
   3   2.0000    -104.849397     -2853.0972
   4   2.0000     -11.400827      -310.2323
   5   2.0000     -11.400291      -310.2177
   6   2.0000     -11.268170      -306.6225
   7   2.0000     -11.268162      -306.6223
   8   2.0000     -11.260632      -306.4174
   9   2.0000     -10.576028      -287.7884
  10   2.0000     -10.576023      -287.7882
  11   2.0000     -10.575460      -287.7729
  12   2.0000     -10.575452      -287.7727
  13   2.0000      -8.043710      -218.8805
  14   2.0000      -8.043709      -218.8805
  15   2.0000      -8.043010      -218.8614
  16   2.0000      -8.043010      -218.8614
  17   2.0000      -8.040263      -218.7867
  18   2.0000      -8.040263      -218.7867
  19   2.0000      -8.040238      -218.7860
  20   2.0000      -8.040238      -218.7860
  21   2.0000      -8.039781      -218.7736
  22   2.0000      -8.039781      -218.7736
  23   2.0000      -8.039661      -218.7703
  24   2.0000      -8.039660      -218.7703
  25   2.0000      -1.255838       -34.1731
  26   2.0000      -1.169939       -31.8357
  27   2.0000      -1.110393       -30.2153
  28   2.0000      -1.106831       -30.1184
  29   2.0000      -1.082317       -29.4513
  30   2.0000      -0.991454       -26.9788
  31   2.0000      -0.945064       -25.7165
  32   2.0000      -0.825453       -22.4617
  33   2.0000      -0.755240       -20.5511
  34   2.0000      -0.683828       -18.6079
  35   2.0000      -0.679960       -18.5027
  36   2.0000      -0.647448       -17.6180
  37   2.0000      -0.618793       -16.8382
  38   2.0000      -0.582526       -15.8513
  39   2.0000      -0.565829       -15.3970
  40   2.0000      -0.553629       -15.0650
  41   2.0000      -0.528545       -14.3824
  42   2.0000      -0.523481       -14.2446
  43   2.0000      -0.509687       -13.8693
  44   2.0000      -0.484711       -13.1897
  45   2.0000      -0.476802       -12.9744
  46   2.0000      -0.475435       -12.9372
  47   2.0000      -0.463701       -12.6180
  48   2.0000      -0.457422       -12.4471
  49   2.0000      -0.445704       -12.1282
  50   2.0000      -0.439517       -11.9599
  51   2.0000      -0.433177       -11.7874
  52   0.0000       0.034011         0.9255
  53   0.0000       0.045895         1.2489
  54   0.0000       0.048340         1.3154
  55   0.0000       0.056240         1.5304
  56   0.0000       0.065693         1.7876

MULLIKEN ATOMIC CHARGES
-----------------------
   0 C :    0.541672
   1 C :    0.764891
   2 C :    0.764891
   3 C :   -0.450230
   4 C :   -0.450230
   5 Cl:   -0.160899
   6 Cl:   -0.074679
   7 Cl:   -0.074679
   8 Cl:   -0.160899
   9 H :   -0.098763
  10 H :   -0.098763
  11 H :   -0.125922
  12 H :   -0.125233
  13 H :   -0.125922
  14 H :   -0.125233
Sum of atomic charges:   -0.0000000

LOEWDIN ATOMIC CHARGES
----------------------
   0 C :    0.008139
   1 C :   -0.083511
   2 C :   -0.083511
   3 C :   -1.035752
   4 C :   -1.035752
   5 Cl:    0.549849
   6 Cl:    0.552842
   7 Cl:    0.552842
   8 Cl:    0.549849
   9 H :    0.010198
  10 H :    0.010198
  11 H :   -0.005521
  12 H :    0.007826
  13 H :   -0.005521
  14 H :    0.007826

  Mayer bond orders larger than 0.100000
B(  0-C ,  1-C ) :   1.2839 B(  0-C ,  2-C ) :   1.2839 B(  0-C ,  9-H ) :   0.7513
B(  0-C , 10-H ) :   0.7513 B(  1-C ,  3-C ) :   1.0342 B(  1-C , 11-H ) :   0.7790
B(  1-C , 12-H ) :   0.8173 B(  2-C ,  4-C ) :   1.0342 B(  2-C , 13-H ) :   0.7790
B(  2-C , 14-H ) :   0.8173 B(  3-C ,  4-C ) :   1.0915 B(  3-C ,  5-Cl) :   0.9340
B(  3-C ,  6-Cl) :   1.1783 B(  3-C ,  7-Cl) :  -0.1958 B(  3-C ,  8-Cl) :  -0.1658
B(  4-C ,  5-Cl) :  -0.1658 B(  4-C ,  6-Cl) :  -0.1958 B(  4-C ,  7-Cl) :   1.1783
B(  4-C ,  8-Cl) :   0.9340 B(  9-H , 10-H ) :  -0.1463 B( 11-H , 12-H ) :  -0.1719
B( 13-H , 14-H ) :  -0.1719

MP2 TOTAL ENERGY:    -2032.193957511 Eh
FINAL SINGLE POINT ENERGY     -2032.193957510594

DIPOLE MOMENT
-------------
                                X             Y             Z
Electronic contribution:      0.00000      -0.00000     -13.83737
Nuclear contribution   :      0.00000       0.00000      15.15722
                        -----------------------------------------
Total Dipole Moment    :      0.00000      -0.00000       1.31986
                        -----------------------------------------
Magnitude (a.u.)       :      1.31986
Magnitude (Debye)      :      3.35481

Rotational constants in cm-1:     0.032405     0.026430     0.026381
Rotational constants in MHz :   971.491342   792.349060   790.876633

                             ****ORCA TERMINATED NORMALLY****
TOTAL RUN TIME: 0 days 0 hours 1 minutes 24 seconds 336 msec
