                         Program Version 5.0.3 -  RELEASE  -
|  1> !ri-mp2 aug-cc-pvdz aug-cc-pvdz/c tightscf
|  2> %pal nprocs 16 end
|  3>
|  4> * xyz 0 1
|  5> O     -1.482146   -1.542331    0.230188
|  6> O     -0.780161    0.943861    1.241654
|  7> O     -0.288525    1.618368   -0.871586
|  8> O      2.697279    0.071265    0.337982
|  9> N      0.716696   -0.999336   -0.393493
| 10> C     -0.677117   -0.691619   -0.564145
| 11> C     -1.055012    0.730034   -0.123074
| 12> C      1.681516   -0.387203   -0.003450
| 13> H     -1.203672   -2.453161    0.090455
| 14> H     -1.228041    0.256337    1.750743
| 15> H     -0.405482    2.503660   -0.509998
| 16> H     -0.919496   -0.810808   -1.623032
| 17> H     -2.128076    0.862744   -0.315611
| 18> *
| 19>
| 20>                          ****END OF INPUT****

CARTESIAN COORDINATES (ANGSTROEM)
---------------------------------
  O     -1.482146   -1.542331    0.230188
  O     -0.780161    0.943861    1.241654
  O     -0.288525    1.618368   -0.871586
  O      2.697279    0.071265    0.337982
  N      0.716696   -0.999336   -0.393493
  C     -0.677117   -0.691619   -0.564145
  C     -1.055012    0.730034   -0.123074
  C      1.681516   -0.387203   -0.003450
  H     -1.203672   -2.453161    0.090455
  H     -1.228041    0.256337    1.750743
  H     -0.405482    2.503660   -0.509998
  H     -0.919496   -0.810808   -1.623032
  H     -2.128076    0.862744   -0.315611

 Total Charge           Charge          ....    0
 Multiplicity           Mult            ....    1
 Number of Electrons    NEL             ....   62
 Basis Dimension        Dim             ....  229

ORBITAL ENERGIES
----------------

  NO   OCC          E(Eh)            E(eV)
   0   2.0000     -20.619555      -561.0866
   1   2.0000     -20.604780      -560.6846
   2   2.0000     -20.598210      -560.5058
   3   2.0000     -20.592416      -560.3481
   4   2.0000     -15.593646      -424.3247
   5   2.0000     -11.416743      -310.6654
   6   2.0000     -11.365777      -309.2785
   7   2.0000     -11.365019      -309.2579
   8   2.0000      -1.468664       -39.9644
   9   2.0000      -1.446370       -39.3577
  10   2.0000      -1.407902       -38.3110
  11   2.0000      -1.358390       -36.9637
  12   2.0000      -1.271377       -34.5959
  13   2.0000      -1.022131       -27.8136
  14   2.0000      -0.893119       -24.3030
  15   2.0000      -0.790337       -21.5062
  16   2.0000      -0.752869       -20.4866
  17   2.0000      -0.734089       -19.9756
  18   2.0000      -0.730330       -19.8733
  19   2.0000      -0.699050       -19.0221
  20   2.0000      -0.664098       -18.0710
  21   2.0000      -0.641799       -17.4642
  22   2.0000      -0.626528       -17.0487
  23   2.0000      -0.596214       -16.2238
  24   2.0000      -0.578281       -15.7358
  25   2.0000      -0.560467       -15.2511
  26   2.0000      -0.520390       -14.1605
  27   2.0000      -0.505558       -13.7569
  28   2.0000      -0.485866       -13.2211
  29   2.0000      -0.439203       -11.9513
  30   2.0000      -0.429082       -11.6759
  31   0.0000       0.030256         0.8233
  32   0.0000       0.040894         1.1128
  33   0.0000       0.046972         1.2782
  34   0.0000       0.054631         1.4866
  35   0.0000       0.066535         1.8105

MULLIKEN ATOMIC CHARGES
-----------------------
   0 O :   -0.784616
   1 O :   -0.768474
   2 O :   -0.710952
   3 O :   -0.420941
   4 N :   -0.477460
   5 C :    1.407738
   6 C :    1.392523
   7 C :    0.172821
   8 H :    0.136115
   9 H :    0.178891
  10 H :    0.140835
  11 H :   -0.141759
  12 H :   -0.124721
Sum of atomic charges:    0.0000000

LOEWDIN ATOMIC CHARGES
----------------------
   0 O :    0.156849
   1 O :    0.152718
   2 O :    0.165492
   3 O :    0.115633
   4 N :    0.075245
   5 C :   -0.205899
   6 C :   -0.245331
   7 C :   -0.167535
   8 H :   -0.041606
   9 H :   -0.048699
  10 H :   -0.034368
  11 H :    0.040119
  12 H :    0.037381

  Mayer bond orders larger than 0.100000
B(  0-O ,  5-C ) :   0.2994 B(  0-O ,  8-H ) :   1.0975 B(  1-O ,  5-C ) :   0.1005
B(  1-O ,  6-C ) :   0.4321 B(  1-O ,  9-H ) :   1.0236 B(  2-O ,  6-C ) :   0.4457
B(  2-O , 10-H ) :   1.0865 B(  3-O ,  7-C ) :   1.9509 B(  4-N ,  5-C ) :   0.6590
B(  4-N ,  7-C ) :   2.0233 B(  5-C ,  6-C ) :   1.1974 B(  5-C ,  7-C ) :  -0.1917
B(  5-C , 11-H ) :   0.7220 B(  6-C , 12-H ) :   0.8807

MP2 TOTAL ENERGY:     -471.857270262 Eh
FINAL SINGLE POINT ENERGY      -471.857270261894

DIPOLE MOMENT
-------------
                                X             Y             Z
Electronic contribution:      4.47562      -0.70301       0.34354
Nuclear contribution   :     -5.74815       0.36192      -0.58179
                        -----------------------------------------
Total Dipole Moment    :     -1.27253      -0.34109      -0.23825
                        -----------------------------------------
Magnitude (a.u.)       :      1.33882
Magnitude (Debye)      :      3.40302

Rotational constants in cm-1:     0.089729     0.059630     0.045932
Rotational constants in MHz :  2690.015900  1787.651242  1376.995947

                             ****ORCA TERMINATED NORMALLY****
TOTAL RUN TIME: 0 days 0 hours 0 minutes 48 seconds 39 msec
