                         Program Version 5.0.3 -  RELEASE  -
|  1> !ri-mp2 aug-cc-pvdz aug-cc-pvdz/c tightscf
|  2> %pal nprocs 16 end
|  3>
|  4> * xyz 0 1
|  5> C     -0.115632    2.015647    0.000000
|  6> H     -0.652547    2.342305    0.887714
|  7> H     -0.652547    2.342305   -0.887714
|  8> H      0.882425    2.445220    0.000000
|  9> N      0.000000    0.569086    0.000000
| 10> N     -1.090343   -0.221557    0.000000
| 11> N     -0.666004   -1.437578    0.000000
| 12> H      2.096573    0.126082    0.000000
| 13> C      1.080585   -0.227007    0.000000
| 14> N      0.690116   -1.479630    0.000000
| 15> *
| 16>
| 17>                          ****END OF INPUT****

CARTESIAN COORDINATES (ANGSTROEM)
---------------------------------
  C     -0.115632    2.015647    0.000000
  H     -0.652547    2.342305    0.887714
  H     -0.652547    2.342305   -0.887714
  H      0.882425    2.445220    0.000000
  N      0.000000    0.569086    0.000000
  N     -1.090343   -0.221557    0.000000
  N     -0.666004   -1.437578    0.000000
  H      2.096573    0.126082    0.000000
  C      1.080585   -0.227007    0.000000
  N      0.690116   -1.479630    0.000000

 Total Charge           Charge          ....    0
 Multiplicity           Mult            ....    1
 Number of Electrons    NEL             ....   44
 Basis Dimension        Dim             ....  174

ORBITAL ENERGIES
----------------

  NO   OCC          E(Eh)            E(eV)
   0   2.0000     -15.684311      -426.7918
   1   2.0000     -15.660336      -426.1394
   2   2.0000     -15.648848      -425.8268
   3   2.0000     -15.604764      -424.6272
   4   2.0000     -11.334978      -308.4404
   5   2.0000     -11.313929      -307.8677
   6   2.0000      -1.494538       -40.6685
   7   2.0000      -1.270959       -34.5845
   8   2.0000      -1.193028       -32.4639
   9   2.0000      -1.023189       -27.8424
  10   2.0000      -0.893548       -24.3147
  11   2.0000      -0.855708       -23.2850
  12   2.0000      -0.744234       -20.2516
  13   2.0000      -0.699764       -19.0416
  14   2.0000      -0.659153       -17.9365
  15   2.0000      -0.615959       -16.7611
  16   2.0000      -0.604938       -16.4612
  17   2.0000      -0.559173       -15.2159
  18   2.0000      -0.472634       -12.8610
  19   2.0000      -0.463909       -12.6236
  20   2.0000      -0.430341       -11.7102
  21   2.0000      -0.412155       -11.2153
  22   0.0000       0.021648         0.5891
  23   0.0000       0.040531         1.1029
  24   0.0000       0.048232         1.3125
  25   0.0000       0.055468         1.5094
  26   0.0000       0.090636         2.4663

MULLIKEN ATOMIC CHARGES
-----------------------
   0 C :    0.912531
   1 H :   -0.056171
   2 H :   -0.056171
   3 H :   -0.186719
   4 N :   -0.483821
   5 N :   -0.198229
   6 N :   -0.304160
   7 H :   -0.177625
   8 C :    1.006416
   9 N :   -0.456052
Sum of atomic charges:    0.0000000

LOEWDIN ATOMIC CHARGES
----------------------
   0 C :    0.235715
   1 H :   -0.002639
   2 H :   -0.002639
   3 H :   -0.007249
   4 N :   -0.201613
   5 N :    0.029948
   6 N :   -0.046440
   7 H :    0.014918
   8 C :    0.005158
   9 N :   -0.025160

  Mayer bond orders larger than 0.100000
B(  0-C ,  1-H ) :   0.9388 B(  0-C ,  2-H ) :   0.9388 B(  0-C ,  3-H ) :   0.9284
B(  0-C ,  4-N ) :   0.8023 B(  4-N ,  5-N ) :   0.9553 B(  4-N ,  6-N ) :   0.1775
B(  4-N ,  8-C ) :   1.2543 B(  5-N ,  6-N ) :   1.0687 B(  5-N ,  8-C ) :  -0.1327
B(  5-N ,  9-N ) :   0.1025 B(  6-N ,  9-N ) :   0.9426 B(  7-H ,  8-C ) :   0.9345
B(  8-C ,  9-N ) :   1.3337

MP2 TOTAL ENERGY:     -296.799298896 Eh
FINAL SINGLE POINT ENERGY      -296.799298895757

DIPOLE MOMENT
-------------
                                X             Y             Z
Electronic contribution:     -0.70139      -4.87391      -0.00000
Nuclear contribution   :      1.63895       7.11624       0.00000
                        -----------------------------------------
Total Dipole Moment    :      0.93756       2.24233      -0.00000
                        -----------------------------------------
Magnitude (a.u.)       :      2.43044
Magnitude (Debye)      :      6.17769

Rotational constants in cm-1:     0.329566     0.127197     0.093392
Rotational constants in MHz :  9880.139942  3813.282627  2799.808306

                             ****ORCA TERMINATED NORMALLY****
TOTAL RUN TIME: 0 days 0 hours 0 minutes 44 seconds 76 msec
