                         Program Version 5.0.3 -  RELEASE  -
|  1> !ri-mp2 aug-cc-pvdz aug-cc-pvdz/c tightscf
|  2> %pal nprocs 16 end
|  3>
|  4> * xyz 0 1
|  5> C      0.680732    0.592289   -0.291181
|  6> C     -0.721940    0.567772    0.287742
|  7> O      1.404236   -0.594510    0.050668
|  8> O     -1.459811   -0.557597   -0.160898
|  9> H      1.214042    1.489687    0.038901
| 10> H      0.632713    0.600665   -1.379775
| 11> H     -1.271483    1.455526   -0.029664
| 12> H     -0.669565    0.583184    1.385698
| 13> H      1.668590   -0.545996    0.974636
| 14> H     -0.882437   -1.326578   -0.087321
| 15> *
| 16>
| 17>                          ****END OF INPUT****

CARTESIAN COORDINATES (ANGSTROEM)
---------------------------------
  C      0.680732    0.592289   -0.291181
  C     -0.721940    0.567772    0.287742
  O      1.404236   -0.594510    0.050668
  O     -1.459811   -0.557597   -0.160898
  H      1.214042    1.489687    0.038901
  H      0.632713    0.600665   -1.379775
  H     -1.271483    1.455526   -0.029664
  H     -0.669565    0.583184    1.385698
  H      1.668590   -0.545996    0.974636
  H     -0.882437   -1.326578   -0.087321

 Total Charge           Charge          ....    0
 Multiplicity           Mult            ....    1
 Number of Electrons    NEL             ....   34
 Basis Dimension        Dim             ....  146

ORBITAL ENERGIES
----------------

  NO   OCC          E(Eh)            E(eV)
   0   2.0000     -20.582288      -560.0725
   1   2.0000     -20.564911      -559.5997
   2   2.0000     -11.291196      -307.2491
   3   2.0000     -11.285972      -307.1069
   4   2.0000      -1.381975       -37.6055
   5   2.0000      -1.354082       -36.8464
   6   2.0000      -1.005822       -27.3698
   7   2.0000      -0.855000       -23.2657
   8   2.0000      -0.709527       -19.3072
   9   2.0000      -0.689289       -18.7565
  10   2.0000      -0.645129       -17.5549
  11   2.0000      -0.616801       -16.7840
  12   2.0000      -0.574446       -15.6315
  13   2.0000      -0.526657       -14.3311
  14   2.0000      -0.508638       -13.8407
  15   2.0000      -0.471437       -12.8285
  16   2.0000      -0.436149       -11.8682
  17   0.0000       0.031583         0.8594
  18   0.0000       0.044723         1.2170
  19   0.0000       0.051462         1.4003
  20   0.0000       0.053210         1.4479
  21   0.0000       0.073920         2.0115

MULLIKEN ATOMIC CHARGES
-----------------------
   0 C :    0.771304
   1 C :    0.849965
   2 O :   -0.713101
   3 O :   -0.700330
   4 H :   -0.078627
   5 H :   -0.171815
   6 H :   -0.131510
   7 H :   -0.146335
   8 H :    0.144265
   9 H :    0.176184
Sum of atomic charges:   -0.0000000

LOEWDIN ATOMIC CHARGES
----------------------
   0 C :   -0.046651
   1 C :   -0.063024
   2 O :    0.109236
   3 O :    0.111225
   4 H :    0.007148
   5 H :    0.006550
   6 H :    0.005407
   7 H :    0.002720
   8 H :   -0.061146
   9 H :   -0.071465

  Mayer bond orders larger than 0.100000
B(  0-C ,  1-C ) :   1.2587 B(  0-C ,  2-O ) :   0.5429 B(  0-C ,  4-H ) :   0.9017
B(  0-C ,  5-H ) :   0.9357 B(  1-C ,  3-O ) :   0.5200 B(  1-C ,  6-H ) :   0.9087
B(  1-C ,  7-H ) :   0.9143 B(  2-O ,  8-H ) :   1.0572 B(  3-O ,  9-H ) :   1.0263
B(  4-H ,  5-H ) :  -0.1003

MP2 TOTAL ENERGY:     -229.676796456 Eh
FINAL SINGLE POINT ENERGY      -229.676796456025

DIPOLE MOMENT
-------------
                                X             Y             Z
Electronic contribution:     -0.15337      -1.73755      -0.30499
Nuclear contribution   :      0.71087       2.30275       0.92666
                        -----------------------------------------
Total Dipole Moment    :      0.55750       0.56520       0.62167
                        -----------------------------------------
Magnitude (a.u.)       :      1.00833
Magnitude (Debye)      :      2.56297

Rotational constants in cm-1:     0.509841     0.182653     0.152118
Rotational constants in MHz : 15284.648671  5475.796065  4560.389886

                             ****ORCA TERMINATED NORMALLY****
TOTAL RUN TIME: 0 days 0 hours 0 minutes 51 seconds 180 msec
