                         Program Version 5.0.3 -  RELEASE  -
|  1> !ri-mp2 aug-cc-pvdz aug-cc-pvdz/c tightscf
|  2> %pal nprocs 16 end
|  3>
|  4> * xyz 0 1
|  5> Cl    -2.158879   -0.834991    0.460362
|  6> Cl    -0.993288    1.532997   -0.682534
|  7> O      0.277220   -1.678178   -0.719199
|  8> N     -0.722342    0.149580    0.402406
|  9> N      1.607764   -0.059256    0.184479
| 10> C      0.425703   -0.637266   -0.128512
| 11> C      2.825179   -0.632336   -0.375066
| 12> C      1.787743    1.109351    1.035518
| 13> H      3.457133   -1.029550    0.422266
| 14> H      2.565217   -1.434482   -1.056315
| 15> H      3.383450    0.138196   -0.910345
| 16> H      2.037010    1.992083    0.442264
| 17> H      2.608475    0.914416    1.727449
| 18> H      0.888095    1.307890    1.605352
| 19> *
| 20>
| 21>                          ****END OF INPUT****

CARTESIAN COORDINATES (ANGSTROEM)
---------------------------------
  Cl    -2.158879   -0.834991    0.460362
  Cl    -0.993288    1.532997   -0.682534
  O      0.277220   -1.678178   -0.719199
  N     -0.722342    0.149580    0.402406
  N      1.607764   -0.059256    0.184479
  C      0.425703   -0.637266   -0.128512
  C      2.825179   -0.632336   -0.375066
  C      1.787743    1.109351    1.035518
  H      3.457133   -1.029550    0.422266
  H      2.565217   -1.434482   -1.056315
  H      3.383450    0.138196   -0.910345
  H      2.037010    1.992083    0.442264
  H      2.608475    0.914416    1.727449
  H      0.888095    1.307890    1.605352

 Total Charge           Charge          ....    0
 Multiplicity           Mult            ....    1
 Number of Electrons    NEL             ....   80
 Basis Dimension        Dim             ....  246

ORBITAL ENERGIES
----------------

  NO   OCC          E(Eh)            E(eV)
   0   2.0000    -104.887289     -2854.1282
   1   2.0000    -104.875980     -2853.8205
   2   2.0000     -20.557286      -559.3922
   3   2.0000     -15.711920      -427.5431
   4   2.0000     -15.619716      -425.0341
   5   2.0000     -11.416949      -310.6710
   6   2.0000     -11.284838      -307.0760
   7   2.0000     -11.278202      -306.8955
   8   2.0000     -10.609822      -288.7079
   9   2.0000     -10.598869      -288.4099
  10   2.0000      -8.077706      -219.8056
  11   2.0000      -8.073570      -219.6930
  12   2.0000      -8.073259      -219.6845
  13   2.0000      -8.066857      -219.5103
  14   2.0000      -8.062519      -219.3923
  15   2.0000      -8.062189      -219.3833
  16   2.0000      -1.433391       -39.0046
  17   2.0000      -1.301586       -35.4180
  18   2.0000      -1.269280       -34.5389
  19   2.0000      -1.114189       -30.3186
  20   2.0000      -1.027716       -27.9656
  21   2.0000      -0.991012       -26.9668
  22   2.0000      -0.936839       -25.4927
  23   2.0000      -0.762384       -20.7455
  24   2.0000      -0.726421       -19.7669
  25   2.0000      -0.687706       -18.7134
  26   2.0000      -0.682468       -18.5709
  27   2.0000      -0.626832       -17.0570
  28   2.0000      -0.619074       -16.8459
  29   2.0000      -0.594416       -16.1749
  30   2.0000      -0.581614       -15.8265
  31   2.0000      -0.575685       -15.6652
  32   2.0000      -0.549590       -14.9551
  33   2.0000      -0.544913       -14.8278
  34   2.0000      -0.502035       -13.6611
  35   2.0000      -0.484710       -13.1896
  36   2.0000      -0.461899       -12.5689
  37   2.0000      -0.457734       -12.4556
  38   2.0000      -0.412486       -11.2243
  39   2.0000      -0.394277       -10.7288
  40   0.0000       0.030086         0.8187
  41   0.0000       0.043960         1.1962
  42   0.0000       0.045845         1.2475
  43   0.0000       0.056967         1.5501
  44   0.0000       0.062230         1.6934

MULLIKEN ATOMIC CHARGES
-----------------------
   0 Cl:    0.296667
   1 Cl:    0.246374
   2 O :   -0.623286
   3 N :   -1.117249
   4 N :   -0.518746
   5 C :    0.799461
   6 C :    0.781456
   7 C :    0.873401
   8 H :   -0.079976
   9 H :   -0.235697
  10 H :   -0.022164
  11 H :   -0.078150
  12 H :   -0.113513
  13 H :   -0.208576
Sum of atomic charges:    0.0000000

LOEWDIN ATOMIC CHARGES
----------------------
   0 Cl:    0.499429
   1 Cl:    0.487191
   2 O :    0.029611
   3 N :   -0.670436
   4 N :   -0.147217
   5 C :   -0.490250
   6 C :    0.203898
   7 C :    0.171685
   8 H :   -0.004885
   9 H :   -0.019826
  10 H :   -0.005359
  11 H :   -0.009211
  12 H :   -0.007799
  13 H :   -0.036833

  Mayer bond orders larger than 0.100000
B(  0-Cl,  3-N ) :   0.9401 B(  1-Cl,  3-N ) :   0.8103 B(  2-O ,  5-C ) :   1.5947
B(  3-N ,  4-N ) :  -0.1389 B(  3-N ,  5-C ) :   0.8282 B(  4-N ,  5-C ) :   1.1623
B(  4-N ,  6-C ) :   0.9328 B(  4-N ,  7-C ) :   0.8097 B(  5-C ,  6-C ) :  -0.1213
B(  6-C ,  8-H ) :   0.9117 B(  6-C ,  9-H ) :   1.0527 B(  6-C , 10-H ) :   0.9025
B(  7-C , 11-H ) :   0.8806 B(  7-C , 12-H ) :   0.9450 B(  7-C , 13-H ) :   1.0248
B(  9-H , 10-H ) :  -0.1008 B( 12-H , 13-H ) :  -0.1022

MP2 TOTAL ENERGY:    -1221.093582377 Eh
FINAL SINGLE POINT ENERGY     -1221.093582376594

DIPOLE MOMENT
-------------
                                X             Y             Z
Electronic contribution:    -17.44047       0.09803      -1.95131
Nuclear contribution   :     18.62150       0.82685       2.43133
                        -----------------------------------------
Total Dipole Moment    :      1.18103       0.92488       0.48002
                        -----------------------------------------
Magnitude (a.u.)       :      1.57501
Magnitude (Debye)      :      4.00335

Rotational constants in cm-1:     0.068714     0.035241     0.027673
Rotational constants in MHz :  2059.985950  1056.506706   829.612535

                             ****ORCA TERMINATED NORMALLY****
TOTAL RUN TIME: 0 days 0 hours 0 minutes 50 seconds 336 msec
