                         Program Version 5.0.3 -  RELEASE  -
|  1> !ri-mp2 aug-cc-pvdz aug-cc-pvdz/c tightscf
|  2> %pal nprocs 16 end
|  3>
|  4> * xyz 0 1
|  5> C      0.645337   -1.483107    0.000000
|  6> C      1.115639   -0.197648    0.000000
|  7> C     -1.077575   -0.225768    0.000000
|  8> C     -0.022919    2.058005    0.000000
|  9> N     -0.726800   -1.489807    0.000000
| 10> N      0.000000    0.608310    0.000000
| 11> H      1.214722   -2.396921    0.000000
| 12> H      2.111503    0.208433    0.000000
| 13> H     -2.087758    0.150798    0.000000
| 14> H      0.471699    2.452768    0.887470
| 15> H      0.471699    2.452768   -0.887470
| 16> H     -1.057157    2.393731    0.000000
| 17> *
| 18>
| 19>                          ****END OF INPUT****

CARTESIAN COORDINATES (ANGSTROEM)
---------------------------------
  C      0.645337   -1.483107    0.000000
  C      1.115639   -0.197648    0.000000
  C     -1.077575   -0.225768    0.000000
  C     -0.022919    2.058005    0.000000
  N     -0.726800   -1.489807    0.000000
  N      0.000000    0.608310    0.000000
  H      1.214722   -2.396921    0.000000
  H      2.111503    0.208433    0.000000
  H     -2.087758    0.150798    0.000000
  H      0.471699    2.452768    0.887470
  H      0.471699    2.452768   -0.887470
  H     -1.057157    2.393731    0.000000

 Total Charge           Charge          ....    0
 Multiplicity           Mult            ....    1
 Number of Electrons    NEL             ....   44
 Basis Dimension        Dim             ....  192

ORBITAL ENERGIES
----------------

  NO   OCC          E(Eh)            E(eV)
   0   2.0000     -15.627103      -425.2351
   1   2.0000     -15.547571      -423.0709
   2   2.0000     -11.296437      -307.3917
   3   2.0000     -11.292612      -307.2876
   4   2.0000     -11.259705      -306.3921
   5   2.0000     -11.245742      -306.0122
   6   2.0000      -1.347686       -36.6724
   7   2.0000      -1.185861       -32.2689
   8   2.0000      -1.016688       -27.6655
   9   2.0000      -0.969314       -26.3764
  10   2.0000      -0.807073       -21.9616
  11   2.0000      -0.785757       -21.3815
  12   2.0000      -0.721370       -19.6295
  13   2.0000      -0.650630       -17.7045
  14   2.0000      -0.619874       -16.8676
  15   2.0000      -0.591721       -16.1016
  16   2.0000      -0.575602       -15.6629
  17   2.0000      -0.557952       -15.1826
  18   2.0000      -0.552317       -15.0293
  19   2.0000      -0.430803       -11.7227
  20   2.0000      -0.382036       -10.3957
  21   2.0000      -0.316666        -8.6169
  22   0.0000       0.028094         0.7645
  23   0.0000       0.041563         1.1310
  24   0.0000       0.049916         1.3583
  25   0.0000       0.050637         1.3779
  26   0.0000       0.061104         1.6627

MULLIKEN ATOMIC CHARGES
-----------------------
   0 C :    0.487069
   1 C :    0.634324
   2 C :    0.605071
   3 C :    0.811984
   4 N :   -0.804783
   5 N :   -0.613888
   6 H :   -0.206754
   7 H :   -0.337433
   8 H :   -0.203810
   9 H :   -0.075294
  10 H :   -0.075294
  11 H :   -0.221193
Sum of atomic charges:    0.0000000

LOEWDIN ATOMIC CHARGES
----------------------
   0 C :   -0.053168
   1 C :    0.040385
   2 C :   -0.021534
   3 C :    0.217054
   4 N :    0.008149
   5 N :   -0.155569
   6 H :   -0.014968
   7 H :   -0.005128
   8 H :    0.007024
   9 H :   -0.006403
  10 H :   -0.006403
  11 H :   -0.009436

  Mayer bond orders larger than 0.100000
B(  0-C ,  1-C ) :   1.6063 B(  0-C ,  4-N ) :   1.0406 B(  0-C ,  6-H ) :   0.9809
B(  1-C ,  5-N ) :   1.0144 B(  1-C ,  7-H ) :   0.8976 B(  2-C ,  4-N ) :   1.4405
B(  2-C ,  5-N ) :   1.2199 B(  2-C ,  8-H ) :   1.0403 B(  3-C ,  5-N ) :   0.8093
B(  3-C ,  9-H ) :   0.9219 B(  3-C , 10-H ) :   0.9219 B(  3-C , 11-H ) :   1.0432
B(  4-N ,  8-H ) :  -0.1158

MP2 TOTAL ENERGY:     -264.779896326 Eh
FINAL SINGLE POINT ENERGY      -264.779896325619

DIPOLE MOMENT
-------------
                                X             Y             Z
Electronic contribution:     -0.72599      -3.66891       0.00000
Nuclear contribution   :      1.12766       5.29028       0.00000
                        -----------------------------------------
Total Dipole Moment    :      0.40167       1.62138       0.00000
                        -----------------------------------------
Magnitude (a.u.)       :      1.67039
Magnitude (Debye)      :      4.24580

Rotational constants in cm-1:     0.307477     0.120703     0.088116
Rotational constants in MHz :  9217.937616  3618.574322  2641.641924

                             ****ORCA TERMINATED NORMALLY****
TOTAL RUN TIME: 0 days 0 hours 0 minutes 49 seconds 471 msec
