                         Program Version 5.0.3 -  RELEASE  -
|  1> !ri-mp2 aug-cc-pvdz aug-cc-pvdz/c tightscf
|  2> %pal nprocs 16 end
|  3>
|  4> * xyz 0 1
|  5> C     -1.755788   -1.135628    0.000000
|  6> C     -1.135780    0.259439    0.000000
|  7> C      0.373557    0.244819    0.000000
|  8> F      0.879802   -0.382880    1.085643
|  9> F      0.879802    1.498257    0.000000
| 10> F      0.879802   -0.382880   -1.085643
| 11> H     -1.459013   -1.700292    0.882744
| 12> H     -2.842020   -1.057015    0.000000
| 13> H     -1.459013   -1.700292   -0.882744
| 14> H     -1.443277    0.826675    0.878962
| 15> H     -1.443277    0.826675   -0.878962
| 16> *
| 17>
| 18>                          ****END OF INPUT****

CARTESIAN COORDINATES (ANGSTROEM)
---------------------------------
  C     -1.755788   -1.135628    0.000000
  C     -1.135780    0.259439    0.000000
  C      0.373557    0.244819    0.000000
  F      0.879802   -0.382880    1.085643
  F      0.879802    1.498257    0.000000
  F      0.879802   -0.382880   -1.085643
  H     -1.459013   -1.700292    0.882744
  H     -2.842020   -1.057015    0.000000
  H     -1.459013   -1.700292   -0.882744
  H     -1.443277    0.826675    0.878962
  H     -1.443277    0.826675   -0.878962

 Total Charge           Charge          ....    0
 Multiplicity           Mult            ....    1
 Number of Electrons    NEL             ....   50
 Basis Dimension        Dim             ....  183

ORBITAL ENERGIES
----------------

  NO   OCC          E(Eh)            E(eV)
   0   2.0000     -26.344280      -716.8643
   1   2.0000     -26.344260      -716.8638
   2   2.0000     -26.343932      -716.8548
   3   2.0000     -11.509801      -313.1976
   4   2.0000     -11.268327      -306.6268
   5   2.0000     -11.245458      -306.0045
   6   2.0000      -1.723421       -46.8967
   7   2.0000      -1.629663       -44.3454
   8   2.0000      -1.629567       -44.3428
   9   2.0000      -1.098516       -29.8921
  10   2.0000      -0.967148       -26.3174
  11   2.0000      -0.885396       -24.0928
  12   2.0000      -0.816429       -22.2162
  13   2.0000      -0.814039       -22.1511
  14   2.0000      -0.764476       -20.8025
  15   2.0000      -0.706667       -19.2294
  16   2.0000      -0.703186       -19.1347
  17   2.0000      -0.660070       -17.9614
  18   2.0000      -0.656357       -17.8604
  19   2.0000      -0.641440       -17.4545
  20   2.0000      -0.622513       -16.9394
  21   2.0000      -0.603407       -16.4195
  22   2.0000      -0.544857       -14.8263
  23   2.0000      -0.525435       -14.2978
  24   2.0000      -0.522626       -14.2214
  25   0.0000       0.032779         0.8920
  26   0.0000       0.048253         1.3130
  27   0.0000       0.050106         1.3634
  28   0.0000       0.059390         1.6161
  29   0.0000       0.075213         2.0467

MULLIKEN ATOMIC CHARGES
-----------------------
   0 C :    0.312704
   1 C :   -0.172101
   2 C :    2.028283
   3 F :   -0.657123
   4 F :   -0.649323
   5 F :   -0.657123
   6 H :   -0.047535
   7 H :   -0.052369
   8 H :   -0.047535
   9 H :   -0.028939
  10 H :   -0.028939
Sum of atomic charges:    0.0000000

LOEWDIN ATOMIC CHARGES
----------------------
   0 C :    0.155257
   1 C :   -0.017895
   2 C :   -0.365910
   3 F :    0.073089
   4 F :    0.072773
   5 F :    0.073089
   6 H :   -0.014498
   7 H :   -0.015042
   8 H :   -0.014498
   9 H :    0.026818
  10 H :    0.026818

  Mayer bond orders larger than 0.100000
B(  0-C ,  1-C ) :   1.2125 B(  0-C ,  6-H ) :   0.9541 B(  0-C ,  7-H ) :   0.8991
B(  0-C ,  8-H ) :   0.9541 B(  1-C ,  2-C ) :   1.2622 B(  1-C ,  4-F ) :   0.1928
B(  1-C ,  9-H ) :   0.8382 B(  1-C , 10-H ) :   0.8382 B(  2-C ,  3-F ) :   0.2498
B(  2-C ,  4-F ) :   0.1771 B(  2-C ,  5-F ) :   0.2498

MP2 TOTAL ENERGY:     -415.948077100 Eh
FINAL SINGLE POINT ENERGY      -415.948077100422

DIPOLE MOMENT
-------------
                                X             Y             Z
Electronic contribution:      9.69895       3.29944      -0.00000
Nuclear contribution   :    -10.77550      -3.37789       0.00000
                        -----------------------------------------
Total Dipole Moment    :     -1.07655      -0.07845      -0.00000
                        -----------------------------------------
Magnitude (a.u.)       :      1.07941
Magnitude (Debye)      :      2.74363

Rotational constants in cm-1:     0.172708     0.090961     0.090094
Rotational constants in MHz :  5177.668099  2726.950536  2700.937707

                             ****ORCA TERMINATED NORMALLY****
TOTAL RUN TIME: 0 days 0 hours 0 minutes 33 seconds 329 msec
