                         Program Version 5.0.3 -  RELEASE  -
|  1> !ri-mp2 aug-cc-pvdz aug-cc-pvdz/c tightscf
|  2> %pal nprocs 16 end
|  3> %maxcore 3800
|  4>
|  5> * xyz 0 1
|  6> O      1.361068   -2.102147    0.000000
|  7> C      1.045295   -0.935880   -0.000003
|  8> C     -0.368855   -0.479577    0.000039
|  9> C     -0.663338    0.897964    0.000004
| 10> C     -1.998519    1.302976   -0.000021
| 11> C     -3.022439    0.362805   -0.000027
| 12> C     -2.725364   -0.995943   -0.000004
| 13> C     -1.400135   -1.413451    0.000019
| 14> C      0.412017    1.881771    0.000016
| 15> C      1.715208    1.558479    0.000033
| 16> C      2.154699    0.161657    0.000003
| 17> O      3.320597   -0.165604   -0.000046
| 18> H     -2.234107    2.359259   -0.000035
| 19> H     -4.052746    0.691593   -0.000046
| 20> H     -3.523054   -1.725709    0.000000
| 21> H     -1.145325   -2.463972    0.000055
| 22> H      0.118437    2.925051    0.000016
| 23> H      2.492067    2.310977    0.000032
| 24> *
| 25>
| 26>                          ****END OF INPUT****

CARTESIAN COORDINATES (ANGSTROEM)
---------------------------------
  O      1.361068   -2.102147    0.000000
  C      1.045295   -0.935880   -0.000003
  C     -0.368855   -0.479577    0.000039
  C     -0.663338    0.897964    0.000004
  C     -1.998519    1.302976   -0.000021
  C     -3.022439    0.362805   -0.000027
  C     -2.725364   -0.995943   -0.000004
  C     -1.400135   -1.413451    0.000019
  C      0.412017    1.881771    0.000016
  C      1.715208    1.558479    0.000033
  C      2.154699    0.161657    0.000003
  O      3.320597   -0.165604   -0.000046
  H     -2.234107    2.359259   -0.000035
  H     -4.052746    0.691593   -0.000046
  H     -3.523054   -1.725709    0.000000
  H     -1.145325   -2.463972    0.000055
  H      0.118437    2.925051    0.000016
  H      2.492067    2.310977    0.000032

 Total Charge           Charge          ....    0
 Multiplicity           Mult            ....    1
 Number of Electrons    NEL             ....   82
 Basis Dimension        Dim             ....  330

ORBITAL ENERGIES
----------------

  NO   OCC          E(Eh)            E(eV)
   0   2.0000     -20.583489      -560.1052
   1   2.0000     -20.580755      -560.0308
   2   2.0000     -11.359288      -309.1019
   3   2.0000     -11.355388      -308.9958
   4   2.0000     -11.294478      -307.3384
   5   2.0000     -11.287538      -307.1495
   6   2.0000     -11.276475      -306.8485
   7   2.0000     -11.273634      -306.7712
   8   2.0000     -11.272682      -306.7453
   9   2.0000     -11.272419      -306.7381
  10   2.0000     -11.268570      -306.6334
  11   2.0000     -11.267674      -306.6090
  12   2.0000      -1.427651       -38.8484
  13   2.0000      -1.397128       -38.0178
  14   2.0000      -1.205143       -32.7936
  15   2.0000      -1.129959       -30.7477
  16   2.0000      -1.065412       -28.9913
  17   2.0000      -1.038721       -28.2650
  18   2.0000      -0.962000       -26.1774
  19   2.0000      -0.882379       -24.0108
  20   2.0000      -0.853833       -23.2340
  21   2.0000      -0.827153       -22.5080
  22   2.0000      -0.744291       -20.2532
  23   2.0000      -0.729499       -19.8507
  24   2.0000      -0.704820       -19.1791
  25   2.0000      -0.664836       -18.0911
  26   2.0000      -0.657556       -17.8930
  27   2.0000      -0.641165       -17.4470
  28   2.0000      -0.628269       -17.0961
  29   2.0000      -0.621428       -16.9099
  30   2.0000      -0.599961       -16.3258
  31   2.0000      -0.583652       -15.8820
  32   2.0000      -0.544761       -14.8237
  33   2.0000      -0.539282       -14.6746
  34   2.0000      -0.525336       -14.2951
  35   2.0000      -0.518978       -14.1221
  36   2.0000      -0.487863       -13.2754
  37   2.0000      -0.439373       -11.9559
  38   2.0000      -0.412423       -11.2226
  39   2.0000      -0.367545       -10.0014
  40   2.0000      -0.338873        -9.2212
  41   0.0000       0.003480         0.0947
  42   0.0000       0.023760         0.6465
  43   0.0000       0.031372         0.8537
  44   0.0000       0.040049         1.0898
  45   0.0000       0.051745         1.4081

MULLIKEN ATOMIC CHARGES
-----------------------
   0 O :   -0.845242
   1 C :   -0.086092
   2 C :    1.802800
   3 C :    0.940497
   4 C :    0.595159
   5 C :    0.081227
   6 C :    0.143041
   7 C :   -0.097052
   8 C :    0.843913
   9 C :    0.385875
  10 C :    0.255765
  11 O :   -0.839631
  12 H :   -0.581253
  13 H :   -0.467301
  14 H :   -0.437780
  15 H :   -0.629954
  16 H :   -0.603168
  17 H :   -0.460805
Sum of atomic charges:    0.0000000

LOEWDIN ATOMIC CHARGES
----------------------
   0 O :    0.091834
   1 C :   -0.159989
   2 C :   -0.091716
   3 C :   -0.143378
   4 C :    0.062889
   5 C :    0.035291
   6 C :    0.035636
   7 C :    0.083696
   8 C :    0.073825
   9 C :    0.071938
  10 C :   -0.209547
  11 O :    0.081101
  12 H :    0.009245
  13 H :    0.008136
  14 H :    0.005569
  15 H :    0.016878
  16 H :    0.018619
  17 H :    0.009973

  Mayer bond orders larger than 0.100000
B(  0-O ,  1-C ) :   1.3736 B(  0-O ,  2-C ) :  -0.3570 B(  0-O ,  7-C ) :  -0.1221
B(  1-C ,  2-C ) :   0.6446 B(  1-C ,  3-C ) :  -1.5717 B(  1-C ,  4-C ) :   0.3793
B(  1-C ,  6-C ) :   0.3406 B(  1-C ,  7-C ) :  -1.4286 B(  1-C ,  8-C ) :  -0.1230
B(  1-C ,  9-C ) :   0.1504 B(  1-C , 10-C ) :   1.1273 B(  1-C , 15-H ) :  -0.1500
B(  1-C , 17-H ) :  -0.1151 B(  2-C ,  3-C ) :   3.8746 B(  2-C ,  4-C ) :  -1.6872
B(  2-C ,  5-C ) :  -0.2773 B(  2-C ,  6-C ) :  -0.2512 B(  2-C ,  7-C ) :  -0.3377
B(  2-C ,  8-C ) :  -1.0966 B(  2-C , 10-C ) :  -0.6044 B(  2-C , 14-H ) :   0.1392
B(  2-C , 15-H ) :   0.9353 B(  2-C , 17-H ) :  -0.1102 B(  3-C ,  4-C ) :   1.6186
B(  3-C ,  5-C ) :  -0.5219 B(  3-C ,  6-C ) :  -0.4520 B(  3-C ,  7-C ) :  -1.6474
B(  3-C ,  8-C ) :   2.0006 B(  3-C ,  9-C ) :  -0.3818 B(  3-C , 10-C ) :  -0.2272
B(  3-C , 12-H ) :   1.0057 B(  3-C , 13-H ) :   0.1474 B(  3-C , 16-H ) :   0.8468
B(  3-C , 17-H ) :   0.1857 B(  4-C ,  5-C ) :   1.5641 B(  4-C ,  6-C ) :   0.1817
B(  4-C ,  7-C ) :   0.3564 B(  4-C ,  8-C ) :  -1.5211 B(  4-C ,  9-C ) :   0.6010
B(  4-C , 12-H ) :  -0.3947 B(  4-C , 13-H ) :   0.3321 B(  4-C , 16-H ) :  -0.2139
B(  5-C ,  6-C ) :   2.0874 B(  5-C ,  7-C ) :   0.2985 B(  5-C ,  8-C ) :   0.3063
B(  5-C ,  9-C ) :   0.1997 B(  5-C , 12-H ) :   0.2485 B(  5-C , 13-H ) :   0.2069
B(  5-C , 14-H ) :   0.1496 B(  5-C , 15-H ) :  -0.1263 B(  6-C ,  7-C ) :   2.1858
B(  6-C ,  8-C ) :  -0.2495 B(  6-C ,  9-C ) :   0.1288 B(  6-C , 12-H ) :  -0.1087
B(  6-C , 13-H ) :   0.1949 B(  6-C , 14-H ) :   0.1835 B(  6-C , 15-H ) :   0.3107
B(  7-C ,  8-C ) :   0.5092 B(  7-C , 10-C ) :   0.3156 B(  7-C , 14-H ) :   0.3705
B(  7-C , 15-H ) :  -0.3420 B(  8-C ,  9-C ) :   1.7714 B(  8-C , 11-O ) :   0.1365
B(  8-C , 12-H ) :  -0.1746 B(  8-C , 16-H ) :  -0.4593 B(  8-C , 17-H ) :   0.5159
B(  9-C , 10-C ) :   1.0456 B(  9-C , 11-O ) :  -0.1541 B(  9-C , 16-H ) :   0.4809
B(  9-C , 17-H ) :   0.2001 B( 10-C , 11-O ) :   1.4243

MP2 TOTAL ENERGY:     -533.653510690 Eh
FINAL SINGLE POINT ENERGY      -533.653510689916

DIPOLE MOMENT
-------------
                                X             Y             Z
Electronic contribution:      5.80054      -2.43325       0.00001
Nuclear contribution   :     -8.05369       3.95478       0.00002
                        -----------------------------------------
Total Dipole Moment    :     -2.25315       1.52152       0.00003
                        -----------------------------------------
Magnitude (a.u.)       :      2.71877
Magnitude (Debye)      :      6.91057

Rotational constants in cm-1:     0.066628     0.026713     0.019068
Rotational constants in MHz :  1997.467801   800.831442   571.645447

                             ****ORCA TERMINATED NORMALLY****
TOTAL RUN TIME: 0 days 0 hours 2 minutes 21 seconds 676 msec
