                         Program Version 5.0.3 -  RELEASE  -
|  1> !ri-mp2 aug-cc-pvdz aug-cc-pvdz/c tightscf
|  2> %pal nprocs 16 end
|  3>
|  4> * xyz 0 1
|  5> S     -1.852923   -0.547135    0.000003
|  6> S      2.341496   -0.118506    0.000003
|  7> N     -0.197443   -0.956196   -0.000012
|  8> C      0.689320    0.084870   -0.000004
|  9> C     -0.074363    1.311044   -0.000004
| 10> C     -1.409363    1.123574    0.000003
| 11> H      0.409589    2.273247   -0.000007
| 12> H      0.109128   -1.916200    0.000016
| 13> H     -2.187332    1.869648    0.000005
| 14> *
| 15>
| 16>                          ****END OF INPUT****

CARTESIAN COORDINATES (ANGSTROEM)
---------------------------------
  S     -1.852923   -0.547135    0.000003
  S      2.341496   -0.118506    0.000003
  N     -0.197443   -0.956196   -0.000012
  C      0.689320    0.084870   -0.000004
  C     -0.074363    1.311044   -0.000004
  C     -1.409363    1.123574    0.000003
  H      0.409589    2.273247   -0.000007
  H      0.109128   -1.916200    0.000016
  H     -2.187332    1.869648    0.000005

 Total Charge           Charge          ....    0
 Multiplicity           Mult            ....    1
 Number of Electrons    NEL             ....   60
 Basis Dimension        Dim             ....  173

ORBITAL ENERGIES
----------------

  NO   OCC          E(Eh)            E(eV)
   0   2.0000     -92.049745     -2504.8009
   1   2.0000     -91.901907     -2500.7780
   2   2.0000     -15.653826      -425.9622
   3   2.0000     -11.361653      -309.1663
   4   2.0000     -11.326755      -308.2167
   5   2.0000     -11.277376      -306.8730
   6   2.0000      -9.048581      -246.2244
   7   2.0000      -8.904758      -242.3108
   8   2.0000      -6.730449      -183.1448
   9   2.0000      -6.729066      -183.1072
  10   2.0000      -6.726445      -183.0359
  11   2.0000      -6.587195      -179.2467
  12   2.0000      -6.584295      -179.1678
  13   2.0000      -6.583323      -179.1413
  14   2.0000      -1.324281       -36.0355
  15   2.0000      -1.116779       -30.3891
  16   2.0000      -1.068658       -29.0797
  17   2.0000      -0.931966       -25.3601
  18   2.0000      -0.856275       -23.3004
  19   2.0000      -0.808801       -22.0086
  20   2.0000      -0.692475       -18.8432
  21   2.0000      -0.642941       -17.4953
  22   2.0000      -0.614877       -16.7316
  23   2.0000      -0.612846       -16.6764
  24   2.0000      -0.546990       -14.8844
  25   2.0000      -0.504155       -13.7188
  26   2.0000      -0.443355       -12.0643
  27   2.0000      -0.415618       -11.3095
  28   2.0000      -0.325500        -8.8573
  29   2.0000      -0.305778        -8.3206
  30   0.0000       0.026327         0.7164
  31   0.0000       0.037853         1.0300
  32   0.0000       0.047563         1.2943
  33   0.0000       0.053283         1.4499
  34   0.0000       0.074114         2.0168

MULLIKEN ATOMIC CHARGES
-----------------------
   0 S :    0.816362
   1 S :   -0.106580
   2 N :   -0.671723
   3 C :    0.036059
   4 C :    0.804794
   5 C :   -0.194198
   6 H :   -0.290462
   7 H :   -0.095997
   8 H :   -0.298256
Sum of atomic charges:    0.0000000

LOEWDIN ATOMIC CHARGES
----------------------
   0 S :    0.965233
   1 S :    0.478409
   2 N :   -0.238889
   3 C :   -0.787879
   4 C :   -0.092573
   5 C :   -0.259441
   6 H :   -0.001407
   7 H :   -0.027849
   8 H :   -0.035605

  Mayer bond orders larger than 0.100000
B(  0-S ,  2-N ) :   0.6924 B(  0-S ,  5-C ) :   0.9950 B(  0-S ,  8-H ) :  -0.1117
B(  1-S ,  3-C ) :   1.6138 B(  2-N ,  3-C ) :   0.9788 B(  2-N ,  7-H ) :   1.2356
B(  3-C ,  4-C ) :   0.9837 B(  3-C ,  7-H ) :  -0.1077 B(  4-C ,  5-C ) :   1.8828
B(  4-C ,  6-H ) :   0.7526 B(  5-C ,  8-H ) :   0.9484

MP2 TOTAL ENERGY:     -965.709346963 Eh
FINAL SINGLE POINT ENERGY      -965.709346962506

DIPOLE MOMENT
-------------
                                X             Y             Z
Electronic contribution:     -0.53211      -1.96691      -0.00000
Nuclear contribution   :     -1.62016       2.15555       0.00001
                        -----------------------------------------
Total Dipole Moment    :     -2.15227       0.18864       0.00001
                        -----------------------------------------
Magnitude (a.u.)       :      2.16052
Magnitude (Debye)      :      5.49160

Rotational constants in cm-1:     0.237118     0.052508     0.042989
Rotational constants in MHz :  7108.623491  1574.156018  1288.767317

                             ****ORCA TERMINATED NORMALLY****
TOTAL RUN TIME: 0 days 0 hours 0 minutes 51 seconds 155 msec
