                         Program Version 5.0.3 -  RELEASE  -
|  1> !ri-mp2 aug-cc-pvdz aug-cc-pvdz/c tightscf
|  2> %pal nprocs 16 end
|  3>
|  4> * xyz 0 1
|  5> C     -0.299342    0.692073    0.892875
|  6> C      0.299342   -0.692073    0.892875
|  7> Cl     0.299342    1.715125   -0.469310
|  8> Cl    -0.299342   -1.715125   -0.469310
|  9> H     -1.381552    0.661641    0.812196
| 10> H     -0.016551    1.207148    1.808816
| 11> H      0.016551   -1.207148    1.808816
| 12> H      1.381552   -0.661641    0.812196
| 13> *
| 14>
| 15>                          ****END OF INPUT****

CARTESIAN COORDINATES (ANGSTROEM)
---------------------------------
  C     -0.299342    0.692073    0.892875
  C      0.299342   -0.692073    0.892875
  Cl     0.299342    1.715125   -0.469310
  Cl    -0.299342   -1.715125   -0.469310
  H     -1.381552    0.661641    0.812196
  H     -0.016551    1.207148    1.808816
  H      0.016551   -1.207148    1.808816
  H      1.381552   -0.661641    0.812196

 Total Charge           Charge          ....    0
 Multiplicity           Mult            ....    1
 Number of Electrons    NEL             ....   50
 Basis Dimension        Dim             ....  136

ORBITAL ENERGIES
----------------

  NO   OCC          E(Eh)            E(eV)
   0   2.0000    -104.831299     -2852.6047
   1   2.0000    -104.831299     -2852.6047
   2   2.0000     -11.322504      -308.1010
   3   2.0000     -11.321850      -308.0832
   4   2.0000     -10.557301      -287.2788
   5   2.0000     -10.557301      -287.2788
   6   2.0000      -8.024947      -218.3699
   7   2.0000      -8.024947      -218.3699
   8   2.0000      -8.021748      -218.2829
   9   2.0000      -8.021748      -218.2829
  10   2.0000      -8.021657      -218.2804
  11   2.0000      -8.021656      -218.2804
  12   2.0000      -1.173087       -31.9213
  13   2.0000      -1.112239       -30.2656
  14   2.0000      -0.988928       -26.9101
  15   2.0000      -0.848651       -23.0930
  16   2.0000      -0.669515       -18.2184
  17   2.0000      -0.655392       -17.8341
  18   2.0000      -0.603504       -16.4222
  19   2.0000      -0.543564       -14.7911
  20   2.0000      -0.530261       -14.4291
  21   2.0000      -0.455326       -12.3901
  22   2.0000      -0.448892       -12.2150
  23   2.0000      -0.439974       -11.9723
  24   2.0000      -0.437567       -11.9068
  25   0.0000       0.030519         0.8305
  26   0.0000       0.047420         1.2904
  27   0.0000       0.052822         1.4373
  28   0.0000       0.060070         1.6346
  29   0.0000       0.084069         2.2876

MULLIKEN ATOMIC CHARGES
-----------------------
   0 C :   -0.054766
   1 C :   -0.054766
   2 Cl:   -0.105739
   3 Cl:   -0.105739
   4 H :    0.097558
   5 H :    0.062948
   6 H :    0.062948
   7 H :    0.097558
Sum of atomic charges:   -0.0000000

LOEWDIN ATOMIC CHARGES
----------------------
   0 C :   -0.385556
   1 C :   -0.385556
   2 Cl:    0.450154
   3 Cl:    0.450154
   4 H :   -0.034760
   5 H :   -0.029838
   6 H :   -0.029838
   7 H :   -0.034760

  Mayer bond orders larger than 0.100000
B(  0-C ,  1-C ) :   1.2508 B(  0-C ,  2-Cl) :   1.1830 B(  0-C ,  3-Cl) :  -0.1115
B(  0-C ,  4-H ) :   0.9137 B(  0-C ,  5-H ) :   0.8903 B(  1-C ,  2-Cl) :  -0.1115
B(  1-C ,  3-Cl) :   1.1830 B(  1-C ,  6-H ) :   0.8903 B(  1-C ,  7-H ) :   0.9137

MP2 TOTAL ENERGY:     -997.677479331 Eh
FINAL SINGLE POINT ENERGY      -997.677479331226

DIPOLE MOMENT
-------------
                                X             Y             Z
Electronic contribution:     -0.00000      -0.00000      -5.02370
Nuclear contribution   :      0.00000       0.00000       6.24841
                        -----------------------------------------
Total Dipole Moment    :     -0.00000      -0.00000       1.22471
                        -----------------------------------------
Magnitude (a.u.)       :      1.22471
Magnitude (Debye)      :      3.11296

Rotational constants in cm-1:     0.333371     0.071352     0.062386
Rotational constants in MHz :  9994.198873  2139.069033  1870.275691

                             ****ORCA TERMINATED NORMALLY****
TOTAL RUN TIME: 0 days 0 hours 0 minutes 45 seconds 510 msec
