                         Program Version 5.0.3 -  RELEASE  -
|  1> !ri-mp2 aug-cc-pvdz aug-cc-pvdz/c tightscf
|  2> %pal nprocs 16 end
|  3>
|  4> * xyz 0 1
|  5> S      0.000000    0.000000    3.335105
|  6> C      0.000000    0.000000    1.696705
|  7> S      0.000000    1.461876    0.723589
|  8> C      0.000039    0.699784   -0.860302
|  9> C      0.000068    1.401474   -2.063160
| 10> C      0.000035    0.696981   -3.258264
| 11> C     -0.000035   -0.696981   -3.258264
| 12> C     -0.000068   -1.401474   -2.063160
| 13> C     -0.000039   -0.699784   -0.860302
| 14> S      0.000000   -1.461876    0.723589
| 15> H      0.000110    2.482729   -2.063133
| 16> H      0.000064    1.236910   -4.194881
| 17> H     -0.000064   -1.236910   -4.194881
| 18> H     -0.000110   -2.482729   -2.063133
| 19> *
| 20>
| 21>                          ****END OF INPUT****

CARTESIAN COORDINATES (ANGSTROEM)
---------------------------------
  S      0.000000    0.000000    3.335105
  C      0.000000    0.000000    1.696705
  S      0.000000    1.461876    0.723589
  C      0.000039    0.699784   -0.860302
  C      0.000068    1.401474   -2.063160
  C      0.000035    0.696981   -3.258264
  C     -0.000035   -0.696981   -3.258264
  C     -0.000068   -1.401474   -2.063160
  C     -0.000039   -0.699784   -0.860302
  S      0.000000   -1.461876    0.723589
  H      0.000110    2.482729   -2.063133
  H      0.000064    1.236910   -4.194881
  H     -0.000064   -1.236910   -4.194881
  H     -0.000110   -2.482729   -2.063133

 Total Charge           Charge          ....    0
 Multiplicity           Mult            ....    1
 Number of Electrons    NEL             ....   94
 Basis Dimension        Dim             ....  278

ORBITAL ENERGIES
----------------

  NO   OCC          E(Eh)            E(eV)
   0   2.0000     -92.017089     -2503.9123
   1   2.0000     -92.017088     -2503.9123
   2   2.0000     -91.936511     -2501.7197
   3   2.0000     -11.389373      -309.9206
   4   2.0000     -11.309181      -307.7384
   5   2.0000     -11.308009      -307.7066
   6   2.0000     -11.277235      -306.8692
   7   2.0000     -11.277222      -306.8688
   8   2.0000     -11.270839      -306.6951
   9   2.0000     -11.269652      -306.6628
  10   2.0000      -9.019485      -245.4327
  11   2.0000      -9.019463      -245.4321
  12   2.0000      -8.939602      -243.2589
  13   2.0000      -6.701074      -182.3455
  14   2.0000      -6.701071      -182.3454
  15   2.0000      -6.699761      -182.3098
  16   2.0000      -6.699759      -182.3097
  17   2.0000      -6.697782      -182.2559
  18   2.0000      -6.697781      -182.2559
  19   2.0000      -6.621730      -180.1864
  20   2.0000      -6.619186      -180.1172
  21   2.0000      -6.617744      -180.0780
  22   2.0000      -1.224970       -33.3331
  23   2.0000      -1.154100       -31.4046
  24   2.0000      -1.082038       -29.4438
  25   2.0000      -1.059102       -28.8196
  26   2.0000      -1.003789       -27.3145
  27   2.0000      -0.956835       -26.0368
  28   2.0000      -0.855644       -23.2833
  29   2.0000      -0.834438       -22.7062
  30   2.0000      -0.756826       -20.5943
  31   2.0000      -0.697754       -18.9869
  32   2.0000      -0.670056       -18.2332
  33   2.0000      -0.658700       -17.9241
  34   2.0000      -0.630052       -17.1446
  35   2.0000      -0.582858       -15.8604
  36   2.0000      -0.578096       -15.7308
  37   2.0000      -0.550180       -14.9712
  38   2.0000      -0.533697       -14.5226
  39   2.0000      -0.510662       -13.8958
  40   2.0000      -0.504494       -13.7280
  41   2.0000      -0.480117       -13.0647
  42   2.0000      -0.440301       -11.9812
  43   2.0000      -0.399508       -10.8712
  44   2.0000      -0.350734        -9.5440
  45   2.0000      -0.344627        -9.3778
  46   2.0000      -0.309169        -8.4129
  47   0.0000       0.026794         0.7291
  48   0.0000       0.034978         0.9518
  49   0.0000       0.042490         1.1562
  50   0.0000       0.043487         1.1833
  51   0.0000       0.057852         1.5742

MULLIKEN ATOMIC CHARGES
-----------------------
   0 S :    0.006306
   1 C :   -0.789754
   2 S :    0.444327
   3 C :    0.056694
   4 C :    0.334539
   5 C :    0.469049
   6 C :    0.469049
   7 C :    0.334539
   8 C :    0.056694
   9 S :    0.444327
  10 H :   -0.471471
  11 H :   -0.441415
  12 H :   -0.441415
  13 H :   -0.471471
Sum of atomic charges:   -0.0000000

LOEWDIN ATOMIC CHARGES
----------------------
   0 S :    0.461647
   1 C :   -1.348478
   2 S :    0.937816
   3 C :   -0.502181
   4 C :   -0.012331
   5 C :    0.014129
   6 C :    0.014129
   7 C :   -0.012331
   8 C :   -0.502181
   9 S :    0.937816
  10 H :    0.001606
  11 H :    0.004376
  12 H :    0.004376
  13 H :    0.001606

  Mayer bond orders larger than 0.100000
B(  0-S ,  1-C ) :   1.6782 B(  1-C ,  2-S ) :   0.8945 B(  1-C ,  3-C ) :  -0.1757
B(  1-C ,  4-C ) :   0.2404 B(  1-C ,  7-C ) :   0.2404 B(  1-C ,  8-C ) :  -0.1757
B(  1-C ,  9-S ) :   0.8945 B(  2-S ,  3-C ) :   1.0934 B(  2-S ,  4-C ) :  -0.3639
B(  2-S ,  8-C ) :  -0.1222 B(  2-S ,  9-S ) :   0.1297 B(  3-C ,  4-C ) :   1.8717
B(  3-C ,  7-C ) :  -0.4744 B(  3-C ,  8-C ) :   1.6080 B(  3-C ,  9-S ) :  -0.1222
B(  3-C , 10-H ) :   0.5721 B(  4-C ,  5-C ) :   1.7976 B(  4-C ,  7-C ) :   0.4921
B(  4-C ,  8-C ) :  -0.4744 B(  4-C , 11-H ) :   0.2549 B(  5-C ,  6-C ) :   1.7003
B(  5-C , 10-H ) :   0.1111 B(  5-C , 11-H ) :   0.3262 B(  5-C , 12-H ) :   0.1512
B(  6-C ,  7-C ) :   1.7976 B(  6-C , 11-H ) :   0.1512 B(  6-C , 12-H ) :   0.3262
B(  6-C , 13-H ) :   0.1111 B(  7-C ,  8-C ) :   1.8717 B(  7-C ,  9-S ) :  -0.3639
B(  7-C , 12-H ) :   0.2549 B(  8-C ,  9-S ) :   1.0934 B(  8-C , 13-H ) :   0.5721

MP2 TOTAL ENERGY:    -1461.385113450 Eh
FINAL SINGLE POINT ENERGY     -1461.385113449592

DIPOLE MOMENT
-------------
                                X             Y             Z
Electronic contribution:      0.00000       0.00000       9.98267
Nuclear contribution   :      0.00000       0.00000     -12.13104
                        -----------------------------------------
Total Dipole Moment    :      0.00000       0.00000      -2.14836
                        -----------------------------------------
Magnitude (a.u.)       :      2.14836
Magnitude (Debye)      :      5.46071

Rotational constants in cm-1:     0.075542     0.019997     0.015812
Rotational constants in MHz :  2264.693010   599.498394   474.018538

                             ****ORCA TERMINATED NORMALLY****
TOTAL RUN TIME: 0 days 0 hours 1 minutes 29 seconds 919 msec
