                         Program Version 5.0.3 -  RELEASE  -
|  1> !ri-mp2 aug-cc-pvdz aug-cc-pvdz/c tightscf
|  2> %pal nprocs 16 end
|  3>
|  4> * xyz 0 1
|  5> C      1.056688   -0.825383    0.000000
|  6> C      0.623146    0.625677    0.000000
|  7> Cl    -0.291928   -2.006932    0.000000
|  8> Cl    -0.291928    1.061629    1.479874
|  9> Cl    -0.291928    1.061629   -1.479874
| 10> H      1.650902   -1.016853   -0.889604
| 11> H      1.650902   -1.016853    0.889604
| 12> H      1.507532    1.254404    0.000000
| 13> *
| 14>
| 15>                          ****END OF INPUT****

CARTESIAN COORDINATES (ANGSTROEM)
---------------------------------
  C      1.056688   -0.825383    0.000000
  C      0.623146    0.625677    0.000000
  Cl    -0.291928   -2.006932    0.000000
  Cl    -0.291928    1.061629    1.479874
  Cl    -0.291928    1.061629   -1.479874
  H      1.650902   -1.016853   -0.889604
  H      1.650902   -1.016853    0.889604
  H      1.507532    1.254404    0.000000

 Total Charge           Charge          ....    0
 Multiplicity           Mult            ....    1
 Number of Electrons    NEL             ....   66
 Basis Dimension        Dim             ....  154

ORBITAL ENERGIES
----------------

  NO   OCC          E(Eh)            E(eV)
   0   2.0000    -104.852438     -2853.1799
   1   2.0000    -104.852437     -2853.1799
   2   2.0000    -104.840059     -2852.8430
   3   2.0000     -11.393523      -310.0335
   4   2.0000     -11.335368      -308.4511
   5   2.0000     -10.578574      -287.8576
   6   2.0000     -10.578553      -287.8571
   7   2.0000     -10.566039      -287.5165
   8   2.0000      -8.046228      -218.9490
   9   2.0000      -8.046226      -218.9489
  10   2.0000      -8.042809      -218.8560
  11   2.0000      -8.042808      -218.8559
  12   2.0000      -8.042690      -218.8527
  13   2.0000      -8.042689      -218.8527
  14   2.0000      -8.033746      -218.6094
  15   2.0000      -8.030398      -218.5182
  16   2.0000      -8.030300      -218.5156
  17   2.0000      -1.219465       -33.1833
  18   2.0000      -1.135714       -30.9044
  19   2.0000      -1.102147       -29.9909
  20   2.0000      -0.989599       -26.9284
  21   2.0000      -0.834753       -22.7148
  22   2.0000      -0.688271       -18.7288
  23   2.0000      -0.674178       -18.3453
  24   2.0000      -0.616572       -16.7778
  25   2.0000      -0.565864       -15.3980
  26   2.0000      -0.553586       -15.0639
  27   2.0000      -0.484703       -13.1894
  28   2.0000      -0.477585       -12.9957
  29   2.0000      -0.454537       -12.3686
  30   2.0000      -0.452850       -12.3227
  31   2.0000      -0.451694       -12.2912
  32   2.0000      -0.447544       -12.1783
  33   0.0000       0.030484         0.8295
  34   0.0000       0.051721         1.4074
  35   0.0000       0.052209         1.4207
  36   0.0000       0.068097         1.8530
  37   0.0000       0.091773         2.4973

MULLIKEN ATOMIC CHARGES
-----------------------
   0 C :    0.163608
   1 C :   -0.496233
   2 Cl:   -0.049756
   3 Cl:   -0.018978
   4 Cl:   -0.018978
   5 H :    0.120051
   6 H :    0.120051
   7 H :    0.180234
Sum of atomic charges:   -0.0000000

LOEWDIN ATOMIC CHARGES
----------------------
   0 C :   -0.433126
   1 C :   -0.901892
   2 Cl:    0.474617
   3 Cl:    0.487322
   4 Cl:    0.487322
   5 H :   -0.031518
   6 H :   -0.031518
   7 H :   -0.051206

  Mayer bond orders larger than 0.100000
B(  0-C ,  1-C ) :   1.2131 B(  0-C ,  2-Cl) :   1.2395 B(  0-C ,  5-H ) :   0.8520
B(  0-C ,  6-H ) :   0.8520 B(  1-C ,  2-Cl) :  -0.1961 B(  1-C ,  3-Cl) :   1.1797
B(  1-C ,  4-Cl) :   1.1797 B(  1-C ,  7-H ) :   0.8837

MP2 TOTAL ENERGY:    -1456.737656053 Eh
FINAL SINGLE POINT ENERGY     -1456.737656053460

DIPOLE MOMENT
-------------
                                X             Y             Z
Electronic contribution:     -4.44396       0.97804      -0.00000
Nuclear contribution   :      5.63275      -0.87872       0.00000
                        -----------------------------------------
Total Dipole Moment    :      1.18879       0.09933      -0.00000
                        -----------------------------------------
Magnitude (a.u.)       :      1.19294
Magnitude (Debye)      :      3.03220

Rotational constants in cm-1:     0.088173     0.061544     0.042517
Rotational constants in MHz :  2643.372794  1845.035594  1274.637498

                             ****ORCA TERMINATED NORMALLY****
TOTAL RUN TIME: 0 days 0 hours 0 minutes 28 seconds 287 msec
