                         Program Version 5.0.3 -  RELEASE  -
|  1> !ri-mp2 aug-cc-pvdz aug-cc-pvdz/c tightscf
|  2> %pal nprocs 16 end
|  3> %maxcore 3800
|  4>
|  5> * xyz 0 1
|  6> C      0.024001    1.160298   -0.000002
|  7> C     -0.073857   -1.238567    0.000000
|  8> C     -1.364579    1.212066   -0.000005
|  9> C     -1.455060   -1.181361   -0.000003
| 10> C      0.690181   -0.065845    0.000000
| 11> C     -2.127814    0.046194   -0.000004
| 12> C      2.180603   -0.178189    0.000001
| 13> C     -3.631473    0.095804    0.000006
| 14> C      3.009944    1.089796    0.000003
| 15> O      2.722996   -1.266717    0.000000
| 16> H      0.581498    2.086205   -0.000003
| 17> H      0.442720   -2.187841    0.000000
| 18> H     -1.861326    2.173886   -0.000007
| 19> H     -2.027249   -2.100948   -0.000006
| 20> H     -4.040560   -0.408087    0.877954
| 21> H     -3.997196    1.121343   -0.000134
| 22> H     -4.040584   -0.408339   -0.877785
| 23> H      2.792622    1.698643    0.879269
| 24> H      2.792624    1.698642   -0.879264
| 25> H      4.061815    0.819045    0.000004
| 26> *
| 27>
| 28>                          ****END OF INPUT****

CARTESIAN COORDINATES (ANGSTROEM)
---------------------------------
  C      0.024001    1.160298   -0.000002
  C     -0.073857   -1.238567    0.000000
  C     -1.364579    1.212066   -0.000005
  C     -1.455060   -1.181361   -0.000003
  C      0.690181   -0.065845    0.000000
  C     -2.127814    0.046194   -0.000004
  C      2.180603   -0.178189    0.000001
  C     -3.631473    0.095804    0.000006
  C      3.009944    1.089796    0.000003
  O      2.722996   -1.266717    0.000000
  H      0.581498    2.086205   -0.000003
  H      0.442720   -2.187841    0.000000
  H     -1.861326    2.173886   -0.000007
  H     -2.027249   -2.100948   -0.000006
  H     -4.040560   -0.408087    0.877954
  H     -3.997196    1.121343   -0.000134
  H     -4.040584   -0.408339   -0.877785
  H      2.792622    1.698643    0.879269
  H      2.792624    1.698642   -0.879264
  H      4.061815    0.819045    0.000004

 Total Charge           Charge          ....    0
 Multiplicity           Mult            ....    1
 Number of Electrons    NEL             ....   72
 Basis Dimension        Dim             ....  320

ORBITAL ENERGIES
----------------

  NO   OCC          E(Eh)            E(eV)
   0   2.0000     -20.550255      -559.2009
   1   2.0000     -11.339053      -308.5513
   2   2.0000     -11.263440      -306.4938
   3   2.0000     -11.257850      -306.3417
   4   2.0000     -11.249410      -306.1120
   5   2.0000     -11.246843      -306.0422
   6   2.0000     -11.244596      -305.9810
   7   2.0000     -11.242297      -305.9185
   8   2.0000     -11.240634      -305.8732
   9   2.0000     -11.239008      -305.8290
  10   2.0000      -1.387021       -37.7428
  11   2.0000      -1.172415       -31.9030
  12   2.0000      -1.073398       -29.2086
  13   2.0000      -1.030435       -28.0396
  14   2.0000      -1.007998       -27.4290
  15   2.0000      -0.951435       -25.8899
  16   2.0000      -0.843198       -22.9446
  17   2.0000      -0.835740       -22.7416
  18   2.0000      -0.761252       -20.7147
  19   2.0000      -0.693882       -18.8815
  20   2.0000      -0.660545       -17.9743
  21   2.0000      -0.641459       -17.4550
  22   2.0000      -0.616527       -16.7765
  23   2.0000      -0.603447       -16.4206
  24   2.0000      -0.603083       -16.4107
  25   2.0000      -0.595796       -16.2124
  26   2.0000      -0.585827       -15.9411
  27   2.0000      -0.551599       -15.0098
  28   2.0000      -0.545094       -14.8328
  29   2.0000      -0.517546       -14.0831
  30   2.0000      -0.513107       -13.9624
  31   2.0000      -0.494896       -13.4668
  32   2.0000      -0.482830       -13.1385
  33   2.0000      -0.414785       -11.2869
  34   2.0000      -0.347288        -9.4502
  35   2.0000      -0.336543        -9.1578
  36   0.0000       0.031303         0.8518
  37   0.0000       0.035093         0.9549
  38   0.0000       0.043222         1.1761
  39   0.0000       0.049806         1.3553
  40   0.0000       0.051002         1.3878

MULLIKEN ATOMIC CHARGES
-----------------------
   0 C :    0.314162
   1 C :   -0.275208
   2 C :    0.323960
   3 C :    0.631823
   4 C :    1.465900
   5 C :   -0.097619
   6 C :   -0.017363
   7 C :    0.625997
   8 C :    0.442347
   9 O :   -0.858795
  10 H :   -0.749734
  11 H :   -0.681779
  12 H :   -0.594934
  13 H :   -0.613602
  14 H :    0.103409
  15 H :   -0.191269
  16 H :    0.103359
  17 H :    0.123055
  18 H :    0.123057
  19 H :   -0.176767
Sum of atomic charges:    0.0000000

LOEWDIN ATOMIC CHARGES
----------------------
   0 C :    0.054011
   1 C :    0.072129
   2 C :    0.046981
   3 C :    0.054173
   4 C :   -0.138420
   5 C :   -0.205003
   6 C :   -0.273162
   7 C :    0.179262
   8 C :    0.192579
   9 O :    0.042906
  10 H :   -0.000097
  11 H :    0.010814
  12 H :    0.003668
  13 H :    0.009439
  14 H :   -0.005762
  15 H :   -0.015409
  16 H :   -0.005765
  17 H :   -0.006274
  18 H :   -0.006274
  19 H :   -0.009796

  Mayer bond orders larger than 0.100000
B(  0-C ,  1-C ) :  -0.8745 B(  0-C ,  2-C ) :   2.1292 B(  0-C ,  3-C ) :   0.3180
B(  0-C ,  4-C ) :   1.5898 B(  0-C ,  5-C ) :  -0.4250 B(  0-C ,  6-C ) :  -0.5287
B(  0-C ,  7-C ) :   0.4172 B(  0-C ,  8-C ) :  -0.2390 B(  0-C ,  9-O ) :   0.1061
B(  0-C , 10-H ) :  -0.7857 B(  0-C , 12-H ) :   0.4633 B(  1-C ,  2-C ) :   0.1307
B(  1-C ,  3-C ) :   3.3531 B(  1-C ,  4-C ) :   0.6313 B(  1-C ,  5-C ) :  -0.6904
B(  1-C ,  6-C ) :  -0.7361 B(  1-C ,  7-C ) :   0.2331 B(  1-C ,  8-C ) :   0.1383
B(  1-C ,  9-O ) :  -0.1099 B(  1-C , 11-H ) :  -0.5766 B(  1-C , 13-H ) :   0.5637
B(  2-C ,  3-C ) :  -0.6171 B(  2-C ,  4-C ) :  -0.4295 B(  2-C ,  5-C ) :   2.1593
B(  2-C ,  6-C ) :   0.1383 B(  2-C ,  7-C ) :  -0.4131 B(  2-C ,  8-C ) :   0.1760
B(  2-C , 10-H ) :   0.5031 B(  2-C , 12-H ) :  -0.5054 B(  3-C ,  4-C ) :  -0.8332
B(  3-C ,  5-C ) :   1.5558 B(  3-C ,  6-C ) :   0.1005 B(  3-C ,  7-C ) :  -0.8211
B(  3-C , 11-H ) :   0.2180 B(  3-C , 13-H ) :  -0.3533 B(  4-C ,  5-C ) :   0.6625
B(  4-C ,  6-C ) :   1.0362 B(  4-C , 10-H ) :   0.7810 B(  4-C , 11-H ) :   1.0645
B(  4-C , 12-H ) :  -0.1470 B(  4-C , 13-H ) :  -0.1986 B(  4-C , 19-H ) :   0.1267
B(  5-C ,  7-C ) :   1.6015 B(  5-C , 10-H ) :  -0.1638 B(  5-C , 11-H ) :  -0.2569
B(  5-C , 12-H ) :   0.6689 B(  5-C , 13-H ) :   0.5240 B(  5-C , 14-H ) :   0.2528
B(  5-C , 15-H ) :   0.5232 B(  5-C , 16-H ) :   0.2529 B(  6-C ,  7-C ) :   0.1179
B(  6-C ,  8-C ) :   1.1202 B(  6-C ,  9-O ) :   1.4716 B(  6-C , 19-H ) :   0.1256
B(  7-C , 14-H ) :   0.8226 B(  7-C , 15-H ) :   0.5303 B(  7-C , 16-H ) :   0.8226
B(  8-C , 17-H ) :   0.8910 B(  8-C , 18-H ) :   0.8910 B(  8-C , 19-H ) :   0.7723

MP2 TOTAL ENERGY:     -422.990476749 Eh
FINAL SINGLE POINT ENERGY      -422.990476749412

DIPOLE MOMENT
-------------
                                X             Y             Z
Electronic contribution:      4.23574      -3.42795      -0.00002
Nuclear contribution   :     -5.29355       4.50736       0.00003
                        -----------------------------------------
Total Dipole Moment    :     -1.05781       1.07941       0.00001
                        -----------------------------------------
Magnitude (a.u.)       :      1.51132
Magnitude (Debye)      :      3.84148

Rotational constants in cm-1:     0.121522     0.026191     0.021720
Rotational constants in MHz :  3643.141170   785.174056   651.137067

                             ****ORCA TERMINATED NORMALLY****
TOTAL RUN TIME: 0 days 0 hours 1 minutes 44 seconds 196 msec
