                         Program Version 5.0.3 -  RELEASE  -
|  1> !ri-mp2 aug-cc-pvdz aug-cc-pvdz/c tightscf
|  2> %pal nprocs 16 end
|  3>
|  4> * xyz 0 1
|  5> C     -0.676877    1.824455    0.000000
|  6> C      0.000000    0.712806    0.000000
|  7> C      0.674729   -0.400337    0.000000
|  8> C      0.070788   -1.779546    0.000000
|  9> H     -0.970419    2.308430    0.924346
| 10> H     -0.970419    2.308430   -0.924346
| 11> H      1.759891   -0.339248    0.000000
| 12> H     -1.016629   -1.735258    0.000000
| 13> H      0.392869   -2.343309   -0.878652
| 14> H      0.392869   -2.343309    0.878652
| 15> *
| 16>
| 17>                          ****END OF INPUT****

CARTESIAN COORDINATES (ANGSTROEM)
---------------------------------
  C     -0.676877    1.824455    0.000000
  C      0.000000    0.712806    0.000000
  C      0.674729   -0.400337    0.000000
  C      0.070788   -1.779546    0.000000
  H     -0.970419    2.308430    0.924346
  H     -0.970419    2.308430   -0.924346
  H      1.759891   -0.339248    0.000000
  H     -1.016629   -1.735258    0.000000
  H      0.392869   -2.343309   -0.878652
  H      0.392869   -2.343309    0.878652

 Total Charge           Charge          ....    0
 Multiplicity           Mult            ....    1
 Number of Electrons    NEL             ....   30
 Basis Dimension        Dim             ....  146

ORBITAL ENERGIES
----------------

  NO   OCC          E(Eh)            E(eV)
   0   2.0000     -11.255967      -306.2904
   1   2.0000     -11.246067      -306.0210
   2   2.0000     -11.238418      -305.8129
   3   2.0000     -11.235154      -305.7241
   4   2.0000      -1.089727       -29.6530
   5   2.0000      -1.001252       -27.2454
   6   2.0000      -0.893641       -24.3172
   7   2.0000      -0.702896       -19.1268
   8   2.0000      -0.639065       -17.3898
   9   2.0000      -0.604099       -16.4384
  10   2.0000      -0.572902       -15.5895
  11   2.0000      -0.567738       -15.4489
  12   2.0000      -0.527376       -14.3506
  13   2.0000      -0.371980       -10.1221
  14   2.0000      -0.360041        -9.7972
  15   0.0000       0.036232         0.9859
  16   0.0000       0.045038         1.2256
  17   0.0000       0.051307         1.3961
  18   0.0000       0.051925         1.4130
  19   0.0000       0.067518         1.8373

MULLIKEN ATOMIC CHARGES
-----------------------
   0 C :    0.684828
   1 C :   -0.483409
   2 C :    0.545677
   3 C :    0.220267
   4 H :   -0.226989
   5 H :   -0.226989
   6 H :   -0.366232
   7 H :   -0.157275
   8 H :    0.005061
   9 H :    0.005061
Sum of atomic charges:    0.0000000

LOEWDIN ATOMIC CHARGES
----------------------
   0 C :    0.154265
   1 C :   -0.084805
   2 C :   -0.056394
   3 C :    0.134557
   4 H :   -0.043309
   5 H :   -0.043309
   6 H :   -0.005255
   7 H :   -0.018167
   8 H :   -0.018791
   9 H :   -0.018791

  Mayer bond orders larger than 0.100000
B(  0-C ,  1-C ) :   2.0210 B(  0-C ,  2-C ) :   0.2164 B(  0-C ,  4-H ) :   0.7399
B(  0-C ,  5-H ) :   0.7399 B(  0-C ,  6-H ) :   0.1017 B(  1-C ,  2-C ) :   1.9616
B(  1-C ,  4-H ) :   0.1390 B(  1-C ,  5-H ) :   0.1390 B(  2-C ,  3-C ) :   1.1510
B(  2-C ,  6-H ) :   0.7028 B(  3-C ,  6-H ) :  -0.1021 B(  3-C ,  7-H ) :   0.9610
B(  3-C ,  8-H ) :   0.9417 B(  3-C ,  9-H ) :   0.9417 B(  4-H ,  5-H ) :  -0.1299

MP2 TOTAL ENERGY:     -155.471098737 Eh
FINAL SINGLE POINT ENERGY      -155.471098736990

DIPOLE MOMENT
-------------
                                X             Y             Z
Electronic contribution:      0.45426       2.04887      -0.00000
Nuclear contribution   :     -0.42897      -2.23346       0.00000
                        -----------------------------------------
Total Dipole Moment    :      0.02529      -0.18459      -0.00000
                        -----------------------------------------
Magnitude (a.u.)       :      0.18632
Magnitude (Debye)      :      0.47358

Rotational constants in cm-1:     1.161776     0.140044     0.131366
Rotational constants in MHz : 34829.167260  4198.421116  3938.243570

                             ****ORCA TERMINATED NORMALLY****
TOTAL RUN TIME: 0 days 0 hours 0 minutes 52 seconds 943 msec
