                         Program Version 5.0.3 -  RELEASE  -
|  1> !ri-mp2 aug-cc-pvdz aug-cc-pvdz/c tightscf
|  2> %pal nprocs 16 end
|  3>
|  4> * xyz 0 1
|  5> C      1.328756   -1.459271    0.000000
|  6> C      0.738939   -0.414592    0.000000
|  7> C     -1.523500    0.649784    0.000000
|  8> C      0.000000    0.843190    0.000000
|  9> H      1.855678   -2.379936    0.000000
| 10> H     -1.844031    0.095387    0.881353
| 11> H     -1.844031    0.095387   -0.881353
| 12> H     -2.027340    1.616676    0.000000
| 13> H      0.297280    1.428911    0.873961
| 14> H      0.297280    1.428911   -0.873961
| 15> *
| 16>
| 17>                          ****END OF INPUT****

CARTESIAN COORDINATES (ANGSTROEM)
---------------------------------
  C      1.328756   -1.459271    0.000000
  C      0.738939   -0.414592    0.000000
  C     -1.523500    0.649784    0.000000
  C      0.000000    0.843190    0.000000
  H      1.855678   -2.379936    0.000000
  H     -1.844031    0.095387    0.881353
  H     -1.844031    0.095387   -0.881353
  H     -2.027340    1.616676    0.000000
  H      0.297280    1.428911    0.873961
  H      0.297280    1.428911   -0.873961

 Total Charge           Charge          ....    0
 Multiplicity           Mult            ....    1
 Number of Electrons    NEL             ....   30
 Basis Dimension        Dim             ....  146

ORBITAL ENERGIES
----------------

  NO   OCC          E(Eh)            E(eV)
   0   2.0000     -11.259085      -306.3753
   1   2.0000     -11.239091      -305.8312
   2   2.0000     -11.232583      -305.6541
   3   2.0000     -11.225933      -305.4732
   4   2.0000      -1.082307       -29.4511
   5   2.0000      -0.997016       -27.1302
   6   2.0000      -0.877199       -23.8698
   7   2.0000      -0.716690       -19.5021
   8   2.0000      -0.641624       -17.4595
   9   2.0000      -0.627388       -17.0721
  10   2.0000      -0.551523       -15.0077
  11   2.0000      -0.524100       -14.2615
  12   2.0000      -0.514089       -13.9891
  13   2.0000      -0.383787       -10.4434
  14   2.0000      -0.383058       -10.4235
  15   0.0000       0.036344         0.9890
  16   0.0000       0.040929         1.1137
  17   0.0000       0.051522         1.4020
  18   0.0000       0.053128         1.4457
  19   0.0000       0.065032         1.7696

MULLIKEN ATOMIC CHARGES
-----------------------
   0 C :    1.014424
   1 C :   -0.570468
   2 C :    0.360840
   3 C :   -0.127672
   4 H :   -0.530053
   5 H :   -0.056864
   6 H :   -0.056864
   7 H :   -0.077870
   8 H :    0.022264
   9 H :    0.022264
Sum of atomic charges:   -0.0000000

LOEWDIN ATOMIC CHARGES
----------------------
   0 C :    0.199116
   1 C :   -0.114858
   2 C :    0.142635
   3 C :   -0.099543
   4 H :   -0.109371
   5 H :   -0.016254
   6 H :   -0.016254
   7 H :   -0.019237
   8 H :    0.016882
   9 H :    0.016882

  Mayer bond orders larger than 0.100000
B(  0-C ,  1-C ) :   2.7093 B(  0-C ,  3-C ) :   0.1218 B(  0-C ,  4-H ) :  -0.3163
B(  1-C ,  3-C ) :   1.3022 B(  1-C ,  4-H ) :   0.6373 B(  2-C ,  3-C ) :   1.3358
B(  2-C ,  5-H ) :   0.9309 B(  2-C ,  6-H ) :   0.9309 B(  2-C ,  7-H ) :   0.9094
B(  3-C ,  4-H ) :   0.1318 B(  3-C ,  8-H ) :   0.8164 B(  3-C ,  9-H ) :   0.8164

MP2 TOTAL ENERGY:     -155.473518610 Eh
FINAL SINGLE POINT ENERGY      -155.473518609745

DIPOLE MOMENT
-------------
                                X             Y             Z
Electronic contribution:      3.20283      -2.12270       0.00000
Nuclear contribution   :     -3.40099       2.38040       0.00000
                        -----------------------------------------
Total Dipole Moment    :     -0.19816       0.25770       0.00000
                        -----------------------------------------
Magnitude (a.u.)       :      0.32508
Magnitude (Debye)      :      0.82630

Rotational constants in cm-1:     0.923007     0.150947     0.136244
Rotational constants in MHz : 27671.047162  4525.274788  4084.486358

                             ****ORCA TERMINATED NORMALLY****
TOTAL RUN TIME: 0 days 0 hours 0 minutes 34 seconds 317 msec
