                         Program Version 5.0.3 -  RELEASE  -
|  1> !ri-mp2 aug-cc-pvdz aug-cc-pvdz/c tightscf
|  2> %pal nprocs 16 end
|  3> %maxcore 3800
|  4>
|  5> * xyz 0 1
|  6> C      2.405659   -0.121060    0.246773
|  7> C      1.838083   -1.367505    0.021924
|  8> C      1.605620    1.013405    0.195074
|  9> C      0.478870   -1.458493   -0.249138
| 10> C      0.238294    0.935373   -0.073405
| 11> C     -0.337705   -0.327932   -0.297810
| 12> C     -0.578927    2.201942   -0.131830
| 13> C     -2.647406   -0.664207    0.717826
| 14> C     -1.815959   -0.498821   -0.563287
| 15> H      3.462852   -0.029350    0.457059
| 16> H      2.446720   -2.261366    0.052064
| 17> H      2.051065    1.985879    0.364968
| 18> H      0.037240   -2.430840   -0.432374
| 19> H     -1.016171    2.353512   -1.121381
| 20> H     -1.404257    2.191747    0.581999
| 21> H      0.039631    3.069984    0.091030
| 22> H     -2.324469   -1.542269    1.278281
| 23> H     -3.705954   -0.783854    0.481579
| 24> H     -2.545656    0.200048    1.374935
| 25> H     -2.198729    0.349580   -1.132566
| 26> H     -1.961452   -1.379284   -1.192367
| 27> *
| 28>
| 29>                          ****END OF INPUT****

CARTESIAN COORDINATES (ANGSTROEM)
---------------------------------
  C      2.405659   -0.121060    0.246773
  C      1.838083   -1.367505    0.021924
  C      1.605620    1.013405    0.195074
  C      0.478870   -1.458493   -0.249138
  C      0.238294    0.935373   -0.073405
  C     -0.337705   -0.327932   -0.297810
  C     -0.578927    2.201942   -0.131830
  C     -2.647406   -0.664207    0.717826
  C     -1.815959   -0.498821   -0.563287
  H      3.462852   -0.029350    0.457059
  H      2.446720   -2.261366    0.052064
  H      2.051065    1.985879    0.364968
  H      0.037240   -2.430840   -0.432374
  H     -1.016171    2.353512   -1.121381
  H     -1.404257    2.191747    0.581999
  H      0.039631    3.069984    0.091030
  H     -2.324469   -1.542269    1.278281
  H     -3.705954   -0.783854    0.481579
  H     -2.545656    0.200048    1.374935
  H     -2.198729    0.349580   -1.132566
  H     -1.961452   -1.379284   -1.192367

 Total Charge           Charge          ....    0
 Multiplicity           Mult            ....    1
 Number of Electrons    NEL             ....   66
 Basis Dimension        Dim             ....  315

ORBITAL ENERGIES
----------------

  NO   OCC          E(Eh)            E(eV)
   0   2.0000     -11.240305      -305.8642
   1   2.0000     -11.236819      -305.7694
   2   2.0000     -11.232120      -305.6415
   3   2.0000     -11.231280      -305.6187
   4   2.0000     -11.231166      -305.6156
   5   2.0000     -11.230179      -305.5887
   6   2.0000     -11.229905      -305.5813
   7   2.0000     -11.228123      -305.5328
   8   2.0000     -11.222343      -305.3755
   9   2.0000      -1.158080       -31.5129
  10   2.0000      -1.063533       -28.9402
  11   2.0000      -1.039791       -28.2941
  12   2.0000      -0.985108       -26.8062
  13   2.0000      -0.932274       -25.3685
  14   2.0000      -0.861939       -23.4545
  15   2.0000      -0.810342       -22.0505
  16   2.0000      -0.778533       -21.1849
  17   2.0000      -0.678848       -18.4724
  18   2.0000      -0.651599       -17.7309
  19   2.0000      -0.625293       -17.0151
  20   2.0000      -0.591531       -16.0964
  21   2.0000      -0.585927       -15.9439
  22   2.0000      -0.570982       -15.5372
  23   2.0000      -0.566626       -15.4187
  24   2.0000      -0.543330       -14.7848
  25   2.0000      -0.530219       -14.4280
  26   2.0000      -0.516875       -14.0649
  27   2.0000      -0.496122       -13.5002
  28   2.0000      -0.476847       -12.9757
  29   2.0000      -0.471698       -12.8356
  30   2.0000      -0.464277       -12.6336
  31   2.0000      -0.326649        -8.8886
  32   2.0000      -0.316467        -8.6115
  33   0.0000       0.035824         0.9748
  34   0.0000       0.039811         1.0833
  35   0.0000       0.040462         1.1010
  36   0.0000       0.051042         1.3889
  37   0.0000       0.052683         1.4336

MULLIKEN ATOMIC CHARGES
-----------------------
   0 C :    0.187071
   1 C :    0.199509
   2 C :    0.656636
   3 C :    0.398885
   4 C :   -0.209565
   5 C :    0.375736
   6 C :    0.409618
   7 C :    0.437112
   8 C :    0.265797
   9 H :   -0.468400
  10 H :   -0.462291
  11 H :   -0.610448
  12 H :   -0.689852
  13 H :    0.211620
  14 H :    0.172548
  15 H :   -0.264613
  16 H :   -0.087273
  17 H :   -0.100294
  18 H :   -0.172741
  19 H :   -0.072365
  20 H :   -0.176691
Sum of atomic charges:   -0.0000000

LOEWDIN ATOMIC CHARGES
----------------------
   0 C :    0.005007
   1 C :    0.005304
   2 C :    0.036690
   3 C :    0.040694
   4 C :   -0.168513
   5 C :   -0.144255
   6 C :    0.173909
   7 C :    0.150097
   8 C :   -0.027009
   9 H :   -0.001905
  10 H :   -0.001830
  11 H :    0.001212
  12 H :    0.006351
  13 H :   -0.007333
  14 H :   -0.013357
  15 H :   -0.016602
  16 H :   -0.015991
  17 H :   -0.018297
  18 H :   -0.023911
  19 H :    0.006229
  20 H :    0.013510

  Mayer bond orders larger than 0.100000
B(  0-C ,  1-C ) :   1.8861 B(  0-C ,  2-C ) :   1.2546 B(  0-C ,  3-C ) :   0.1530
B(  0-C ,  5-C ) :   0.1681 B(  0-C ,  6-C ) :   0.3742 B(  0-C ,  9-H ) :   0.2236
B(  0-C , 10-H ) :   0.2327 B(  0-C , 11-H ) :   0.1596 B(  0-C , 12-H ) :  -0.1227
B(  1-C ,  2-C ) :   0.1210 B(  1-C ,  3-C ) :   1.7625 B(  1-C ,  4-C ) :  -0.2150
B(  1-C ,  9-H ) :   0.2354 B(  1-C , 10-H ) :   0.1639 B(  1-C , 11-H ) :  -0.1473
B(  1-C , 12-H ) :   0.3930 B(  2-C ,  3-C ) :   0.2203 B(  2-C ,  4-C ) :   1.5920
B(  2-C ,  5-C ) :  -1.0688 B(  2-C ,  6-C ) :  -0.6250 B(  2-C ,  8-C ) :   0.1878
B(  2-C ,  9-H ) :   0.1813 B(  2-C , 11-H ) :  -0.3702 B(  2-C , 12-H ) :   0.1196
B(  2-C , 14-H ) :   0.1106 B(  3-C ,  4-C ) :  -0.7309 B(  3-C ,  5-C ) :   1.2367
B(  3-C ,  8-C ) :  -0.2869 B(  3-C , 10-H ) :   0.2532 B(  3-C , 12-H ) :  -0.5979
B(  4-C ,  5-C ) :   2.3150 B(  4-C ,  6-C ) :   1.3422 B(  4-C ,  8-C ) :  -0.2195
B(  4-C ,  9-H ) :   0.1171 B(  4-C , 11-H ) :   0.7877 B(  4-C , 12-H ) :  -0.2595
B(  4-C , 13-H ) :   0.1509 B(  4-C , 14-H ) :   0.1548 B(  4-C , 15-H ) :   0.5171
B(  5-C ,  8-C ) :   1.2781 B(  5-C , 10-H ) :   0.1195 B(  5-C , 12-H ) :   0.8856
B(  5-C , 15-H ) :   0.1288 B(  5-C , 16-H ) :  -0.1055 B(  5-C , 17-H ) :   0.1106
B(  5-C , 19-H ) :   0.1962 B(  6-C , 13-H ) :   0.8650 B(  6-C , 14-H ) :   0.8263
B(  6-C , 15-H ) :   0.4628 B(  7-C ,  8-C ) :   1.1915 B(  7-C , 16-H ) :   0.9524
B(  7-C , 17-H ) :   0.8836 B(  7-C , 18-H ) :   1.0009 B(  8-C , 13-H ) :  -0.1219
B(  8-C , 19-H ) :   0.6881 B(  8-C , 20-H ) :   0.7847 B( 19-H , 20-H ) :  -0.1023

MP2 TOTAL ENERGY:     -349.111721715 Eh
FINAL SINGLE POINT ENERGY      -349.111721715115

DIPOLE MOMENT
-------------
                                X             Y             Z
Electronic contribution:      7.10567      -1.68112      -0.85574
Nuclear contribution   :     -7.34175       1.77768       0.82834
                        -----------------------------------------
Total Dipole Moment    :     -0.23609       0.09656      -0.02740
                        -----------------------------------------
Magnitude (a.u.)       :      0.25654
Magnitude (Debye)      :      0.65207

Rotational constants in cm-1:     0.083925     0.047463     0.032915
Rotational constants in MHz :  2516.004380  1422.919739   986.755948

                             ****ORCA TERMINATED NORMALLY****
TOTAL RUN TIME: 0 days 0 hours 1 minutes 36 seconds 972 msec
