                         Program Version 5.0.3 -  RELEASE  -
|  1> !ri-mp2 aug-cc-pvdz aug-cc-pvdz/c tightscf
|  2> %pal nprocs 16 end
|  3>
|  4> * xyz 0 1
|  5> O     -0.475052   -0.494394    1.113221
|  6> O     -0.475052   -0.494394   -1.113221
|  7> C     -0.475052    0.274157    2.299349
|  8> C     -0.475052    0.274157   -2.299349
|  9> C      0.108864    0.139234    0.000000
| 10> C      1.624653   -0.011059    0.000000
| 11> H      0.536031    0.457395    2.678474
| 12> H      0.536031    0.457395   -2.678474
| 13> H     -1.025623   -0.297309    3.043115
| 14> H     -1.025623   -0.297309   -3.043115
| 15> H     -0.974551    1.238607    2.149797
| 16> H     -0.974551    1.238607   -2.149797
| 17> H     -0.175109    1.205677    0.000000
| 18> H      1.876897   -1.070780    0.000000
| 19> H      2.063428    0.459549   -0.880282
| 20> H      2.063428    0.459549    0.880282
| 21> *
| 22>
| 23>                          ****END OF INPUT****

CARTESIAN COORDINATES (ANGSTROEM)
---------------------------------
  O     -0.475052   -0.494394    1.113221
  O     -0.475052   -0.494394   -1.113221
  C     -0.475052    0.274157    2.299349
  C     -0.475052    0.274157   -2.299349
  C      0.108864    0.139234    0.000000
  C      1.624653   -0.011059    0.000000
  H      0.536031    0.457395    2.678474
  H      0.536031    0.457395   -2.678474
  H     -1.025623   -0.297309    3.043115
  H     -1.025623   -0.297309   -3.043115
  H     -0.974551    1.238607    2.149797
  H     -0.974551    1.238607   -2.149797
  H     -0.175109    1.205677    0.000000
  H      1.876897   -1.070780    0.000000
  H      2.063428    0.459549   -0.880282
  H      2.063428    0.459549    0.880282

 Total Charge           Charge          ....    0
 Multiplicity           Mult            ....    1
 Number of Electrons    NEL             ....   50
 Basis Dimension        Dim             ....  228

ORBITAL ENERGIES
----------------

  NO   OCC          E(Eh)            E(eV)
   0   2.0000     -20.565075      -559.6041
   1   2.0000     -20.565062      -559.6038
   2   2.0000     -11.339066      -308.5517
   3   2.0000     -11.280737      -306.9645
   4   2.0000     -11.280736      -306.9644
   5   2.0000     -11.223129      -305.3969
   6   2.0000      -1.415453       -38.5164
   7   2.0000      -1.347059       -36.6554
   8   2.0000      -1.022066       -27.8118
   9   2.0000      -0.948691       -25.8152
  10   2.0000      -0.914164       -24.8757
  11   2.0000      -0.818047       -22.2602
  12   2.0000      -0.691306       -18.8114
  13   2.0000      -0.684615       -18.6293
  14   2.0000      -0.657814       -17.9000
  15   2.0000      -0.625380       -17.0175
  16   2.0000      -0.591932       -16.1073
  17   2.0000      -0.568689       -15.4748
  18   2.0000      -0.568145       -15.4600
  19   2.0000      -0.544557       -14.8181
  20   2.0000      -0.527154       -14.3446
  21   2.0000      -0.495950       -13.4955
  22   2.0000      -0.470811       -12.8114
  23   2.0000      -0.439676       -11.9642
  24   2.0000      -0.412885       -11.2352
  25   0.0000       0.034193         0.9304
  26   0.0000       0.044202         1.2028
  27   0.0000       0.047354         1.2886
  28   0.0000       0.051023         1.3884
  29   0.0000       0.063242         1.7209

MULLIKEN ATOMIC CHARGES
-----------------------
   0 O :   -0.960162
   1 O :   -0.960162
   2 C :    0.752663
   3 C :    0.752663
   4 C :    1.318741
   5 C :    0.302597
   6 H :   -0.078046
   7 H :   -0.078046
   8 H :   -0.253473
   9 H :   -0.253473
  10 H :   -0.074473
  11 H :   -0.074473
  12 H :   -0.164203
  13 H :   -0.018573
  14 H :   -0.105789
  15 H :   -0.105789
Sum of atomic charges:    0.0000000

LOEWDIN ATOMIC CHARGES
----------------------
   0 O :    0.008450
   1 O :    0.008450
   2 C :    0.134026
   3 C :    0.134026
   4 C :   -0.278684
   5 C :    0.172100
   6 H :   -0.028937
   7 H :   -0.028937
   8 H :   -0.025711
   9 H :   -0.025711
  10 H :   -0.022902
  11 H :   -0.022902
  12 H :    0.024658
  13 H :   -0.002648
  14 H :   -0.022639
  15 H :   -0.022639

  Mayer bond orders larger than 0.100000
B(  0-O ,  2-C ) :   0.7961 B(  0-O ,  4-C ) :   0.3513 B(  1-O ,  3-C ) :   0.7961
B(  1-O ,  4-C ) :   0.3513 B(  2-C ,  6-H ) :   0.9386 B(  2-C ,  8-H ) :   1.0467
B(  2-C , 10-H ) :   0.9656 B(  3-C ,  7-H ) :   0.9386 B(  3-C ,  9-H ) :   1.0467
B(  3-C , 11-H ) :   0.9656 B(  4-C ,  5-C ) :   1.1609 B(  4-C , 12-H ) :   0.7554
B(  5-C , 13-H ) :   0.9446 B(  5-C , 14-H ) :   0.9183 B(  5-C , 15-H ) :   0.9183

MP2 TOTAL ENERGY:     -308.020710427 Eh
FINAL SINGLE POINT ENERGY      -308.020710427497

DIPOLE MOMENT
-------------
                                X             Y             Z
Electronic contribution:     -2.56540      -3.00132      -0.00000
Nuclear contribution   :      3.00645       3.99675       0.00000
                        -----------------------------------------
Total Dipole Moment    :      0.44105       0.99543      -0.00000
                        -----------------------------------------
Magnitude (a.u.)       :      1.08877
Magnitude (Debye)      :      2.76742

Rotational constants in cm-1:     0.217194     0.074275     0.061978
Rotational constants in MHz :  6511.303208  2226.721596  1858.047473

                             ****ORCA TERMINATED NORMALLY****
TOTAL RUN TIME: 0 days 0 hours 0 minutes 45 seconds 174 msec
