                         Program Version 5.0.3 -  RELEASE  -
|  1> !ri-mp2 aug-cc-pvdz aug-cc-pvdz/c tightscf
|  2> %pal nprocs 16 end
|  3>
|  4> * xyz 0 1
|  5> H     -1.638593   -1.153756    0.688314
|  6> H     -1.454271   -0.881074   -1.060827
|  7> C     -1.031076   -0.669148   -0.077087
|  8> H     -0.970288    1.084448    1.225130
|  9> H     -1.528273    1.455561   -0.426021
| 10> C     -0.860191    0.833461    0.164191
| 11> O      0.306808   -1.179852   -0.027728
| 12> O      0.477289    1.074627   -0.266338
| 13> H      1.499157    0.001110    1.176675
| 14> H      2.050598   -0.197573   -0.525731
| 15> C      1.186084   -0.075466    0.125395
| 16> *
| 17>
| 18>                          ****END OF INPUT****

CARTESIAN COORDINATES (ANGSTROEM)
---------------------------------
  H     -1.638593   -1.153756    0.688314
  H     -1.454271   -0.881074   -1.060827
  C     -1.031076   -0.669148   -0.077087
  H     -0.970288    1.084448    1.225130
  H     -1.528273    1.455561   -0.426021
  C     -0.860191    0.833461    0.164191
  O      0.306808   -1.179852   -0.027728
  O      0.477289    1.074627   -0.266338
  H      1.499157    0.001110    1.176675
  H      2.050598   -0.197573   -0.525731
  C      1.186084   -0.075466    0.125395

 Total Charge           Charge          ....    0
 Multiplicity           Mult            ....    1
 Number of Electrons    NEL             ....   40
 Basis Dimension        Dim             ....  169

ORBITAL ENERGIES
----------------

  NO   OCC          E(Eh)            E(eV)
   0   2.0000     -20.580651      -560.0280
   1   2.0000     -20.572451      -559.8048
   2   2.0000     -11.335970      -308.4674
   3   2.0000     -11.293596      -307.3144
   4   2.0000     -11.290364      -307.2264
   5   2.0000      -1.442109       -39.2418
   6   2.0000      -1.335199       -36.3326
   7   2.0000      -1.034692       -28.1554
   8   2.0000      -0.871138       -23.7049
   9   2.0000      -0.855495       -23.2792
  10   2.0000      -0.716794       -19.5050
  11   2.0000      -0.705864       -19.2075
  12   2.0000      -0.637447       -17.3458
  13   2.0000      -0.612034       -16.6543
  14   2.0000      -0.581508       -15.8236
  15   2.0000      -0.566136       -15.4053
  16   2.0000      -0.515677       -14.0323
  17   2.0000      -0.499691       -13.5973
  18   2.0000      -0.446079       -12.1384
  19   2.0000      -0.423447       -11.5226
  20   0.0000       0.035617         0.9692
  21   0.0000       0.047019         1.2795
  22   0.0000       0.049396         1.3441
  23   0.0000       0.052807         1.4369
  24   0.0000       0.068088         1.8528

MULLIKEN ATOMIC CHARGES
-----------------------
   0 H :   -0.155393
   1 H :   -0.199088
   2 C :    0.921886
   3 H :   -0.189435
   4 H :   -0.186721
   5 C :    0.720725
   6 O :   -0.946172
   7 O :   -0.917252
   8 H :   -0.162587
   9 H :   -0.235342
  10 C :    1.349378
Sum of atomic charges:   -0.0000000

LOEWDIN ATOMIC CHARGES
----------------------
   0 H :    0.003371
   1 H :    0.002794
   2 C :    0.006679
   3 H :    0.008704
   4 H :    0.006503
   5 C :   -0.005200
   6 O :   -0.007761
   7 O :   -0.000291
   8 H :    0.003262
   9 H :    0.001383
  10 C :   -0.019443

  Mayer bond orders larger than 0.100000
B(  0-H ,  2-C ) :   0.8993 B(  1-H ,  2-C ) :   0.8876 B(  2-C ,  5-C ) :   1.2551
B(  2-C ,  6-O ) :   0.5616 B(  3-H ,  4-H ) :  -0.1260 B(  3-H ,  5-C ) :   0.8740
B(  4-H ,  5-C ) :   0.9661 B(  5-C ,  6-O ) :   0.1414 B(  5-C ,  7-O ) :   0.6531
B(  6-O , 10-C ) :   0.6225 B(  7-O , 10-C ) :   0.6803 B(  8-H ,  9-H ) :  -0.1069
B(  8-H , 10-C ) :   0.9364 B(  9-H , 10-C ) :   1.0283

MP2 TOTAL ENERGY:     -267.650329524 Eh
FINAL SINGLE POINT ENERGY      -267.650329523516

DIPOLE MOMENT
-------------
                                X             Y             Z
Electronic contribution:      1.54056      -0.16854      -0.77523
Nuclear contribution   :     -2.05791       0.31138       1.08802
                        -----------------------------------------
Total Dipole Moment    :     -0.51734       0.14284       0.31280
                        -----------------------------------------
Magnitude (a.u.)       :      0.62120
Magnitude (Debye)      :      1.57897

Rotational constants in cm-1:     0.260021     0.252143     0.142454
Rotational constants in MHz :  7795.227232  7559.052110  4270.654186

                             ****ORCA TERMINATED NORMALLY****
TOTAL RUN TIME: 0 days 0 hours 0 minutes 31 seconds 404 msec
