                         Program Version 5.0.3 -  RELEASE  -
|  1> !ri-mp2 aug-cc-pvdz aug-cc-pvdz/c tightscf
|  2> %pal nprocs 16 end
|  3>
|  4> * xyz 0 1
|  5> C     -0.756198    0.073934   -0.002520
|  6> H     -0.343604    2.171486   -0.066463
|  7> C      0.023743    1.153783   -0.022376
|  8> H     -2.647844   -0.452806    0.859762
|  9> H     -2.606606   -0.553100   -0.889410
| 10> H     -2.679983    1.029419   -0.103430
| 11> C     -2.248786    0.030965   -0.036722
| 12> H     -0.043702   -1.617124    1.120770
| 13> H     -0.250301   -1.964412   -0.582053
| 14> C      0.069948   -1.188503    0.117983
| 15> H      1.780513   -0.916913   -1.185058
| 16> H      2.249118   -1.218041    0.478619
| 17> C      1.515599   -0.711239   -0.147209
| 18> H      1.879408    1.089875    1.069321
| 19> H      2.101884    1.357766   -0.645531
| 20> C      1.489213    0.820035    0.081422
| 21> *
| 22>
| 23>                          ****END OF INPUT****

CARTESIAN COORDINATES (ANGSTROEM)
---------------------------------
  C     -0.756198    0.073934   -0.002520
  H     -0.343604    2.171486   -0.066463
  C      0.023743    1.153783   -0.022376
  H     -2.647844   -0.452806    0.859762
  H     -2.606606   -0.553100   -0.889410
  H     -2.679983    1.029419   -0.103430
  C     -2.248786    0.030965   -0.036722
  H     -0.043702   -1.617124    1.120770
  H     -0.250301   -1.964412   -0.582053
  C      0.069948   -1.188503    0.117983
  H      1.780513   -0.916913   -1.185058
  H      2.249118   -1.218041    0.478619
  C      1.515599   -0.711239   -0.147209
  H      1.879408    1.089875    1.069321
  H      2.101884    1.357766   -0.645531
  C      1.489213    0.820035    0.081422

 Total Charge           Charge          ....    0
 Multiplicity           Mult            ....    1
 Number of Electrons    NEL             ....   46
 Basis Dimension        Dim             ....  228

ORBITAL ENERGIES
----------------

  NO   OCC          E(Eh)            E(eV)
   0   2.0000     -11.228145      -305.5334
   1   2.0000     -11.224472      -305.4334
   2   2.0000     -11.223039      -305.3944
   3   2.0000     -11.221846      -305.3619
   4   2.0000     -11.220649      -305.3294
   5   2.0000     -11.214542      -305.1632
   6   2.0000      -1.133190       -30.8357
   7   2.0000      -1.008599       -27.4454
   8   2.0000      -0.955926       -26.0121
   9   2.0000      -0.901411       -24.5286
  10   2.0000      -0.785576       -21.3766
  11   2.0000      -0.701297       -19.0833
  12   2.0000      -0.639883       -17.4121
  13   2.0000      -0.633598       -17.2411
  14   2.0000      -0.573201       -15.5976
  15   2.0000      -0.565098       -15.3771
  16   2.0000      -0.539905       -14.6916
  17   2.0000      -0.511192       -13.9102
  18   2.0000      -0.480849       -13.0846
  19   2.0000      -0.476114       -12.9557
  20   2.0000      -0.472401       -12.8547
  21   2.0000      -0.463566       -12.6143
  22   2.0000      -0.327588        -8.9141
  23   0.0000       0.037539         1.0215
  24   0.0000       0.043884         1.1941
  25   0.0000       0.046843         1.2747
  26   0.0000       0.049115         1.3365
  27   0.0000       0.062848         1.7102

MULLIKEN ATOMIC CHARGES
-----------------------
   0 C :   -0.659475
   1 H :   -0.412171
   2 C :    0.208913
   3 H :    0.040354
   4 H :    0.045238
   5 H :   -0.138494
   6 C :    0.533247
   7 H :   -0.022227
   8 H :   -0.061983
   9 C :   -0.008830
  10 H :   -0.144347
  11 H :   -0.116623
  12 C :    0.528788
  13 H :   -0.049128
  14 H :   -0.042394
  15 C :    0.299131
Sum of atomic charges:    0.0000000

LOEWDIN ATOMIC CHARGES
----------------------
   0 C :   -0.243500
   1 H :   -0.003751
   2 C :    0.039337
   3 H :   -0.009933
   4 H :   -0.010791
   5 H :   -0.014179
   6 C :    0.168645
   7 H :    0.017503
   8 H :    0.012613
   9 C :    0.016560
  10 H :    0.009250
  11 H :    0.004345
  12 C :    0.012195
  13 H :    0.008667
  14 H :    0.004782
  15 C :   -0.011743

  Mayer bond orders larger than 0.100000
B(  0-C ,  1-H ) :   0.4569 B(  0-C ,  2-C ) :   1.8979 B(  0-C ,  3-H ) :   0.1787
B(  0-C ,  4-H ) :   0.1407 B(  0-C ,  5-H ) :   0.3488 B(  0-C ,  6-C ) :   1.0901
B(  0-C ,  7-H ) :   0.1597 B(  0-C ,  8-H ) :   0.1774 B(  0-C ,  9-C ) :   1.3362
B(  0-C , 15-C ) :  -0.1848 B(  1-H ,  2-C ) :   0.2450 B(  2-C ,  5-H ) :  -0.1172
B(  2-C ,  9-C ) :  -0.1199 B(  2-C , 15-C ) :   1.1489 B(  3-H ,  6-C ) :   0.8350
B(  4-H ,  6-C ) :   0.9033 B(  5-H ,  6-C ) :   0.6983 B(  6-C , 15-C ) :   0.1493
B(  7-H ,  8-H ) :  -0.1306 B(  7-H ,  9-C ) :   0.7734 B(  8-H ,  9-C ) :   0.7082
B(  9-C , 12-C ) :   1.1726 B( 10-H , 11-H ) :  -0.1353 B( 10-H , 12-C ) :   0.7874
B( 11-H , 12-C ) :   0.7693 B( 12-C , 15-C ) :   1.2326 B( 13-H , 14-H ) :  -0.1237
B( 13-H , 15-C ) :   0.7444 B( 14-H , 15-C ) :   0.7114

MP2 TOTAL ENERGY:     -233.902209585 Eh
FINAL SINGLE POINT ENERGY      -233.902209585323

DIPOLE MOMENT
-------------
                                X             Y             Z
Electronic contribution:      0.53911       1.04199      -0.02922
Nuclear contribution   :     -0.59012      -1.12935       0.05945
                        -----------------------------------------
Total Dipole Moment    :     -0.05100      -0.08735       0.03023
                        -----------------------------------------
Magnitude (a.u.)       :      0.10558
Magnitude (Debye)      :      0.26835

Rotational constants in cm-1:     0.233017     0.101272     0.074930
Rotational constants in MHz :  6985.661687  3036.043861  2246.356459

                             ****ORCA TERMINATED NORMALLY****
TOTAL RUN TIME: 0 days 0 hours 0 minutes 47 seconds 773 msec
