                         Program Version 5.0.3 -  RELEASE  -
|  1> !ri-mp2 aug-cc-pvdz aug-cc-pvdz/c tightscf
|  2> %pal nprocs 16 end
|  3>
|  4> * xyz 0 1
|  5> S     -0.919300   -0.968615    0.000000
|  6> N     -2.596878    1.348222    0.000000
|  7> C      3.166496    0.507266    0.000001
|  8> C      1.788843    0.050261    0.000001
|  9> C      0.640017   -0.308782    0.000000
| 10> C     -1.880155    0.442903    0.000000
| 11> H      3.698733    0.156257    0.885244
| 12> H      3.198185    1.598130   -0.000150
| 13> H      3.698808    0.156014   -0.885101
| 14> *
| 15>
| 16>                          ****END OF INPUT****

CARTESIAN COORDINATES (ANGSTROEM)
---------------------------------
  S     -0.919300   -0.968615    0.000000
  N     -2.596878    1.348222    0.000000
  C      3.166496    0.507266    0.000001
  C      1.788843    0.050261    0.000001
  C      0.640017   -0.308782    0.000000
  C     -1.880155    0.442903    0.000000
  H      3.698733    0.156257    0.885244
  H      3.198185    1.598130   -0.000150
  H      3.698808    0.156014   -0.885101

 Total Charge           Charge          ....    0
 Multiplicity           Mult            ....    1
 Number of Electrons    NEL             ....   50
 Basis Dimension        Dim             ....  169

ORBITAL ENERGIES
----------------

  NO   OCC          E(Eh)            E(eV)
   0   2.0000     -92.057049     -2504.9997
   1   2.0000     -15.603071      -424.5811
   2   2.0000     -11.314669      -307.8878
   3   2.0000     -11.282038      -306.9999
   4   2.0000     -11.278228      -306.8962
   5   2.0000     -11.277728      -306.8826
   6   2.0000      -9.055612      -246.4157
   7   2.0000      -6.738045      -183.3515
   8   2.0000      -6.736198      -183.3013
   9   2.0000      -6.733900      -183.2387
  10   2.0000      -1.243890       -33.8480
  11   2.0000      -1.129288       -30.7295
  12   2.0000      -1.067818       -29.0568
  13   2.0000      -0.974299       -26.5120
  14   2.0000      -0.761185       -20.7129
  15   2.0000      -0.661201       -17.9922
  16   2.0000      -0.615706       -16.7542
  17   2.0000      -0.615517       -16.7491
  18   2.0000      -0.603707       -16.4277
  19   2.0000      -0.567876       -15.4527
  20   2.0000      -0.549285       -14.9468
  21   2.0000      -0.481156       -13.0929
  22   2.0000      -0.465109       -12.6563
  23   2.0000      -0.416685       -11.3386
  24   2.0000      -0.362996        -9.8776
  25   0.0000       0.027187         0.7398
  26   0.0000       0.051708         1.4070
  27   0.0000       0.052718         1.4345
  28   0.0000       0.057265         1.5583
  29   0.0000       0.078771         2.1435

MULLIKEN ATOMIC CHARGES
-----------------------
   0 S :    0.609580
   1 N :   -0.360084
   2 C :    0.291363
   3 C :   -0.780223
   4 C :    0.167882
   5 C :   -0.197724
   6 H :    0.088103
   7 H :    0.092996
   8 H :    0.088105
Sum of atomic charges:   -0.0000000

LOEWDIN ATOMIC CHARGES
----------------------
   0 S :    0.900976
   1 N :   -0.006252
   2 C :    0.126557
   3 C :   -0.133739
   4 C :   -0.377658
   5 C :   -0.498193
   6 H :   -0.005253
   7 H :   -0.001185
   8 H :   -0.005253

  Mayer bond orders larger than 0.100000
B(  0-S ,  4-C ) :   0.9967 B(  0-S ,  5-C ) :   0.8661 B(  1-N ,  5-C ) :   2.5227
B(  2-C ,  3-C ) :   1.3430 B(  2-C ,  4-C ) :   0.3205 B(  2-C ,  6-H ) :   0.8070
B(  2-C ,  7-H ) :   0.8118 B(  2-C ,  8-H ) :   0.8070 B(  3-C ,  4-C ) :   2.7701
B(  3-C ,  6-H ) :   0.2130 B(  3-C ,  7-H ) :   0.2204 B(  3-C ,  8-H ) :   0.2130

MP2 TOTAL ENERGY:     -605.958763205 Eh
FINAL SINGLE POINT ENERGY      -605.958763205138

DIPOLE MOMENT
-------------
                                X             Y             Z
Electronic contribution:     -8.57385      -2.55600       0.00000
Nuclear contribution   :     10.25593       1.88339      -0.00001
                        -----------------------------------------
Total Dipole Moment    :      1.68208      -0.67261      -0.00000
                        -----------------------------------------
Magnitude (a.u.)       :      1.81158
Magnitude (Debye)      :      4.60467

Rotational constants in cm-1:     0.254684     0.046026     0.039268
Rotational constants in MHz :  7635.224686  1379.835798  1177.239678

                             ****ORCA TERMINATED NORMALLY****
TOTAL RUN TIME: 0 days 0 hours 0 minutes 46 seconds 549 msec
