                         Program Version 5.0.3 -  RELEASE  -
|  1> !ri-mp2 aug-cc-pvdz aug-cc-pvdz/c tightscf
|  2> %pal nprocs 16 end
|  3>
|  4> * xyz 0 1
|  5> C     -0.721870    0.249030    0.685981
|  6> C      0.721870   -0.249030    0.685981
|  7> C     -1.761587   -0.853628    0.754122
|  8> C      1.761587    0.853628    0.754122
|  9> Cl    -1.761587   -1.906934   -0.730679
| 10> Cl     1.761587    1.906934   -0.730679
| 11> H     -0.904673    0.868385   -0.192246
| 12> H     -0.885885    0.888194    1.561267
| 13> H      0.904673   -0.868385   -0.192246
| 14> H      0.885885   -0.888194    1.561267
| 15> H     -1.591489   -1.527110    1.590678
| 16> H     -2.766336   -0.447769    0.821230
| 17> H      1.591489    1.527110    1.590678
| 18> H      2.766336    0.447769    0.821230
| 19> *
| 20>
| 21>                          ****END OF INPUT****

CARTESIAN COORDINATES (ANGSTROEM)
---------------------------------
  C     -0.721870    0.249030    0.685981
  C      0.721870   -0.249030    0.685981
  C     -1.761587   -0.853628    0.754122
  C      1.761587    0.853628    0.754122
  Cl    -1.761587   -1.906934   -0.730679
  Cl     1.761587    1.906934   -0.730679
  H     -0.904673    0.868385   -0.192246
  H     -0.885885    0.888194    1.561267
  H      0.904673   -0.868385   -0.192246
  H      0.885885   -0.888194    1.561267
  H     -1.591489   -1.527110    1.590678
  H     -2.766336   -0.447769    0.821230
  H      1.591489    1.527110    1.590678
  H      2.766336    0.447769    0.821230

 Total Charge           Charge          ....    0
 Multiplicity           Mult            ....    1
 Number of Electrons    NEL             ....   66
 Basis Dimension        Dim             ....  218

ORBITAL ENERGIES
----------------

  NO   OCC          E(Eh)            E(eV)
   0   2.0000    -104.821046     -2852.3257
   1   2.0000    -104.821046     -2852.3257
   2   2.0000     -11.307122      -307.6824
   3   2.0000     -11.307120      -307.6824
   4   2.0000     -11.252474      -306.1954
   5   2.0000     -11.251867      -306.1789
   6   2.0000     -10.547015      -286.9989
   7   2.0000     -10.547015      -286.9989
   8   2.0000      -8.014592      -218.0881
   9   2.0000      -8.014592      -218.0881
  10   2.0000      -8.011568      -218.0058
  11   2.0000      -8.011568      -218.0058
  12   2.0000      -8.011496      -218.0039
  13   2.0000      -8.011496      -218.0039
  14   2.0000      -1.152252       -31.3544
  15   2.0000      -1.129352       -30.7312
  16   2.0000      -1.052227       -28.6325
  17   2.0000      -0.969605       -26.3843
  18   2.0000      -0.867604       -23.6087
  19   2.0000      -0.807305       -21.9679
  20   2.0000      -0.670589       -18.2477
  21   2.0000      -0.644712       -17.5435
  22   2.0000      -0.629753       -17.1364
  23   2.0000      -0.606408       -16.5012
  24   2.0000      -0.552148       -15.0247
  25   2.0000      -0.539176       -14.6717
  26   2.0000      -0.525778       -14.3072
  27   2.0000      -0.498671       -13.5695
  28   2.0000      -0.488909       -13.3039
  29   2.0000      -0.437455       -11.9038
  30   2.0000      -0.435170       -11.8416
  31   2.0000      -0.434210       -11.8155
  32   2.0000      -0.429990       -11.7006
  33   0.0000       0.030468         0.8291
  34   0.0000       0.039122         1.0646
  35   0.0000       0.047254         1.2859
  36   0.0000       0.052538         1.4296
  37   0.0000       0.068696         1.8693

MULLIKEN ATOMIC CHARGES
-----------------------
   0 C :    0.234024
   1 C :    0.234024
   2 C :    0.078799
   3 C :    0.078799
   4 Cl:   -0.140945
   5 Cl:   -0.140945
   6 H :   -0.110657
   7 H :   -0.089501
   8 H :   -0.110657
   9 H :   -0.089501
  10 H :    0.006985
  11 H :    0.021296
  12 H :    0.006985
  13 H :    0.021296
Sum of atomic charges:    0.0000000

LOEWDIN ATOMIC CHARGES
----------------------
   0 C :   -0.106908
   1 C :   -0.106908
   2 C :   -0.297981
   3 C :   -0.297981
   4 Cl:    0.445319
   5 Cl:    0.445319
   6 H :    0.001610
   7 H :    0.020824
   8 H :    0.001610
   9 H :    0.020824
  10 H :   -0.031300
  11 H :   -0.031564
  12 H :   -0.031300
  13 H :   -0.031564

  Mayer bond orders larger than 0.100000
B(  0-C ,  1-C ) :   1.2571 B(  0-C ,  2-C ) :   1.2568 B(  0-C ,  4-Cl) :  -0.1601
B(  0-C ,  6-H ) :   0.8598 B(  0-C ,  7-H ) :   0.8126 B(  0-C , 11-H ) :   0.1294
B(  1-C ,  3-C ) :   1.2568 B(  1-C ,  5-Cl) :  -0.1601 B(  1-C ,  8-H ) :   0.8598
B(  1-C ,  9-H ) :   0.8126 B(  1-C , 13-H ) :   0.1294 B(  2-C ,  4-Cl) :   1.1657
B(  2-C , 10-H ) :   0.8870 B(  2-C , 11-H ) :   0.8671 B(  3-C ,  5-Cl) :   1.1657
B(  3-C , 12-H ) :   0.8870 B(  3-C , 13-H ) :   0.8671

MP2 TOTAL ENERGY:    -1076.057670101 Eh
FINAL SINGLE POINT ENERGY     -1076.057670101324

DIPOLE MOMENT
-------------
                                X             Y             Z
Electronic contribution:      0.00000       0.00000      -8.00339
Nuclear contribution   :      0.00000       0.00000       9.41992
                        -----------------------------------------
Total Dipole Moment    :      0.00000       0.00000       1.41652
                        -----------------------------------------
Magnitude (a.u.)       :      1.41652
Magnitude (Debye)      :      3.60052

Rotational constants in cm-1:     0.158543     0.027370     0.025671
Rotational constants in MHz :  4753.004283   820.533060   769.597810

                             ****ORCA TERMINATED NORMALLY****
TOTAL RUN TIME: 0 days 0 hours 0 minutes 44 seconds 709 msec
