                         Program Version 5.0.3 -  RELEASE  -
|  1> !ri-mp2 aug-cc-pvdz aug-cc-pvdz/c tightscf
|  2> %pal nprocs 16 end
|  3> %maxcore 3800
|  4>
|  5> * xyz 0 1
|  6> C      1.811591   -0.159551   -0.096424
|  7> C     -2.556321    0.066825   -0.240521
|  8> C     -1.751190    1.356259   -0.059733
|  9> C     -1.921204   -1.099327    0.521490
| 10> C     -0.281229    1.164125   -0.442828
| 11> C     -0.451165   -1.293520    0.140424
| 12> C      0.359157   -0.006631    0.338914
| 13> C      2.843613    0.624195    0.685597
| 14> O      2.127563   -0.861400   -1.032000
| 15> H     -3.586727    0.217570    0.088357
| 16> H     -2.602212   -0.181621   -1.305799
| 17> H     -2.183986    2.161109   -0.657926
| 18> H     -1.812407    1.678111    0.985184
| 19> H     -1.997578   -0.910144    1.597770
| 20> H     -2.475926   -2.020574    0.331373
| 21> H     -0.204618    0.946364   -1.511824
| 22> H      0.274902    2.088076   -0.268004
| 23> H     -0.011128   -2.101922    0.728414
| 24> H     -0.371415   -1.596118   -0.905549
| 25> H      0.351723    0.262560    1.401185
| 26> H      2.520697    1.654562    0.843527
| 27> H      2.957113    0.173697    1.675299
| 28> H      3.801543    0.605286    0.172476
| 29> *
| 30>
| 31>                          ****END OF INPUT****

CARTESIAN COORDINATES (ANGSTROEM)
---------------------------------
  C      1.811591   -0.159551   -0.096424
  C     -2.556321    0.066825   -0.240521
  C     -1.751190    1.356259   -0.059733
  C     -1.921204   -1.099327    0.521490
  C     -0.281229    1.164125   -0.442828
  C     -0.451165   -1.293520    0.140424
  C      0.359157   -0.006631    0.338914
  C      2.843613    0.624195    0.685597
  O      2.127563   -0.861400   -1.032000
  H     -3.586727    0.217570    0.088357
  H     -2.602212   -0.181621   -1.305799
  H     -2.183986    2.161109   -0.657926
  H     -1.812407    1.678111    0.985184
  H     -1.997578   -0.910144    1.597770
  H     -2.475926   -2.020574    0.331373
  H     -0.204618    0.946364   -1.511824
  H      0.274902    2.088076   -0.268004
  H     -0.011128   -2.101922    0.728414
  H     -0.371415   -1.596118   -0.905549
  H      0.351723    0.262560    1.401185
  H      2.520697    1.654562    0.843527
  H      2.957113    0.173697    1.675299
  H      3.801543    0.605286    0.172476

 Total Charge           Charge          ....    0
 Multiplicity           Mult            ....    1
 Number of Electrons    NEL             ....   70
 Basis Dimension        Dim             ....  333

ORBITAL ENERGIES
----------------

  NO   OCC          E(Eh)            E(eV)
   0   2.0000     -20.550849      -559.2170
   1   2.0000     -11.331370      -308.3422
   2   2.0000     -11.240631      -305.8731
   3   2.0000     -11.238401      -305.8124
   4   2.0000     -11.235047      -305.7212
   5   2.0000     -11.228606      -305.5459
   6   2.0000     -11.224629      -305.4377
   7   2.0000     -11.224037      -305.4216
   8   2.0000     -11.223047      -305.3946
   9   2.0000      -1.387337       -37.7514
  10   2.0000      -1.127567       -30.6827
  11   2.0000      -1.040252       -28.3067
  12   2.0000      -1.010592       -27.4996
  13   2.0000      -0.991818       -26.9887
  14   2.0000      -0.860039       -23.4028
  15   2.0000      -0.839467       -22.8431
  16   2.0000      -0.768316       -20.9069
  17   2.0000      -0.730516       -19.8783
  18   2.0000      -0.663657       -18.0590
  19   2.0000      -0.643791       -17.5184
  20   2.0000      -0.619957       -16.8699
  21   2.0000      -0.611550       -16.6411
  22   2.0000      -0.596263       -16.2251
  23   2.0000      -0.591681       -16.1005
  24   2.0000      -0.576795       -15.6954
  25   2.0000      -0.538445       -14.6518
  26   2.0000      -0.531544       -14.4641
  27   2.0000      -0.525880       -14.3099
  28   2.0000      -0.491888       -13.3850
  29   2.0000      -0.489054       -13.3078
  30   2.0000      -0.481026       -13.0894
  31   2.0000      -0.461012       -12.5448
  32   2.0000      -0.454660       -12.3719
  33   2.0000      -0.432554       -11.7704
  34   2.0000      -0.394424       -10.7328
  35   0.0000       0.031993         0.8706
  36   0.0000       0.039069         1.0631
  37   0.0000       0.041026         1.1164
  38   0.0000       0.046620         1.2686
  39   0.0000       0.055914         1.5215

MULLIKEN ATOMIC CHARGES
-----------------------
   0 C :    0.423085
   1 C :    0.312765
   2 C :    0.466013
   3 C :    0.439992
   4 C :    0.411372
   5 C :    0.555078
   6 C :   -0.345783
   7 C :    0.392137
   8 O :   -0.871346
   9 H :   -0.137664
  10 H :   -0.137655
  11 H :   -0.129210
  12 H :   -0.127008
  13 H :   -0.143053
  14 H :   -0.107441
  15 H :   -0.136417
  16 H :   -0.216131
  17 H :   -0.229083
  18 H :   -0.081212
  19 H :   -0.332248
  20 H :   -0.021524
  21 H :    0.093587
  22 H :   -0.078251
Sum of atomic charges:   -0.0000000

LOEWDIN ATOMIC CHARGES
----------------------
   0 C :   -0.273489
   1 C :   -0.023217
   2 C :   -0.018473
   3 C :   -0.018618
   4 C :    0.012859
   5 C :    0.009823
   6 C :   -0.163064
   7 C :    0.199535
   8 O :    0.054986
   9 H :    0.014915
  10 H :    0.020032
  11 H :    0.016388
  12 H :    0.019206
  13 H :    0.018000
  14 H :    0.015963
  15 H :    0.029670
  16 H :    0.016026
  17 H :    0.023744
  18 H :    0.023543
  19 H :    0.044998
  20 H :   -0.011630
  21 H :   -0.003143
  22 H :   -0.008054

  Mayer bond orders larger than 0.100000
B(  0-C ,  6-C ) :   0.7823 B(  0-C ,  7-C ) :   1.0547 B(  0-C ,  8-O ) :   1.2676
B(  0-C , 22-H ) :   0.1606 B(  1-C ,  2-C ) :   1.2739 B(  1-C ,  3-C ) :   1.2857
B(  1-C ,  9-H ) :   0.7548 B(  1-C , 10-H ) :   0.7695 B(  2-C ,  4-C ) :   1.2268
B(  2-C , 11-H ) :   0.7437 B(  2-C , 12-H ) :   0.7629 B(  3-C ,  5-C ) :   1.2141
B(  3-C , 13-H ) :   0.7518 B(  3-C , 14-H ) :   0.7432 B(  4-C ,  6-C ) :   1.1009
B(  4-C , 15-H ) :   0.7625 B(  4-C , 16-H ) :   0.6966 B(  4-C , 19-H ) :   0.1034
B(  5-C ,  6-C ) :   1.1647 B(  5-C , 14-H ) :   0.1090 B(  5-C , 17-H ) :   0.6720
B(  5-C , 18-H ) :   0.7141 B(  6-C , 13-H ) :   0.1268 B(  6-C , 15-H ) :   0.1219
B(  6-C , 16-H ) :   0.1031 B(  6-C , 17-H ) :   0.1501 B(  6-C , 18-H ) :   0.2246
B(  6-C , 19-H ) :   0.4302 B(  7-C , 20-H ) :   0.9515 B(  7-C , 21-H ) :   0.9220
B(  7-C , 22-H ) :   0.8196 B(  9-H , 10-H ) :  -0.1469 B( 11-H , 12-H ) :  -0.1527
B( 13-H , 14-H ) :  -0.1487 B( 15-H , 16-H ) :  -0.1427 B( 17-H , 18-H ) :  -0.1509

MP2 TOTAL ENERGY:     -387.376901664 Eh
FINAL SINGLE POINT ENERGY      -387.376901663843

DIPOLE MOMENT
-------------
                                X             Y             Z
Electronic contribution:      5.04583      -2.35644      -2.37243
Nuclear contribution   :     -5.52791       3.08703       3.29000
                        -----------------------------------------
Total Dipole Moment    :     -0.48208       0.73059       0.91757
                        -----------------------------------------
Magnitude (a.u.)       :      1.26811
Magnitude (Debye)      :      3.22328

Rotational constants in cm-1:     0.103110     0.034576     0.030117
Rotational constants in MHz :  3091.156412  1036.573732   902.893852

                             ****ORCA TERMINATED NORMALLY****
TOTAL RUN TIME: 0 days 0 hours 1 minutes 51 seconds 895 msec
