                         Program Version 5.0.3 -  RELEASE  -
|  1> !ri-mp2 aug-cc-pvdz aug-cc-pvdz/c tightscf
|  2> %pal nprocs 16 end
|  3>
|  4> * xyz 0 1
|  5> C      0.662598   -0.995432        0.000000
|  6> C     -0.743268   -0.890370        0.000000
|  7> C      1.107645    0.307032        0.000000
|  8> N     -1.142688    0.375589        0.000000
|  9> N      0.000000    1.085189        0.000000
| 10> H      1.262650   -1.887482        0.000000
| 11> H     -1.475618   -1.680369        0.000000
| 12> H      2.098322    0.726839        0.000000
| 13> H     -0.048386    2.088195        0.000000
| 14> *
| 15>
| 16>                          ****END OF INPUT****

CARTESIAN COORDINATES (ANGSTROEM)
---------------------------------
  C      0.662598   -0.995432    0.000000
  C     -0.743268   -0.890370    0.000000
  C      1.107645    0.307032    0.000000
  N     -1.142688    0.375589    0.000000
  N      0.000000    1.085189    0.000000
  H      1.262650   -1.887482    0.000000
  H     -1.475618   -1.680369    0.000000
  H      2.098322    0.726839    0.000000
  H     -0.048386    2.088195    0.000000

 Total Charge           Charge          ....    0
 Multiplicity           Mult            ....    1
 Number of Electrons    NEL             ....   36
 Basis Dimension        Dim             ....  151

ORBITAL ENERGIES
----------------

  NO   OCC          E(Eh)            E(eV)
   0   2.0000     -15.646965      -425.7756
   1   2.0000     -15.595195      -424.3668
   2   2.0000     -11.284915      -307.0781
   3   2.0000     -11.259052      -306.3744
   4   2.0000     -11.228235      -305.5358
   5   2.0000      -1.380861       -37.5751
   6   2.0000      -1.102165       -29.9914
   7   2.0000      -1.056009       -28.7355
   8   2.0000      -0.827724       -22.5235
   9   2.0000      -0.804354       -21.8876
  10   2.0000      -0.745739       -20.2926
  11   2.0000      -0.613436       -16.6924
  12   2.0000      -0.608165       -16.5490
  13   2.0000      -0.594163       -16.1680
  14   2.0000      -0.565392       -15.3851
  15   2.0000      -0.460336       -12.5264
  16   2.0000      -0.365949        -9.9580
  17   2.0000      -0.347255        -9.4493
  18   0.0000       0.030438         0.8283
  19   0.0000       0.042667         1.1610
  20   0.0000       0.048249         1.3129
  21   0.0000       0.062818         1.7094
  22   0.0000       0.103075         2.8048

MULLIKEN ATOMIC CHARGES
-----------------------
   0 C :    0.468697
   1 C :    0.576415
   2 C :    0.685624
   3 N :   -0.615155
   4 N :   -0.297271
   5 H :   -0.303766
   6 H :   -0.222875
   7 H :   -0.275404
   8 H :   -0.016266
Sum of atomic charges:    0.0000000

LOEWDIN ATOMIC CHARGES
----------------------
   0 C :   -0.003459
   1 C :   -0.054806
   2 C :    0.034596
   3 N :    0.023824
   4 N :    0.001602
   5 H :   -0.017583
   6 H :   -0.008834
   7 H :    0.001591
   8 H :    0.023070

  Mayer bond orders larger than 0.100000
B(  0-C ,  1-C ) :   1.2913 B(  0-C ,  2-C ) :   1.4946 B(  0-C ,  3-N ) :   0.1406
B(  0-C ,  5-H ) :   0.7595 B(  1-C ,  2-C ) :   0.1686 B(  1-C ,  3-N ) :   1.4655
B(  1-C ,  4-N ) :  -0.1793 B(  1-C ,  6-H ) :   0.8801 B(  2-C ,  4-N ) :   1.0291
B(  2-C ,  7-H ) :   0.8017 B(  3-N ,  4-N ) :   1.0305 B(  3-N ,  8-H ) :  -0.1476
B(  4-N ,  8-H ) :   1.1900

MP2 TOTAL ENERGY:     -225.582044245 Eh
FINAL SINGLE POINT ENERGY      -225.582044245362

DIPOLE MOMENT
-------------
                                X             Y             Z
Electronic contribution:     -0.91193       1.01448      -0.00000
Nuclear contribution   :      1.81767      -0.73912       0.00000
                        -----------------------------------------
Total Dipole Moment    :      0.90574       0.27535      -0.00000
                        -----------------------------------------
Magnitude (a.u.)       :      0.94667
Magnitude (Debye)      :      2.40625

Rotational constants in cm-1:     0.322655     0.316485     0.159770
Rotational constants in MHz :  9672.958928  9487.967290  4789.785048

                             ****ORCA TERMINATED NORMALLY****
TOTAL RUN TIME: 0 days 0 hours 0 minutes 33 seconds 714 msec
