                         Program Version 5.0.3 -  RELEASE  -
|  1> !ri-mp2 aug-cc-pvdz aug-cc-pvdz/c tightscf
|  2> %pal nprocs 16 end
|  3>
|  4> * xyz 0 1
|  5> O     -0.804673   -0.888677   -0.282832
|  6> O      0.593732   -1.074262    0.088267
|  7> N      0.083188    1.201711   -0.098487
|  8> C     -1.066719    0.402826    0.261301
|  9> C      1.178668    0.263372    0.057915
| 10> H     -1.160116    0.336299    1.347953
| 11> H     -1.985776    0.765925   -0.193125
| 12> H      1.887205    0.349580   -0.766514
| 13> H      1.686489    0.379914    1.015848
| 14> H      0.005718    1.462625   -1.073532
| 15> *
| 16>
| 17>                          ****END OF INPUT****

CARTESIAN COORDINATES (ANGSTROEM)
---------------------------------
  O     -0.804673   -0.888677   -0.282832
  O      0.593732   -1.074262    0.088267
  N      0.083188    1.201711   -0.098487
  C     -1.066719    0.402826    0.261301
  C      1.178668    0.263372    0.057915
  H     -1.160116    0.336299    1.347953
  H     -1.985776    0.765925   -0.193125
  H      1.887205    0.349580   -0.766514
  H      1.686489    0.379914    1.015848
  H      0.005718    1.462625   -1.073532

 Total Charge           Charge          ....    0
 Multiplicity           Mult            ....    1
 Number of Electrons    NEL             ....   40
 Basis Dimension        Dim             ....  160

ORBITAL ENERGIES
----------------

  NO   OCC          E(Eh)            E(eV)
   0   2.0000     -20.634471      -561.4925
   1   2.0000     -20.629737      -561.3637
   2   2.0000     -15.584740      -424.0823
   3   2.0000     -11.329019      -308.2783
   4   2.0000     -11.328947      -308.2763
   5   2.0000      -1.492224       -40.6055
   6   2.0000      -1.238127       -33.6912
   7   2.0000      -1.229780       -33.4640
   8   2.0000      -0.912910       -24.8416
   9   2.0000      -0.883154       -24.0318
  10   2.0000      -0.742711       -20.2102
  11   2.0000      -0.706843       -19.2342
  12   2.0000      -0.649806       -17.6821
  13   2.0000      -0.641068       -17.4444
  14   2.0000      -0.569491       -15.4966
  15   2.0000      -0.559612       -15.2278
  16   2.0000      -0.546280       -14.8650
  17   2.0000      -0.509089       -13.8530
  18   2.0000      -0.444045       -12.0831
  19   2.0000      -0.421676       -11.4744
  20   0.0000       0.033165         0.9025
  21   0.0000       0.044774         1.2184
  22   0.0000       0.045968         1.2509
  23   0.0000       0.067176         1.8280
  24   0.0000       0.068461         1.8629

MULLIKEN ATOMIC CHARGES
-----------------------
   0 O :   -0.547058
   1 O :   -0.592183
   2 N :   -0.655673
   3 C :    1.222223
   4 C :    1.183631
   5 H :   -0.139196
   6 H :   -0.174820
   7 H :   -0.159123
   8 H :   -0.191207
   9 H :    0.053406
Sum of atomic charges:   -0.0000000

LOEWDIN ATOMIC CHARGES
----------------------
   0 O :    0.007767
   1 O :    0.000727
   2 N :    0.036171
   3 C :   -0.044057
   4 C :   -0.011888
   5 H :    0.011887
   6 H :    0.014217
   7 H :    0.005602
   8 H :   -0.000393
   9 H :   -0.020032

  Mayer bond orders larger than 0.100000
B(  0-O ,  1-O ) :   0.7940 B(  0-O ,  3-C ) :   0.5181 B(  1-O ,  4-C ) :   0.5480
B(  2-N ,  3-C ) :   0.9215 B(  2-N ,  4-C ) :   0.8934 B(  2-N ,  9-H ) :   0.9794
B(  3-C ,  5-H ) :   0.9201 B(  3-C ,  6-H ) :   0.9939 B(  4-C ,  7-H ) :   0.9737
B(  4-C ,  8-H ) :   0.9760 B(  5-H ,  6-H ) :  -0.1290

MP2 TOTAL ENERGY:     -283.595693592 Eh
FINAL SINGLE POINT ENERGY      -283.595693592318

DIPOLE MOMENT
-------------
                                X             Y             Z
Electronic contribution:     -0.39833      -2.35337      -0.47171
Nuclear contribution   :      0.43100       3.27289       0.32723
                        -----------------------------------------
Total Dipole Moment    :      0.03267       0.91952      -0.14448
                        -----------------------------------------
Magnitude (a.u.)       :      0.93137
Magnitude (Debye)      :      2.36736

Rotational constants in cm-1:     0.263868     0.257245     0.146112
Rotational constants in MHz :  7910.555240  7712.011839  4380.327245

                             ****ORCA TERMINATED NORMALLY****
TOTAL RUN TIME: 0 days 0 hours 0 minutes 52 seconds 499 msec
