                         Program Version 5.0.3 -  RELEASE  -
|  1> !ri-mp2 aug-cc-pvdz aug-cc-pvdz/c tightscf
|  2> %pal nprocs 16 end
|  3>
|  4> * xyz 0 1
|  5> S     -0.684744    1.213061   -0.000080
|  6> S      1.377318   -1.154886    0.000075
|  7> N     -1.268379   -1.298952    0.000129
|  8> N      2.990519    1.193133   -0.000175
|  9> C     -0.269821   -0.479529    0.000045
| 10> C     -2.349814    0.743056   -0.000014
| 11> C     -2.455845   -0.611093    0.000096
| 12> C      2.305403    0.262740   -0.000076
| 13> H     -3.132667    1.481541   -0.000061
| 14> H     -3.383034   -1.162635    0.000156
| 15> *
| 16>
| 17>                          ****END OF INPUT****

CARTESIAN COORDINATES (ANGSTROEM)
---------------------------------
  S     -0.684744    1.213061   -0.000080
  S      1.377318   -1.154886    0.000075
  N     -1.268379   -1.298952    0.000129
  N      2.990519    1.193133   -0.000175
  C     -0.269821   -0.479529    0.000045
  C     -2.349814    0.743056   -0.000014
  C     -2.455845   -0.611093    0.000096
  C      2.305403    0.262740   -0.000076
  H     -3.132667    1.481541   -0.000061
  H     -3.383034   -1.162635    0.000156

 Total Charge           Charge          ....    0
 Multiplicity           Mult            ....    1
 Number of Electrons    NEL             ....   72
 Basis Dimension        Dim             ....  210

ORBITAL ENERGIES
----------------

  NO   OCC          E(Eh)            E(eV)
   0   2.0000     -92.053014     -2504.8899
   1   2.0000     -92.027282     -2504.1897
   2   2.0000     -15.613765      -424.8722
   3   2.0000     -15.608728      -424.7351
   4   2.0000     -11.376971      -309.5831
   5   2.0000     -11.323446      -308.1266
   6   2.0000     -11.301074      -307.5179
   7   2.0000     -11.295591      -307.3687
   8   2.0000      -9.053398      -246.3555
   9   2.0000      -9.029474      -245.7045
  10   2.0000      -6.735524      -183.2829
  11   2.0000      -6.733632      -183.2314
  12   2.0000      -6.731331      -183.1688
  13   2.0000      -6.710907      -182.6131
  14   2.0000      -6.709997      -182.5883
  15   2.0000      -6.708032      -182.5348
  16   2.0000      -1.325033       -36.0560
  17   2.0000      -1.253504       -34.1096
  18   2.0000      -1.112862       -30.2825
  19   2.0000      -1.097514       -29.8649
  20   2.0000      -1.003840       -27.3159
  21   2.0000      -0.838318       -22.8118
  22   2.0000      -0.783563       -21.3218
  23   2.0000      -0.728926       -19.8351
  24   2.0000      -0.667228       -18.1562
  25   2.0000      -0.620292       -16.8790
  26   2.0000      -0.607236       -16.5237
  27   2.0000      -0.586235       -15.9523
  28   2.0000      -0.560128       -15.2419
  29   2.0000      -0.542873       -14.7723
  30   2.0000      -0.529445       -14.4069
  31   2.0000      -0.491985       -13.3876
  32   2.0000      -0.455368       -12.3912
  33   2.0000      -0.442436       -12.0393
  34   2.0000      -0.410804       -11.1785
  35   2.0000      -0.347699        -9.4614
  36   0.0000       0.028670         0.7802
  37   0.0000       0.042950         1.1687
  38   0.0000       0.058211         1.5840
  39   0.0000       0.071757         1.9526
  40   0.0000       0.079996         2.1768

MULLIKEN ATOMIC CHARGES
-----------------------
   0 S :    0.428483
   1 S :    0.863884
   2 N :   -0.594080
   3 N :   -0.307465
   4 C :   -0.433947
   5 C :    0.094215
   6 C :    0.817662
   7 C :   -0.278806
   8 H :   -0.374031
   9 H :   -0.215915
Sum of atomic charges:   -0.0000000

LOEWDIN ATOMIC CHARGES
----------------------
   0 S :    0.976956
   1 S :    0.934176
   2 N :   -0.089391
   3 N :    0.001340
   4 C :   -0.798712
   5 C :   -0.271944
   6 C :   -0.135707
   7 C :   -0.556208
   8 H :   -0.053273
   9 H :   -0.007237

  Mayer bond orders larger than 0.100000
B(  0-S ,  4-C ) :   1.2028 B(  0-S ,  5-C ) :   1.0191 B(  0-S ,  8-H ) :  -0.1143
B(  1-S ,  4-C ) :   1.0608 B(  1-S ,  7-C ) :   0.7920 B(  2-N ,  4-C ) :   1.5345
B(  2-N ,  6-C ) :   0.9630 B(  3-N ,  7-C ) :   2.4733 B(  4-C ,  6-C ) :  -0.1872
B(  5-C ,  6-C ) :   1.8226 B(  5-C ,  8-H ) :   0.9439 B(  6-C ,  9-H ) :   0.8972

MP2 TOTAL ENERGY:    -1057.725096262 Eh
FINAL SINGLE POINT ENERGY     -1057.725096261700

DIPOLE MOMENT
-------------
                                X             Y             Z
Electronic contribution:      4.82642      -0.45110      -0.00004
Nuclear contribution   :     -6.20690       0.30097       0.00009
                        -----------------------------------------
Total Dipole Moment    :     -1.38048      -0.15013       0.00005
                        -----------------------------------------
Magnitude (a.u.)       :      1.38862
Magnitude (Debye)      :      3.52960

Rotational constants in cm-1:     0.111058     0.037607     0.028094
Rotational constants in MHz :  3329.422402  1127.430092   842.229132

                             ****ORCA TERMINATED NORMALLY****
TOTAL RUN TIME: 0 days 0 hours 0 minutes 43 seconds 136 msec
