                         Program Version 5.0.3 -  RELEASE  -
|  1> !ri-mp2 aug-cc-pvdz aug-cc-pvdz/c tightscf
|  2> %pal nprocs 16 end
|  3>
|  4> * xyz 0 1
|  5> C    -0.985328     0.000000    0.000000
|  6> C     0.985328     0.000000    0.000000
|  7> O     0.000000     1.035861    0.000000
|  8> O     0.000000    -1.035861    0.000000
|  9> H    -1.603663     0.000000    0.903194
| 10> H     1.603663     0.000000    0.903194
| 11> H    -1.603663     0.000000   -0.903194
| 12> H     1.603663     0.000000   -0.903194
| 13> *
| 14>
| 15>                          ****END OF INPUT****

CARTESIAN COORDINATES (ANGSTROEM)
---------------------------------
  C     -0.985328    0.000000    0.000000
  C      0.985328    0.000000    0.000000
  O      0.000000    1.035861    0.000000
  O      0.000000   -1.035861    0.000000
  H     -1.603663    0.000000    0.903194
  H      1.603663    0.000000    0.903194
  H     -1.603663    0.000000   -0.903194
  H      1.603663    0.000000   -0.903194

 Total Charge           Charge          ....    0
 Multiplicity           Mult            ....    1
 Number of Electrons    NEL             ....   32
 Basis Dimension        Dim             ....  128

ORBITAL ENERGIES
----------------

  NO   OCC          E(Eh)            E(eV)
   0   2.0000     -20.585141      -560.1502
   1   2.0000     -20.585104      -560.1491
   2   2.0000     -11.355233      -308.9916
   3   2.0000     -11.355231      -308.9915
   4   2.0000      -1.488705       -40.5097
   5   2.0000      -1.303407       -35.4675
   6   2.0000      -0.978385       -26.6232
   7   2.0000      -0.821336       -22.3497
   8   2.0000      -0.733411       -19.9571
   9   2.0000      -0.708888       -19.2898
  10   2.0000      -0.671738       -18.2789
  11   2.0000      -0.596155       -16.2222
  12   2.0000      -0.554593       -15.0912
  13   2.0000      -0.510699       -13.8968
  14   2.0000      -0.500641       -13.6231
  15   2.0000      -0.416125       -11.3233
  16   0.0000       0.037200         1.0123
  17   0.0000       0.046131         1.2553
  18   0.0000       0.050234         1.3669
  19   0.0000       0.067453         1.8355
  20   0.0000       0.082113         2.2344

MULLIKEN ATOMIC CHARGES
-----------------------
   0 C :    1.250598
   1 C :    1.250598
   2 O :   -0.889090
   3 O :   -0.889090
   4 H :   -0.180754
   5 H :   -0.180754
   6 H :   -0.180754
   7 H :   -0.180754
Sum of atomic charges:   -0.0000000

LOEWDIN ATOMIC CHARGES
----------------------
   0 C :    0.016669
   1 C :    0.016669
   2 O :   -0.013553
   3 O :   -0.013553
   4 H :   -0.001558
   5 H :   -0.001558
   6 H :   -0.001558
   7 H :   -0.001558

  Mayer bond orders larger than 0.100000
B(  0-C ,  2-O ) :   0.7125 B(  0-C ,  3-O ) :   0.7125 B(  0-C ,  4-H ) :   0.9664
B(  0-C ,  6-H ) :   0.9664 B(  1-C ,  2-O ) :   0.7125 B(  1-C ,  3-O ) :   0.7125
B(  1-C ,  5-H ) :   0.9664 B(  1-C ,  7-H ) :   0.9664

MP2 TOTAL ENERGY:     -228.433806388 Eh
FINAL SINGLE POINT ENERGY      -228.433806387709

DIPOLE MOMENT
-------------
                                X             Y             Z
Electronic contribution:     -0.00000      -0.00000      -0.00000
Nuclear contribution   :      0.00000       0.00000       0.00000
                        -----------------------------------------
Total Dipole Moment    :     -0.00000      -0.00000      -0.00000
                        -----------------------------------------
Magnitude (a.u.)       :      0.00000
Magnitude (Debye)      :      0.00000

Rotational constants in cm-1:     0.455850     0.448065     0.247813
Rotational constants in MHz : 13666.052908 13432.636718  7429.252580

                             ****ORCA TERMINATED NORMALLY****
TOTAL RUN TIME: 0 days 0 hours 0 minutes 26 seconds 968 msec
