                         Program Version 5.0.3 -  RELEASE  -
|  1> !ri-mp2 aug-cc-pvdz aug-cc-pvdz/c tightscf
|  2> %pal nprocs 16 end
|  3>
|  4> * xyz 0 1
|  5> C     -2.422945    0.072738    0.011279
|  6> C     -1.009653   -0.506476   -0.070522
|  7> C      0.062858    0.567077    0.075523
|  8> S      1.788351   -0.046408   -0.074553
|  9> H     -2.599612    0.799976   -0.783540
| 10> H     -3.173192   -0.712674   -0.085709
| 11> H     -2.591811    0.576633    0.964916
| 12> H     -0.869677   -1.024388   -1.021039
| 13> H     -0.874102   -1.257605    0.711730
| 14> H     -0.023659    1.307679   -0.720627
| 15> H     -0.038300    1.098518    1.021239
| 16> H      1.775172   -0.845654    1.008202
| 17> *
| 18>
| 19>                          ****END OF INPUT****

CARTESIAN COORDINATES (ANGSTROEM)
---------------------------------
  C     -2.422945    0.072738    0.011279
  C     -1.009653   -0.506476   -0.070522
  C      0.062858    0.567077    0.075523
  S      1.788351   -0.046408   -0.074553
  H     -2.599612    0.799976   -0.783540
  H     -3.173192   -0.712674   -0.085709
  H     -2.591811    0.576633    0.964916
  H     -0.869677   -1.024388   -1.021039
  H     -0.874102   -1.257605    0.711730
  H     -0.023659    1.307679   -0.720627
  H     -0.038300    1.098518    1.021239
  H      1.775172   -0.845654    1.008202

 Total Charge           Charge          ....    0
 Multiplicity           Mult            ....    1
 Number of Electrons    NEL             ....   42
 Basis Dimension        Dim             ....  168

ORBITAL ENERGIES
----------------

  NO   OCC          E(Eh)            E(eV)
   0   2.0000     -91.952013     -2502.1415
   1   2.0000     -11.267275      -306.5981
   2   2.0000     -11.236741      -305.7673
   3   2.0000     -11.228141      -305.5333
   4   2.0000      -8.953516      -243.6375
   5   2.0000      -6.635621      -180.5644
   6   2.0000      -6.634217      -180.5262
   7   2.0000      -6.632167      -180.4704
   8   2.0000      -1.086525       -29.5658
   9   2.0000      -0.993733       -27.0408
  10   2.0000      -0.880818       -23.9683
  11   2.0000      -0.808090       -21.9892
  12   2.0000      -0.651011       -17.7149
  13   2.0000      -0.596142       -16.2219
  14   2.0000      -0.568218       -15.4620
  15   2.0000      -0.554272       -15.0825
  16   2.0000      -0.514727       -14.0064
  17   2.0000      -0.493774       -13.4363
  18   2.0000      -0.482710       -13.1352
  19   2.0000      -0.440864       -11.9965
  20   2.0000      -0.353952        -9.6315
  21   0.0000       0.035579         0.9682
  22   0.0000       0.045890         1.2487
  23   0.0000       0.047673         1.2972
  24   0.0000       0.051779         1.4090
  25   0.0000       0.068959         1.8765

MULLIKEN ATOMIC CHARGES
-----------------------
   0 C :    0.349704
   1 C :    0.156181
   2 C :   -0.219429
   3 S :    0.253595
   4 H :   -0.071551
   5 H :   -0.090089
   6 H :   -0.068615
   7 H :   -0.088361
   8 H :   -0.121791
   9 H :   -0.066806
  10 H :   -0.124721
  11 H :    0.091885
Sum of atomic charges:    0.0000000

LOEWDIN ATOMIC CHARGES
----------------------
   0 C :    0.128022
   1 C :   -0.139592
   2 C :   -0.333568
   3 S :    0.704797
   4 H :   -0.019965
   5 H :   -0.020480
   6 H :   -0.020551
   7 H :    0.003749
   8 H :    0.002192
   9 H :   -0.036103
  10 H :   -0.035290
  11 H :   -0.233210

  Mayer bond orders larger than 0.100000
B(  0-C ,  1-C ) :   1.2263 B(  0-C ,  4-H ) :   0.9434 B(  0-C ,  5-H ) :   0.9102
B(  0-C ,  6-H ) :   0.9444 B(  1-C ,  2-C ) :   1.3111 B(  1-C ,  3-S ) :  -0.1525
B(  1-C ,  7-H ) :   0.8595 B(  1-C ,  8-H ) :   0.8318 B(  2-C ,  3-S ) :   1.2107
B(  2-C ,  9-H ) :   0.8917 B(  2-C , 10-H ) :   0.9574 B(  3-S ,  9-H ) :  -0.1207
B(  3-S , 10-H ) :  -0.1081 B(  3-S , 11-H ) :   0.9525

MP2 TOTAL ENERGY:     -516.410019109 Eh
FINAL SINGLE POINT ENERGY      -516.410019108749

DIPOLE MOMENT
-------------
                                X             Y             Z
Electronic contribution:      8.04821       0.04821      -0.85457
Nuclear contribution   :     -8.75240      -0.05809       1.13670
                        -----------------------------------------
Total Dipole Moment    :     -0.70419      -0.00987       0.28213
                        -----------------------------------------
Magnitude (a.u.)       :      0.75867
Magnitude (Debye)      :      1.92839

Rotational constants in cm-1:     0.807319     0.077030     0.074007
Rotational constants in MHz : 24202.818958  2309.296493  2218.679847

                             ****ORCA TERMINATED NORMALLY****
TOTAL RUN TIME: 0 days 0 hours 0 minutes 33 seconds 946 msec
