                         Program Version 5.0.3 -  RELEASE  -
|  1> !ri-mp2 aug-cc-pvdz aug-cc-pvdz/c tightscf
|  2> %pal nprocs 16 end
|  3>
|  4> * xyz 0 1
|  5> C     0.000000     3.710922   -0.232233
|  6> C     0.000000    -3.710922   -0.232233
|  7> C     0.000000     2.389208    0.533807
|  8> C     0.000000    -2.389208    0.533807
|  9> C     0.000000     1.184713   -0.390496
| 10> C     0.000000    -1.184713   -0.390496
| 11> O     0.000000     0.000000    0.385340
| 12> H    -0.881297     3.802170   -0.870295
| 13> H     0.000000     4.559288    0.452278
| 14> H     0.881297     3.802170   -0.870295
| 15> H     0.881297    -3.802170   -0.870295
| 16> H     0.000000    -4.559288    0.452278
| 17> H    -0.881297    -3.802170   -0.870295
| 18> H    -0.875832     2.330147    1.183540
| 19> H     0.875832     2.330147    1.183540
| 20> H     0.875832    -2.330147    1.183540
| 21> H    -0.875832    -2.330147    1.183540
| 22> H    -0.884755     1.205018   -1.043297
| 23> H     0.884755     1.205018   -1.043297
| 24> H     0.884755    -1.205018   -1.043297
| 25> H    -0.884755    -1.205018   -1.043297
| 26> *
| 27>
| 28>                          ****END OF INPUT****

CARTESIAN COORDINATES (ANGSTROEM)
---------------------------------
  C      0.000000    3.710922   -0.232233
  C      0.000000   -3.710922   -0.232233
  C      0.000000    2.389208    0.533807
  C      0.000000   -2.389208    0.533807
  C      0.000000    1.184713   -0.390496
  C      0.000000   -1.184713   -0.390496
  O      0.000000    0.000000    0.385340
  H     -0.881297    3.802170   -0.870295
  H      0.000000    4.559288    0.452278
  H      0.881297    3.802170   -0.870295
  H      0.881297   -3.802170   -0.870295
  H      0.000000   -4.559288    0.452278
  H     -0.881297   -3.802170   -0.870295
  H     -0.875832    2.330147    1.183540
  H      0.875832    2.330147    1.183540
  H      0.875832   -2.330147    1.183540
  H     -0.875832   -2.330147    1.183540
  H     -0.884755    1.205018   -1.043297
  H      0.884755    1.205018   -1.043297
  H      0.884755   -1.205018   -1.043297
  H     -0.884755   -1.205018   -1.043297

 Total Charge           Charge          ....    0
 Multiplicity           Mult            ....    1
 Number of Electrons    NEL             ....   58
 Basis Dimension        Dim             ....  287

ORBITAL ENERGIES
----------------

  NO   OCC          E(Eh)            E(eV)
   0   2.0000     -20.557996      -559.4115
   1   2.0000     -11.274249      -306.7879
   2   2.0000     -11.274227      -306.7873
   3   2.0000     -11.221642      -305.3564
   4   2.0000     -11.221640      -305.3564
   5   2.0000     -11.220733      -305.3317
   6   2.0000     -11.220732      -305.3317
   7   2.0000      -1.371142       -37.3107
   8   2.0000      -1.068759       -29.0824
   9   2.0000      -1.039352       -28.2822
  10   2.0000      -0.939814       -25.5736
  11   2.0000      -0.882426       -24.0120
  12   2.0000      -0.812504       -22.1093
  13   2.0000      -0.797511       -21.7014
  14   2.0000      -0.677414       -18.4334
  15   2.0000      -0.654692       -17.8151
  16   2.0000      -0.628757       -17.1093
  17   2.0000      -0.613296       -16.6886
  18   2.0000      -0.581458       -15.8223
  19   2.0000      -0.567575       -15.4445
  20   2.0000      -0.532988       -14.5034
  21   2.0000      -0.531553       -14.4643
  22   2.0000      -0.508529       -13.8378
  23   2.0000      -0.494171       -13.4471
  24   2.0000      -0.482689       -13.1346
  25   2.0000      -0.467495       -12.7212
  26   2.0000      -0.463562       -12.6142
  27   2.0000      -0.461202       -12.5499
  28   2.0000      -0.414863       -11.2890
  29   0.0000       0.037379         1.0171
  30   0.0000       0.040201         1.0939
  31   0.0000       0.045726         1.2443
  32   0.0000       0.046984         1.2785
  33   0.0000       0.056886         1.5479

MULLIKEN ATOMIC CHARGES
-----------------------
   0 C :    0.459707
   1 C :    0.459707
   2 C :    0.306857
   3 C :    0.306857
   4 C :    0.545457
   5 C :    0.545457
   6 O :   -0.841385
   7 H :   -0.081970
   8 H :   -0.080280
   9 H :   -0.081970
  10 H :   -0.081970
  11 H :   -0.080280
  12 H :   -0.081970
  13 H :   -0.157050
  14 H :   -0.157050
  15 H :   -0.157050
  16 H :   -0.157050
  17 H :   -0.166505
  18 H :   -0.166505
  19 H :   -0.166505
  20 H :   -0.166505
Sum of atomic charges:   -0.0000000

LOEWDIN ATOMIC CHARGES
----------------------
   0 C :    0.132568
   1 C :    0.132568
   2 C :   -0.066338
   3 C :   -0.066338
   4 C :   -0.057183
   5 C :   -0.057183
   6 O :    0.007557
   7 H :   -0.020905
   8 H :   -0.021530
   9 H :   -0.020905
  10 H :   -0.020905
  11 H :   -0.021530
  12 H :   -0.020905
  13 H :    0.013691
  14 H :    0.013691
  15 H :    0.013691
  16 H :    0.013691
  17 H :    0.011567
  18 H :    0.011567
  19 H :    0.011567
  20 H :    0.011567

  Mayer bond orders larger than 0.100000
B(  0-C ,  2-C ) :   1.1021 B(  0-C ,  7-H ) :   0.9336 B(  0-C ,  8-H ) :   0.9108
B(  0-C ,  9-H ) :   0.9336 B(  1-C ,  3-C ) :   1.1021 B(  1-C , 10-H ) :   0.9336
B(  1-C , 11-H ) :   0.9108 B(  1-C , 12-H ) :   0.9336 B(  2-C ,  4-C ) :   1.2330
B(  2-C , 13-H ) :   0.7402 B(  2-C , 14-H ) :   0.7402 B(  3-C ,  5-C ) :   1.2330
B(  3-C , 15-H ) :   0.7402 B(  3-C , 16-H ) :   0.7402 B(  4-C ,  5-C ) :   0.2091
B(  4-C ,  6-O ) :   0.6063 B(  4-C , 13-H ) :   0.1675 B(  4-C , 14-H ) :   0.1675
B(  4-C , 17-H ) :   0.8249 B(  4-C , 18-H ) :   0.8249 B(  5-C ,  6-O ) :   0.6063
B(  5-C , 15-H ) :   0.1675 B(  5-C , 16-H ) :   0.1675 B(  5-C , 19-H ) :   0.8249
B(  5-C , 20-H ) :   0.8249

MP2 TOTAL ENERGY:     -311.349209923 Eh
FINAL SINGLE POINT ENERGY      -311.349209922670

DIPOLE MOMENT
-------------
                                X             Y             Z
Electronic contribution:      0.00000      -0.00000       1.71189
Nuclear contribution   :      0.00000      -0.00000      -2.14236
                        -----------------------------------------
Total Dipole Moment    :      0.00000      -0.00000      -0.43047
                        -----------------------------------------
Magnitude (a.u.)       :      0.43047
Magnitude (Debye)      :      1.09417

Rotational constants in cm-1:     0.455319     0.026383     0.025649
Rotational constants in MHz : 13650.114421   790.928863   768.951370

                             ****ORCA TERMINATED NORMALLY****
TOTAL RUN TIME: 0 days 0 hours 0 minutes 54 seconds 914 msec
