                         Program Version 5.0.3 -  RELEASE  -
|  1> !ri-mp2 aug-cc-pvdz aug-cc-pvdz/c tightscf
|  2> %pal nprocs 16 end
|  3>
|  4> * xyz 0 1
|  5> F     -0.068610    1.517102   -0.198375
|  6> F     -2.172960   -0.385347    0.136936
|  7> N      2.539942   -0.590490   -0.068123
|  8> C      0.095496    0.250121    0.339624
|  9> C     -0.898581   -0.714336   -0.288536
| 10> C      1.473579   -0.202694    0.110068
| 11> H     -0.088862    0.322052    1.413853
| 12> H     -0.677638   -1.735688    0.024438
| 13> H     -0.861929   -0.637279   -1.375414
| 14> *
| 15>
| 16>                          ****END OF INPUT****

CARTESIAN COORDINATES (ANGSTROEM)
---------------------------------
  F     -0.068610    1.517102   -0.198375
  F     -2.172960   -0.385347    0.136936
  N      2.539942   -0.590490   -0.068123
  C      0.095496    0.250121    0.339624
  C     -0.898581   -0.714336   -0.288536
  C      1.473579   -0.202694    0.110068
  H     -0.088862    0.322052    1.413853
  H     -0.677638   -1.735688    0.024438
  H     -0.861929   -0.637279   -1.375414

 Total Charge           Charge          ....    0
 Multiplicity           Mult            ....    1
 Number of Electrons    NEL             ....   46
 Basis Dimension        Dim             ....  165

ORBITAL ENERGIES
----------------

  NO   OCC          E(Eh)            E(eV)
   0   2.0000     -26.343274      -716.8369
   1   2.0000     -26.329589      -716.4645
   2   2.0000     -15.620368      -425.0518
   3   2.0000     -11.404059      -310.3202
   4   2.0000     -11.366375      -309.2948
   5   2.0000     -11.313256      -307.8493
   6   2.0000      -1.648713       -44.8638
   7   2.0000      -1.630410       -44.3657
   8   2.0000      -1.261420       -34.3250
   9   2.0000      -1.109017       -30.1779
  10   2.0000      -0.947087       -25.7715
  11   2.0000      -0.806786       -21.9538
  12   2.0000      -0.777159       -21.1476
  13   2.0000      -0.749203       -20.3868
  14   2.0000      -0.718658       -19.5557
  15   2.0000      -0.712963       -19.4007
  16   2.0000      -0.667993       -18.1770
  17   2.0000      -0.629244       -17.1226
  18   2.0000      -0.585911       -15.9435
  19   2.0000      -0.569505       -15.4970
  20   2.0000      -0.565712       -15.3938
  21   2.0000      -0.506791       -13.7905
  22   2.0000      -0.493791       -13.4367
  23   0.0000       0.031636         0.8609
  24   0.0000       0.041303         1.1239
  25   0.0000       0.052207         1.4206
  26   0.0000       0.072587         1.9752
  27   0.0000       0.094458         2.5703

MULLIKEN ATOMIC CHARGES
-----------------------
   0 F :   -0.651608
   1 F :   -0.602325
   2 N :   -0.262099
   3 C :    1.109301
   4 C :    0.939252
   5 C :   -0.327660
   6 H :   -0.025973
   7 H :   -0.107787
   8 H :   -0.071099
Sum of atomic charges:   -0.0000000

LOEWDIN ATOMIC CHARGES
----------------------
   0 F :    0.044666
   1 F :    0.012551
   2 N :    0.098386
   3 C :   -0.189173
   4 C :    0.040879
   5 C :   -0.092697
   6 H :    0.046955
   7 H :    0.016792
   8 H :    0.021639

  Mayer bond orders larger than 0.100000
B(  0-F ,  4-C ) :   0.1427 B(  0-F ,  5-C ) :   0.1520 B(  1-F ,  3-C ) :   0.1723
B(  1-F ,  4-C ) :   0.2874 B(  2-N ,  5-C ) :   2.6462 B(  3-C ,  4-C ) :   1.2254
B(  3-C ,  5-C ) :   0.5053 B(  3-C ,  6-H ) :   0.7997 B(  4-C ,  7-H ) :   0.9542
B(  4-C ,  8-H ) :   0.9129

MP2 TOTAL ENERGY:     -369.669859786 Eh
FINAL SINGLE POINT ENERGY      -369.669859785816

DIPOLE MOMENT
-------------
                                X             Y             Z
Electronic contribution:     -1.15156       2.54327       0.12988
Nuclear contribution   :      0.56946      -3.00946       0.11684
                        -----------------------------------------
Total Dipole Moment    :     -0.58210      -0.46619       0.24672
                        -----------------------------------------
Magnitude (a.u.)       :      0.78552
Magnitude (Debye)      :      1.99663

Rotational constants in cm-1:     0.241326     0.074976     0.060300
Rotational constants in MHz :  7234.764696  2247.725309  1807.739104

                             ****ORCA TERMINATED NORMALLY****
TOTAL RUN TIME: 0 days 0 hours 0 minutes 38 seconds 277 msec
