                         Program Version 5.0.3 -  RELEASE  -
|  1> !ri-mp2 aug-cc-pvdz aug-cc-pvdz/c tightscf
|  2> %pal nprocs 16 end
|  3>
|  4> * xyz 0 1
|  5> C      0.787546   -2.366357    0.000000
|  6> C     -0.561033   -2.023230    0.000000
|  7> C      1.353155   -0.175015    0.000000
|  8> C      0.000000    0.175622    0.000000
|  9> C     -0.407656    1.626191    0.000000
| 10> C     -1.879880    1.940275    0.000000
| 11> N      1.749484   -1.444574    0.000000
| 12> N     -0.957273   -0.754759    0.000000
| 13> O      0.445137    2.489136    0.000000
| 14> H      1.096738   -3.404743    0.000000
| 15> H     -1.330829   -2.785557    0.000000
| 16> H      2.112882    0.594562    0.000000
| 17> H     -2.362568    1.497437    0.871986
| 18> H     -2.362568    1.497437   -0.871986
| 19> H     -2.013020    3.018193    0.000000
| 20> *
| 21>
| 22>                          ****END OF INPUT****

CARTESIAN COORDINATES (ANGSTROEM)
---------------------------------
  C      0.787546   -2.366357    0.000000
  C     -0.561033   -2.023230    0.000000
  C      1.353155   -0.175015    0.000000
  C      0.000000    0.175622    0.000000
  C     -0.407656    1.626191    0.000000
  C     -1.879880    1.940275    0.000000
  N      1.749484   -1.444574    0.000000
  N     -0.957273   -0.754759    0.000000
  O      0.445137    2.489136    0.000000
  H      1.096738   -3.404743    0.000000
  H     -1.330829   -2.785557    0.000000
  H      2.112882    0.594562    0.000000
  H     -2.362568    1.497437    0.871986
  H     -2.362568    1.497437   -0.871986
  H     -2.013020    3.018193    0.000000

 Total Charge           Charge          ....    0
 Multiplicity           Mult            ....    1
 Number of Electrons    NEL             ....   64
 Basis Dimension        Dim             ....  261

ORBITAL ENERGIES
----------------

  NO   OCC          E(Eh)            E(eV)
   0   2.0000     -20.569856      -559.7342
   1   2.0000     -15.618679      -425.0058
   2   2.0000     -15.610554      -424.7848
   3   2.0000     -11.353995      -308.9579
   4   2.0000     -11.306471      -307.6647
   5   2.0000     -11.303338      -307.5795
   6   2.0000     -11.302123      -307.5464
   7   2.0000     -11.302003      -307.5431
   8   2.0000     -11.241900      -305.9077
   9   2.0000      -1.407020       -38.2870
  10   2.0000      -1.328216       -36.1426
  11   2.0000      -1.240305       -33.7504
  12   2.0000      -1.082362       -29.4526
  13   2.0000      -1.017799       -27.6957
  14   2.0000      -0.928169       -25.2568
  15   2.0000      -0.908739       -24.7280
  16   2.0000      -0.793326       -21.5875
  17   2.0000      -0.729061       -19.8388
  18   2.0000      -0.726730       -19.7753
  19   2.0000      -0.681254       -18.5379
  20   2.0000      -0.643448       -17.5091
  21   2.0000      -0.620803       -16.8929
  22   2.0000      -0.618482       -16.8297
  23   2.0000      -0.579739       -15.7755
  24   2.0000      -0.579351       -15.7650
  25   2.0000      -0.557163       -15.1612
  26   2.0000      -0.510737       -13.8979
  27   2.0000      -0.510562       -13.8931
  28   2.0000      -0.452328       -12.3085
  29   2.0000      -0.450389       -12.2557
  30   2.0000      -0.409310       -11.1379
  31   2.0000      -0.368602       -10.0302
  32   0.0000       0.028941         0.7875
  33   0.0000       0.038924         1.0592
  34   0.0000       0.046825         1.2742
  35   0.0000       0.047753         1.2994
  36   0.0000       0.054952         1.4953

MULLIKEN ATOMIC CHARGES
-----------------------
   0 C :    0.545640
   1 C :    0.844380
   2 C :    0.547700
   3 C :    0.685725
   4 C :    0.186663
   5 C :    0.505302
   6 N :   -0.701936
   7 N :   -0.947073
   8 O :   -0.833605
   9 H :   -0.257653
  10 H :   -0.298187
  11 H :   -0.330005
  12 H :    0.087347
  13 H :    0.087347
  14 H :   -0.121645
Sum of atomic charges:   -0.0000000

LOEWDIN ATOMIC CHARGES
----------------------
   0 C :   -0.003189
   1 C :   -0.007299
   2 C :    0.048970
   3 C :   -0.165726
   4 C :   -0.269000
   5 C :    0.197160
   6 N :    0.057590
   7 N :    0.083035
   8 O :    0.053685
   9 H :    0.005307
  10 H :    0.002807
  11 H :    0.012344
  12 H :   -0.004064
  13 H :   -0.004064
  14 H :   -0.007557

  Mayer bond orders larger than 0.100000
B(  0-C ,  1-C ) :   1.1956 B(  0-C ,  2-C ) :  -0.1549 B(  0-C ,  3-C ) :   0.1319
B(  0-C ,  6-N ) :   1.3362 B(  0-C ,  9-H ) :   1.0097 B(  1-C ,  3-C ) :  -0.1737
B(  1-C ,  7-N ) :   1.2658 B(  1-C ,  9-H ) :  -0.1020 B(  1-C , 10-H ) :   0.8906
B(  2-C ,  3-C ) :   1.0210 B(  2-C ,  6-N ) :   1.2755 B(  2-C , 11-H ) :   0.8963
B(  3-C ,  4-C ) :   0.9224 B(  3-C ,  7-N ) :   1.2561 B(  4-C ,  5-C ) :   1.0436
B(  4-C ,  8-O ) :   1.3980 B(  4-C , 14-H ) :   0.1956 B(  5-C , 12-H ) :   0.9184
B(  5-C , 13-H ) :   0.9184 B(  5-C , 14-H ) :   0.7521

MP2 TOTAL ENERGY:     -415.841952194 Eh
FINAL SINGLE POINT ENERGY      -415.841952193501

DIPOLE MOMENT
-------------
                                X             Y             Z
Electronic contribution:      3.90983      -1.46743      -0.00000
Nuclear contribution   :     -4.77108       0.43665       0.00000
                        -----------------------------------------
Total Dipole Moment    :     -0.86124      -1.03079      -0.00000
                        -----------------------------------------
Magnitude (a.u.)       :      1.34323
Magnitude (Debye)      :      3.41421

Rotational constants in cm-1:     0.128328     0.042685     0.032218
Rotational constants in MHz :  3847.183977  1279.663720   965.885492

                             ****ORCA TERMINATED NORMALLY****
TOTAL RUN TIME: 0 days 0 hours 0 minutes 55 seconds 30 msec
