                         Program Version 5.0.3 -  RELEASE  -
|  1> !ri-mp2 aug-cc-pvdz aug-cc-pvdz/c tightscf
|  2> %pal nprocs 16 end
|  3> %maxcore 3800
|  4>
|  5> * xyz 0 1
|  6> C    -2.671994    -0.703009    0.000000
|  7> C    -2.671994     0.703009    0.000000
|  8> C    -1.484704    -1.389843    0.000000
|  9> C    -1.484704     1.389843    0.000000
| 10> C     2.165927    -0.704380    0.000000
| 11> C     2.165927     0.704380    0.000000
| 12> C    -0.238733    -0.715972    0.000000
| 13> C    -0.238733     0.715972    0.000000
| 14> C     1.000485    -1.427436    0.000000
| 15> C     1.000485     1.427436    0.000000
| 16> C     1.037034    -2.932491    0.000000
| 17> C     1.037034     2.932491    0.000000
| 18> H    -3.609860    -1.242469    0.000000
| 19> H    -3.609860     1.242469    0.000000
| 20> H    -1.499421    -2.470177    0.000000
| 21> H    -1.499421     2.470177    0.000000
| 22> H     3.114870    -1.226313    0.000000
| 23> H     3.114870     1.226313    0.000000
| 24> H     2.065976    -3.288434    0.000000
| 25> H     0.540170    -3.350821    0.878303
| 26> H     0.540170    -3.350821   -0.878303
| 27> H     0.540170     3.350821    0.878303
| 28> H     2.065976     3.288434    0.000000
| 29> H     0.540170     3.350821   -0.878303
| 30> *
| 31>
| 32>                          ****END OF INPUT****

CARTESIAN COORDINATES (ANGSTROEM)
---------------------------------
  C     -2.671994   -0.703009    0.000000
  C     -2.671994    0.703009    0.000000
  C     -1.484704   -1.389843    0.000000
  C     -1.484704    1.389843    0.000000
  C      2.165927   -0.704380    0.000000
  C      2.165927    0.704380    0.000000
  C     -0.238733   -0.715972    0.000000
  C     -0.238733    0.715972    0.000000
  C      1.000485   -1.427436    0.000000
  C      1.000485    1.427436    0.000000
  C      1.037034   -2.932491    0.000000
  C      1.037034    2.932491    0.000000
  H     -3.609860   -1.242469    0.000000
  H     -3.609860    1.242469    0.000000
  H     -1.499421   -2.470177    0.000000
  H     -1.499421    2.470177    0.000000
  H      3.114870   -1.226313    0.000000
  H      3.114870    1.226313    0.000000
  H      2.065976   -3.288434    0.000000
  H      0.540170   -3.350821    0.878303
  H      0.540170   -3.350821   -0.878303
  H      0.540170    3.350821    0.878303
  H      2.065976    3.288434    0.000000
  H      0.540170    3.350821   -0.878303

 Total Charge           Charge          ....    0
 Multiplicity           Mult            ....    1
 Number of Electrons    NEL             ....   84
 Basis Dimension        Dim             ....  384

ORBITAL ENERGIES
----------------

  NO   OCC          E(Eh)            E(eV)
   0   2.0000     -11.244373      -305.9750
   1   2.0000     -11.243576      -305.9533
   2   2.0000     -11.242700      -305.9294
   3   2.0000     -11.242517      -305.9244
   4   2.0000     -11.239238      -305.8352
   5   2.0000     -11.238434      -305.8133
   6   2.0000     -11.237350      -305.7838
   7   2.0000     -11.237057      -305.7759
   8   2.0000     -11.231875      -305.6349
   9   2.0000     -11.230793      -305.6054
  10   2.0000     -11.229373      -305.5668
  11   2.0000     -11.229372      -305.5668
  12   2.0000      -1.180268       -32.1167
  13   2.0000      -1.115315       -30.3493
  14   2.0000      -1.080378       -29.3986
  15   2.0000      -1.007891       -27.4261
  16   2.0000      -1.003657       -27.3109
  17   2.0000      -0.975854       -26.5543
  18   2.0000      -0.898063       -24.4375
  19   2.0000      -0.846503       -23.0345
  20   2.0000      -0.839955       -22.8563
  21   2.0000      -0.771663       -20.9980
  22   2.0000      -0.702882       -19.1264
  23   2.0000      -0.692830       -18.8529
  24   2.0000      -0.662781       -18.0352
  25   2.0000      -0.625086       -17.0095
  26   2.0000      -0.607565       -16.5327
  27   2.0000      -0.582897       -15.8614
  28   2.0000      -0.581523       -15.8240
  29   2.0000      -0.574262       -15.6265
  30   2.0000      -0.570538       -15.5251
  31   2.0000      -0.549744       -14.9593
  32   2.0000      -0.540785       -14.7155
  33   2.0000      -0.528272       -14.3750
  34   2.0000      -0.518559       -14.1107
  35   2.0000      -0.509894       -13.8749
  36   2.0000      -0.476950       -12.9785
  37   2.0000      -0.464351       -12.6356
  38   2.0000      -0.439858       -11.9691
  39   2.0000      -0.368397       -10.0246
  40   2.0000      -0.316857        -8.6221
  41   2.0000      -0.280045        -7.6204
  42   0.0000       0.035158         0.9567
  43   0.0000       0.036850         1.0027
  44   0.0000       0.038025         1.0347
  45   0.0000       0.049483         1.3465
  46   0.0000       0.050359         1.3703

MULLIKEN ATOMIC CHARGES
-----------------------
   0 C :   -0.226689
   1 C :   -0.226689
   2 C :    0.089221
   3 C :    0.089221
   4 C :    0.777261
   5 C :    0.777261
   6 C :    0.489440
   7 C :    0.489440
   8 C :    0.067350
   9 C :    0.067350
  10 C :    0.615211
  11 C :    0.615212
  12 H :   -0.508726
  13 H :   -0.508726
  14 H :   -0.797319
  15 H :   -0.797319
  16 H :   -0.655871
  17 H :   -0.655871
  18 H :   -0.282540
  19 H :    0.216331
  20 H :    0.216331
  21 H :    0.216331
  22 H :   -0.282540
  23 H :    0.216331
Sum of atomic charges:   -0.0000000

LOEWDIN ATOMIC CHARGES
----------------------
   0 C :    0.014287
   1 C :    0.014287
   2 C :    0.055468
   3 C :    0.055468
   4 C :    0.044505
   5 C :    0.044505
   6 C :   -0.088976
   7 C :   -0.088976
   8 C :   -0.170752
   9 C :   -0.170752
  10 C :    0.171102
  11 C :    0.171102
  12 H :    0.000882
  13 H :    0.000882
  14 H :   -0.004174
  15 H :   -0.004174
  16 H :    0.004103
  17 H :    0.004103
  18 H :   -0.015687
  19 H :   -0.005379
  20 H :   -0.005379
  21 H :   -0.005379
  22 H :   -0.015687
  23 H :   -0.005379

  Mayer bond orders larger than 0.100000
B(  0-C ,  1-C ) :   2.2144 B(  0-C ,  2-C ) :   1.4058 B(  0-C ,  3-C ) :   0.4834
B(  0-C ,  4-C ) :   0.3978 B(  0-C ,  5-C ) :   0.2629 B(  0-C ,  6-C ) :  -0.8599
B(  0-C ,  7-C ) :  -0.5139 B(  0-C ,  8-C ) :   0.2222 B(  0-C ,  9-C ) :  -0.3046
B(  0-C , 10-C ) :   0.4021 B(  0-C , 11-C ) :  -0.1319 B(  0-C , 12-H ) :  -0.1028
B(  0-C , 14-H ) :   0.7539 B(  0-C , 15-H ) :  -0.1085 B(  1-C ,  2-C ) :   0.4834
B(  1-C ,  3-C ) :   1.4058 B(  1-C ,  4-C ) :   0.2629 B(  1-C ,  5-C ) :   0.3978
B(  1-C ,  6-C ) :  -0.5139 B(  1-C ,  7-C ) :  -0.8599 B(  1-C ,  8-C ) :  -0.3046
B(  1-C ,  9-C ) :   0.2222 B(  1-C , 10-C ) :  -0.1319 B(  1-C , 11-C ) :   0.4021
B(  1-C , 13-H ) :  -0.1028 B(  1-C , 14-H ) :  -0.1085 B(  1-C , 15-H ) :   0.7539
B(  2-C ,  3-C ) :   0.6599 B(  2-C ,  4-C ) :   0.4618 B(  2-C ,  5-C ) :  -0.2948
B(  2-C ,  6-C ) :   0.5160 B(  2-C ,  7-C ) :  -2.8776 B(  2-C ,  8-C ) :  -2.4890
B(  2-C ,  9-C ) :   0.2668 B(  2-C , 10-C ) :  -0.5899 B(  2-C , 11-C ) :   0.1679
B(  2-C , 12-H ) :   0.7486 B(  2-C , 13-H ) :  -0.1168 B(  2-C , 14-H ) :  -1.3092
B(  2-C , 15-H ) :   0.1142 B(  3-C ,  4-C ) :  -0.2948 B(  3-C ,  5-C ) :   0.4618
B(  3-C ,  6-C ) :  -2.8776 B(  3-C ,  7-C ) :   0.5160 B(  3-C ,  8-C ) :   0.2668
B(  3-C ,  9-C ) :  -2.4890 B(  3-C , 10-C ) :   0.1679 B(  3-C , 11-C ) :  -0.5899
B(  3-C , 12-H ) :  -0.1168 B(  3-C , 13-H ) :   0.7486 B(  3-C , 14-H ) :   0.1142
B(  3-C , 15-H ) :  -1.3092 B(  4-C ,  5-C ) :   1.6908 B(  4-C ,  6-C ) :  -0.5505
B(  4-C ,  7-C ) :   0.6095 B(  4-C ,  8-C ) :   1.2210 B(  4-C ,  9-C ) :  -0.4249
B(  4-C , 11-C ) :   0.2544 B(  4-C , 14-H ) :  -0.1208 B(  4-C , 16-H ) :  -1.0577
B(  5-C ,  6-C ) :   0.6095 B(  5-C ,  7-C ) :  -0.5505 B(  5-C ,  8-C ) :  -0.4249
B(  5-C ,  9-C ) :   1.2210 B(  5-C , 10-C ) :   0.2544 B(  5-C , 15-H ) :  -0.1208
B(  5-C , 17-H ) :  -1.0577 B(  6-C ,  7-C ) :   4.4287 B(  6-C ,  8-C ) :   3.0606
B(  6-C ,  9-C ) :  -0.9460 B(  6-C , 10-C ) :   0.4602 B(  6-C , 11-C ) :  -0.2100
B(  6-C , 12-H ) :   0.2261 B(  6-C , 14-H ) :   1.5495 B(  6-C , 19-H ) :  -0.2100
B(  6-C , 20-H ) :  -0.2100 B(  7-C ,  8-C ) :  -0.9460 B(  7-C ,  9-C ) :   3.0606
B(  7-C , 10-C ) :  -0.2100 B(  7-C , 11-C ) :   0.4602 B(  7-C , 13-H ) :   0.2261
B(  7-C , 15-H ) :   1.5495 B(  7-C , 21-H ) :  -0.2100 B(  7-C , 23-H ) :  -0.2100
B(  8-C ,  9-C ) :   0.8692 B(  8-C , 10-C ) :   0.6683 B(  8-C , 11-C ) :   0.1226
B(  8-C , 14-H ) :  -0.4479 B(  8-C , 15-H ) :   0.1036 B(  8-C , 16-H ) :   1.6431
B(  8-C , 17-H ) :  -0.2779 B(  8-C , 18-H ) :   0.3527 B(  8-C , 19-H ) :   0.2807
B(  8-C , 20-H ) :   0.2807 B(  9-C , 10-C ) :   0.1226 B(  9-C , 11-C ) :   0.6683
B(  9-C , 14-H ) :   0.1036 B(  9-C , 15-H ) :  -0.4479 B(  9-C , 16-H ) :  -0.2779
B(  9-C , 17-H ) :   1.6431 B(  9-C , 21-H ) :   0.2807 B(  9-C , 22-H ) :   0.3527
B(  9-C , 23-H ) :   0.2807 B( 10-C , 14-H ) :   0.1130 B( 10-C , 18-H ) :   0.4889
B( 10-C , 19-H ) :   0.8038 B( 10-C , 20-H ) :   0.8038 B( 11-C , 15-H ) :   0.1130
B( 11-C , 21-H ) :   0.8038 B( 11-C , 22-H ) :   0.4889 B( 11-C , 23-H ) :   0.8038

MP2 TOTAL ENERGY:     -463.122059364 Eh
FINAL SINGLE POINT ENERGY      -463.122059363931

DIPOLE MOMENT
-------------
                                X             Y             Z
Electronic contribution:     -2.30122      -0.00000       0.00000
Nuclear contribution   :      2.32638      -0.00000       0.00000
                        -----------------------------------------
Total Dipole Moment    :      0.02516      -0.00000       0.00000
                        -----------------------------------------
Magnitude (a.u.)       :      0.02516
Magnitude (Debye)      :      0.06394

Rotational constants in cm-1:     0.039511     0.037327     0.019331
Rotational constants in MHz :  1184.506011  1119.032012   579.523922

                             ****ORCA TERMINATED NORMALLY****
TOTAL RUN TIME: 0 days 0 hours 3 minutes 25 seconds 467 msec
