                         Program Version 5.0.3 -  RELEASE  -
|  1> !ri-mp2 aug-cc-pvdz aug-cc-pvdz/c tightscf
|  2> %pal nprocs 16 end
|  3>
|  4> * xyz 0 1
|  5> N      0.000000    1.188502    0.658697
|  6> N      0.000000    1.188502   -0.658697
|  7> C      0.000000    0.000000   -1.262286
|  8> N      0.000000   -1.188502   -0.658697
|  9> N      0.000000   -1.188502    0.658697
| 10> C      0.000000    0.000000    1.262286
| 11> H      0.000000    0.000000   -2.343802
| 12> H      0.000000    0.000000    2.343802
| 13> *
| 14>
| 15>                          ****END OF INPUT****

CARTESIAN COORDINATES (ANGSTROEM)
---------------------------------
  N      0.000000    1.188502    0.658697
  N      0.000000    1.188502   -0.658697
  C      0.000000    0.000000   -1.262286
  N      0.000000   -1.188502   -0.658697
  N      0.000000   -1.188502    0.658697
  C      0.000000    0.000000    1.262286
  H      0.000000    0.000000   -2.343802
  H      0.000000    0.000000    2.343802

 Total Charge           Charge          ....    0
 Multiplicity           Mult            ....    1
 Number of Electrons    NEL             ....   42
 Basis Dimension        Dim             ....  156

ORBITAL ENERGIES
----------------

  NO   OCC          E(Eh)            E(eV)
   0   2.0000     -15.670210      -426.4081
   1   2.0000     -15.670169      -426.4070
   2   2.0000     -15.669315      -426.3837
   3   2.0000     -15.669312      -426.3837
   4   2.0000     -11.347262      -308.7747
   5   2.0000     -11.347228      -308.7738
   6   2.0000      -1.449072       -39.4313
   7   2.0000      -1.344011       -36.5724
   8   2.0000      -1.196925       -32.5700
   9   2.0000      -1.029936       -28.0260
  10   2.0000      -0.965673       -26.2773
  11   2.0000      -0.796769       -21.6812
  12   2.0000      -0.754418       -20.5288
  13   2.0000      -0.701224       -19.0813
  14   2.0000      -0.650464       -17.7000
  15   2.0000      -0.566946       -15.4274
  16   2.0000      -0.533802       -14.5255
  17   2.0000      -0.529519       -14.4089
  18   2.0000      -0.499371       -13.5886
  19   2.0000      -0.435504       -11.8507
  20   2.0000      -0.418165       -11.3788
  21   0.0000       0.026289         0.7154
  22   0.0000       0.034806         0.9471
  23   0.0000       0.040569         1.1039
  24   0.0000       0.062942         1.7127
  25   0.0000       0.086436         2.3520

MULLIKEN ATOMIC CHARGES
-----------------------
   0 N :   -0.362942
   1 N :   -0.362942
   2 C :    0.851592
   3 N :   -0.362942
   4 N :   -0.362942
   5 C :    0.851592
   6 H :   -0.125708
   7 H :   -0.125708
Sum of atomic charges:    0.0000000

LOEWDIN ATOMIC CHARGES
----------------------
   0 N :    0.025874
   1 N :    0.025874
   2 C :   -0.054215
   3 N :    0.025874
   4 N :    0.025874
   5 C :   -0.054215
   6 H :    0.002467
   7 H :    0.002467

  Mayer bond orders larger than 0.100000
B(  0-N ,  1-N ) :   1.0458 B(  0-N ,  3-N ) :   0.1006 B(  0-N ,  5-C ) :   1.2154
B(  1-N ,  2-C ) :   1.2154 B(  1-N ,  4-N ) :   0.1006 B(  2-C ,  3-N ) :   1.2154
B(  2-C ,  6-H ) :   1.0337 B(  3-N ,  4-N ) :   1.0458 B(  4-N ,  5-C ) :   1.2154
B(  5-C ,  7-H ) :   1.0337

MP2 TOTAL ENERGY:     -295.566216526 Eh
FINAL SINGLE POINT ENERGY      -295.566216525729

DIPOLE MOMENT
-------------
                                X             Y             Z
Electronic contribution:     -0.00000      -0.00000       0.00000
Nuclear contribution   :      0.00000       0.00000      -0.00000
                        -----------------------------------------
Total Dipole Moment    :     -0.00000      -0.00000       0.00000
                        -----------------------------------------
Magnitude (a.u.)       :      0.00000
Magnitude (Debye)      :      0.00000

Rotational constants in cm-1:     0.228857     0.213006     0.110324
Rotational constants in MHz :  6860.969039  6385.760853  3307.420613

                             ****ORCA TERMINATED NORMALLY****
TOTAL RUN TIME: 0 days 0 hours 0 minutes 52 seconds 819 msec
