                         Program Version 5.0.3 -  RELEASE  -
|  1> !ri-mp2 aug-cc-pvdz aug-cc-pvdz/c tightscf
|  2> %pal nprocs 16 end
|  3>
|  4> * xyz 0 1
|  5> O    -0.027776    1.986911   -0.109462
|  6> N     0.447489    0.699855    0.009592
|  7> N     0.482610   -1.505368    0.002437
|  8> N    -2.871050   -0.377420    0.004695
|  9> C    -0.304395   -0.445800   -0.010178
| 10> C     1.764045    0.350395    0.006510
| 11> C     1.757719   -1.024291    0.007880
| 12> C    -1.719987   -0.424794   -0.008428
| 13> H    -0.325015    2.249084    0.774101
| 14> H     2.543576    1.089605   -0.002664
| 15> H     2.606018   -1.686508    0.012487
| 16> *
| 17>
| 18>                          ****END OF INPUT****

CARTESIAN COORDINATES (ANGSTROEM)
---------------------------------
  O     -0.027776    1.986911   -0.109462
  N      0.447489    0.699855    0.009592
  N      0.482610   -1.505368    0.002437
  N     -2.871050   -0.377420    0.004695
  C     -0.304395   -0.445800   -0.010178
  C      1.764045    0.350395    0.006510
  C      1.757719   -1.024291    0.007880
  C     -1.719987   -0.424794   -0.008428
  H     -0.325015    2.249084    0.774101
  H      2.543576    1.089605   -0.002664
  H      2.606018   -1.686508    0.012487

 Total Charge           Charge          ....    0
 Multiplicity           Mult            ....    1
 Number of Electrons    NEL             ....   56
 Basis Dimension        Dim             ....  211

ORBITAL ENERGIES
----------------

  NO   OCC          E(Eh)            E(eV)
   0   2.0000     -20.683934      -562.8385
   1   2.0000     -15.724194      -427.8771
   2   2.0000     -15.608279      -424.7229
   3   2.0000     -15.602210      -424.5577
   4   2.0000     -11.361843      -309.1715
   5   2.0000     -11.308752      -307.7268
   6   2.0000     -11.306923      -307.6770
   7   2.0000     -11.286094      -307.1102
   8   2.0000      -1.516722       -41.2721
   9   2.0000      -1.356823       -36.9210
  10   2.0000      -1.245759       -33.8988
  11   2.0000      -1.176150       -32.0047
  12   2.0000      -1.071585       -29.1593
  13   2.0000      -0.899728       -24.4828
  14   2.0000      -0.861308       -23.4374
  15   2.0000      -0.834441       -22.7063
  16   2.0000      -0.744695       -20.2642
  17   2.0000      -0.700508       -19.0618
  18   2.0000      -0.659042       -17.9334
  19   2.0000      -0.631377       -17.1807
  20   2.0000      -0.620316       -16.8797
  21   2.0000      -0.580608       -15.7991
  22   2.0000      -0.575748       -15.6669
  23   2.0000      -0.510064       -13.8795
  24   2.0000      -0.493728       -13.4350
  25   2.0000      -0.475235       -12.9318
  26   2.0000      -0.428475       -11.6594
  27   2.0000      -0.351029        -9.5520
  28   0.0000       0.021944         0.5971
  29   0.0000       0.035667         0.9706
  30   0.0000       0.046576         1.2674
  31   0.0000       0.066954         1.8219
  32   0.0000       0.079352         2.1593

MULLIKEN ATOMIC CHARGES
-----------------------
   0 O :   -0.661078
   1 N :   -0.182595
   2 N :   -0.762689
   3 N :   -0.275609
   4 C :    0.974617
   5 C :    0.891638
   6 C :    0.641887
   7 C :   -0.324785
   8 H :    0.182332
   9 H :   -0.259763
  10 H :   -0.223955
Sum of atomic charges:    0.0000000

LOEWDIN ATOMIC CHARGES
----------------------
   0 O :    0.226347
   1 N :   -0.137676
   2 N :    0.077736
   3 N :    0.105808
   4 C :   -0.248267
   5 C :    0.093834
   6 C :   -0.022635
   7 C :   -0.080903
   8 H :   -0.016308
   9 H :    0.008495
  10 H :   -0.006430

  Mayer bond orders larger than 0.100000
B(  0-O ,  1-N ) :   0.8052 B(  0-O ,  4-C ) :  -0.1205 B(  0-O ,  5-C ) :  -0.2413
B(  0-O ,  8-H ) :   1.0637 B(  1-N ,  4-C ) :   1.0336 B(  1-N ,  5-C ) :   1.0667
B(  2-N ,  4-C ) :   1.2961 B(  2-N ,  6-C ) :   1.0958 B(  2-N ,  7-C ) :   0.1467
B(  3-N ,  7-C ) :   2.6430 B(  4-C ,  7-C ) :   0.4881 B(  4-C ,  9-H ) :   0.1450
B(  4-C , 10-H ) :   0.1700 B(  5-C ,  6-C ) :   1.4046 B(  5-C ,  9-H ) :   0.7942
B(  5-C , 10-H ) :  -0.1122 B(  6-C , 10-H ) :   0.9132

MP2 TOTAL ENERGY:     -392.614368039 Eh
FINAL SINGLE POINT ENERGY      -392.614368039195

DIPOLE MOMENT
-------------
                                X             Y             Z
Electronic contribution:     -2.98775      -0.39988      -0.19261
Nuclear contribution   :      4.63999       1.61638       0.75421
                        -----------------------------------------
Total Dipole Moment    :      1.65223       1.21650       0.56161
                        -----------------------------------------
Magnitude (a.u.)       :      2.12724
Magnitude (Debye)      :      5.40701

Rotational constants in cm-1:     0.127442     0.068318     0.044658
Rotational constants in MHz :  3820.613769  2048.136224  1338.815406

                             ****ORCA TERMINATED NORMALLY****
TOTAL RUN TIME: 0 days 0 hours 0 minutes 50 seconds 429 msec
