                         Program Version 5.0.3 -  RELEASE  -
|  1> !ri-mp2 aug-cc-pvdz aug-cc-pvdz/c tightscf
|  2> %pal nprocs 16 end
|  3>
|  4> * xyz 0 1
|  5> C      1.064770    0.234648        0.000000
|  6> N      0.637569   -1.003032        0.000000
|  7> N     -0.722757   -0.922964        0.000000
|  8> N     -1.117376    0.298568        0.000000
|  9> N      0.000000    1.052457        0.000000
| 10> H      2.089591    0.560077        0.000000
| 11> H     -0.060257    2.056832        0.000000
| 12> *
| 13>
| 14>                          ****END OF INPUT****

CARTESIAN COORDINATES (ANGSTROEM)
---------------------------------
  C      1.064770    0.234648    0.000000
  N      0.637569   -1.003032    0.000000
  N     -0.722757   -0.922964    0.000000
  N     -1.117376    0.298568    0.000000
  N      0.000000    1.052457    0.000000
  H      2.089591    0.560077    0.000000
  H     -0.060257    2.056832    0.000000

 Total Charge           Charge          ....    0
 Multiplicity           Mult            ....    1
 Number of Electrons    NEL             ....   36
 Basis Dimension        Dim             ....  133

ORBITAL ENERGIES
----------------

  NO   OCC          E(Eh)            E(eV)
   0   2.0000     -15.689504      -426.9331
   1   2.0000     -15.673243      -426.4906
   2   2.0000     -15.657354      -426.0583
   3   2.0000     -15.613671      -424.8696
   4   2.0000     -11.346632      -308.7576
   5   2.0000      -1.502050       -40.8729
   6   2.0000      -1.260713       -34.3057
   7   2.0000      -1.203115       -32.7384
   8   2.0000      -0.911881       -24.8136
   9   2.0000      -0.893348       -24.3092
  10   2.0000      -0.803424       -21.8623
  11   2.0000      -0.680029       -18.5045
  12   2.0000      -0.679223       -18.4826
  13   2.0000      -0.572965       -15.5912
  14   2.0000      -0.481159       -13.0930
  15   2.0000      -0.475739       -12.9455
  16   2.0000      -0.456862       -12.4318
  17   2.0000      -0.422093       -11.4857
  18   0.0000       0.019310         0.5255
  19   0.0000       0.041596         1.1319
  20   0.0000       0.081202         2.2096
  21   0.0000       0.086409         2.3513
  22   0.0000       0.108982         2.9655

MULLIKEN ATOMIC CHARGES
-----------------------
   0 C :    1.150893
   1 N :   -0.454139
   2 N :   -0.241866
   3 N :   -0.159988
   4 N :   -0.205884
   5 H :   -0.099002
   6 H :    0.009985
Sum of atomic charges:   -0.0000000

LOEWDIN ATOMIC CHARGES
----------------------
   0 C :   -0.009766
   1 N :   -0.024308
   2 N :   -0.048358
   3 N :    0.005538
   4 N :    0.030555
   5 H :    0.011085
   6 H :    0.035254

  Mayer bond orders larger than 0.100000
B(  0-C ,  1-N ) :   1.3840 B(  0-C ,  4-N ) :   0.9801 B(  0-C ,  5-H ) :   0.9389
B(  1-N ,  2-N ) :   0.9361 B(  1-N ,  3-N ) :   0.1140 B(  2-N ,  3-N ) :   1.1964
B(  2-N ,  4-N ) :   0.1167 B(  3-N ,  4-N ) :   0.9969 B(  3-N ,  6-H ) :  -0.1241
B(  4-N ,  6-H ) :   1.1512

MP2 TOTAL ENERGY:     -257.613136439 Eh
FINAL SINGLE POINT ENERGY      -257.613136438558

DIPOLE MOMENT
-------------
                                X             Y             Z
Electronic contribution:     -0.90881      -0.59209       0.00000
Nuclear contribution   :      1.95171       2.52234       0.00000
                        -----------------------------------------
Total Dipole Moment    :      1.04290       1.93025       0.00000
                        -----------------------------------------
Magnitude (a.u.)       :      2.19397
Magnitude (Debye)      :      5.57662

Rotational constants in cm-1:     0.352715     0.346845     0.174877
Rotational constants in MHz : 10574.117452 10398.138191  5242.694748

                             ****ORCA TERMINATED NORMALLY****
TOTAL RUN TIME: 0 days 0 hours 0 minutes 38 seconds 891 msec
