                         Program Version 5.0.3 -  RELEASE  -
|  1> !ri-mp2 aug-cc-pvdz aug-cc-pvdz/c tightscf
|  2> %pal nprocs 16 end
|  3>
|  4> * xyz 0 1
|  5> F      2.208132    0.011420        0.000000
|  6> N     -2.522866   -0.216097        0.000001
|  7> C     -0.054551    0.505268        0.000000
|  8> C      0.934896   -0.381578        0.000000
|  9> C     -1.412545    0.093056        0.000000
| 10> H      0.158393    1.565950        0.000001
| 11> H      0.821683   -1.456525        0.000000
| 12> *
| 13>
| 14>                          ****END OF INPUT****

CARTESIAN COORDINATES (ANGSTROEM)
---------------------------------
  F      2.208132    0.011420    0.000000
  N     -2.522866   -0.216097    0.000001
  C     -0.054551    0.505268    0.000000
  C      0.934896   -0.381578    0.000000
  C     -1.412545    0.093056    0.000000
  H      0.158393    1.565950    0.000001
  H      0.821683   -1.456525    0.000000

 Total Charge           Charge          ....    0
 Multiplicity           Mult            ....    1
 Number of Electrons    NEL             ....   36
 Basis Dimension        Dim             ....  133

ORBITAL ENERGIES
----------------

  NO   OCC          E(Eh)            E(eV)
   0   2.0000     -26.367487      -717.4958
   1   2.0000     -15.596835      -424.4115
   2   2.0000     -11.392635      -310.0094
   3   2.0000     -11.305894      -307.6490
   4   2.0000     -11.301169      -307.5204
   5   2.0000      -1.680200       -45.7206
   6   2.0000      -1.241606       -33.7858
   7   2.0000      -1.121782       -30.5252
   8   2.0000      -0.915902       -24.9230
   9   2.0000      -0.806797       -21.9541
  10   2.0000      -0.758054       -20.6277
  11   2.0000      -0.734169       -19.9778
  12   2.0000      -0.687179       -18.6991
  13   2.0000      -0.614837       -16.7306
  14   2.0000      -0.571153       -15.5419
  15   2.0000      -0.532364       -14.4864
  16   2.0000      -0.482303       -13.1241
  17   2.0000      -0.404531       -11.0078
  18   0.0000       0.031194         0.8488
  19   0.0000       0.040178         1.0933
  20   0.0000       0.068331         1.8594
  21   0.0000       0.073304         1.9947
  22   0.0000       0.099473         2.7068

MULLIKEN ATOMIC CHARGES
-----------------------
   0 F :   -0.606416
   1 N :   -0.283073
   2 C :    0.779860
   3 C :    1.024852
   4 C :   -0.452116
   5 H :   -0.289792
   6 H :   -0.173316
Sum of atomic charges:    0.0000000

LOEWDIN ATOMIC CHARGES
----------------------
   0 F :    0.058377
   1 N :    0.081408
   2 C :   -0.026924
   3 C :    0.039502
   4 C :   -0.175014
   5 H :    0.010460
   6 H :    0.012192

  Mayer bond orders larger than 0.100000
B(  0-F ,  2-C ) :   0.2938 B(  0-F ,  3-C ) :   0.1632 B(  1-N ,  2-C ) :  -0.1388
B(  1-N ,  4-C ) :   2.7026 B(  2-C ,  3-C ) :   1.8420 B(  2-C ,  4-C ) :   0.6330
B(  2-C ,  5-H ) :   0.8367 B(  3-C ,  6-H ) :   0.9418

MP2 TOTAL ENERGY:     -269.402533943 Eh
FINAL SINGLE POINT ENERGY      -269.402533943399

DIPOLE MOMENT
-------------
                                X             Y             Z
Electronic contribution:      2.29091      -0.01696      -0.00000
Nuclear contribution   :     -1.15656       0.09218       0.00000
                        -----------------------------------------
Total Dipole Moment    :      1.13436       0.07523      -0.00000
                        -----------------------------------------
Magnitude (a.u.)       :      1.13685
Magnitude (Debye)      :      2.88964

Rotational constants in cm-1:     1.655734     0.077695     0.074212
Rotational constants in MHz : 49637.654004  2329.230334  2224.830888

                             ****ORCA TERMINATED NORMALLY****
TOTAL RUN TIME: 0 days 0 hours 0 minutes 34 seconds 205 msec
