                         Program Version 5.0.3 -  RELEASE  -
|  1> !ri-mp2 aug-cc-pvdz aug-cc-pvdz/c tightscf
|  2> %pal nprocs 16 end
|  3> %maxcore 3800
|  4>
|  5> * xyz 0 1
|  6> C     -3.194575   -0.313665    0.532954
|  7> C     -1.888732   -0.508814    1.083438
|  8> C     -3.009799    0.096865   -0.744869
|  9> C     -1.019311   -0.203012    0.091580
| 10> C      3.135362   -0.257975   -0.067413
| 11> C      2.506179    0.937102    0.061393
| 12> C      2.396422   -1.469775   -0.153237
| 13> C      1.044926   -1.406409   -0.107584
| 14> C      1.064931    1.048883    0.123453
| 15> N      0.385002   -0.209485    0.027326
| 16> O      0.429863    2.079331    0.252424
| 17> O     -1.682395    0.164204   -1.036752
| 18> H     -4.138874   -0.452415    1.029472
| 19> H     -1.631730   -0.812260    2.082940
| 20> H     -3.678984    0.370087   -1.539794
| 21> H      4.216627   -0.293566   -0.105985
| 22> H      3.049817    1.867462    0.131301
| 23> H      2.886862   -2.424324   -0.258784
| 24> H      0.409095   -2.276074   -0.174091
| 25> *
| 26>
| 27>                          ****END OF INPUT****

CARTESIAN COORDINATES (ANGSTROEM)
---------------------------------
  C     -3.194575   -0.313665    0.532954
  C     -1.888732   -0.508814    1.083438
  C     -3.009799    0.096865   -0.744869
  C     -1.019311   -0.203012    0.091580
  C      3.135362   -0.257975   -0.067413
  C      2.506179    0.937102    0.061393
  C      2.396422   -1.469775   -0.153237
  C      1.044926   -1.406409   -0.107584
  C      1.064931    1.048883    0.123453
  N      0.385002   -0.209485    0.027326
  O      0.429863    2.079331    0.252424
  O     -1.682395    0.164204   -1.036752
  H     -4.138874   -0.452415    1.029472
  H     -1.631730   -0.812260    2.082940
  H     -3.678984    0.370087   -1.539794
  H      4.216627   -0.293566   -0.105985
  H      3.049817    1.867462    0.131301
  H      2.886862   -2.424324   -0.258784
  H      0.409095   -2.276074   -0.174091

 Total Charge           Charge          ....    0
 Multiplicity           Mult            ....    1
 Number of Electrons    NEL             ....   84
 Basis Dimension        Dim             ....  339

ORBITAL ENERGIES
----------------

  NO   OCC          E(Eh)            E(eV)
   0   2.0000     -20.641171      -561.6748
   1   2.0000     -20.529426      -558.6341
   2   2.0000     -15.643783      -425.6890
   3   2.0000     -11.367445      -309.3239
   4   2.0000     -11.340233      -308.5834
   5   2.0000     -11.317814      -307.9734
   6   2.0000     -11.302288      -307.5509
   7   2.0000     -11.280517      -306.9585
   8   2.0000     -11.248511      -306.0875
   9   2.0000     -11.247981      -306.0731
  10   2.0000     -11.247765      -306.0672
  11   2.0000     -11.243306      -305.9459
  12   2.0000      -1.479786       -40.2670
  13   2.0000      -1.391774       -37.8721
  14   2.0000      -1.295867       -35.2623
  15   2.0000      -1.129942       -30.7473
  16   2.0000      -1.098996       -29.9052
  17   2.0000      -1.038294       -28.2534
  18   2.0000      -1.008182       -27.4340
  19   2.0000      -0.895315       -24.3628
  20   2.0000      -0.870919       -23.6989
  21   2.0000      -0.826560       -22.4918
  22   2.0000      -0.795123       -21.6364
  23   2.0000      -0.760877       -20.7045
  24   2.0000      -0.709549       -19.3078
  25   2.0000      -0.699654       -19.0386
  26   2.0000      -0.667007       -18.1502
  27   2.0000      -0.641801       -17.4643
  28   2.0000      -0.638774       -17.3819
  29   2.0000      -0.620758       -16.8917
  30   2.0000      -0.617467       -16.8021
  31   2.0000      -0.585913       -15.9435
  32   2.0000      -0.574125       -15.6227
  33   2.0000      -0.566956       -15.4277
  34   2.0000      -0.555991       -15.1293
  35   2.0000      -0.542252       -14.7554
  36   2.0000      -0.491578       -13.3765
  37   2.0000      -0.431683       -11.7467
  38   2.0000      -0.428996       -11.6736
  39   2.0000      -0.407155       -11.0792
  40   2.0000      -0.331154        -9.0112
  41   2.0000      -0.315846        -8.5946
  42   0.0000       0.028948         0.7877
  43   0.0000       0.034916         0.9501
  44   0.0000       0.042030         1.1437
  45   0.0000       0.044747         1.2176
  46   0.0000       0.052130         1.4185

MULLIKEN ATOMIC CHARGES
-----------------------
   0 C :    0.639903
   1 C :    0.691516
   2 C :    0.625084
   3 C :    0.570554
   4 C :    0.098990
   5 C :    0.906865
   6 C :    0.517443
   7 C :    0.889978
   8 C :    0.414788
   9 N :   -0.680203
  10 O :   -0.816837
  11 O :   -0.917924
  12 H :   -0.308269
  13 H :   -0.427371
  14 H :   -0.337597
  15 H :   -0.404255
  16 H :   -0.506049
  17 H :   -0.453496
  18 H :   -0.503119
Sum of atomic charges:    0.0000000

LOEWDIN ATOMIC CHARGES
----------------------
   0 C :    0.008229
   1 C :    0.072006
   2 C :    0.027820
   3 C :   -0.197356
   4 C :    0.026412
   5 C :    0.076695
   6 C :    0.005696
   7 C :    0.077544
   8 C :   -0.276102
   9 N :   -0.014616
  10 O :    0.035359
  11 O :    0.124005
  12 H :   -0.008073
  13 H :    0.005457
  14 H :   -0.005585
  15 H :    0.013576
  16 H :    0.006534
  17 H :   -0.004801
  18 H :    0.027199

  Mayer bond orders larger than 0.100000
B(  0-C ,  1-C ) :   1.5227 B(  0-C ,  2-C ) :   1.6749 B(  0-C ,  3-C ) :  -0.3050
B(  0-C , 12-H ) :   0.5787 B(  0-C , 14-H ) :  -0.1344 B(  1-C ,  3-C ) :   1.8300
B(  1-C ,  7-C ) :   0.1016 B(  1-C ,  9-N ) :  -0.2089 B(  1-C , 11-O ) :   0.1986
B(  1-C , 12-H ) :   0.1294 B(  1-C , 13-H ) :   0.1853 B(  2-C ,  3-C ) :   0.2010
B(  2-C , 11-O ) :   0.6229 B(  2-C , 14-H ) :   0.9198 B(  3-C ,  8-C ) :  -0.1009
B(  3-C ,  9-N ) :   1.1456 B(  3-C , 13-H ) :   0.6236 B(  3-C , 14-H ) :   0.2736
B(  4-C ,  5-C ) :   1.9154 B(  4-C ,  6-C ) :   1.4772 B(  4-C ,  7-C ) :   0.1031
B(  4-C ,  8-C ) :   0.1688 B(  4-C , 15-H ) :   0.4406 B(  4-C , 16-H ) :   0.2772
B(  4-C , 17-H ) :   0.2930 B(  5-C ,  7-C ) :   0.1436 B(  5-C ,  8-C ) :   1.0384
B(  5-C , 15-H ) :   0.1208 B(  5-C , 16-H ) :   0.1360 B(  6-C ,  7-C ) :   2.0244
B(  6-C ,  9-N ) :  -0.1494 B(  6-C , 15-H ) :   0.1589 B(  6-C , 17-H ) :   0.2363
B(  6-C , 18-H ) :   0.2432 B(  7-C ,  8-C ) :   0.1048 B(  7-C ,  9-N ) :   0.9737
B(  7-C , 17-H ) :   0.2028 B(  7-C , 18-H ) :   0.2969 B(  8-C ,  9-N ) :   0.9546
B(  8-C , 10-O ) :   1.1370 B(  8-C , 16-H ) :   0.4153 B(  9-N , 11-O ) :   0.2627
B(  9-N , 13-H ) :  -0.1127 B( 11-O , 14-H ) :  -0.1414

MP2 TOTAL ENERGY:     -550.854041198 Eh
FINAL SINGLE POINT ENERGY      -550.854041198243

DIPOLE MOMENT
-------------
                                X             Y             Z
Electronic contribution:     -0.80233       2.21737      -1.02605
Nuclear contribution   :      1.07221      -3.90279       1.12852
                        -----------------------------------------
Total Dipole Moment    :      0.26988      -1.68542       0.10246
                        -----------------------------------------
Magnitude (a.u.)       :      1.70996
Magnitude (Debye)      :      4.34638

Rotational constants in cm-1:     0.077979     0.022572     0.019584
Rotational constants in MHz :  2337.740547   676.680980   587.116801

                             ****ORCA TERMINATED NORMALLY****
TOTAL RUN TIME: 0 days 0 hours 2 minutes 24 seconds 36 msec
