                         Program Version 5.0.3 -  RELEASE  -
|  1> !ri-mp2 aug-cc-pvdz aug-cc-pvdz/c tightscf
|  2> %pal nprocs 16 end
|  3>
|  4> * xyz 0 1
|  5> C     0.000000     1.292045       0.000000
|  6> N     1.184015     0.683592       0.000000
|  7> N    -1.184015     0.683592       0.000000
|  8> C     1.118944    -0.646022       0.000000
|  9> C    -1.118944    -0.646022       0.000000
| 10> N     0.000000    -1.367183       0.000000
| 11> H     0.000000     2.376108       0.000000
| 12> H    -2.057770    -1.188054       0.000000
| 13> H     2.057770    -1.188054       0.000000
| 14> *
| 15>
| 16>                          ****END OF INPUT****

CARTESIAN COORDINATES (ANGSTROEM)
---------------------------------
  C      0.000000    1.292045    0.000000
  N      1.184015    0.683592    0.000000
  N     -1.184015    0.683592    0.000000
  C      1.118944   -0.646022    0.000000
  C     -1.118944   -0.646022    0.000000
  N      0.000000   -1.367183    0.000000
  H      0.000000    2.376108    0.000000
  H     -2.057770   -1.188054    0.000000
  H      2.057770   -1.188054    0.000000

 Total Charge           Charge          ....    0
 Multiplicity           Mult            ....    1
 Number of Electrons    NEL             ....   42
 Basis Dimension        Dim             ....  165

ORBITAL ENERGIES
----------------

  NO   OCC          E(Eh)            E(eV)
   0   2.0000     -15.595916      -424.3865
   1   2.0000     -15.595916      -424.3864
   2   2.0000     -15.595871      -424.3852
   3   2.0000     -11.349542      -308.8367
   4   2.0000     -11.349542      -308.8367
   5   2.0000     -11.349532      -308.8365
   6   2.0000      -1.371311       -37.3153
   7   2.0000      -1.222079       -33.2545
   8   2.0000      -1.222079       -33.2545
   9   2.0000      -0.936625       -25.4869
  10   2.0000      -0.936625       -25.4869
  11   2.0000      -0.765069       -20.8186
  12   2.0000      -0.751025       -20.4364
  13   2.0000      -0.618088       -16.8190
  14   2.0000      -0.618088       -16.8190
  15   2.0000      -0.614737       -16.7278
  16   2.0000      -0.578030       -15.7290
  17   2.0000      -0.441311       -12.0087
  18   2.0000      -0.441311       -12.0087
  19   2.0000      -0.440931       -11.9983
  20   2.0000      -0.440931       -11.9983
  21   0.0000       0.034807         0.9472
  22   0.0000       0.045855         1.2478
  23   0.0000       0.045855         1.2478
  24   0.0000       0.077097         2.0979
  25   0.0000       0.077579         2.1110

MULLIKEN ATOMIC CHARGES
-----------------------
   0 C :    0.769590
   1 N :   -0.630886
   2 N :   -0.630886
   3 C :    0.769591
   4 C :    0.769591
   5 N :   -0.630888
   6 H :   -0.138705
   7 H :   -0.138704
   8 H :   -0.138704
Sum of atomic charges:   -0.0000000

LOEWDIN ATOMIC CHARGES
----------------------
   0 C :   -0.051963
   1 N :    0.040798
   2 N :    0.040798
   3 C :   -0.051962
   4 C :   -0.051962
   5 N :    0.040798
   6 H :    0.011165
   7 H :    0.011165
   8 H :    0.011165

  Mayer bond orders larger than 0.100000
B(  0-C ,  1-N ) :   1.2371 B(  0-C ,  2-N ) :   1.2371 B(  0-C ,  6-H ) :   1.0497
B(  1-N ,  3-C ) :   1.2371 B(  2-N ,  4-C ) :   1.2371 B(  3-C ,  5-N ) :   1.2371
B(  3-C ,  8-H ) :   1.0497 B(  4-C ,  5-N ) :   1.2371 B(  4-C ,  7-H ) :   1.0497

MP2 TOTAL ENERGY:     -279.617633466 Eh
FINAL SINGLE POINT ENERGY      -279.617633466121

DIPOLE MOMENT
-------------
                                X             Y             Z
Electronic contribution:      0.00000       0.00000       0.00000
Nuclear contribution   :      0.00000      -0.00000       0.00000
                        -----------------------------------------
Total Dipole Moment    :      0.00000      -0.00000       0.00000
                        -----------------------------------------
Magnitude (a.u.)       :      0.00000
Magnitude (Debye)      :      0.00000

Rotational constants in cm-1:     0.216441     0.216441     0.108221
Rotational constants in MHz :  6488.742963  6488.742506  3244.371367

                             ****ORCA TERMINATED NORMALLY****
TOTAL RUN TIME: 0 days 0 hours 0 minutes 44 seconds 954 msec
