                         Program Version 5.0.3 -  RELEASE  -
|  1> !ri-mp2 aug-cc-pvdz aug-cc-pvdz/c tightscf
|  2> %pal nprocs 16 end
|  3>
|  4> * xyz 0 1
|  5> C     0.000000    1.600757     0.401027
|  6> C     1.386296   -0.800378     0.401027
|  7> C    -1.386296   -0.800378     0.401027
|  8> S     1.549588    0.894655    -0.250561
|  9> S    -1.549588    0.894655    -0.250561
| 10> S     0.000000   -1.789310    -0.250561
| 11> H     0.000000    1.541440     1.489315
| 12> H     0.000000    2.649012     0.113501
| 13> H     2.294111   -1.324506     0.113501
| 14> H     1.334926   -0.770720     1.489315
| 15> H    -1.334926   -0.770720     1.489315
| 16> H    -2.294111   -1.324506     0.113501
| 17> *
| 18>
| 19>                          ****END OF INPUT****

CARTESIAN COORDINATES (ANGSTROEM)
---------------------------------
  C      0.000000    1.600757    0.401027
  C      1.386296   -0.800378    0.401027
  C     -1.386296   -0.800378    0.401027
  S      1.549588    0.894655   -0.250561
  S     -1.549588    0.894655   -0.250561
  S      0.000000   -1.789310   -0.250561
  H      0.000000    1.541440    1.489315
  H      0.000000    2.649012    0.113501
  H      2.294111   -1.324506    0.113501
  H      1.334926   -0.770720    1.489315
  H     -1.334926   -0.770720    1.489315
  H     -2.294111   -1.324506    0.113501

 Total Charge           Charge          ....    0
 Multiplicity           Mult            ....    1
 Number of Electrons    NEL             ....   72
 Basis Dimension        Dim             ....  204

ORBITAL ENERGIES
----------------

  NO   OCC          E(Eh)            E(eV)
   0   2.0000     -91.967039     -2502.5504
   1   2.0000     -91.967039     -2502.5504
   2   2.0000     -91.967038     -2502.5503
   3   2.0000     -11.306027      -307.6526
   4   2.0000     -11.306027      -307.6526
   5   2.0000     -11.306007      -307.6521
   6   2.0000      -8.968518      -244.0458
   7   2.0000      -8.968518      -244.0458
   8   2.0000      -8.968491      -244.0451
   9   2.0000      -6.650331      -180.9647
  10   2.0000      -6.650329      -180.9646
  11   2.0000      -6.650329      -180.9646
  12   2.0000      -6.648982      -180.9280
  13   2.0000      -6.648981      -180.9280
  14   2.0000      -6.648981      -180.9280
  15   2.0000      -6.646839      -180.8697
  16   2.0000      -6.646839      -180.8697
  17   2.0000      -6.646839      -180.8697
  18   2.0000      -1.130123       -30.7522
  19   2.0000      -1.039203       -28.2782
  20   2.0000      -1.039203       -28.2782
  21   2.0000      -0.867838       -23.6151
  22   2.0000      -0.867838       -23.6151
  23   2.0000      -0.771480       -20.9930
  24   2.0000      -0.658653       -17.9229
  25   2.0000      -0.618401       -16.8275
  26   2.0000      -0.618401       -16.8275
  27   2.0000      -0.552881       -15.0447
  28   2.0000      -0.543588       -14.7918
  29   2.0000      -0.528912       -14.3924
  30   2.0000      -0.528912       -14.3924
  31   2.0000      -0.444904       -12.1065
  32   2.0000      -0.444904       -12.1065
  33   2.0000      -0.364734        -9.9249
  34   2.0000      -0.343176        -9.3383
  35   2.0000      -0.343176        -9.3383
  36   0.0000       0.035156         0.9566
  37   0.0000       0.043968         1.1964
  38   0.0000       0.043968         1.1964
  39   0.0000       0.049211         1.3391
  40   0.0000       0.070399         1.9157

MULLIKEN ATOMIC CHARGES
-----------------------
   0 C :   -0.375785
   1 C :   -0.375784
   2 C :   -0.375784
   3 S :    0.440312
   4 S :    0.440312
   5 S :    0.440312
   6 H :   -0.011316
   7 H :   -0.053212
   8 H :   -0.053212
   9 H :   -0.011316
  10 H :   -0.011316
  11 H :   -0.053212
Sum of atomic charges:    0.0000000

LOEWDIN ATOMIC CHARGES
----------------------
   0 C :   -0.595844
   1 C :   -0.595845
   2 C :   -0.595845
   3 S :    0.761647
   4 S :    0.761647
   5 S :    0.761647
   6 H :   -0.079646
   7 H :   -0.086156
   8 H :   -0.086156
   9 H :   -0.079646
  10 H :   -0.079646
  11 H :   -0.086156

  Mayer bond orders larger than 0.100000
B(  0-C ,  3-S ) :   1.0558 B(  0-C ,  4-S ) :   1.0558 B(  0-C ,  6-H ) :   1.0680
B(  0-C ,  7-H ) :   0.9534 B(  1-C ,  3-S ) :   1.0558 B(  1-C ,  5-S ) :   1.0558
B(  1-C ,  8-H ) :   0.9534 B(  1-C ,  9-H ) :   1.0680 B(  2-C ,  4-S ) :   1.0558
B(  2-C ,  5-S ) :   1.0558 B(  2-C , 10-H ) :   1.0680 B(  2-C , 11-H ) :   0.9534

MP2 TOTAL ENERGY:    -1310.559210640 Eh
FINAL SINGLE POINT ENERGY     -1310.559210640482

DIPOLE MOMENT
-------------
                                X             Y             Z
Electronic contribution:     -0.00000       0.00000      -3.79630
Nuclear contribution   :     -0.00000      -0.00000       4.72542
                        -----------------------------------------
Total Dipole Moment    :     -0.00000       0.00000       0.92911
                        -----------------------------------------
Magnitude (a.u.)       :      0.92911
Magnitude (Debye)      :      2.36161

Rotational constants in cm-1:     0.072429     0.072429     0.039325
Rotational constants in MHz :  2171.361614  2171.361488  1178.947884

                             ****ORCA TERMINATED NORMALLY****
TOTAL RUN TIME: 0 days 0 hours 0 minutes 53 seconds 927 msec
