                         Program Version 5.0.3 -  RELEASE  -
|  1> !ri-mp2 aug-cc-pvdz aug-cc-pvdz/c tightscf
|  2> %pal nprocs 16 end
|  3>
|  4> * xyz 0 1
|  5> C      0.635171   -0.982628        0.000000
|  6> C      1.116435    0.296921        0.000000
|  7> C     -1.089077    0.282717        0.000000
|  8> N     -0.739829   -0.979874        0.000000
|  9> N      0.000000    1.101780        0.000000
| 10> H      1.196253   -1.901176        0.000000
| 11> H      2.113523    0.697918        0.000000
| 12> H     -2.097453    0.661493        0.000000
| 13> H     -0.008690    2.106362        0.000000
| 14> *
| 15>
| 16>                          ****END OF INPUT****

CARTESIAN COORDINATES (ANGSTROEM)
---------------------------------
  C      0.635171   -0.982628    0.000000
  C      1.116435    0.296921    0.000000
  C     -1.089077    0.282717    0.000000
  N     -0.739829   -0.979874    0.000000
  N      0.000000    1.101780    0.000000
  H      1.196253   -1.901176    0.000000
  H      2.113523    0.697918    0.000000
  H     -2.097453    0.661493    0.000000
  H     -0.008690    2.106362    0.000000

 Total Charge           Charge          ....    0
 Multiplicity           Mult            ....    1
 Number of Electrons    NEL             ....   36
 Basis Dimension        Dim             ....  151

ORBITAL ENERGIES
----------------

  NO   OCC          E(Eh)            E(eV)
   0   2.0000     -15.629951      -425.3126
   1   2.0000     -15.553373      -423.2288
   2   2.0000     -11.303507      -307.5841
   3   2.0000     -11.267720      -306.6103
   4   2.0000     -11.249436      -306.1127
   5   2.0000      -1.346567       -36.6420
   6   2.0000      -1.170893       -31.8616
   7   2.0000      -1.011816       -27.5329
   8   2.0000      -0.831522       -22.6269
   9   2.0000      -0.802110       -21.8265
  10   2.0000      -0.761025       -20.7085
  11   2.0000      -0.611346       -16.6356
  12   2.0000      -0.603769       -16.4294
  13   2.0000      -0.599233       -16.3060
  14   2.0000      -0.572921       -15.5900
  15   2.0000      -0.436976       -11.8907
  16   2.0000      -0.400388       -10.8951
  17   2.0000      -0.322206        -8.7677
  18   0.0000       0.026453         0.7198
  19   0.0000       0.041486         1.1289
  20   0.0000       0.049986         1.3602
  21   0.0000       0.061810         1.6819
  22   0.0000       0.089047         2.4231

MULLIKEN ATOMIC CHARGES
-----------------------
   0 C :    0.509336
   1 C :    0.695461
   2 C :    0.763286
   3 N :   -0.787046
   4 N :   -0.538230
   5 H :   -0.193584
   6 H :   -0.238074
   7 H :   -0.114221
   8 H :   -0.096926
Sum of atomic charges:   -0.0000000

LOEWDIN ATOMIC CHARGES
----------------------
   0 C :   -0.055680
   1 C :    0.020204
   2 C :   -0.037214
   3 N :    0.005442
   4 N :    0.063869
   5 H :   -0.015156
   6 H :   -0.010889
   7 H :    0.002164
   8 H :    0.027260

  Mayer bond orders larger than 0.100000
B(  0-C ,  1-C ) :   1.6037 B(  0-C ,  3-N ) :   0.9997 B(  0-C ,  5-H ) :   0.9850
B(  1-C ,  4-N ) :   0.8416 B(  1-C ,  6-H ) :   0.9081 B(  1-C ,  8-H ) :  -0.1533
B(  2-C ,  3-N ) :   1.5063 B(  2-C ,  4-N ) :   1.0476 B(  2-C ,  7-H ) :   1.0002
B(  2-C ,  8-H ) :  -0.1043 B(  4-N ,  8-H ) :   1.2292

MP2 TOTAL ENERGY:     -225.598189615 Eh
FINAL SINGLE POINT ENERGY      -225.598189614568

DIPOLE MOMENT
-------------
                                X             Y             Z
Electronic contribution:     -0.77198      -0.10293      -0.00000
Nuclear contribution   :      1.19104       1.55454       0.00000
                        -----------------------------------------
Total Dipole Moment    :      0.41906       1.45161      -0.00000
                        -----------------------------------------
Magnitude (a.u.)       :      1.51089
Magnitude (Debye)      :      3.84037

Rotational constants in cm-1:     0.325855     0.315477     0.160291
Rotational constants in MHz :  9768.887108  9457.776424  4805.407346

                             ****ORCA TERMINATED NORMALLY****
TOTAL RUN TIME: 0 days 0 hours 0 minutes 38 seconds 260 msec
