                         Program Version 5.0.3 -  RELEASE  -
|  1> !ri-mp2 aug-cc-pvdz aug-cc-pvdz/c tightscf
|  2> %pal nprocs 16 end
|  3>
|  4> * xyz 0 1
|  5> O     -1.586677    0.242823   -0.452011
|  6> O      2.127839   -0.895530    1.082740
|  7> O      2.980961    0.036614   -0.679653
|  8> O     -3.549446   -0.597000   -0.150032
|  9> N      2.051118   -0.418864   -0.038076
| 10> N     -2.519406   -0.492165    0.375228
| 11> C     -0.310700    0.372479    0.201478
| 12> C      0.684193   -0.397131   -0.672929
| 13> C      0.022761    1.846227    0.352622
| 14> H     -0.376425   -0.112909    1.175395
| 15> H      0.382088   -1.438003   -0.762724
| 16> H      0.800672    0.053603   -1.652876
| 17> H      0.997303    1.974383    0.824190
| 18> H     -0.723135    2.333423    0.978516
| 19> H      0.038585    2.342002   -0.617938
| 20> *
| 21>
| 22>                          ****END OF INPUT****

CARTESIAN COORDINATES (ANGSTROEM)
---------------------------------
  O     -1.586677    0.242823   -0.452011
  O      2.127839   -0.895530    1.082740
  O      2.980961    0.036614   -0.679653
  O     -3.549446   -0.597000   -0.150032
  N      2.051118   -0.418864   -0.038076
  N     -2.519406   -0.492165    0.375228
  C     -0.310700    0.372479    0.201478
  C      0.684193   -0.397131   -0.672929
  C      0.022761    1.846227    0.352622
  H     -0.376425   -0.112909    1.175395
  H      0.382088   -1.438003   -0.762724
  H      0.800672    0.053603   -1.652876
  H      0.997303    1.974383    0.824190
  H     -0.723135    2.333423    0.978516
  H      0.038585    2.342002   -0.617938

 Total Charge           Charge          ....    0
 Multiplicity           Mult            ....    1
 Number of Electrons    NEL             ....   70
 Basis Dimension        Dim             ....  261

ORBITAL ENERGIES
----------------

  NO   OCC          E(Eh)            E(eV)
   0   2.0000     -20.691986      -563.0576
   1   2.0000     -20.651208      -561.9479
   2   2.0000     -20.629401      -561.3546
   3   2.0000     -20.625210      -561.2405
   4   2.0000     -15.867858      -431.7864
   5   2.0000     -15.819463      -430.4695
   6   2.0000     -11.340294      -308.5851
   7   2.0000     -11.327126      -308.2268
   8   2.0000     -11.254602      -306.2533
   9   2.0000      -1.632853       -44.4322
  10   2.0000      -1.626214       -44.2515
  11   2.0000      -1.423111       -38.7248
  12   2.0000      -1.420716       -38.6597
  13   2.0000      -1.142532       -31.0899
  14   2.0000      -1.042696       -28.3732
  15   2.0000      -0.961883       -26.1742
  16   2.0000      -0.905119       -24.6295
  17   2.0000      -0.845476       -23.0066
  18   2.0000      -0.786164       -21.3926
  19   2.0000      -0.761861       -20.7313
  20   2.0000      -0.755240       -20.5511
  21   2.0000      -0.747210       -20.3326
  22   2.0000      -0.723650       -19.6915
  23   2.0000      -0.701797       -19.0969
  24   2.0000      -0.654832       -17.8189
  25   2.0000      -0.630713       -17.1626
  26   2.0000      -0.609160       -16.5761
  27   2.0000      -0.584656       -15.9093
  28   2.0000      -0.556075       -15.1316
  29   2.0000      -0.535316       -14.5667
  30   2.0000      -0.510317       -13.8864
  31   2.0000      -0.505824       -13.7642
  32   2.0000      -0.485378       -13.2078
  33   2.0000      -0.467519       -12.7218
  34   2.0000      -0.462847       -12.5947
  35   0.0000       0.035151         0.9565
  36   0.0000       0.038875         1.0578
  37   0.0000       0.046338         1.2609
  38   0.0000       0.061439         1.6718
  39   0.0000       0.062952         1.7130

MULLIKEN ATOMIC CHARGES
-----------------------
   0 O :   -0.968300
   1 O :   -0.818444
   2 O :   -0.788859
   3 O :   -0.492880
   4 N :    0.795745
   5 N :    0.657192
   6 C :    0.271827
   7 C :    1.124752
   8 C :    0.530901
   9 H :   -0.071268
  10 H :   -0.070319
  11 H :   -0.126130
  12 H :    0.008369
  13 H :   -0.057631
  14 H :    0.005045
Sum of atomic charges:   -0.0000000

LOEWDIN ATOMIC CHARGES
----------------------
   0 O :   -0.004128
   1 O :    0.086790
   2 O :    0.092089
   3 O :    0.062097
   4 N :   -0.367587
   5 N :    0.035306
   6 C :   -0.256551
   7 C :    0.112556
   8 C :    0.174397
   9 H :    0.016709
  10 H :    0.034665
  11 H :    0.028416
  12 H :   -0.005819
  13 H :   -0.005754
  14 H :   -0.003188

  Mayer bond orders larger than 0.100000
B(  0-O ,  5-N ) :   0.8918 B(  0-O ,  6-C ) :   0.2232 B(  1-O ,  2-O ) :   0.2088
B(  1-O ,  4-N ) :   1.0907 B(  2-O ,  4-N ) :   1.1942 B(  3-O ,  5-N ) :   1.5215
B(  4-N ,  7-C ) :   0.5913 B(  5-N ,  6-C ) :  -0.1394 B(  6-C ,  7-C ) :   1.2325
B(  6-C ,  8-C ) :   1.3367 B(  6-C ,  9-H ) :   0.7697 B(  6-C , 10-H ) :   0.1257
B(  6-C , 13-H ) :   0.1434 B(  6-C , 14-H ) :   0.1227 B(  7-C ,  8-C ) :  -0.1351
B(  7-C , 10-H ) :   0.8217 B(  7-C , 11-H ) :   0.7943 B(  8-C , 12-H ) :   0.8873
B(  8-C , 13-H ) :   0.8292 B(  8-C , 14-H ) :   0.8923 B( 10-H , 11-H ) :  -0.1483

MP2 TOTAL ENERGY:     -526.883163162 Eh
FINAL SINGLE POINT ENERGY      -526.883163162183

DIPOLE MOMENT
-------------
                                X             Y             Z
Electronic contribution:     -1.79619      -4.75772      -0.12053
Nuclear contribution   :      1.09405       5.02761      -0.05549
                        -----------------------------------------
Total Dipole Moment    :     -0.70213       0.26989      -0.17602
                        -----------------------------------------
Magnitude (a.u.)       :      0.77254
Magnitude (Debye)      :      1.96363

Rotational constants in cm-1:     0.127083     0.025572     0.024065
Rotational constants in MHz :  3809.845660   766.628077   721.447337

                             ****ORCA TERMINATED NORMALLY****
TOTAL RUN TIME: 0 days 0 hours 1 minutes 21 seconds 447 msec
