                         Program Version 5.0.3 -  RELEASE  -
|  1> !ri-mp2 aug-cc-pvdz aug-cc-pvdz/c tightscf
|  2> %pal nprocs 16 end
|  3>
|  4> * xyz 0 1
|  5> C      1.897976   -0.126622    0.018618
|  6> C      0.516931    0.524551   -0.044771
|  7> C     -0.613059   -0.494853    0.024012
|  8> O     -1.909274    0.090322   -0.086974
|  9> H      2.048829   -0.814819   -0.815272
| 10> H      2.688867    0.622294   -0.024744
| 11> H      2.029572   -0.693014    0.942713
| 12> H      0.411143    1.099907   -0.967085
| 13> H      0.407044    1.234976    0.781380
| 14> H     -0.541025   -1.193082   -0.811207
| 15> H     -0.535151   -1.082893    0.946811
| 16> H     -2.046169    0.685602    0.656039
| 17> *
| 18>
| 19>                          ****END OF INPUT****

CARTESIAN COORDINATES (ANGSTROEM)
---------------------------------
  C      1.897976   -0.126622    0.018618
  C      0.516931    0.524551   -0.044771
  C     -0.613059   -0.494853    0.024012
  O     -1.909274    0.090322   -0.086974
  H      2.048829   -0.814819   -0.815272
  H      2.688867    0.622294   -0.024744
  H      2.029572   -0.693014    0.942713
  H      0.411143    1.099907   -0.967085
  H      0.407044    1.234976    0.781380
  H     -0.541025   -1.193082   -0.811207
  H     -0.535151   -1.082893    0.946811
  H     -2.046169    0.685602    0.656039

 Total Charge           Charge          ....    0
 Multiplicity           Mult            ....    1
 Number of Electrons    NEL             ....   34
 Basis Dimension        Dim             ....  164

ORBITAL ENERGIES
----------------

  NO   OCC          E(Eh)            E(eV)
   0   2.0000     -20.564214      -559.5807
   1   2.0000     -11.278547      -306.9049
   2   2.0000     -11.229084      -305.5589
   3   2.0000     -11.226049      -305.4763
   4   2.0000      -1.357541       -36.9406
   5   2.0000      -1.055471       -28.7208
   6   2.0000      -0.918944       -25.0057
   7   2.0000      -0.817895       -22.2561
   8   2.0000      -0.690192       -18.7811
   9   2.0000      -0.633003       -17.2249
  10   2.0000      -0.596348       -16.2275
  11   2.0000      -0.586242       -15.9525
  12   2.0000      -0.545026       -14.8309
  13   2.0000      -0.501198       -13.6383
  14   2.0000      -0.499731       -13.5984
  15   2.0000      -0.470754       -12.8099
  16   2.0000      -0.435960       -11.8631
  17   0.0000       0.035621         0.9693
  18   0.0000       0.044005         1.1974
  19   0.0000       0.047917         1.3039
  20   0.0000       0.052141         1.4188
  21   0.0000       0.072016         1.9597

MULLIKEN ATOMIC CHARGES
-----------------------
   0 C :    0.350800
   1 C :   -0.017589
   2 C :    0.985594
   3 O :   -0.704143
   4 H :   -0.060621
   5 H :   -0.092039
   6 H :   -0.061577
   7 H :   -0.053247
   8 H :   -0.124051
   9 H :   -0.204017
  10 H :   -0.145097
  11 H :    0.125987
Sum of atomic charges:   -0.0000000

LOEWDIN ATOMIC CHARGES
----------------------
   0 C :    0.130508
   1 C :   -0.077540
   2 C :   -0.058988
   3 O :    0.107669
   4 H :   -0.019539
   5 H :   -0.021372
   6 H :   -0.020830
   7 H :    0.012867
   8 H :    0.007552
   9 H :    0.002972
  10 H :    0.003827
  11 H :   -0.067124

  Mayer bond orders larger than 0.100000
B(  0-C ,  1-C ) :   1.2298 B(  0-C ,  4-H ) :   0.9416 B(  0-C ,  5-H ) :   0.9065
B(  0-C ,  6-H ) :   0.9488 B(  1-C ,  2-C ) :   1.2489 B(  1-C ,  3-O ) :   0.1241
B(  1-C ,  7-H ) :   0.8275 B(  1-C ,  8-H ) :   0.8057 B(  2-C ,  3-O ) :   0.4275
B(  2-C ,  9-H ) :   0.9096 B(  2-C , 10-H ) :   0.8968 B(  3-O , 11-H ) :   1.0776
B(  9-H , 10-H ) :  -0.1022

MP2 TOTAL ENERGY:     -193.800004657 Eh
FINAL SINGLE POINT ENERGY      -193.800004657365

DIPOLE MOMENT
-------------
                                X             Y             Z
Electronic contribution:     -4.16348       0.29684      -0.27739
Nuclear contribution   :      4.71026      -0.14834       0.75150
                        -----------------------------------------
Total Dipole Moment    :      0.54678       0.14850       0.47410
                        -----------------------------------------
Magnitude (a.u.)       :      0.73878
Magnitude (Debye)      :      1.87783

Rotational constants in cm-1:     0.877206     0.124807     0.117242
Rotational constants in MHz : 26297.961328  3741.627396  3514.829443

                             ****ORCA TERMINATED NORMALLY****
TOTAL RUN TIME: 0 days 0 hours 0 minutes 29 seconds 849 msec
