                         Program Version 5.0.3 -  RELEASE  -
|  1> !ri-mp2 aug-cc-pvdz aug-cc-pvdz/c tightscf
|  2> %pal nprocs 16 end
|  3>
|  4> * xyz 0 1
|  5> Cl     1.206649    1.711643   -0.227494
|  6> S     -3.019563   -0.139639   -0.082460
|  7> N     -0.291654   -0.495146    0.196818
|  8> C      0.951475    0.047369    0.568780
|  9> C      2.117266   -0.819228    0.224719
| 10> C      2.032356   -1.986494   -0.395802
| 11> C     -1.463636   -0.293893    0.095615
| 12> H      0.943371    0.294738    1.629473
| 13> H      3.072452   -0.416382    0.534896
| 14> H      2.918954   -2.568416   -0.603567
| 15> H      1.082018   -2.394155   -0.711641
| 16> *
| 17>
| 18>                          ****END OF INPUT****

CARTESIAN COORDINATES (ANGSTROEM)
---------------------------------
  Cl     1.206649    1.711643   -0.227494
  S     -3.019563   -0.139639   -0.082460
  N     -0.291654   -0.495146    0.196818
  C      0.951475    0.047369    0.568780
  C      2.117266   -0.819228    0.224719
  C      2.032356   -1.986494   -0.395802
  C     -1.463636   -0.293893    0.095615
  H      0.943371    0.294738    1.629473
  H      3.072452   -0.416382    0.534896
  H      2.918954   -2.568416   -0.603567
  H      1.082018   -2.394155   -0.711641

 Total Charge           Charge          ....    0
 Multiplicity           Mult            ....    1
 Number of Electrons    NEL             ....   68
 Basis Dimension        Dim             ....  205

ORBITAL ENERGIES
----------------

  NO   OCC          E(Eh)            E(eV)
   0   2.0000    -104.838894     -2852.8113
   1   2.0000     -91.969666     -2502.6218
   2   2.0000     -15.631113      -425.3442
   3   2.0000     -11.404497      -310.3322
   4   2.0000     -11.391910      -309.9896
   5   2.0000     -11.272444      -306.7388
   6   2.0000     -11.261796      -306.4490
   7   2.0000     -10.564509      -287.4749
   8   2.0000      -8.973041      -244.1689
   9   2.0000      -8.031977      -218.5612
  10   2.0000      -8.028866      -218.4765
  11   2.0000      -8.028747      -218.4733
  12   2.0000      -6.655648      -181.1094
  13   2.0000      -6.651905      -181.0075
  14   2.0000      -6.651564      -180.9982
  15   2.0000      -1.326989       -36.1092
  16   2.0000      -1.158009       -31.5110
  17   2.0000      -1.076188       -29.2846
  18   2.0000      -1.055576       -28.7237
  19   2.0000      -0.966831       -26.3088
  20   2.0000      -0.837311       -22.7844
  21   2.0000      -0.743139       -20.2218
  22   2.0000      -0.688246       -18.7281
  23   2.0000      -0.644762       -17.5449
  24   2.0000      -0.624089       -16.9823
  25   2.0000      -0.606631       -16.5073
  26   2.0000      -0.562854       -15.3160
  27   2.0000      -0.546851       -14.8806
  28   2.0000      -0.526920       -14.3382
  29   2.0000      -0.466391       -12.6911
  30   2.0000      -0.455590       -12.3972
  31   2.0000      -0.396354       -10.7853
  32   2.0000      -0.381980       -10.3942
  33   2.0000      -0.372305       -10.1309
  34   0.0000       0.030690         0.8351
  35   0.0000       0.042358         1.1526
  36   0.0000       0.046190         1.2569
  37   0.0000       0.063078         1.7164
  38   0.0000       0.065598         1.7850

MULLIKEN ATOMIC CHARGES
-----------------------
   0 Cl:   -0.082877
   1 S :    0.180808
   2 N :   -0.222284
   3 C :    0.071189
   4 C :    0.909170
   5 C :    0.527162
   6 C :   -0.441294
   7 H :   -0.022897
   8 H :   -0.360636
   9 H :   -0.263323
  10 H :   -0.295019
Sum of atomic charges:   -0.0000000

LOEWDIN ATOMIC CHARGES
----------------------
   0 Cl:    0.467502
   1 S :    0.635087
   2 N :   -0.047713
   3 C :   -0.464827
   4 C :   -0.097038
   5 C :    0.196079
   6 C :   -0.623575
   7 H :    0.004909
   8 H :   -0.001824
   9 H :   -0.032202
  10 H :   -0.036397

  Mayer bond orders larger than 0.100000
B(  0-Cl,  3-C ) :   1.1812 B(  0-Cl,  4-C ) :  -0.1768 B(  1-S ,  6-C ) :   1.8863
B(  2-N ,  3-C ) :   0.7398 B(  2-N ,  4-C ) :  -0.1175 B(  2-N ,  6-C ) :   1.9476
B(  3-C ,  4-C ) :   0.9432 B(  3-C ,  6-C ) :  -0.1904 B(  3-C ,  7-H ) :   0.8890
B(  4-C ,  5-C ) :   1.9088 B(  4-C ,  8-H ) :   0.8408 B(  5-C ,  9-H ) :   0.7881
B(  5-C , 10-H ) :   0.9256 B(  9-H , 10-H ) :  -0.1980

MP2 TOTAL ENERGY:    -1066.271322486 Eh
FINAL SINGLE POINT ENERGY     -1066.271322485999

DIPOLE MOMENT
-------------
                                X             Y             Z
Electronic contribution:     -5.25707       6.56388      -0.65619
Nuclear contribution   :      6.10073      -7.19970       1.12640
                        -----------------------------------------
Total Dipole Moment    :      0.84366      -0.63582       0.47021
                        -----------------------------------------
Magnitude (a.u.)       :      1.15634
Magnitude (Debye)      :      2.93919

Rotational constants in cm-1:     0.089192     0.032512     0.024722
Rotational constants in MHz :  2673.908245   974.685251   741.153979

                             ****ORCA TERMINATED NORMALLY****
TOTAL RUN TIME: 0 days 0 hours 0 minutes 46 seconds 443 msec
