                         Program Version 5.0.3 -  RELEASE  -
|  1> !ri-mp2 aug-cc-pvdz aug-cc-pvdz/c tightscf
|  2> %pal nprocs 16 end
|  3>
|  4> * xyz 0 1
|  5> C     -1.467731    0.790367    0.000000
|  6> H     -1.610102    1.869749    0.000000
|  7> H     -1.963613    0.371038    0.877295
|  8> H     -1.963613    0.371038   -0.877295
|  9> C      0.530643   -2.135031    0.000000
| 10> H      0.736992   -3.175778    0.000000
| 11> C      0.314957   -0.952176    0.000000
| 12> C      0.000000    0.441174    0.000000
| 13> C      0.966097    1.364809    0.000000
| 14> H      2.010863    1.089814    0.000000
| 15> H      0.725678    2.419275    0.000000
| 16> *
| 17>
| 18>                          ****END OF INPUT****

CARTESIAN COORDINATES (ANGSTROEM)
---------------------------------
  C     -1.467731    0.790367    0.000000
  H     -1.610102    1.869749    0.000000
  H     -1.963613    0.371038    0.877295
  H     -1.963613    0.371038   -0.877295
  C      0.530643   -2.135031    0.000000
  H      0.736992   -3.175778    0.000000
  C      0.314957   -0.952176    0.000000
  C      0.000000    0.441174    0.000000
  C      0.966097    1.364809    0.000000
  H      2.010863    1.089814    0.000000
  H      0.725678    2.419275    0.000000

 Total Charge           Charge          ....    0
 Multiplicity           Mult            ....    1
 Number of Electrons    NEL             ....   36
 Basis Dimension        Dim             ....  169

ORBITAL ENERGIES
----------------

  NO   OCC          E(Eh)            E(eV)
   0   2.0000     -11.271293      -306.7075
   1   2.0000     -11.245242      -305.9986
   2   2.0000     -11.242305      -305.9187
   3   2.0000     -11.237448      -305.7865
   4   2.0000     -11.237226      -305.7805
   5   2.0000      -1.115107       -30.3436
   6   2.0000      -1.014399       -27.6032
   7   2.0000      -0.948021       -25.7970
   8   2.0000      -0.823874       -22.4188
   9   2.0000      -0.711126       -19.3507
  10   2.0000      -0.660773       -17.9805
  11   2.0000      -0.611571       -16.6417
  12   2.0000      -0.580445       -15.7947
  13   2.0000      -0.545600       -14.8465
  14   2.0000      -0.522354       -14.2140
  15   2.0000      -0.446833       -12.1590
  16   2.0000      -0.395941       -10.7741
  17   2.0000      -0.338644        -9.2150
  18   0.0000       0.036161         0.9840
  19   0.0000       0.041336         1.1248
  20   0.0000       0.048491         1.3195
  21   0.0000       0.058823         1.6007
  22   0.0000       0.059658         1.6234

MULLIKEN ATOMIC CHARGES
-----------------------
   0 C :    0.111309
   1 H :   -0.131138
   2 H :    0.122244
   3 H :    0.122244
   4 C :    0.604172
   5 H :   -0.499612
   6 C :   -0.268489
   7 C :   -0.251480
   8 C :    0.935061
   9 H :   -0.391932
  10 H :   -0.352379
Sum of atomic charges:    0.0000000

LOEWDIN ATOMIC CHARGES
----------------------
   0 C :    0.167924
   1 H :   -0.014220
   2 H :   -0.006022
   3 H :   -0.006022
   4 C :    0.226092
   5 H :   -0.103781
   6 C :   -0.086023
   7 C :   -0.339561
   8 C :    0.224111
   9 H :   -0.029408
  10 H :   -0.033089

  Mayer bond orders larger than 0.100000
B(  0-C ,  1-H ) :   0.7577 B(  0-C ,  2-H ) :   0.8083 B(  0-C ,  3-H ) :   0.8083
B(  0-C ,  4-C ) :   0.1410 B(  0-C ,  6-C ) :  -0.1423 B(  0-C ,  7-C ) :   1.4508
B(  0-C ,  8-C ) :  -0.1262 B(  1-H ,  7-C ) :   0.2096 B(  2-H ,  7-C ) :   0.1166
B(  3-H ,  7-C ) :   0.1166 B(  4-C ,  6-C ) :   2.6198 B(  4-C ,  8-C ) :   0.1033
B(  5-H ,  6-C ) :   0.3395 B(  5-H ,  7-C ) :   0.1396 B(  6-C ,  7-C ) :   1.4712
B(  6-C ,  8-C ) :  -0.2680 B(  6-C ,  9-H ) :  -0.1268 B(  7-C ,  8-C ) :   1.7008
B(  7-C ,  9-H ) :   0.2753 B(  7-C , 10-H ) :   0.2070 B(  8-C ,  9-H ) :   0.6291
B(  8-C , 10-H ) :   0.5597 B(  9-H , 10-H ) :  -0.1542

MP2 TOTAL ENERGY:     -193.449784083 Eh
FINAL SINGLE POINT ENERGY      -193.449784083295

DIPOLE MOMENT
-------------
                                X             Y             Z
Electronic contribution:      1.98051      -2.84102      -0.00000
Nuclear contribution   :     -2.11086       3.01231       0.00000
                        -----------------------------------------
Total Dipole Moment    :     -0.13035       0.17129      -0.00000
                        -----------------------------------------
Magnitude (a.u.)       :      0.21525
Magnitude (Debye)      :      0.54712

Rotational constants in cm-1:     0.313535     0.134580     0.095823
Rotational constants in MHz :  9399.529077  4034.610844  2872.710304

                             ****ORCA TERMINATED NORMALLY****
TOTAL RUN TIME: 0 days 0 hours 0 minutes 29 seconds 923 msec
