                         Program Version 5.0.3 -  RELEASE  -
|  1> !ri-mp2 aug-cc-pvdz aug-cc-pvdz/c tightscf
|  2> %pal nprocs 16 end
|  3>
|  4> * xyz 0 1
|  5> C      0.328548    1.572029    1.131282
|  6> C     -0.328548   -1.572029    1.131282
|  7> C     -0.204552    0.748232   -0.013408
|  8> C      0.204552   -0.748232   -0.013408
|  9> F     -1.578360    0.789917   -0.017302
| 10> F      0.204552    1.293625   -1.195961
| 11> F     -0.204552   -1.293625   -1.195961
| 12> F      1.578360   -0.789917   -0.017302
| 13> H     -0.001444    2.599626    0.991670
| 14> H     -0.053588    1.204459    2.080962
| 15> H      1.415266    1.540080    1.139481
| 16> H     -1.415266   -1.540080    1.139481
| 17> H      0.001444   -2.599626    0.991670
| 18> H      0.053588   -1.204459    2.080962
| 19> *
| 20>
| 21>                          ****END OF INPUT****

CARTESIAN COORDINATES (ANGSTROEM)
---------------------------------
  C      0.328548    1.572029    1.131282
  C     -0.328548   -1.572029    1.131282
  C     -0.204552    0.748232   -0.013408
  C      0.204552   -0.748232   -0.013408
  F     -1.578360    0.789917   -0.017302
  F      0.204552    1.293625   -1.195961
  F     -0.204552   -1.293625   -1.195961
  F      1.578360   -0.789917   -0.017302
  H     -0.001444    2.599626    0.991670
  H     -0.053588    1.204459    2.080962
  H      1.415266    1.540080    1.139481
  H     -1.415266   -1.540080    1.139481
  H      0.001444   -2.599626    0.991670
  H      0.053588   -1.204459    2.080962

 Total Charge           Charge          ....    0
 Multiplicity           Mult            ....    1
 Number of Electrons    NEL             ....   66
 Basis Dimension        Dim             ....  238

ORBITAL ENERGIES
----------------

  NO   OCC          E(Eh)            E(eV)
   0   2.0000     -26.334251      -716.5914
   1   2.0000     -26.334248      -716.5913
   2   2.0000     -26.330074      -716.4777
   3   2.0000     -26.330072      -716.4777
   4   2.0000     -11.438833      -311.2665
   5   2.0000     -11.438262      -311.2509
   6   2.0000     -11.260682      -306.4187
   7   2.0000     -11.260679      -306.4186
   8   2.0000      -1.684592       -45.8401
   9   2.0000      -1.663283       -45.2602
  10   2.0000      -1.613101       -43.8947
  11   2.0000      -1.610214       -43.8162
  12   2.0000      -1.106939       -30.1213
  13   2.0000      -1.042129       -28.3578
  14   2.0000      -0.949601       -25.8400
  15   2.0000      -0.864888       -23.5348
  16   2.0000      -0.807310       -21.9680
  17   2.0000      -0.781220       -21.2581
  18   2.0000      -0.769078       -20.9277
  19   2.0000      -0.740849       -20.1595
  20   2.0000      -0.736887       -20.0517
  21   2.0000      -0.694030       -18.8855
  22   2.0000      -0.677926       -18.4473
  23   2.0000      -0.670043       -18.2328
  24   2.0000      -0.641235       -17.4489
  25   2.0000      -0.638698       -17.3799
  26   2.0000      -0.628051       -17.0901
  27   2.0000      -0.591626       -16.0990
  28   2.0000      -0.590803       -16.0766
  29   2.0000      -0.575262       -15.6537
  30   2.0000      -0.575080       -15.6487
  31   2.0000      -0.561424       -15.2771
  32   2.0000      -0.506325       -13.7778
  33   0.0000       0.031351         0.8531
  34   0.0000       0.041873         1.1394
  35   0.0000       0.051568         1.4032
  36   0.0000       0.054318         1.4781
  37   0.0000       0.067501         1.8368

MULLIKEN ATOMIC CHARGES
-----------------------
   0 C :    0.261353
   1 C :    0.261353
   2 C :    1.178710
   3 C :    1.178710
   4 F :   -0.766283
   5 F :   -0.761907
   6 F :   -0.761907
   7 F :   -0.766283
   8 H :    0.001428
   9 H :    0.020284
  10 H :    0.066415
  11 H :    0.066415
  12 H :    0.001428
  13 H :    0.020284
Sum of atomic charges:    0.0000000

LOEWDIN ATOMIC CHARGES
----------------------
   0 C :    0.205336
   1 C :    0.205336
   2 C :   -0.345917
   3 C :   -0.345917
   4 F :    0.063828
   5 F :    0.075984
   6 F :    0.075984
   7 F :    0.063828
   8 H :    0.004215
   9 H :   -0.006132
  10 H :    0.002686
  11 H :    0.002686
  12 H :    0.004215
  13 H :   -0.006132

  Mayer bond orders larger than 0.100000
B(  0-C ,  2-C ) :   1.2972 B(  0-C ,  4-F ) :   0.1352 B(  0-C ,  5-F ) :   0.1302
B(  0-C ,  8-H ) :   0.8419 B(  0-C ,  9-H ) :   0.8841 B(  0-C , 10-H ) :   0.8537
B(  1-C ,  3-C ) :   1.2972 B(  1-C ,  6-F ) :   0.1302 B(  1-C ,  7-F ) :   0.1352
B(  1-C , 11-H ) :   0.8537 B(  1-C , 12-H ) :   0.8419 B(  1-C , 13-H ) :   0.8841
B(  2-C ,  3-C ) :   1.0511 B(  2-C ,  5-F ) :  -0.1742 B(  2-C ,  6-F ) :   0.2658
B(  2-C ,  7-F ) :   0.1447 B(  2-C ,  8-H ) :   0.1807 B(  3-C ,  4-F ) :   0.1447
B(  3-C ,  5-F ) :   0.2658 B(  3-C ,  6-F ) :  -0.1742 B(  3-C , 12-H ) :   0.1807

MP2 TOTAL ENERGY:     -554.194923085 Eh
FINAL SINGLE POINT ENERGY      -554.194923085170

DIPOLE MOMENT
-------------
                                X             Y             Z
Electronic contribution:     -0.00000       0.00000      -8.82815
Nuclear contribution   :     -0.00000       0.00000      10.31064
                        -----------------------------------------
Total Dipole Moment    :     -0.00000       0.00000       1.48249
                        -----------------------------------------
Magnitude (a.u.)       :      1.48249
Magnitude (Debye)      :      3.76818

Rotational constants in cm-1:     0.086701     0.059082     0.058946
Rotational constants in MHz :  2599.245513  1771.236963  1767.146502

                             ****ORCA TERMINATED NORMALLY****
TOTAL RUN TIME: 0 days 0 hours 0 minutes 47 seconds 849 msec
