                         Program Version 5.0.3 -  RELEASE  -
|  1> !ri-mp2 aug-cc-pvdz aug-cc-pvdz/c tightscf
|  2> %pal nprocs 16 end
|  3>
|  4> * xyz 0 1
|  5> F    -2.432062   -0.840581   -0.001430
|  6> O    -1.549974    1.772119    0.004185
|  7> N     0.623463    1.045644   -0.000115
|  8> N     1.145451   -1.283249    0.004540
|  9> N     2.809376    0.312221   -0.053279
| 10> C    -0.665617    0.765530   -0.000417
| 11> C    -1.116639   -0.556241   -0.001881
| 12> C     1.480636    0.009952   -0.004752
| 13> C    -0.163020   -1.546056    0.003960
| 14> H    -1.037104    2.592592    0.000511
| 15> H     3.451036   -0.430928    0.156545
| 16> H     3.081893    1.251498    0.171878
| 17> H    -0.467661   -2.586310    0.010977
| 18> *
| 19>
| 20>                          ****END OF INPUT****

CARTESIAN COORDINATES (ANGSTROEM)
---------------------------------
  F     -2.432062   -0.840581   -0.001430
  O     -1.549974    1.772119    0.004185
  N      0.623463    1.045644   -0.000115
  N      1.145451   -1.283249    0.004540
  N      2.809376    0.312221   -0.053279
  C     -0.665617    0.765530   -0.000417
  C     -1.116639   -0.556241   -0.001881
  C      1.480636    0.009952   -0.004752
  C     -0.163020   -1.546056    0.003960
  H     -1.037104    2.592592    0.000511
  H      3.451036   -0.430928    0.156545
  H      3.081893    1.251498    0.171878
  H     -0.467661   -2.586310    0.010977

 Total Charge           Charge          ....    0
 Multiplicity           Mult            ....    1
 Number of Electrons    NEL             ....   66
 Basis Dimension        Dim             ....  243

ORBITAL ENERGIES
----------------

  NO   OCC          E(Eh)            E(eV)
   0   2.0000     -26.326758      -716.3875
   1   2.0000     -20.631402      -561.4090
   2   2.0000     -15.592050      -424.2812
   3   2.0000     -15.582006      -424.0079
   4   2.0000     -15.572392      -423.7463
   5   2.0000     -11.382600      -309.7363
   6   2.0000     -11.373491      -309.4884
   7   2.0000     -11.325065      -308.1707
   8   2.0000     -11.313294      -307.8504
   9   2.0000      -1.634949       -44.4892
  10   2.0000      -1.457828       -39.6695
  11   2.0000      -1.342103       -36.5205
  12   2.0000      -1.218119       -33.1467
  13   2.0000      -1.205799       -32.8114
  14   2.0000      -1.059465       -28.8295
  15   2.0000      -0.926003       -25.1978
  16   2.0000      -0.888819       -24.1860
  17   2.0000      -0.801559       -21.8115
  18   2.0000      -0.768392       -20.9090
  19   2.0000      -0.750789       -20.4300
  20   2.0000      -0.705182       -19.1890
  21   2.0000      -0.702638       -19.1198
  22   2.0000      -0.689565       -18.7640
  23   2.0000      -0.637531       -17.3481
  24   2.0000      -0.629420       -17.1274
  25   2.0000      -0.618878       -16.8405
  26   2.0000      -0.592668       -16.1273
  27   2.0000      -0.578690       -15.7470
  28   2.0000      -0.516363       -14.0510
  29   2.0000      -0.467916       -12.7326
  30   2.0000      -0.425569       -11.5803
  31   2.0000      -0.424015       -11.5380
  32   2.0000      -0.333410        -9.0725
  33   0.0000       0.030075         0.8184
  34   0.0000       0.041301         1.1239
  35   0.0000       0.043701         1.1892
  36   0.0000       0.062015         1.6875
  37   0.0000       0.083327         2.2674

MULLIKEN ATOMIC CHARGES
-----------------------
   0 F :   -0.805196
   1 O :   -0.765001
   2 N :   -0.706279
   3 N :   -0.709604
   4 N :   -0.345178
   5 C :    0.843373
   6 C :    0.996685
   7 C :    0.896423
   8 C :    0.747425
   9 H :    0.187828
  10 H :   -0.025854
  11 H :   -0.038863
  12 H :   -0.275758
Sum of atomic charges:    0.0000000

LOEWDIN ATOMIC CHARGES
----------------------
   0 F :    0.064130
   1 O :    0.231766
   2 N :    0.099013
   3 N :    0.057624
   4 N :    0.277594
   5 C :   -0.244278
   6 C :   -0.152438
   7 C :   -0.324402
   8 C :    0.024787
   9 H :   -0.022291
  10 H :   -0.015353
  11 H :   -0.018164
  12 H :    0.022012

  Mayer bond orders larger than 0.100000
B(  0-F ,  5-C ) :   0.4156 B(  0-F ,  6-C ) :  -0.4624 B(  0-F ,  8-C ) :   0.2279
B(  1-O ,  5-C ) :   0.2774 B(  1-O ,  9-H ) :   1.0075 B(  2-N ,  5-C ) :   1.3126
B(  2-N ,  7-C ) :   1.2187 B(  3-N ,  7-C ) :   1.4311 B(  3-N ,  8-C ) :   1.1702
B(  4-N ,  7-C ) :   0.7694 B(  4-N , 10-H ) :   1.1432 B(  4-N , 11-H ) :   1.1514
B(  5-C ,  6-C ) :   1.1368 B(  5-C ,  7-C ) :  -0.2302 B(  5-C ,  8-C ) :   0.2839
B(  6-C ,  7-C ) :   0.1364 B(  6-C ,  8-C ) :   1.3761 B(  7-C ,  8-C ) :  -0.2349
B(  8-C , 12-H ) :   0.7709

MP2 TOTAL ENERGY:     -492.960989885 Eh
FINAL SINGLE POINT ENERGY      -492.960989885075

DIPOLE MOMENT
-------------
                                X             Y             Z
Electronic contribution:     -6.22360      -1.13763      -0.06981
Nuclear contribution   :      7.13648       1.61825       0.32752
                        -----------------------------------------
Total Dipole Moment    :      0.91288       0.48062       0.25770
                        -----------------------------------------
Magnitude (a.u.)       :      1.06337
Magnitude (Debye)      :      2.70288

Rotational constants in cm-1:     0.106541     0.047528     0.032878
Rotational constants in MHz :  3194.024533  1424.840614   985.652438

                             ****ORCA TERMINATED NORMALLY****
TOTAL RUN TIME: 0 days 0 hours 1 minutes 13 seconds 876 msec
