                         Program Version 5.0.3 -  RELEASE  -
|  1> !ri-mp2 aug-cc-pvdz aug-cc-pvdz/c tightscf
|  2> %pal nprocs 16 end
|  3>
|  4> * xyz 0 1
|  5> F     -2.150096   -0.001053    0.020213
|  6> N     -0.814685    0.069525   -0.443341
|  7> N     -0.277930    1.215684    0.168577
|  8> N     -0.249750   -1.157396    0.094708
|  9> C      1.005130    1.204416    0.110976
| 10> C      1.127688   -1.139416    0.040064
| 11> C      1.779078    0.018424   -0.196713
| 12> H     -0.688110   -1.456788    0.966414
| 13> H      1.504722    2.099325    0.462256
| 14> H      1.610499   -2.086619    0.240445
| 15> H      2.848926    0.058329   -0.316594
| 16> *
| 17>
| 18>                          ****END OF INPUT****

CARTESIAN COORDINATES (ANGSTROEM)
---------------------------------
  F     -2.150096   -0.001053    0.020213
  N     -0.814685    0.069525   -0.443341
  N     -0.277930    1.215684    0.168577
  N     -0.249750   -1.157396    0.094708
  C      1.005130    1.204416    0.110976
  C      1.127688   -1.139416    0.040064
  C      1.779078    0.018424   -0.196713
  H     -0.688110   -1.456788    0.966414
  H      1.504722    2.099325    0.462256
  H      1.610499   -2.086619    0.240445
  H      2.848926    0.058329   -0.316594

 Total Charge           Charge          ....    0
 Multiplicity           Mult            ....    1
 Number of Electrons    NEL             ....   52
 Basis Dimension        Dim             ....  197

ORBITAL ENERGIES
----------------

  NO   OCC          E(Eh)            E(eV)
   0   2.0000     -26.325828      -716.3622
   1   2.0000     -15.738655      -428.2706
   2   2.0000     -15.641848      -425.6363
   3   2.0000     -15.612045      -424.8253
   4   2.0000     -11.327222      -308.2294
   5   2.0000     -11.311599      -307.8043
   6   2.0000     -11.256688      -306.3101
   7   2.0000      -1.628942       -44.3258
   8   2.0000      -1.368484       -37.2383
   9   2.0000      -1.237489       -33.6738
  10   2.0000      -1.115145       -30.3446
  11   2.0000      -0.984213       -26.7818
  12   2.0000      -0.903871       -24.5956
  13   2.0000      -0.779231       -21.2040
  14   2.0000      -0.765825       -20.8392
  15   2.0000      -0.736322       -20.0363
  16   2.0000      -0.691731       -18.8230
  17   2.0000      -0.668860       -18.2006
  18   2.0000      -0.641990       -17.4694
  19   2.0000      -0.613228       -16.6868
  20   2.0000      -0.595832       -16.2134
  21   2.0000      -0.570491       -15.5239
  22   2.0000      -0.505967       -13.7681
  23   2.0000      -0.450551       -12.2601
  24   2.0000      -0.432184       -11.7603
  25   2.0000      -0.338963        -9.2237
  26   0.0000       0.026202         0.7130
  27   0.0000       0.037707         1.0260
  28   0.0000       0.046129         1.2552
  29   0.0000       0.061385         1.6704
  30   0.0000       0.071205         1.9376

MULLIKEN ATOMIC CHARGES
-----------------------
   0 F :   -0.539028
   1 N :   -0.111650
   2 N :   -0.287985
   3 N :   -0.103217
   4 C :    0.566689
   5 C :    0.490786
   6 C :    0.766630
   7 H :    0.063299
   8 H :   -0.229332
   9 H :   -0.273048
  10 H :   -0.343143
Sum of atomic charges:   -0.0000000

LOEWDIN ATOMIC CHARGES
----------------------
   0 F :    0.002685
   1 N :   -0.091803
   2 N :    0.016580
   3 N :    0.076764
   4 C :   -0.045290
   5 C :    0.005685
   6 C :    0.008447
   7 H :    0.009132
   8 H :    0.010779
   9 H :    0.019013
  10 H :   -0.011992

  Mayer bond orders larger than 0.100000
B(  0-F ,  1-N ) :   0.4529 B(  1-N ,  2-N ) :   0.9515 B(  1-N ,  3-N ) :   0.9215
B(  1-N ,  4-C ) :  -0.1326 B(  2-N ,  4-C ) :   1.5817 B(  3-N ,  5-C ) :   0.9874
B(  3-N ,  7-H ) :   0.9811 B(  4-C ,  5-C ) :   0.3453 B(  4-C ,  6-C ) :   1.0343
B(  4-C ,  8-H ) :   0.9130 B(  5-C ,  6-C ) :   1.6359 B(  5-C ,  9-H ) :   0.8798
B(  5-C , 10-H ) :   0.1141 B(  6-C , 10-H ) :   0.6399

MP2 TOTAL ENERGY:     -379.710101113 Eh
FINAL SINGLE POINT ENERGY      -379.710101113186

DIPOLE MOMENT
-------------
                                X             Y             Z
Electronic contribution:     -5.54943       0.61819      -0.64918
Nuclear contribution   :      7.14118      -1.33708       1.28640
                        -----------------------------------------
Total Dipole Moment    :      1.59175      -0.71889       0.63722
                        -----------------------------------------
Magnitude (a.u.)       :      1.85918
Magnitude (Debye)      :      4.72565

Rotational constants in cm-1:     0.190021     0.092251     0.064577
Rotational constants in MHz :  5696.678475  2765.627831  1935.982893

                             ****ORCA TERMINATED NORMALLY****
TOTAL RUN TIME: 0 days 0 hours 0 minutes 39 seconds 167 msec
