                         Program Version 5.0.3 -  RELEASE  -
|  1> !ri-mp2 aug-cc-pvdz aug-cc-pvdz/c tightscf
|  2> %pal nprocs 16 end
|  3>
|  4> * xyz 0 1
|  5> C      2.814804   -0.001719   -0.301389
|  6> C      2.134649   -1.200607   -0.119441
|  7> C      2.136199    1.201043   -0.142617
|  8> C      0.785938   -1.194095    0.216238
|  9> C      0.787279    1.201961    0.193344
| 10> C      0.091182    0.006113    0.377674
| 11> C     -1.382308    0.006570    0.699381
| 12> C     -2.252301   -0.022112   -0.563342
| 13> O     -3.645434   -0.085015   -0.273276
| 14> H      3.864982   -0.004812   -0.560108
| 15> H      2.655224   -2.142017   -0.234918
| 16> H      2.657691    2.139541   -0.276374
| 17> H      0.266470   -2.133322    0.361844
| 18> H      0.269747    2.144962    0.321584
| 19> H     -1.634273    0.897699    1.281212
| 20> H     -1.639570   -0.859511    1.311331
| 21> H     -2.033440   -0.917594   -1.144566
| 22> H     -2.023001    0.842586   -1.195287
| 23> H     -3.913002    0.729665    0.162405
| 24> *
| 25>
| 26>                          ****END OF INPUT****

CARTESIAN COORDINATES (ANGSTROEM)
---------------------------------
  C      2.814804   -0.001719   -0.301389
  C      2.134649   -1.200607   -0.119441
  C      2.136199    1.201043   -0.142617
  C      0.785938   -1.194095    0.216238
  C      0.787279    1.201961    0.193344
  C      0.091182    0.006113    0.377674
  C     -1.382308    0.006570    0.699381
  C     -2.252301   -0.022112   -0.563342
  O     -3.645434   -0.085015   -0.273276
  H      3.864982   -0.004812   -0.560108
  H      2.655224   -2.142017   -0.234918
  H      2.657691    2.139541   -0.276374
  H      0.266470   -2.133322    0.361844
  H      0.269747    2.144962    0.321584
  H     -1.634273    0.897699    1.281212
  H     -1.639570   -0.859511    1.311331
  H     -2.033440   -0.917594   -1.144566
  H     -2.023001    0.842586   -1.195287
  H     -3.913002    0.729665    0.162405

 Total Charge           Charge          ....    0
 Multiplicity           Mult            ....    1
 Number of Electrons    NEL             ....   66
 Basis Dimension        Dim             ....  297

ORBITAL ENERGIES
----------------

  NO   OCC          E(Eh)            E(eV)
   0   2.0000     -20.568719      -559.7033
   1   2.0000     -11.284228      -307.0594
   2   2.0000     -11.249053      -306.1023
   3   2.0000     -11.242786      -305.9318
   4   2.0000     -11.242438      -305.9223
   5   2.0000     -11.239754      -305.8493
   6   2.0000     -11.239348      -305.8382
   7   2.0000     -11.239021      -305.8293
   8   2.0000     -11.237379      -305.7846
   9   2.0000      -1.362595       -37.0781
  10   2.0000      -1.162769       -31.6406
  11   2.0000      -1.066370       -29.0174
  12   2.0000      -1.019905       -27.7530
  13   2.0000      -0.978634       -26.6300
  14   2.0000      -0.866535       -23.5796
  15   2.0000      -0.832520       -22.6540
  16   2.0000      -0.799413       -21.7531
  17   2.0000      -0.701084       -19.0775
  18   2.0000      -0.694379       -18.8950
  19   2.0000      -0.646221       -17.5846
  20   2.0000      -0.640127       -17.4187
  21   2.0000      -0.609467       -16.5844
  22   2.0000      -0.598958       -16.2985
  23   2.0000      -0.588584       -16.0162
  24   2.0000      -0.556874       -15.1533
  25   2.0000      -0.543443       -14.7878
  26   2.0000      -0.509615       -13.8673
  27   2.0000      -0.494122       -13.4457
  28   2.0000      -0.489714       -13.3258
  29   2.0000      -0.477747       -13.0002
  30   2.0000      -0.445650       -12.1268
  31   2.0000      -0.339364        -9.2346
  32   2.0000      -0.330297        -8.9878
  33   0.0000       0.032685         0.8894
  34   0.0000       0.037198         1.0122
  35   0.0000       0.041705         1.1348
  36   0.0000       0.051932         1.4131
  37   0.0000       0.052506         1.4288

MULLIKEN ATOMIC CHARGES
-----------------------
   0 C :    0.488254
   1 C :    0.264904
   2 C :    0.254890
   3 C :    0.288731
   4 C :    0.404454
   5 C :    1.075740
   6 C :    0.113381
   7 C :    1.007889
   8 O :   -0.698549
   9 H :   -0.444865
  10 H :   -0.453332
  11 H :   -0.453160
  12 H :   -0.632420
  13 H :   -0.634427
  14 H :   -0.195322
  15 H :   -0.128477
  16 H :   -0.224259
  17 H :   -0.166583
  18 H :    0.133151
Sum of atomic charges:   -0.0000000

LOEWDIN ATOMIC CHARGES
----------------------
   0 C :    0.004706
   1 C :    0.010186
   2 C :    0.009133
   3 C :    0.043349
   4 C :    0.040992
   5 C :   -0.184342
   6 C :    0.000375
   7 C :   -0.036034
   8 O :    0.112492
   9 H :   -0.001837
  10 H :    0.000324
  11 H :   -0.000044
  12 H :    0.007770
  13 H :    0.005856
  14 H :    0.016186
  15 H :    0.021638
  16 H :    0.006108
  17 H :    0.007744
  18 H :   -0.064601

  Mayer bond orders larger than 0.100000
B(  0-C ,  1-C ) :   1.8012 B(  0-C ,  2-C ) :   1.8061 B(  0-C ,  5-C ) :   0.2628
B(  0-C ,  9-H ) :   0.2734 B(  0-C , 10-H ) :   0.1638 B(  0-C , 11-H ) :   0.1653
B(  1-C ,  3-C ) :   1.9504 B(  1-C ,  5-C ) :  -0.4389 B(  1-C ,  6-C ) :   0.1400
B(  1-C ,  9-H ) :   0.2376 B(  1-C , 10-H ) :   0.2225 B(  1-C , 12-H ) :   0.2521
B(  2-C ,  3-C ) :   0.1079 B(  2-C ,  4-C ) :   1.9049 B(  2-C ,  5-C ) :  -0.4204
B(  2-C ,  6-C ) :   0.1294 B(  2-C ,  9-H ) :   0.2370 B(  2-C , 11-H ) :   0.2211
B(  2-C , 13-H ) :   0.2787 B(  3-C ,  4-C ) :  -0.7538 B(  3-C ,  5-C ) :   1.8079
B(  3-C ,  6-C ) :  -0.3708 B(  3-C ,  7-C ) :   0.1022 B(  3-C , 10-H ) :   0.3747
B(  3-C , 12-H ) :  -0.1300 B(  4-C ,  5-C ) :   1.8277 B(  4-C ,  6-C ) :  -0.2278
B(  4-C , 11-H ) :   0.3776 B(  4-C , 13-H ) :  -0.1472 B(  5-C ,  6-C ) :   1.3478
B(  5-C ,  7-C ) :  -0.1755 B(  5-C , 12-H ) :   0.5341 B(  5-C , 13-H ) :   0.5113
B(  5-C , 14-H ) :   0.1089 B(  5-C , 17-H ) :  -0.1038 B(  6-C ,  7-C ) :   1.3061
B(  6-C , 14-H ) :   0.7266 B(  6-C , 15-H ) :   0.7679 B(  7-C ,  8-O ) :   0.4750
B(  7-C , 16-H ) :   0.8741 B(  7-C , 17-H ) :   0.8429 B(  8-O , 18-H ) :   1.0796
B( 14-H , 15-H ) :  -0.1058 B( 16-H , 17-H ) :  -0.1147

MP2 TOTAL ENERGY:     -384.981839620 Eh
FINAL SINGLE POINT ENERGY      -384.981839619573

DIPOLE MOMENT
-------------
                                X             Y             Z
Electronic contribution:      2.00315      -0.21840       0.15000
Nuclear contribution   :     -1.60983       0.70603       0.02315
                        -----------------------------------------
Total Dipole Moment    :      0.39332       0.48763       0.17315
                        -----------------------------------------
Magnitude (a.u.)       :      0.64997
Magnitude (Debye)      :      1.65209

Rotational constants in cm-1:     0.148796     0.028252     0.025309
Rotational constants in MHz :  4460.778956   846.972594   758.735299

                             ****ORCA TERMINATED NORMALLY****
TOTAL RUN TIME: 0 days 0 hours 1 minutes 15 seconds 201 msec
