                         Program Version 5.0.3 -  RELEASE  -
|  1> !ri-mp2 aug-cc-pvdz aug-cc-pvdz/c tightscf
|  2> %pal nprocs 16 end
|  3>
|  4> * xyz 0 1
|  5> S      0.486424   -1.562232    0.000000
|  6> C      1.185552    0.135916    0.000000
|  7> C      0.000000    1.049246    0.000000
|  8> C     -1.213614    0.503766    0.000000
|  9> C     -1.274556   -0.989952    0.000000
| 10> O      0.322895    2.373917    0.000000
| 11> H      1.804678    0.296812    0.883239
| 12> H     -2.125549    1.088447    0.000000
| 13> H     -1.777269   -1.389274   -0.882273
| 14> H      1.804678    0.296812   -0.883239
| 15> H     -1.777269   -1.389274    0.882273
| 16> H     -0.479502    2.906985    0.000000
| 17> *
| 18>
| 19>                          ****END OF INPUT****

CARTESIAN COORDINATES (ANGSTROEM)
---------------------------------
  S      0.486424   -1.562232    0.000000
  C      1.185552    0.135916    0.000000
  C      0.000000    1.049246    0.000000
  C     -1.213614    0.503766    0.000000
  C     -1.274556   -0.989952    0.000000
  O      0.322895    2.373917    0.000000
  H      1.804678    0.296812    0.883239
  H     -2.125549    1.088447    0.000000
  H     -1.777269   -1.389274   -0.882273
  H      1.804678    0.296812   -0.883239
  H     -1.777269   -1.389274    0.882273
  H     -0.479502    2.906985    0.000000

 Total Charge           Charge          ....    0
 Multiplicity           Mult            ....    1
 Number of Electrons    NEL             ....   54
 Basis Dimension        Dim             ....  196

ORBITAL ENERGIES
----------------

  NO   OCC          E(Eh)            E(eV)
   0   2.0000     -91.946813     -2502.0000
   1   2.0000     -20.610650      -560.8443
   2   2.0000     -11.315989      -307.9237
   3   2.0000     -11.270802      -306.6941
   4   2.0000     -11.270355      -306.6819
   5   2.0000     -11.234967      -305.7190
   6   2.0000      -8.948334      -243.4965
   7   2.0000      -6.630167      -180.4160
   8   2.0000      -6.629039      -180.3853
   9   2.0000      -6.626818      -180.3249
  10   2.0000      -1.418621       -38.6026
  11   2.0000      -1.133665       -30.8486
  12   2.0000      -0.994592       -27.0642
  13   2.0000      -0.967813       -26.3355
  14   2.0000      -0.819986       -22.3130
  15   2.0000      -0.784405       -21.3448
  16   2.0000      -0.693175       -18.8623
  17   2.0000      -0.650408       -17.6985
  18   2.0000      -0.638668       -17.3790
  19   2.0000      -0.588213       -16.0061
  20   2.0000      -0.559770       -15.2321
  21   2.0000      -0.549881       -14.9630
  22   2.0000      -0.537761       -14.6332
  23   2.0000      -0.493635       -13.4325
  24   2.0000      -0.435261       -11.8440
  25   2.0000      -0.350668        -9.5422
  26   2.0000      -0.332294        -9.0422
  27   0.0000       0.029476         0.8021
  28   0.0000       0.044467         1.2100
  29   0.0000       0.049922         1.3585
  30   0.0000       0.053886         1.4663
  31   0.0000       0.064863         1.7650

MULLIKEN ATOMIC CHARGES
-----------------------
   0 S :    0.751182
   1 C :   -0.232721
   2 C :    0.264421
   3 C :    0.259097
   4 C :   -0.101457
   5 O :   -0.859632
   6 H :    0.063766
   7 H :   -0.437558
   8 H :    0.038870
   9 H :    0.063766
  10 H :    0.038870
  11 H :    0.151396
Sum of atomic charges:    0.0000000

LOEWDIN ATOMIC CHARGES
----------------------
   0 S :    0.830259
   1 C :   -0.223517
   2 C :   -0.321966
   3 C :   -0.038726
   4 C :   -0.261457
   5 O :    0.180293
   6 H :   -0.024005
   7 H :   -0.008633
   8 H :   -0.037947
   9 H :   -0.024005
  10 H :   -0.037947
  11 H :   -0.032350

  Mayer bond orders larger than 0.100000
B(  0-S ,  1-C ) :   1.1176 B(  0-S ,  2-C ) :  -0.2328 B(  0-S ,  3-C ) :  -0.1188
B(  0-S ,  4-C ) :   0.9912 B(  1-C ,  2-C ) :   1.2026 B(  1-C ,  3-C ) :   0.1126
B(  1-C ,  4-C ) :   0.2468 B(  1-C ,  6-H ) :   0.7832 B(  1-C ,  9-H ) :   0.7832
B(  2-C ,  3-C ) :   1.9527 B(  2-C ,  4-C ) :  -0.1554 B(  2-C ,  5-O ) :   0.1563
B(  2-C ,  6-H ) :   0.2054 B(  2-C ,  7-H ) :   0.3076 B(  2-C ,  9-H ) :   0.2054
B(  3-C ,  4-C ) :   1.3183 B(  3-C ,  7-H ) :   0.4490 B(  3-C ,  8-H ) :   0.1722
B(  3-C , 10-H ) :   0.1722 B(  4-C ,  8-H ) :   0.8039 B(  4-C , 10-H ) :   0.8039
B(  5-O , 11-H ) :   1.0960

MP2 TOTAL ENERGY:     -628.266667443 Eh
FINAL SINGLE POINT ENERGY      -628.266667442690

DIPOLE MOMENT
-------------
                                X             Y             Z
Electronic contribution:      1.79196      -1.19415      -0.00000
Nuclear contribution   :     -2.54173       1.88249       0.00000
                        -----------------------------------------
Total Dipole Moment    :     -0.74977       0.68835      -0.00000
                        -----------------------------------------
Magnitude (a.u.)       :      1.01783
Magnitude (Debye)      :      2.58713

Rotational constants in cm-1:     0.200362     0.078937     0.057848
Rotational constants in MHz :  6006.690427  2366.463917  1734.249383

                             ****ORCA TERMINATED NORMALLY****
TOTAL RUN TIME: 0 days 0 hours 0 minutes 45 seconds 503 msec
