                         Program Version 5.0.3 -  RELEASE  -
|  1> !ri-mp2 aug-cc-pvdz aug-cc-pvdz/c tightscf
|  2> %pal nprocs 16 end
|  3>
|  4> * xyz 0 1
|  5> C     -0.001868   -1.820771    0.000000
|  6> C     -1.182467   -1.087059    0.000000
|  7> C      1.179811    0.108531    0.000000
|  8> C      0.000000    0.858405    0.000000
|  9> C      0.008652    2.358272    0.000000
| 10> N      1.186439   -1.221482    0.000000
| 11> N     -1.186506    0.242772    0.000000
| 12> H     -0.015053   -2.903968    0.000000
| 13> H     -2.145893   -1.583765    0.000000
| 14> H      2.144697    0.602719    0.000000
| 15> H     -0.515539    2.739063    0.877425
| 16> H      1.023030    2.753583    0.000000
| 17> H     -0.515539    2.739063   -0.877425
| 18> *
| 19>
| 20>                          ****END OF INPUT****

CARTESIAN COORDINATES (ANGSTROEM)
---------------------------------
  C     -0.001868   -1.820771    0.000000
  C     -1.182467   -1.087059    0.000000
  C      1.179811    0.108531    0.000000
  C      0.000000    0.858405    0.000000
  C      0.008652    2.358272    0.000000
  N      1.186439   -1.221482    0.000000
  N     -1.186506    0.242772    0.000000
  H     -0.015053   -2.903968    0.000000
  H     -2.145893   -1.583765    0.000000
  H      2.144697    0.602719    0.000000
  H     -0.515539    2.739063    0.877425
  H      1.023030    2.753583    0.000000
  H     -0.515539    2.739063   -0.877425

 Total Charge           Charge          ....    0
 Multiplicity           Mult            ....    1
 Number of Electrons    NEL             ....   50
 Basis Dimension        Dim             ....  215

ORBITAL ENERGIES
----------------

  NO   OCC          E(Eh)            E(eV)
   0   2.0000     -15.597673      -424.4343
   1   2.0000     -15.592420      -424.2913
   2   2.0000     -11.294090      -307.3278
   3   2.0000     -11.287593      -307.1510
   4   2.0000     -11.282771      -307.0198
   5   2.0000     -11.282741      -307.0190
   6   2.0000     -11.239677      -305.8472
   7   2.0000      -1.310567       -35.6624
   8   2.0000      -1.221314       -33.2337
   9   2.0000      -1.076373       -29.2896
  10   2.0000      -0.975460       -26.5436
  11   2.0000      -0.898088       -24.4382
  12   2.0000      -0.856246       -23.2996
  13   2.0000      -0.714264       -19.4361
  14   2.0000      -0.710746       -19.3404
  15   2.0000      -0.656892       -17.8750
  16   2.0000      -0.602794       -16.4029
  17   2.0000      -0.592335       -16.1182
  18   2.0000      -0.559630       -15.2283
  19   2.0000      -0.546950       -14.8833
  20   2.0000      -0.539849       -14.6900
  21   2.0000      -0.492443       -13.4001
  22   2.0000      -0.430474       -11.7138
  23   2.0000      -0.404133       -10.9970
  24   2.0000      -0.347474        -9.4553
  25   0.0000       0.034731         0.9451
  26   0.0000       0.039704         1.0804
  27   0.0000       0.046566         1.2671
  28   0.0000       0.057513         1.5650
  29   0.0000       0.058306         1.5866

MULLIKEN ATOMIC CHARGES
-----------------------
   0 C :    0.531142
   1 C :    0.812396
   2 C :    0.596898
   3 C :    0.148043
   4 C :    0.411248
   5 N :   -0.705895
   6 N :   -0.914171
   7 H :   -0.261660
   8 H :   -0.280117
   9 H :   -0.324092
  10 H :    0.040985
  11 H :   -0.095761
  12 H :    0.040985
Sum of atomic charges:    0.0000000

LOEWDIN ATOMIC CHARGES
----------------------
   0 C :   -0.024766
   1 C :   -0.016904
   2 C :    0.011332
   3 C :   -0.248800
   4 C :    0.184922
   5 N :    0.046787
   6 N :    0.072589
   7 H :   -0.001590
   8 H :    0.001165
   9 H :    0.002661
  10 H :   -0.006179
  11 H :   -0.015038
  12 H :   -0.006179

  Mayer bond orders larger than 0.100000
B(  0-C ,  1-C ) :   1.2483 B(  0-C ,  2-C ) :  -0.1175 B(  0-C ,  3-C ) :   0.1316
B(  0-C ,  5-N ) :   1.3038 B(  0-C ,  7-H ) :   0.9914 B(  1-C ,  6-N ) :   1.2332
B(  1-C ,  8-H ) :   0.8995 B(  2-C ,  3-C ) :   1.0571 B(  2-C ,  4-C ) :  -0.1166
B(  2-C ,  5-N ) :   1.1524 B(  2-C ,  9-H ) :   1.0812 B(  2-C , 11-H ) :  -0.1216
B(  3-C ,  4-C ) :   1.3273 B(  3-C ,  6-N ) :   1.2287 B(  3-C ,  9-H ) :  -0.2275
B(  3-C , 10-H ) :   0.1177 B(  3-C , 11-H ) :   0.2423 B(  3-C , 12-H ) :   0.1177
B(  4-C , 10-H ) :   0.8676 B(  4-C , 11-H ) :   0.8311 B(  4-C , 12-H ) :   0.8676

MP2 TOTAL ENERGY:     -302.778653080 Eh
FINAL SINGLE POINT ENERGY      -302.778653080176

DIPOLE MOMENT
-------------
                                X             Y             Z
Electronic contribution:     -0.02561      -4.09994      -0.00000
Nuclear contribution   :     -0.02424       4.33111       0.00000
                        -----------------------------------------
Total Dipole Moment    :     -0.04985       0.23117      -0.00000
                        -----------------------------------------
Magnitude (a.u.)       :      0.23648
Magnitude (Debye)      :      0.60109

Rotational constants in cm-1:     0.197584     0.090101     0.062595
Rotational constants in MHz :  5923.431919  2701.171629  1876.564863

                             ****ORCA TERMINATED NORMALLY****
TOTAL RUN TIME: 0 days 0 hours 1 minutes 11 seconds 468 msec
