                         Program Version 5.0.3 -  RELEASE  -
|  1> !ri-mp2 aug-cc-pvdz aug-cc-pvdz/c tightscf
|  2> %pal nprocs 16 end
|  3>
|  4> * xyz 0 1
|  5> O    -0.433596    1.791440   -0.034122
|  6> C     0.092369    0.494830   -0.264861
|  7> C    -0.760877   -0.602898    0.406048
|  8> S    -2.513763   -0.566762   -0.143480
|  9> S     2.654148   -0.553579   -0.123783
| 10> C     1.477017    0.465249    0.314637
| 11> H    -1.327788    1.811360   -0.398006
| 12> H     0.147240    0.280150   -1.336058
| 13> H    -0.734102   -0.508767    1.489120
| 14> H    -0.369979   -1.580613    0.134186
| 15> H    -2.975713    0.256316    0.814023
| 16> H     1.631903    1.192396    1.110975
| 17> *
| 18>
| 19>                          ****END OF INPUT****

CARTESIAN COORDINATES (ANGSTROEM)
---------------------------------
  O     -0.433596    1.791440   -0.034122
  C      0.092369    0.494830   -0.264861
  C     -0.760877   -0.602898    0.406048
  S     -2.513763   -0.566762   -0.143480
  S      2.654148   -0.553579   -0.123783
  C      1.477017    0.465249    0.314637
  H     -1.327788    1.811360   -0.398006
  H      0.147240    0.280150   -1.336058
  H     -0.734102   -0.508767    1.489120
  H     -0.369979   -1.580613    0.134186
  H     -2.975713    0.256316    0.814023
  H      1.631903    1.192396    1.110975

 Total Charge           Charge          ....    0
 Multiplicity           Mult            ....    1
 Number of Electrons    NEL             ....   64
 Basis Dimension        Dim             ....  200

ORBITAL ENERGIES
----------------

  NO   OCC          E(Eh)            E(eV)
   0   2.0000     -91.979335     -2502.8849
   1   2.0000     -91.955490     -2502.2361
   2   2.0000     -20.593069      -560.3659
   3   2.0000     -11.333701      -308.4057
   4   2.0000     -11.324904      -308.1663
   5   2.0000     -11.293969      -307.3245
   6   2.0000      -8.980786      -244.3796
   7   2.0000      -8.958201      -243.7650
   8   2.0000      -6.662802      -181.3041
   9   2.0000      -6.661484      -181.2682
  10   2.0000      -6.659481      -181.2137
  11   2.0000      -6.639880      -180.6803
  12   2.0000      -6.638593      -180.6453
  13   2.0000      -6.636137      -180.5785
  14   2.0000      -1.395636       -37.9772
  15   2.0000      -1.117796       -30.4168
  16   2.0000      -1.059243       -28.8235
  17   2.0000      -0.956759       -26.0347
  18   2.0000      -0.862497       -23.4697
  19   2.0000      -0.789285       -21.4775
  20   2.0000      -0.711337       -19.3565
  21   2.0000      -0.665490       -18.1089
  22   2.0000      -0.645117       -17.5545
  23   2.0000      -0.606063       -16.4918
  24   2.0000      -0.551654       -15.0113
  25   2.0000      -0.539686       -14.6856
  26   2.0000      -0.531443       -14.4613
  27   2.0000      -0.486039       -13.2258
  28   2.0000      -0.471674       -12.8349
  29   2.0000      -0.409138       -11.1332
  30   2.0000      -0.382831       -10.4174
  31   2.0000      -0.351940        -9.5768
  32   0.0000       0.033661         0.9160
  33   0.0000       0.037276         1.0143
  34   0.0000       0.045601         1.2409
  35   0.0000       0.050009         1.3608
  36   0.0000       0.051997         1.4149

MULLIKEN ATOMIC CHARGES
-----------------------
   0 O :   -0.795626
   1 C :    0.925037
   2 C :   -0.320086
   3 S :    0.203659
   4 S :    0.019780
   5 C :    0.157615
   6 H :    0.166077
   7 H :   -0.073213
   8 H :   -0.153210
   9 H :    0.022556
  10 H :    0.136201
  11 H :   -0.288790
Sum of atomic charges:    0.0000000

LOEWDIN ATOMIC CHARGES
----------------------
   0 O :    0.123480
   1 C :   -0.372503
   2 C :   -0.289218
   3 S :    0.747015
   4 S :    0.632869
   5 C :   -0.457372
   6 H :   -0.087400
   7 H :    0.025160
   8 H :   -0.025426
   9 H :   -0.035243
  10 H :   -0.219436
  11 H :   -0.041928

  Mayer bond orders larger than 0.100000
B(  0-O ,  1-C ) :   0.1655 B(  0-O ,  2-C ) :   0.1671 B(  0-O ,  6-H ) :   1.0491
B(  1-C ,  2-C ) :   1.1662 B(  1-C ,  3-S ) :  -0.1652 B(  1-C ,  5-C ) :   1.0530
B(  1-C ,  7-H ) :   0.7496 B(  1-C ,  9-H ) :   0.1002 B(  2-C ,  3-S ) :   1.1490
B(  2-C ,  8-H ) :   1.0178 B(  2-C ,  9-H ) :   0.8783 B(  3-S ,  9-H ) :  -0.1020
B(  3-S , 10-H ) :   0.9402 B(  4-S ,  5-C ) :   1.8557 B(  5-C , 11-H ) :   0.9443

MP2 TOTAL ENERGY:     -987.936927181 Eh
FINAL SINGLE POINT ENERGY      -987.936927180793

DIPOLE MOMENT
-------------
                                X             Y             Z
Electronic contribution:      2.82022      -1.31923      -1.44799
Nuclear contribution   :     -3.57994       1.48884       1.79208
                        -----------------------------------------
Total Dipole Moment    :     -0.75972       0.16960       0.34409
                        -----------------------------------------
Magnitude (a.u.)       :      0.85108
Magnitude (Debye)      :      2.16327

Rotational constants in cm-1:     0.168079     0.034406     0.029694
Rotational constants in MHz :  5038.890775  1031.470054   890.202053

                             ****ORCA TERMINATED NORMALLY****
TOTAL RUN TIME: 0 days 0 hours 0 minutes 35 seconds 807 msec
