                         Program Version 5.0.3 -  RELEASE  -
|  1> !ri-mp2 aug-cc-pvdz aug-cc-pvdz/c tightscf
|  2> %pal nprocs 16 end
|  3>
|  4> * xyz 0 1
|  5> C     -1.519478   -0.306091    0.116403
|  6> N     -2.579509   -0.707080   -0.081472
|  7> C     -0.053322    1.653906   -0.147603
|  8> H     -0.178135    1.700270   -1.229566
|  9> H     -0.816479    2.281556    0.309582
| 10> H      0.921467    2.065882    0.106210
| 11> C      2.314757   -0.422465    0.087354
| 12> H      2.455299   -0.421432    1.170184
| 13> H      2.992332   -1.166370   -0.331717
| 14> H      2.625607    0.550800   -0.292013
| 15> C      0.870992   -0.753554   -0.283413
| 16> H      0.745929   -0.734085   -1.368367
| 17> H      0.638768   -1.770647    0.035713
| 18> C     -0.164996    0.202947    0.349922
| 19> H     -0.015943    0.195124    1.434302
| 20> *
| 21>
| 22>                          ****END OF INPUT****

CARTESIAN COORDINATES (ANGSTROEM)
---------------------------------
  C     -1.519478   -0.306091    0.116403
  N     -2.579509   -0.707080   -0.081472
  C     -0.053322    1.653906   -0.147603
  H     -0.178135    1.700270   -1.229566
  H     -0.816479    2.281556    0.309582
  H      0.921467    2.065882    0.106210
  C      2.314757   -0.422465    0.087354
  H      2.455299   -0.421432    1.170184
  H      2.992332   -1.166370   -0.331717
  H      2.625607    0.550800   -0.292013
  C      0.870992   -0.753554   -0.283413
  H      0.745929   -0.734085   -1.368367
  H      0.638768   -1.770647    0.035713
  C     -0.164996    0.202947    0.349922
  H     -0.015943    0.195124    1.434302

 Total Charge           Charge          ....    0
 Multiplicity           Mult            ....    1
 Number of Electrons    NEL             ....   46
 Basis Dimension        Dim             ....  219

ORBITAL ENERGIES
----------------

  NO   OCC          E(Eh)            E(eV)
   0   2.0000     -15.573968      -423.7892
   1   2.0000     -11.289777      -307.2105
   2   2.0000     -11.274988      -306.8080
   3   2.0000     -11.254010      -306.2372
   4   2.0000     -11.248842      -306.0965
   5   2.0000     -11.239569      -305.8442
   6   2.0000      -1.222599       -33.2686
   7   2.0000      -1.117990       -30.4221
   8   2.0000      -1.014909       -27.6171
   9   2.0000      -0.921856       -25.0850
  10   2.0000      -0.835071       -22.7234
  11   2.0000      -0.706025       -19.2119
  12   2.0000      -0.657384       -17.8883
  13   2.0000      -0.612707       -16.6726
  14   2.0000      -0.587739       -15.9932
  15   2.0000      -0.563478       -15.3330
  16   2.0000      -0.556402       -15.1405
  17   2.0000      -0.543737       -14.7958
  18   2.0000      -0.517791       -14.0898
  19   2.0000      -0.506495       -13.7824
  20   2.0000      -0.498873       -13.5750
  21   2.0000      -0.452252       -12.3064
  22   2.0000      -0.448695       -12.2096
  23   0.0000       0.029682         0.8077
  24   0.0000       0.040208         1.0941
  25   0.0000       0.043041         1.1712
  26   0.0000       0.049721         1.3530
  27   0.0000       0.063911         1.7391

MULLIKEN ATOMIC CHARGES
-----------------------
   0 C :   -0.353505
   1 N :   -0.303014
   2 C :    0.712365
   3 H :   -0.020627
   4 H :   -0.077472
   5 H :   -0.091977
   6 C :    0.504002
   7 H :   -0.073437
   8 H :   -0.065379
   9 H :   -0.096269
  10 C :    0.420941
  11 H :   -0.151915
  12 H :   -0.187332
  13 C :   -0.121161
  14 H :   -0.095219
Sum of atomic charges:   -0.0000000

LOEWDIN ATOMIC CHARGES
----------------------
   0 C :   -0.124984
   1 N :    0.077551
   2 C :    0.180375
   3 H :   -0.002013
   4 H :   -0.006815
   5 H :   -0.017839
   6 C :    0.145133
   7 H :   -0.013020
   8 H :   -0.014991
   9 H :   -0.024754
  10 C :   -0.031938
  11 H :    0.021998
  12 H :    0.018880
  13 C :   -0.254968
  14 H :    0.047386

  Mayer bond orders larger than 0.100000
B(  0-C ,  1-N ) :   2.6501 B(  0-C , 13-C ) :   0.2323 B(  1-N , 13-C ) :  -0.1477
B(  2-C ,  3-H ) :   0.8793 B(  2-C ,  4-H ) :   0.8421 B(  2-C ,  5-H ) :   0.8578
B(  2-C , 10-C ) :  -0.1176 B(  2-C , 13-C ) :   1.2520 B(  3-H , 13-C ) :   0.1201
B(  5-H , 13-C ) :   0.1030 B(  6-C ,  7-H ) :   0.9409 B(  6-C ,  8-H ) :   0.8884
B(  6-C ,  9-H ) :   0.9391 B(  6-C , 10-C ) :   1.1889 B(  8-H , 10-C ) :   0.1020
B( 10-C , 11-H ) :   0.8250 B( 10-C , 12-H ) :   0.7304 B( 10-C , 13-C ) :   1.1433
B( 12-H , 13-C ) :   0.1332 B( 13-C , 14-H ) :   0.6764

MP2 TOTAL ENERGY:     -249.944929101 Eh
FINAL SINGLE POINT ENERGY      -249.944929101136

DIPOLE MOMENT
-------------
                                X             Y             Z
Electronic contribution:     -8.05169      -2.22453       0.38640
Nuclear contribution   :      9.72020       2.80262      -0.17266
                        -----------------------------------------
Total Dipole Moment    :      1.66851       0.57809       0.21374
                        -----------------------------------------
Magnitude (a.u.)       :      1.77871
Magnitude (Debye)      :      4.52111

Rotational constants in cm-1:     0.214785     0.073722     0.058794
Rotational constants in MHz :  6439.084302  2210.120823  1762.606341

                             ****ORCA TERMINATED NORMALLY****
TOTAL RUN TIME: 0 days 0 hours 0 minutes 38 seconds 370 msec
