                         Program Version 5.0.3 -  RELEASE  -
|  1> !ri-mp2 aug-cc-pvdz aug-cc-pvdz/c tightscf
|  2> %pal nprocs 16 end
|  3>
|  4> * xyz 0 1
|  5> F      1.606461   -0.410727    0.002376
|  6> N     -1.822683   -0.186473   -0.129924
|  7> C      0.603795    0.505949    0.008579
|  8> C     -0.650353    0.130122    0.010605
|  9> H     -2.343052   -0.348985    0.733356
| 10> H      0.923032    1.534412    0.039623
| 11> *
| 12>
| 13>                          ****END OF INPUT****

CARTESIAN COORDINATES (ANGSTROEM)
---------------------------------
  F      1.606461   -0.410727    0.002376
  N     -1.822683   -0.186473   -0.129924
  C      0.603795    0.505949    0.008579
  C     -0.650353    0.130122    0.010605
  H     -2.343052   -0.348985    0.733356
  H      0.923032    1.534412    0.039623

 Total Charge           Charge          ....    0
 Multiplicity           Mult            ....    1
 Number of Electrons    NEL             ....   30
 Basis Dimension        Dim             ....  110

ORBITAL ENERGIES
----------------

  NO   OCC          E(Eh)            E(eV)
   0   2.0000     -26.327649      -716.4117
   1   2.0000     -15.619254      -425.0215
   2   2.0000     -11.339828      -308.5724
   3   2.0000     -11.337665      -308.5136
   4   2.0000      -1.630061       -44.3562
   5   2.0000      -1.268526       -34.5183
   6   2.0000      -1.038038       -28.2465
   7   2.0000      -0.805776       -21.9263
   8   2.0000      -0.750722       -20.4282
   9   2.0000      -0.728036       -19.8109
  10   2.0000      -0.696238       -18.9456
  11   2.0000      -0.608208       -16.5502
  12   2.0000      -0.571173       -15.5424
  13   2.0000      -0.498615       -13.5680
  14   2.0000      -0.363933        -9.9031
  15   0.0000       0.030515         0.8304
  16   0.0000       0.045020         1.2251
  17   0.0000       0.080930         2.2022
  18   0.0000       0.095854         2.6083
  19   0.0000       0.110715         3.0127

MULLIKEN ATOMIC CHARGES
-----------------------
   0 F :   -0.589931
   1 N :   -0.287317
   2 C :    1.311873
   3 C :   -0.418974
   4 H :    0.119733
   5 H :   -0.135385
Sum of atomic charges:   -0.0000000

LOEWDIN ATOMIC CHARGES
----------------------
   0 F :    0.010468
   1 N :    0.190427
   2 C :   -0.015205
   3 C :   -0.108847
   4 H :   -0.054271
   5 H :   -0.022572

  Mayer bond orders larger than 0.100000
B(  0-F ,  2-C ) :   0.2305 B(  0-F ,  3-C ) :   0.2513 B(  1-N ,  3-C ) :   2.0668
B(  1-N ,  4-H ) :   0.9097 B(  2-C ,  3-C ) :   1.7099 B(  2-C ,  5-H ) :   0.7842
B(  3-C ,  5-H ) :   0.1269

MP2 TOTAL ENERGY:     -231.367659091 Eh
FINAL SINGLE POINT ENERGY      -231.367659091204

DIPOLE MOMENT
-------------
                                X             Y             Z
Electronic contribution:      2.52586      -1.04414      -0.13492
Nuclear contribution   :     -2.87922       1.51723       0.73465
                        -----------------------------------------
Total Dipole Moment    :     -0.35336       0.47310       0.59974
                        -----------------------------------------
Magnitude (a.u.)       :      0.84164
Magnitude (Debye)      :      2.13929

Rotational constants in cm-1:     1.670143     0.150374     0.139646
Rotational constants in MHz : 50069.623993  4508.098561  4186.479011

                             ****ORCA TERMINATED NORMALLY****
TOTAL RUN TIME: 0 days 0 hours 0 minutes 30 seconds 309 msec
