                         Program Version 5.0.3 -  RELEASE  -
|  1> !ri-mp2 aug-cc-pvdz aug-cc-pvdz/c tightscf
|  2> %pal nprocs 16 end
|  3>
|  4> * xyz 0 1
|  5> F     -2.349093   -0.439318        0.000000
|  6> F      2.398437   -0.465192        0.000000
|  7> O     -0.734830    1.107764        0.000000
|  8> C     -1.057992   -0.187509        0.000000
|  9> C      1.115249   -0.099449        0.000000
| 10> C      0.013570   -1.010677        0.000000
| 11> C      0.647558    1.167846        0.000000
| 12> H      0.028831   -2.084299        0.000001
| 13> H      1.095398    2.141517        0.000000
| 14> *
| 15>
| 16>                          ****END OF INPUT****

CARTESIAN COORDINATES (ANGSTROEM)
---------------------------------
  F     -2.349093   -0.439318    0.000000
  F      2.398437   -0.465192    0.000000
  O     -0.734830    1.107764    0.000000
  C     -1.057992   -0.187509    0.000000
  C      1.115249   -0.099449    0.000000
  C      0.013570   -1.010677    0.000000
  C      0.647558    1.167846    0.000000
  H      0.028831   -2.084299    0.000001
  H      1.095398    2.141517    0.000000

 Total Charge           Charge          ....    0
 Multiplicity           Mult            ....    1
 Number of Electrons    NEL             ....   52
 Basis Dimension        Dim             ....  179

ORBITAL ENERGIES
----------------

  NO   OCC          E(Eh)            E(eV)
   0   2.0000     -26.368940      -717.5353
   1   2.0000     -26.345686      -716.9026
   2   2.0000     -20.666587      -562.3664
   3   2.0000     -11.417441      -310.6844
   4   2.0000     -11.352442      -308.9156
   5   2.0000     -11.310000      -307.7608
   6   2.0000     -11.263655      -306.4996
   7   2.0000      -1.689175       -45.9648
   8   2.0000      -1.655259       -45.0419
   9   2.0000      -1.499094       -40.7924
  10   2.0000      -1.128064       -30.6962
  11   2.0000      -1.036806       -28.2129
  12   2.0000      -0.871940       -23.7267
  13   2.0000      -0.857475       -23.3331
  14   2.0000      -0.807707       -21.9788
  15   2.0000      -0.752670       -20.4812
  16   2.0000      -0.740341       -20.1457
  17   2.0000      -0.719281       -19.5726
  18   2.0000      -0.715893       -19.4804
  19   2.0000      -0.677444       -18.4342
  20   2.0000      -0.652698       -17.7608
  21   2.0000      -0.646070       -17.5805
  22   2.0000      -0.609547       -16.5866
  23   2.0000      -0.564320       -15.3559
  24   2.0000      -0.424818       -11.5599
  25   2.0000      -0.341868        -9.3027
  26   0.0000       0.034738         0.9453
  27   0.0000       0.041372         1.1258
  28   0.0000       0.071710         1.9513
  29   0.0000       0.087252         2.3743
  30   0.0000       0.093022         2.5313

MULLIKEN ATOMIC CHARGES
-----------------------
   0 F :   -0.649088
   1 F :   -0.723498
   2 O :   -0.753609
   3 C :    1.115718
   4 C :    0.741485
   5 C :    0.124467
   6 C :    0.630680
   7 H :   -0.234788
   8 H :   -0.251366
Sum of atomic charges:    0.0000000

LOEWDIN ATOMIC CHARGES
----------------------
   0 F :    0.110226
   1 F :    0.077506
   2 O :    0.108104
   3 C :   -0.214434
   4 C :   -0.226264
   5 C :    0.084718
   6 C :    0.068374
   7 H :    0.002259
   8 H :   -0.010489

  Mayer bond orders larger than 0.100000
B(  0-F ,  3-C ) :   0.1989 B(  0-F ,  5-C ) :   0.1428 B(  1-F ,  4-C ) :  -0.1055
B(  1-F ,  5-C ) :   0.2621 B(  1-F ,  6-C ) :   0.1275 B(  2-O ,  3-C ) :   0.7955
B(  2-O ,  5-C ) :   0.1194 B(  2-O ,  6-C ) :   0.6261 B(  3-C ,  5-C ) :   1.8044
B(  4-C ,  5-C ) :   1.4156 B(  4-C ,  6-C ) :   1.6781 B(  4-C ,  8-H ) :  -0.1102
B(  5-C ,  7-H ) :   0.7473 B(  6-C ,  8-H ) :   0.9496

MP2 TOTAL ENERGY:     -427.491094584 Eh
FINAL SINGLE POINT ENERGY      -427.491094583712

DIPOLE MOMENT
-------------
                                X             Y             Z
Electronic contribution:     -0.89287      -0.93604      -0.00000
Nuclear contribution   :      0.99853       0.90847       0.00000
                        -----------------------------------------
Total Dipole Moment    :      0.10566      -0.02756       0.00000
                        -----------------------------------------
Magnitude (a.u.)       :      0.10919
Magnitude (Debye)      :      0.27755

Rotational constants in cm-1:     0.257108     0.065489     0.052194
Rotational constants in MHz :  7707.910538  1963.315306  1564.750838

                             ****ORCA TERMINATED NORMALLY****
TOTAL RUN TIME: 0 days 0 hours 0 minutes 41 seconds 623 msec
