                         Program Version 5.0.3 -  RELEASE  -
|  1> !ri-mp2 aug-cc-pvdz aug-cc-pvdz/c tightscf
|  2> %pal nprocs 16 end
|  3>
|  4> * xyz 0 1
|  5> O    -0.632058    0.672130   -0.429729
|  6> O    -3.588830   -0.935067   -0.145234
|  7> O     3.802898   -0.381162   -0.172489
|  8> N     0.433297    0.185855    0.340131
|  9> C    -1.809404    0.727301    0.307417
| 10> C     1.516191    0.170796   -0.329905
| 11> C    -2.745700   -0.171725    0.074575
| 12> C     2.724311   -0.315122    0.366593
| 13> H    -1.953915    1.509033    1.036401
| 14> H     1.584308    0.490399   -1.366547
| 15> H     2.568061   -0.615137    1.416763
| 16> *
| 17>
| 18>                          ****END OF INPUT****

CARTESIAN COORDINATES (ANGSTROEM)
---------------------------------
  O     -0.632058    0.672130   -0.429729
  O     -3.588830   -0.935067   -0.145234
  O      3.802898   -0.381162   -0.172489
  N      0.433297    0.185855    0.340131
  C     -1.809404    0.727301    0.307417
  C      1.516191    0.170796   -0.329905
  C     -2.745700   -0.171725    0.074575
  C      2.724311   -0.315122    0.366593
  H     -1.953915    1.509033    1.036401
  H      1.584308    0.490399   -1.366547
  H      2.568061   -0.615137    1.416763

 Total Charge           Charge          ....    0
 Multiplicity           Mult            ....    1
 Number of Electrons    NEL             ....   58
 Basis Dimension        Dim             ....  211

ORBITAL ENERGIES
----------------

  NO   OCC          E(Eh)            E(eV)
   0   2.0000     -20.664126      -562.2994
   1   2.0000     -20.662613      -562.2583
   2   2.0000     -20.596318      -560.4543
   3   2.0000     -15.687875      -426.8888
   4   2.0000     -11.410444      -310.4940
   5   2.0000     -11.367343      -309.3211
   6   2.0000     -11.318957      -308.0045
   7   2.0000     -11.317558      -307.9664
   8   2.0000      -1.502310       -40.8799
   9   2.0000      -1.486798       -40.4578
  10   2.0000      -1.425429       -38.7879
  11   2.0000      -1.230866       -33.4936
  12   2.0000      -1.053131       -28.6571
  13   2.0000      -0.936589       -25.4859
  14   2.0000      -0.817046       -22.2329
  15   2.0000      -0.788857       -21.4659
  16   2.0000      -0.744097       -20.2479
  17   2.0000      -0.740091       -20.1389
  18   2.0000      -0.717724       -19.5303
  19   2.0000      -0.665914       -18.1204
  20   2.0000      -0.657215       -17.8837
  21   2.0000      -0.648131       -17.6366
  22   2.0000      -0.618137       -16.8204
  23   2.0000      -0.597048       -16.2465
  24   2.0000      -0.559130       -15.2147
  25   2.0000      -0.499505       -13.5922
  26   2.0000      -0.457950       -12.4614
  27   2.0000      -0.436801       -11.8860
  28   2.0000      -0.373657       -10.1677
  29   0.0000       0.031124         0.8469
  30   0.0000       0.044879         1.2212
  31   0.0000       0.046401         1.2626
  32   0.0000       0.051086         1.3901
  33   0.0000       0.064208         1.7472

MULLIKEN ATOMIC CHARGES
-----------------------
   0 O :   -0.832050
   1 O :   -0.394331
   2 O :   -0.642293
   3 N :   -0.138563
   4 C :    1.308925
   5 C :    0.620199
   6 C :   -0.228969
   7 C :    0.795990
   8 H :   -0.154729
   9 H :   -0.229600
  10 H :   -0.104581
Sum of atomic charges:    0.0000000

LOEWDIN ATOMIC CHARGES
----------------------
   0 O :   -0.001972
   1 O :    0.125135
   2 O :    0.034416
   3 N :    0.046888
   4 C :   -0.056063
   5 C :   -0.016254
   6 C :   -0.064349
   7 C :   -0.084622
   8 H :   -0.015973
   9 H :    0.019244
  10 H :    0.013549

  Mayer bond orders larger than 0.100000
B(  0-O ,  3-N ) :   0.7063 B(  0-O ,  4-C ) :   0.5213 B(  0-O ,  5-C ) :  -0.1393
B(  0-O ,  9-H ) :  -0.1109 B(  1-O ,  6-C ) :   2.0933 B(  2-O ,  7-C ) :   1.5060
B(  3-N ,  4-C ) :  -0.1431 B(  3-N ,  5-C ) :   1.8851 B(  3-N ,  7-C ) :  -0.1232
B(  3-N ,  9-H ) :   0.1061 B(  4-C ,  6-C ) :   1.3525 B(  4-C ,  8-H ) :   0.8668
B(  5-C ,  7-C ) :   1.2558 B(  5-C ,  9-H ) :   0.7544 B(  5-C , 10-H ) :   0.1571
B(  7-C ,  9-H ) :   0.1070 B(  7-C , 10-H ) :   0.8806

MP2 TOTAL ENERGY:     -433.439769379 Eh
FINAL SINGLE POINT ENERGY      -433.439769378948

DIPOLE MOMENT
-------------
                                X             Y             Z
Electronic contribution:     -2.64606      -0.81234      -0.61897
Nuclear contribution   :      2.11399       1.32483       1.03737
                        -----------------------------------------
Total Dipole Moment    :     -0.53207       0.51249       0.41840
                        -----------------------------------------
Magnitude (a.u.)       :      0.84900
Magnitude (Debye)      :      2.15798

Rotational constants in cm-1:     0.339547     0.023394     0.022742
Rotational constants in MHz : 10179.354016   701.347125   681.791352

                             ****ORCA TERMINATED NORMALLY****
TOTAL RUN TIME: 0 days 0 hours 0 minutes 45 seconds 592 msec
