                         Program Version 5.0.3 -  RELEASE  -
|  1> !ri-mp2 aug-cc-pvdz aug-cc-pvdz/c tightscf
|  2> %pal nprocs 16 end
|  3>
|  4> * xyz 0 1
|  5> C     0.000000     2.348442   -1.472492
|  6> C     0.000000     1.181572   -0.546325
|  7> C     0.000000     1.220509    0.796168
|  8> C     0.000000     0.000000    1.597720
|  9> O     0.000000     0.000000    2.824812
| 10> O     0.000000     0.000000   -1.229567
| 11> C     0.000000    -1.220509    0.796168
| 12> C     0.000000    -1.181572   -0.546325
| 13> C     0.000000    -2.348442   -1.472492
| 14> H     0.879762     2.324369   -2.118001
| 15> H     0.000000     3.279116   -0.911282
| 16> H    -0.879762     2.324369   -2.118001
| 17> H     0.000000     2.170852    1.309034
| 18> H     0.000000    -2.170852    1.309034
| 19> H     0.000000    -3.279116   -0.911282
| 20> H     0.879762    -2.324369   -2.118001
| 21> H    -0.879762    -2.324369   -2.118001
| 22> *
| 23>
| 24>                          ****END OF INPUT****

CARTESIAN COORDINATES (ANGSTROEM)
---------------------------------
  C      0.000000    2.348442   -1.472492
  C      0.000000    1.181572   -0.546325
  C      0.000000    1.220509    0.796168
  C      0.000000    0.000000    1.597720
  O      0.000000    0.000000    2.824812
  O      0.000000    0.000000   -1.229567
  C      0.000000   -1.220509    0.796168
  C      0.000000   -1.181572   -0.546325
  C      0.000000   -2.348442   -1.472492
  H      0.879762    2.324369   -2.118001
  H      0.000000    3.279116   -0.911282
  H     -0.879762    2.324369   -2.118001
  H      0.000000    2.170852    1.309034
  H      0.000000   -2.170852    1.309034
  H      0.000000   -3.279116   -0.911282
  H      0.879762   -2.324369   -2.118001
  H     -0.879762   -2.324369   -2.118001

 Total Charge           Charge          ....    0
 Multiplicity           Mult            ....    1
 Number of Electrons    NEL             ....   66
 Basis Dimension        Dim             ....  279

ORBITAL ENERGIES
----------------

  NO   OCC          E(Eh)            E(eV)
   0   2.0000     -20.650266      -561.9223
   1   2.0000     -20.526368      -558.5509
   2   2.0000     -11.343725      -308.6785
   3   2.0000     -11.343694      -308.6776
   4   2.0000     -11.328841      -308.2734
   5   2.0000     -11.258236      -306.3522
   6   2.0000     -11.258236      -306.3522
   7   2.0000     -11.239016      -305.8292
   8   2.0000     -11.238999      -305.8287
   9   2.0000      -1.479956       -40.2717
  10   2.0000      -1.360385       -37.0179
  11   2.0000      -1.122774       -30.5522
  12   2.0000      -1.096239       -29.8302
  13   2.0000      -1.013729       -27.5850
  14   2.0000      -0.966297       -26.2943
  15   2.0000      -0.870256       -23.6809
  16   2.0000      -0.827080       -22.5060
  17   2.0000      -0.723169       -19.6784
  18   2.0000      -0.716404       -19.4943
  19   2.0000      -0.675196       -18.3730
  20   2.0000      -0.645002       -17.5514
  21   2.0000      -0.612641       -16.6708
  22   2.0000      -0.602515       -16.3953
  23   2.0000      -0.600616       -16.3436
  24   2.0000      -0.580647       -15.8002
  25   2.0000      -0.570469       -15.5232
  26   2.0000      -0.567443       -15.4409
  27   2.0000      -0.550592       -14.9824
  28   2.0000      -0.537554       -14.6276
  29   2.0000      -0.529656       -14.4127
  30   2.0000      -0.406955       -11.0738
  31   2.0000      -0.379923       -10.3382
  32   2.0000      -0.355301        -9.6682
  33   0.0000       0.027169         0.7393
  34   0.0000       0.033992         0.9250
  35   0.0000       0.045991         1.2515
  36   0.0000       0.047433         1.2907
  37   0.0000       0.055537         1.5112

MULLIKEN ATOMIC CHARGES
-----------------------
   0 C :    0.340648
   1 C :    0.198003
   2 C :    1.005049
   3 C :   -0.320722
   4 O :   -0.856173
   5 O :   -1.110076
   6 C :    1.005049
   7 C :    0.198003
   8 C :    0.340648
   9 H :    0.106727
  10 H :   -0.068279
  11 H :    0.106727
  12 H :   -0.545390
  13 H :   -0.545390
  14 H :   -0.068279
  15 H :    0.106727
  16 H :    0.106727
Sum of atomic charges:   -0.0000000

LOEWDIN ATOMIC CHARGES
----------------------
   0 C :    0.200220
   1 C :   -0.205799
   2 C :    0.099752
   3 C :   -0.329420
   4 O :    0.003293
   5 O :    0.121192
   6 C :    0.099752
   7 C :   -0.205799
   8 C :    0.200220
   9 H :    0.000880
  10 H :   -0.004202
  11 H :    0.000880
  12 H :    0.010737
  13 H :    0.010737
  14 H :   -0.004202
  15 H :    0.000880
  16 H :    0.000880

  Mayer bond orders larger than 0.100000
B(  0-C ,  1-C ) :   1.1491 B(  0-C ,  3-C ) :   0.1134 B(  0-C ,  9-H ) :   0.8487
B(  0-C , 10-H ) :   0.7307 B(  0-C , 11-H ) :   0.8487 B(  1-C ,  2-C ) :   1.6424
B(  1-C ,  5-O ) :   0.4420 B(  1-C ,  6-C ) :  -0.1636 B(  1-C ,  7-C ) :   0.2506
B(  1-C ,  9-H ) :   0.1417 B(  1-C , 10-H ) :   0.3603 B(  1-C , 11-H ) :   0.1417
B(  2-C ,  3-C ) :   0.7580 B(  2-C ,  6-C ) :   0.3034 B(  2-C ,  7-C ) :  -0.1636
B(  2-C , 10-H ) :  -0.1143 B(  2-C , 12-H ) :   0.2383 B(  3-C ,  4-O ) :   1.3067
B(  3-C ,  6-C ) :   0.7580 B(  3-C ,  8-C ) :   0.1134 B(  3-C , 12-H ) :   0.2897
B(  3-C , 13-H ) :   0.2897 B(  5-O ,  7-C ) :   0.4420 B(  6-C ,  7-C ) :   1.6424
B(  6-C , 13-H ) :   0.2383 B(  6-C , 14-H ) :  -0.1143 B(  7-C ,  8-C ) :   1.1491
B(  7-C , 14-H ) :   0.3603 B(  7-C , 15-H ) :   0.1417 B(  7-C , 16-H ) :   0.1417
B(  8-C , 14-H ) :   0.7307 B(  8-C , 15-H ) :   0.8487 B(  8-C , 16-H ) :   0.8487

MP2 TOTAL ENERGY:     -420.848365814 Eh
FINAL SINGLE POINT ENERGY      -420.848365813951

DIPOLE MOMENT
-------------
                                X             Y             Z
Electronic contribution:     -0.00000       0.00000       5.46887
Nuclear contribution   :      0.00000       0.00000      -7.63988
                        -----------------------------------------
Total Dipole Moment    :     -0.00000       0.00000      -2.17101
                        -----------------------------------------
Magnitude (a.u.)       :      2.17101
Magnitude (Debye)      :      5.51826

Rotational constants in cm-1:     0.065368     0.059596     0.031538
Rotational constants in MHz :  1959.675014  1786.635114   945.492211

                             ****ORCA TERMINATED NORMALLY****
TOTAL RUN TIME: 0 days 0 hours 1 minutes 22 seconds 88 msec
