                         Program Version 5.0.3 -  RELEASE  -
|  1> !ri-mp2 aug-cc-pvdz aug-cc-pvdz/c tightscf
|  2> %pal nprocs 16 end
|  3>
|  4> * xyz 0 1
|  5> C      0.000000    0.890610        0.000000
|  6> C      1.213082    0.212929        0.000000
|  7> C      1.150826   -1.170346        0.000000
|  8> C     -0.094041   -1.795003        0.000000
|  9> C     -1.228714   -0.999639        0.000000
| 10> N     -1.183800    0.338362        0.000000
| 11> F      0.025740    2.234588        0.000000
| 12> H      2.146052    0.755943        0.000000
| 13> H      2.060970   -1.754404        0.000000
| 14> H     -0.181364   -2.871685        0.000000
| 15> H     -2.217635   -1.440986        0.000000
| 16> *
| 17>
| 18>                          ****END OF INPUT****

CARTESIAN COORDINATES (ANGSTROEM)
---------------------------------
  C      0.000000    0.890610    0.000000
  C      1.213082    0.212929    0.000000
  C      1.150826   -1.170346    0.000000
  C     -0.094041   -1.795003    0.000000
  C     -1.228714   -0.999639    0.000000
  N     -1.183800    0.338362    0.000000
  F      0.025740    2.234588    0.000000
  H      2.146052    0.755943    0.000000
  H      2.060970   -1.754404    0.000000
  H     -0.181364   -2.871685    0.000000
  H     -2.217635   -1.440986    0.000000

 Total Charge           Charge          ....    0
 Multiplicity           Mult            ....    1
 Number of Electrons    NEL             ....   50
 Basis Dimension        Dim             ....  197

ORBITAL ENERGIES
----------------

  NO   OCC          E(Eh)            E(eV)
   0   2.0000     -26.327670      -716.4123
   1   2.0000     -15.587263      -424.1510
   2   2.0000     -11.378269      -309.6184
   3   2.0000     -11.299886      -307.4855
   4   2.0000     -11.282335      -307.0080
   5   2.0000     -11.262175      -306.4594
   6   2.0000     -11.255872      -306.2879
   7   2.0000      -1.641489       -44.6672
   8   2.0000      -1.288177       -35.0531
   9   2.0000      -1.113268       -30.2936
  10   2.0000      -1.050134       -28.5756
  11   2.0000      -0.894426       -24.3386
  12   2.0000      -0.877260       -23.8714
  13   2.0000      -0.767193       -20.8764
  14   2.0000      -0.726596       -19.7717
  15   2.0000      -0.702741       -19.1225
  16   2.0000      -0.695185       -18.9170
  17   2.0000      -0.638820       -17.3832
  18   2.0000      -0.630061       -17.1448
  19   2.0000      -0.585838       -15.9415
  20   2.0000      -0.555033       -15.1032
  21   2.0000      -0.551509       -15.0073
  22   2.0000      -0.445955       -12.1351
  23   2.0000      -0.402387       -10.9495
  24   2.0000      -0.356748        -9.7076
  25   0.0000       0.029015         0.7895
  26   0.0000       0.038938         1.0596
  27   0.0000       0.046844         1.2747
  28   0.0000       0.060569         1.6482
  29   0.0000       0.079939         2.1752

MULLIKEN ATOMIC CHARGES
-----------------------
   0 C :    0.880473
   1 C :    0.571510
   2 C :    0.015070
   3 C :    0.920255
   4 C :    0.355885
   5 N :   -0.547716
   6 F :   -0.706410
   7 H :   -0.398085
   8 H :   -0.373646
   9 H :   -0.409099
  10 H :   -0.308238
Sum of atomic charges:    0.0000000

LOEWDIN ATOMIC CHARGES
----------------------
   0 C :   -0.238722
   1 C :    0.057144
   2 C :    0.025441
   3 C :    0.015047
   4 C :   -0.016592
   5 N :    0.065440
   6 F :    0.071881
   7 H :    0.007119
   8 H :    0.010752
   9 H :   -0.002188
  10 H :    0.004678

  Mayer bond orders larger than 0.100000
B(  0-C ,  1-C ) :   1.1453 B(  0-C ,  2-C ) :   0.1549 B(  0-C ,  4-C ) :   0.1003
B(  0-C ,  5-N ) :   1.5057 B(  1-C ,  2-C ) :   1.7124 B(  1-C ,  6-F ) :   0.1937
B(  1-C ,  7-H ) :   0.6232 B(  2-C ,  3-C ) :   1.4675 B(  2-C ,  4-C ) :   0.2715
B(  2-C ,  7-H ) :   0.1853 B(  2-C ,  8-H ) :   0.6611 B(  2-C ,  9-H ) :   0.1740
B(  3-C ,  4-C ) :   1.1769 B(  3-C ,  9-H ) :   0.5688 B(  4-C ,  5-N ) :   1.1431
B(  4-C , 10-H ) :   0.9550

MP2 TOTAL ENERGY:     -346.628790038 Eh
FINAL SINGLE POINT ENERGY      -346.628790037930

DIPOLE MOMENT
-------------
                                X             Y             Z
Electronic contribution:     -0.96266       6.03487       0.00000
Nuclear contribution   :      1.71734      -7.26919       0.00000
                        -----------------------------------------
Total Dipole Moment    :      0.75468      -1.23432       0.00000
                        -----------------------------------------
Magnitude (a.u.)       :      1.44675
Magnitude (Debye)      :      3.67736

Rotational constants in cm-1:     0.197547     0.090045     0.061852
Rotational constants in MHz :  5922.295142  2699.477762  1854.271066

                             ****ORCA TERMINATED NORMALLY****
TOTAL RUN TIME: 0 days 0 hours 0 minutes 41 seconds 370 msec
