                         Program Version 5.0.3 -  RELEASE  -
|  1> !ri-mp2 aug-cc-pvdz aug-cc-pvdz/c tightscf
|  2> %pal nprocs 16 end
|  3>
|  4> * xyz 0 1
|  5> S    -2.712144   -0.669688     0.037222
|  6> O     0.933735    2.198989     0.455731
|  7> O    -0.813211    1.753882    -0.838351
|  8> O     3.132632   -1.292925    -0.368579
|  9> N     1.364274   -0.584057     0.618722
| 10> N     2.135784   -0.617460    -0.478845
| 11> C     0.002543   -0.066606     0.511530
| 12> C    -0.932563   -0.985226    -0.286130
| 13> C    -0.000890    1.370282    -0.050456
| 14> H    -0.365039    0.012010     1.536683
| 15> H    -0.768377   -0.838439    -1.350349
| 16> H    -0.717791   -2.023048    -0.047362
| 17> H     1.618464   -1.240568     1.355307
| 18> H    -2.888807   -1.681239     0.906858
| 19> H     1.575667    1.706649     0.984110
| 20> *
| 21>
| 22>                          ****END OF INPUT****

CARTESIAN COORDINATES (ANGSTROEM)
---------------------------------
  S     -2.712144   -0.669688    0.037222
  O      0.933735    2.198989    0.455731
  O     -0.813211    1.753882   -0.838351
  O      3.132632   -1.292925   -0.368579
  N      1.364274   -0.584057    0.618722
  N      2.135784   -0.617460   -0.478845
  C      0.002543   -0.066606    0.511530
  C     -0.932563   -0.985226   -0.286130
  C     -0.000890    1.370282   -0.050456
  H     -0.365039    0.012010    1.536683
  H     -0.768377   -0.838439   -1.350349
  H     -0.717791   -2.023048   -0.047362
  H      1.618464   -1.240568    1.355307
  H     -2.888807   -1.681239    0.906858
  H      1.575667    1.706649    0.984110

 Total Charge           Charge          ....    0
 Multiplicity           Mult            ....    1
 Number of Electrons    NEL             ....   78
 Basis Dimension        Dim             ....  265

ORBITAL ENERGIES
----------------

  NO   OCC          E(Eh)            E(eV)
   0   2.0000     -91.974685     -2502.7584
   1   2.0000     -20.638240      -561.5950
   2   2.0000     -20.635914      -561.5318
   3   2.0000     -20.577776      -559.9497
   4   2.0000     -15.772561      -429.1932
   5   2.0000     -15.669513      -426.3891
   6   2.0000     -11.416882      -310.6691
   7   2.0000     -11.342347      -308.6410
   8   2.0000     -11.298599      -307.4505
   9   2.0000      -8.975684      -244.2408
  10   2.0000      -6.657595      -181.1624
  11   2.0000      -6.656279      -181.1266
  12   2.0000      -6.654184      -181.0695
  13   2.0000      -1.561560       -42.4922
  14   2.0000      -1.485958       -40.4350
  15   2.0000      -1.392314       -37.8868
  16   2.0000      -1.312989       -35.7282
  17   2.0000      -1.111544       -30.2466
  18   2.0000      -1.014754       -27.6129
  19   2.0000      -0.939908       -25.5762
  20   2.0000      -0.888093       -24.1662
  21   2.0000      -0.841876       -22.9086
  22   2.0000      -0.774587       -21.0776
  23   2.0000      -0.770176       -20.9575
  24   2.0000      -0.717704       -19.5297
  25   2.0000      -0.690420       -18.7873
  26   2.0000      -0.666678       -18.1412
  27   2.0000      -0.647985       -17.6326
  28   2.0000      -0.646039       -17.5796
  29   2.0000      -0.623197       -16.9580
  30   2.0000      -0.592706       -16.1283
  31   2.0000      -0.575018       -15.6470
  32   2.0000      -0.543805       -14.7977
  33   2.0000      -0.499235       -13.5849
  34   2.0000      -0.490734       -13.3535
  35   2.0000      -0.467790       -12.7292
  36   2.0000      -0.450489       -12.2584
  37   2.0000      -0.443952       -12.0806
  38   2.0000      -0.375214       -10.2101
  39   0.0000       0.018033         0.4907
  40   0.0000       0.035082         0.9546
  41   0.0000       0.045139         1.2283
  42   0.0000       0.050937         1.3861
  43   0.0000       0.061994         1.6869

MULLIKEN ATOMIC CHARGES
-----------------------
   0 S :    0.293673
   1 O :   -0.716303
   2 O :   -0.692079
   3 O :   -0.646834
   4 N :   -0.025170
   5 N :    0.206242
   6 C :    0.295439
   7 C :    0.190198
   8 C :    1.186237
   9 H :   -0.112868
  10 H :   -0.053568
  11 H :   -0.139183
  12 H :   -0.102689
  13 H :    0.087396
  14 H :    0.229509
Sum of atomic charges:   -0.0000000

LOEWDIN ATOMIC CHARGES
----------------------
   0 S :    0.763776
   1 O :    0.222788
   2 O :    0.070716
   3 O :   -0.007019
   4 N :    0.024567
   5 N :   -0.013719
   6 C :   -0.197258
   7 C :   -0.271142
   8 C :   -0.318994
   9 H :    0.039755
  10 H :   -0.027506
  11 H :   -0.028499
  12 H :    0.023072
  13 H :   -0.230938
  14 H :   -0.049599

  Mayer bond orders larger than 0.100000
B(  0-S ,  6-C ) :  -0.2309 B(  0-S ,  7-C ) :   1.2346 B(  0-S , 10-H ) :  -0.1112
B(  0-S , 13-H ) :   0.9652 B(  1-O ,  6-C ) :   0.1283 B(  1-O ,  8-C ) :   0.4111
B(  1-O , 14-H ) :   0.9685 B(  2-O ,  8-C ) :   1.5686 B(  3-O ,  5-N ) :   1.2157
B(  4-N ,  5-N ) :   0.8107 B(  4-N ,  6-C ) :   0.6965 B(  4-N , 12-H ) :   1.0840
B(  5-N ,  6-C ) :  -0.1010 B(  6-C ,  7-C ) :   1.1295 B(  6-C ,  8-C ) :   1.0725
B(  6-C ,  9-H ) :   0.7387 B(  6-C , 10-H ) :   0.2142 B(  6-C , 11-H ) :   0.1148
B(  7-C , 10-H ) :   0.8027 B(  7-C , 11-H ) :   0.9026

MP2 TOTAL ENERGY:     -849.602144443 Eh
FINAL SINGLE POINT ENERGY      -849.602144443436

DIPOLE MOMENT
-------------
                                X             Y             Z
Electronic contribution:      1.51520       2.61605      -1.53303
Nuclear contribution   :     -1.35646      -3.91131       3.29080
                        -----------------------------------------
Total Dipole Moment    :      0.15875      -1.29526       1.75778
                        -----------------------------------------
Magnitude (a.u.)       :      2.18922
Magnitude (Debye)      :      5.56455

Rotational constants in cm-1:     0.064519     0.029572     0.022277
Rotational constants in MHz :  1934.239116   886.538497   667.859946

                             ****ORCA TERMINATED NORMALLY****
TOTAL RUN TIME: 0 days 0 hours 1 minutes 23 seconds 979 msec
