                         Program Version 5.0.3 -  RELEASE  -
|  1> !ri-mp2 aug-cc-pvdz aug-cc-pvdz/c tightscf
|  2> %pal nprocs 16 end
|  3>
|  4> * xyz 0 1
|  5> C      1.176464   -1.121040   -0.130625
|  6> C      0.378337    0.070180    0.381926
|  7> O      0.913379    1.242348   -0.219964
|  8> H      0.423642    2.014994    0.081178
|  9> H      0.813225   -2.045334    0.315541
| 10> H      1.091458   -1.191726   -1.213368
| 11> H      2.223270   -0.983889    0.134284
| 12> C     -1.060337   -0.071096    0.078798
| 13> H      0.468455    0.125994    1.472411
| 14> N     -2.184838   -0.161013   -0.144418
| 15> *
| 16>
| 17>                          ****END OF INPUT****

CARTESIAN COORDINATES (ANGSTROEM)
---------------------------------
  C      1.176464   -1.121040   -0.130625
  C      0.378337    0.070180    0.381926
  O      0.913379    1.242348   -0.219964
  H      0.423642    2.014994    0.081178
  H      0.813225   -2.045334    0.315541
  H      1.091458   -1.191726   -1.213368
  H      2.223270   -0.983889    0.134284
  C     -1.060337   -0.071096    0.078798
  H      0.468455    0.125994    1.472411
  N     -2.184838   -0.161013   -0.144418

 Total Charge           Charge          ....    0
 Multiplicity           Mult            ....    1
 Number of Electrons    NEL             ....   38
 Basis Dimension        Dim             ....  160

ORBITAL ENERGIES
----------------

  NO   OCC          E(Eh)            E(eV)
   0   2.0000     -20.605846      -560.7136
   1   2.0000     -15.592391      -424.2905
   2   2.0000     -11.354274      -308.9655
   3   2.0000     -11.287530      -307.1493
   4   2.0000     -11.254129      -306.2404
   5   2.0000      -1.405328       -38.2409
   6   2.0000      -1.234414       -33.5901
   7   2.0000      -1.069857       -29.1123
   8   2.0000      -0.910854       -24.7856
   9   2.0000      -0.763158       -20.7666
  10   2.0000      -0.723335       -19.6829
  11   2.0000      -0.624379       -16.9902
  12   2.0000      -0.586113       -15.9489
  13   2.0000      -0.568759       -15.4767
  14   2.0000      -0.563093       -15.3225
  15   2.0000      -0.548061       -14.9135
  16   2.0000      -0.503819       -13.7096
  17   2.0000      -0.477268       -12.9871
  18   2.0000      -0.465503       -12.6670
  19   0.0000       0.028922         0.7870
  20   0.0000       0.042790         1.1644
  21   0.0000       0.048096         1.3087
  22   0.0000       0.056510         1.5377
  23   0.0000       0.070379         1.9151

MULLIKEN ATOMIC CHARGES
-----------------------
   0 C :    0.444042
   1 C :    0.840404
   2 O :   -0.708919
   3 H :    0.132280
   4 H :   -0.008597
   5 H :   -0.002136
   6 H :   -0.020613
   7 C :   -0.312924
   8 H :   -0.061854
   9 N :   -0.301683
Sum of atomic charges:   -0.0000000

LOEWDIN ATOMIC CHARGES
----------------------
   0 C :    0.176763
   1 C :   -0.283269
   2 O :    0.150361
   3 H :   -0.043429
   4 H :   -0.004305
   5 H :   -0.002351
   6 H :   -0.005363
   7 C :   -0.103189
   8 H :    0.039524
   9 N :    0.075259

  Mayer bond orders larger than 0.100000
B(  0-C ,  1-C ) :   1.3815 B(  0-C ,  4-H ) :   0.8822 B(  0-C ,  5-H ) :   0.8763
B(  0-C ,  6-H ) :   0.8582 B(  1-C ,  2-O ) :   0.3165 B(  1-C ,  6-H ) :   0.1497
B(  1-C ,  7-C ) :   0.5411 B(  1-C ,  8-H ) :   0.6845 B(  2-O ,  3-H ) :   1.0660
B(  2-O ,  7-C ) :   0.1466 B(  7-C ,  8-H ) :   0.1136 B(  7-C ,  9-N ) :   2.6741

MP2 TOTAL ENERGY:     -246.628422413 Eh
FINAL SINGLE POINT ENERGY      -246.628422413230

DIPOLE MOMENT
-------------
                                X             Y             Z
Electronic contribution:     -3.94537       2.12526      -0.10644
Nuclear contribution   :      5.04195      -2.06967       0.78891
                        -----------------------------------------
Total Dipole Moment    :      1.09658       0.05560       0.68247
                        -----------------------------------------
Magnitude (a.u.)       :      1.29281
Magnitude (Debye)      :      3.28605

Rotational constants in cm-1:     0.292906     0.133689     0.099206
Rotational constants in MHz :  8781.104332  4007.889318  2974.117603

                             ****ORCA TERMINATED NORMALLY****
TOTAL RUN TIME: 0 days 0 hours 0 minutes 27 seconds 339 msec
