                         Program Version 5.0.3 -  RELEASE  -
|  1> !ri-mp2 aug-cc-pvdz aug-cc-pvdz/c tightscf
|  2> %pal nprocs 16 end
|  3>
|  4> * xyz 0 1
|  5> C      1.837929   -0.075225    0.168133
|  6> H      1.826268    0.039396    1.255725
|  7> H      2.650139   -0.742755   -0.108297
|  8> H      2.008448    0.898348   -0.296127
|  9> O      0.647190   -0.693975   -0.300207
| 10> C     -0.598702    1.412224   -0.036759
| 11> H     -0.014163    1.839066    0.780446
| 12> H     -0.198576    1.814610   -0.970439
| 13> H     -1.625342    1.752574    0.072846
| 14> C     -0.558029   -0.087441   -0.037725
| 15> C     -1.627694   -0.863197    0.124504
| 16> H     -2.606952   -0.428216    0.248327
| 17> H     -1.538361   -1.939393    0.110257
| 18> *
| 19>
| 20>                          ****END OF INPUT****

CARTESIAN COORDINATES (ANGSTROEM)
---------------------------------
  C      1.837929   -0.075225    0.168133
  H      1.826268    0.039396    1.255725
  H      2.650139   -0.742755   -0.108297
  H      2.008448    0.898348   -0.296127
  O      0.647190   -0.693975   -0.300207
  C     -0.598702    1.412224   -0.036759
  H     -0.014163    1.839066    0.780446
  H     -0.198576    1.814610   -0.970439
  H     -1.625342    1.752574    0.072846
  C     -0.558029   -0.087441   -0.037725
  C     -1.627694   -0.863197    0.124504
  H     -2.606952   -0.428216    0.248327
  H     -1.538361   -1.939393    0.110257

 Total Charge           Charge          ....    0
 Multiplicity           Mult            ....    1
 Number of Electrons    NEL             ....   40
 Basis Dimension        Dim             ....  187

ORBITAL ENERGIES
----------------

  NO   OCC          E(Eh)            E(eV)
   0   2.0000     -20.581570      -560.0530
   1   2.0000     -11.298174      -307.4390
   2   2.0000     -11.287565      -307.1503
   3   2.0000     -11.237119      -305.7776
   4   2.0000     -11.207316      -304.9666
   5   2.0000      -1.398605       -38.0580
   6   2.0000      -1.062916       -28.9234
   7   2.0000      -0.964694       -26.2507
   8   2.0000      -0.919598       -25.0235
   9   2.0000      -0.751779       -20.4569
  10   2.0000      -0.662667       -18.0321
  11   2.0000      -0.655823       -17.8458
  12   2.0000      -0.645011       -17.5516
  13   2.0000      -0.575836       -15.6693
  14   2.0000      -0.561870       -15.2892
  15   2.0000      -0.557545       -15.1716
  16   2.0000      -0.530706       -14.4413
  17   2.0000      -0.496795       -13.5185
  18   2.0000      -0.464888       -12.6502
  19   2.0000      -0.332318        -9.0428
  20   0.0000       0.034425         0.9367
  21   0.0000       0.045350         1.2340
  22   0.0000       0.048510         1.3200
  23   0.0000       0.053250         1.4490
  24   0.0000       0.064933         1.7669

MULLIKEN ATOMIC CHARGES
-----------------------
   0 C :    0.794909
   1 H :   -0.102470
   2 H :   -0.274860
   3 H :   -0.076981
   4 O :   -1.001630
   5 C :    0.236306
   6 H :    0.077995
   7 H :    0.055659
   8 H :   -0.201962
   9 C :    0.236663
  10 C :    0.938161
  11 H :   -0.326466
  12 H :   -0.355322
Sum of atomic charges:    0.0000000

LOEWDIN ATOMIC CHARGES
----------------------
   0 C :    0.148882
   1 H :   -0.016456
   2 H :   -0.025295
   3 H :   -0.027157
   4 O :    0.015443
   5 C :    0.159852
   6 H :   -0.013620
   7 H :   -0.004129
   8 H :   -0.012752
   9 C :   -0.322561
  10 C :    0.186521
  11 H :   -0.048675
  12 H :   -0.040053

  Mayer bond orders larger than 0.100000
B(  0-C ,  1-H ) :   0.9664 B(  0-C ,  2-H ) :   1.0496 B(  0-C ,  3-H ) :   0.9691
B(  0-C ,  4-O ) :   0.7164 B(  4-O ,  9-C ) :   0.3340 B(  5-C ,  6-H ) :   0.8861
B(  5-C ,  7-H ) :   0.8451 B(  5-C ,  8-H ) :   0.9813 B(  5-C ,  9-C ) :   1.1883
B(  9-C , 10-C ) :   2.0261 B(  9-C , 11-H ) :   0.1666 B(  9-C , 12-H ) :   0.3786
B( 10-C , 11-H ) :   0.6907 B( 10-C , 12-H ) :   0.4942 B( 11-H , 12-H ) :  -0.1837

MP2 TOTAL ENERGY:     -231.757722957 Eh
FINAL SINGLE POINT ENERGY      -231.757722956557

DIPOLE MOMENT
-------------
                                X             Y             Z
Electronic contribution:     -0.18213      -2.67990      -0.91283
Nuclear contribution   :      0.53306       3.35748       1.13351
                        -----------------------------------------
Total Dipole Moment    :      0.35093       0.67758       0.22068
                        -----------------------------------------
Magnitude (a.u.)       :      0.79434
Magnitude (Debye)      :      2.01905

Rotational constants in cm-1:     0.275897     0.141774     0.099518
Rotational constants in MHz :  8271.198443  4250.265411  2983.461489

                             ****ORCA TERMINATED NORMALLY****
TOTAL RUN TIME: 0 days 0 hours 0 minutes 33 seconds 491 msec
