                         Program Version 5.0.3 -  RELEASE  -
|  1> !ri-mp2 aug-cc-pvdz aug-cc-pvdz/c tightscf
|  2> %pal nprocs 16 end
|  3>
|  4> * xyz 0 1
|  5> C      0.729471    1.904216   -0.107889
|  6> C     -0.016491    0.615252   -0.425867
|  7> N      0.850921   -0.558678    0.026714
|  8> O      1.306585   -1.287691   -0.838614
|  9> O      1.039827   -0.688006    1.224692
| 10> C     -1.386010    0.520666    0.241641
| 11> C     -2.166261   -0.746449   -0.100809
| 12> H      0.857898    2.020360    0.966917
| 13> H      1.709251    1.922511   -0.584185
| 14> H      0.153750    2.749659   -0.483645
| 15> H     -0.096788    0.467156   -1.500194
| 16> H     -1.947266    1.400933   -0.080637
| 17> H     -1.253956    0.607897    1.320918
| 18> H     -2.318382   -0.842024   -1.177079
| 19> H     -1.649746   -1.642316    0.245321
| 20> H     -3.146754   -0.729962    0.374509
| 21> *
| 22>
| 23>                          ****END OF INPUT****

CARTESIAN COORDINATES (ANGSTROEM)
---------------------------------
  C      0.729471    1.904216   -0.107889
  C     -0.016491    0.615252   -0.425867
  N      0.850921   -0.558678    0.026714
  O      1.306585   -1.287691   -0.838614
  O      1.039827   -0.688006    1.224692
  C     -1.386010    0.520666    0.241641
  C     -2.166261   -0.746449   -0.100809
  H      0.857898    2.020360    0.966917
  H      1.709251    1.922511   -0.584185
  H      0.153750    2.749659   -0.483645
  H     -0.096788    0.467156   -1.500194
  H     -1.947266    1.400933   -0.080637
  H     -1.253956    0.607897    1.320918
  H     -2.318382   -0.842024   -1.177079
  H     -1.649746   -1.642316    0.245321
  H     -3.146754   -0.729962    0.374509

 Total Charge           Charge          ....    0
 Multiplicity           Mult            ....    1
 Number of Electrons    NEL             ....   56
 Basis Dimension        Dim             ....  242

ORBITAL ENERGIES
----------------

  NO   OCC          E(Eh)            E(eV)
   0   2.0000     -20.610810      -560.8486
   1   2.0000     -20.607958      -560.7711
   2   2.0000     -15.845184      -431.1694
   3   2.0000     -11.314287      -307.8774
   4   2.0000     -11.256563      -306.3066
   5   2.0000     -11.254221      -306.2429
   6   2.0000     -11.237319      -305.7830
   7   2.0000      -1.606675       -43.7199
   8   2.0000      -1.401673       -38.1415
   9   2.0000      -1.145028       -31.1578
  10   2.0000      -1.028662       -27.9913
  11   2.0000      -0.960177       -26.1277
  12   2.0000      -0.883660       -24.0456
  13   2.0000      -0.813779       -22.1440
  14   2.0000      -0.746246       -20.3064
  15   2.0000      -0.720078       -19.5943
  16   2.0000      -0.716349       -19.4928
  17   2.0000      -0.637585       -17.3496
  18   2.0000      -0.613107       -16.6835
  19   2.0000      -0.603461       -16.4210
  20   2.0000      -0.581011       -15.8101
  21   2.0000      -0.547904       -14.9092
  22   2.0000      -0.522701       -14.2234
  23   2.0000      -0.506262       -13.7761
  24   2.0000      -0.501867       -13.6565
  25   2.0000      -0.487278       -13.2595
  26   2.0000      -0.469037       -12.7631
  27   2.0000      -0.450529       -12.2595
  28   0.0000       0.030056         0.8179
  29   0.0000       0.039743         1.0815
  30   0.0000       0.044568         1.2128
  31   0.0000       0.051734         1.4078
  32   0.0000       0.063836         1.7371

MULLIKEN ATOMIC CHARGES
-----------------------
   0 C :    0.739477
   1 C :   -0.033226
   2 N :    0.689351
   3 O :   -0.801658
   4 O :   -0.831140
   5 C :    0.381795
   6 C :    0.503367
   7 H :    0.035395
   8 H :   -0.050034
   9 H :   -0.016044
  10 H :   -0.294411
  11 H :   -0.097818
  12 H :   -0.047153
  13 H :   -0.064001
  14 H :   -0.049522
  15 H :   -0.064376
Sum of atomic charges:    0.0000000

LOEWDIN ATOMIC CHARGES
----------------------
   0 C :    0.188558
   1 C :   -0.152023
   2 N :   -0.348953
   3 O :    0.083842
   4 O :    0.087216
   5 C :   -0.032859
   6 C :    0.149703
   7 H :   -0.005078
   8 H :   -0.004056
   9 H :   -0.004217
  10 H :    0.040218
  11 H :    0.022741
  12 H :    0.019179
  13 H :   -0.013320
  14 H :   -0.015459
  15 H :   -0.015490

  Mayer bond orders larger than 0.100000
B(  0-C ,  1-C ) :   1.3142 B(  0-C ,  2-N ) :  -0.1051 B(  0-C ,  5-C ) :  -0.1591
B(  0-C ,  7-H ) :   0.8873 B(  0-C ,  8-H ) :   0.8544 B(  0-C ,  9-H ) :   0.8017
B(  1-C ,  2-N ) :   0.4973 B(  1-C ,  4-O ) :  -0.1187 B(  1-C ,  5-C ) :   1.1901
B(  1-C ,  6-C ) :  -0.1448 B(  1-C ,  7-H ) :   0.1388 B(  1-C ,  8-H ) :   0.1190
B(  1-C ,  9-H ) :   0.1021 B(  1-C , 10-H ) :   0.4807 B(  1-C , 12-H ) :   0.1319
B(  2-N ,  3-O ) :   1.2093 B(  2-N ,  4-O ) :   1.0833 B(  2-N , 10-H ) :   0.1848
B(  3-O ,  4-O ) :   0.2075 B(  5-C ,  6-C ) :   1.2135 B(  5-C , 11-H ) :   0.7972
B(  5-C , 12-H ) :   0.7815 B(  6-C , 13-H ) :   0.9260 B(  6-C , 14-H ) :   0.9318
B(  6-C , 15-H ) :   0.8924

MP2 TOTAL ENERGY:     -362.010563895 Eh
FINAL SINGLE POINT ENERGY      -362.010563895294

DIPOLE MOMENT
-------------
                                X             Y             Z
Electronic contribution:      6.74531      -4.70761       0.54927
Nuclear contribution   :     -7.80217       6.03753      -0.92997
                        -----------------------------------------
Total Dipole Moment    :     -1.05686       1.32992      -0.38070
                        -----------------------------------------
Magnitude (a.u.)       :      1.74085
Magnitude (Debye)      :      4.42490

Rotational constants in cm-1:     0.103831     0.078694     0.059049
Rotational constants in MHz :  3112.766436  2359.197768  1770.247734

                             ****ORCA TERMINATED NORMALLY****
TOTAL RUN TIME: 0 days 0 hours 1 minutes 0 seconds 140 msec
