                         Program Version 5.0.3 -  RELEASE  -
|  1> !ri-mp2 aug-cc-pvdz aug-cc-pvdz/c tightscf
|  2> %pal nprocs 16 end
|  3>
|  4> * xyz 0 1
|  5> C     -0.486076   -0.705434    1.261168
|  6> C     -0.486076   -0.705434   -1.261168
|  7> C      1.521674    0.142791    0.000000
|  8> C      0.001813    0.012259    0.000000
|  9> O     -0.486076    1.369657    0.000000
| 10> H     -1.577070   -0.763138    1.276432
| 11> H     -0.099320   -1.724561    1.310729
| 12> H     -0.160405   -0.167882    2.151574
| 13> H     -0.160405   -0.167882   -2.151574
| 14> H     -1.577070   -0.763138   -1.276432
| 15> H     -0.099320   -1.724561   -1.310729
| 16> H      1.854033    0.688346    0.883017
| 17> H      1.994672   -0.839511    0.000000
| 18> H      1.854033    0.688346   -0.883017
| 19> H     -1.448562    1.351622    0.000000
| 20> *
| 21>
| 22>                          ****END OF INPUT****

CARTESIAN COORDINATES (ANGSTROEM)
---------------------------------
  C     -0.486076   -0.705434    1.261168
  C     -0.486076   -0.705434   -1.261168
  C      1.521674    0.142791    0.000000
  C      0.001813    0.012259    0.000000
  O     -0.486076    1.369657    0.000000
  H     -1.577070   -0.763138    1.276432
  H     -0.099320   -1.724561    1.310729
  H     -0.160405   -0.167882    2.151574
  H     -0.160405   -0.167882   -2.151574
  H     -1.577070   -0.763138   -1.276432
  H     -0.099320   -1.724561   -1.310729
  H      1.854033    0.688346    0.883017
  H      1.994672   -0.839511    0.000000
  H      1.854033    0.688346   -0.883017
  H     -1.448562    1.351622    0.000000

 Total Charge           Charge          ....    0
 Multiplicity           Mult            ....    1
 Number of Electrons    NEL             ....   42
 Basis Dimension        Dim             ....  205

ORBITAL ENERGIES
----------------

  NO   OCC          E(Eh)            E(eV)
   0   2.0000     -20.559192      -559.4441
   1   2.0000     -11.290514      -307.2305
   2   2.0000     -11.221464      -305.3516
   3   2.0000     -11.221447      -305.3511
   4   2.0000     -11.215483      -305.1888
   5   2.0000      -1.356062       -36.9003
   6   2.0000      -1.066034       -29.0083
   7   2.0000      -0.941906       -25.6306
   8   2.0000      -0.940193       -25.5839
   9   2.0000      -0.772100       -21.0099
  10   2.0000      -0.668629       -18.1943
  11   2.0000      -0.622123       -16.9288
  12   2.0000      -0.619716       -16.8633
  13   2.0000      -0.575373       -15.6567
  14   2.0000      -0.555529       -15.1167
  15   2.0000      -0.530308       -14.4304
  16   2.0000      -0.516106       -14.0440
  17   2.0000      -0.507868       -13.8198
  18   2.0000      -0.502393       -13.6708
  19   2.0000      -0.461640       -12.5619
  20   2.0000      -0.431690       -11.7469
  21   0.0000       0.034697         0.9441
  22   0.0000       0.046815         1.2739
  23   0.0000       0.048235         1.3125
  24   0.0000       0.051823         1.4102
  25   0.0000       0.068696         1.8693

MULLIKEN ATOMIC CHARGES
-----------------------
   0 C :    1.073069
   1 C :    1.073069
   2 C :    0.945654
   3 C :   -2.414148
   4 O :   -0.673714
   5 H :   -0.076967
   6 H :    0.021129
   7 H :   -0.000109
   8 H :   -0.000109
   9 H :   -0.076967
  10 H :    0.021129
  11 H :   -0.018058
  12 H :    0.053958
  13 H :   -0.018058
  14 H :    0.090119
Sum of atomic charges:    0.0000000

LOEWDIN ATOMIC CHARGES
----------------------
   0 C :    0.173096
   1 C :    0.173096
   2 C :    0.172399
   3 C :   -0.527016
   4 O :    0.139506
   5 H :   -0.012166
   6 H :   -0.007586
   7 H :   -0.006229
   8 H :   -0.006229
   9 H :   -0.012166
  10 H :   -0.007586
  11 H :   -0.006752
  12 H :   -0.006901
  13 H :   -0.006752
  14 H :   -0.058710

  Mayer bond orders larger than 0.100000
B(  0-C ,  2-C ) :  -0.1320 B(  0-C ,  3-C ) :   1.2303 B(  0-C ,  5-H ) :   0.7320
B(  0-C ,  6-H ) :   0.8151 B(  0-C ,  7-H ) :   0.7481 B(  1-C ,  2-C ) :  -0.1320
B(  1-C ,  3-C ) :   1.2303 B(  1-C ,  8-H ) :   0.7481 B(  1-C ,  9-H ) :   0.7320
B(  1-C , 10-H ) :   0.8151 B(  2-C ,  3-C ) :   1.5052 B(  2-C , 11-H ) :   0.7332
B(  2-C , 12-H ) :   0.8154 B(  2-C , 13-H ) :   0.7332 B(  3-C ,  4-O ) :  -0.2134
B(  3-C ,  5-H ) :   0.2618 B(  3-C ,  6-H ) :   0.1395 B(  3-C ,  7-H ) :   0.1894
B(  3-C ,  8-H ) :   0.1894 B(  3-C ,  9-H ) :   0.2618 B(  3-C , 10-H ) :   0.1395
B(  3-C , 11-H ) :   0.2793 B(  3-C , 13-H ) :   0.2793 B(  4-O , 14-H ) :   1.0980
B(  5-H ,  7-H ) :  -0.1125 B(  8-H ,  9-H ) :  -0.1125 B( 11-H , 13-H ) :  -0.1072

MP2 TOTAL ENERGY:     -233.001775022 Eh
FINAL SINGLE POINT ENERGY      -233.001775021949

DIPOLE MOMENT
-------------
                                X             Y             Z
Electronic contribution:     -0.92091       3.01464      -0.00000
Nuclear contribution   :      0.60969      -3.61897      -0.00000
                        -----------------------------------------
Total Dipole Moment    :     -0.31122      -0.60433      -0.00000
                        -----------------------------------------
Magnitude (a.u.)       :      0.67976
Magnitude (Debye)      :      1.72782

Rotational constants in cm-1:     0.156661     0.155803     0.150094
Rotational constants in MHz :  4696.564879  4670.861377  4499.717642

                             ****ORCA TERMINATED NORMALLY****
TOTAL RUN TIME: 0 days 0 hours 0 minutes 30 seconds 660 msec
