                         Program Version 5.0.3 -  RELEASE  -
|  1> !ri-mp2 aug-cc-pvdz aug-cc-pvdz/c tightscf
|  2> %pal nprocs 16 end
|  3>
|  4> * xyz 0 1
|  5> N      0.585676    1.381629   -0.230174
|  6> H     -0.201181    1.952915    0.050435
|  7> H      1.420699    1.844860    0.107244
|  8> C      1.770975   -0.732575   -0.002480
|  9> H      1.914810   -0.792002   -1.082494
| 10> H      2.641620   -0.231533    0.426249
| 11> H      1.738854   -1.745293    0.401057
| 12> C      0.486227    0.022813    0.322074
| 13> H      0.370190    0.037096    1.417614
| 14> C     -0.738648   -0.689705   -0.258545
| 15> H     -0.627441   -0.732000   -1.345347
| 16> H     -0.732698   -1.721265    0.103456
| 17> C     -2.075899   -0.042076    0.099323
| 18> H     -2.909692   -0.633466   -0.280918
| 19> H     -2.171947    0.956485   -0.330085
| 20> H     -2.198874    0.042059    1.181772
| 21> *
| 22>
| 23>                          ****END OF INPUT****

CARTESIAN COORDINATES (ANGSTROEM)
---------------------------------
  N      0.585676    1.381629   -0.230174
  H     -0.201181    1.952915    0.050435
  H      1.420699    1.844860    0.107244
  C      1.770975   -0.732575   -0.002480
  H      1.914810   -0.792002   -1.082494
  H      2.641620   -0.231533    0.426249
  H      1.738854   -1.745293    0.401057
  C      0.486227    0.022813    0.322074
  H      0.370190    0.037096    1.417614
  C     -0.738648   -0.689705   -0.258545
  H     -0.627441   -0.732000   -1.345347
  H     -0.732698   -1.721265    0.103456
  C     -2.075899   -0.042076    0.099323
  H     -2.909692   -0.633466   -0.280918
  H     -2.171947    0.956485   -0.330085
  H     -2.198874    0.042059    1.181772

 Total Charge           Charge          ....    0
 Multiplicity           Mult            ....    1
 Number of Electrons    NEL             ....   42
 Basis Dimension        Dim             ....  214

ORBITAL ENERGIES
----------------

  NO   OCC          E(Eh)            E(eV)
   0   2.0000     -15.542862      -422.9428
   1   2.0000     -11.254974      -306.2634
   2   2.0000     -11.219137      -305.2882
   3   2.0000     -11.218240      -305.2638
   4   2.0000     -11.215396      -305.1865
   5   2.0000      -1.183522       -32.2053
   6   2.0000      -1.037669       -28.2364
   7   2.0000      -0.977795       -26.6072
   8   2.0000      -0.862128       -23.4597
   9   2.0000      -0.770709       -20.9721
  10   2.0000      -0.657597       -17.8941
  11   2.0000      -0.655026       -17.8242
  12   2.0000      -0.583220       -15.8702
  13   2.0000      -0.574234       -15.6257
  14   2.0000      -0.561318       -15.2742
  15   2.0000      -0.516805       -14.0630
  16   2.0000      -0.512504       -13.9459
  17   2.0000      -0.478345       -13.0164
  18   2.0000      -0.476110       -12.9556
  19   2.0000      -0.458046       -12.4641
  20   2.0000      -0.383715       -10.4414
  21   0.0000       0.036563         0.9949
  22   0.0000       0.044396         1.2081
  23   0.0000       0.047413         1.2902
  24   0.0000       0.050055         1.3621
  25   0.0000       0.065871         1.7924

MULLIKEN ATOMIC CHARGES
-----------------------
   0 N :   -0.332269
   1 H :   -0.020180
   2 H :   -0.028706
   3 C :    0.747093
   4 H :    0.006250
   5 H :   -0.091852
   6 H :   -0.067330
   7 C :   -0.389813
   8 H :   -0.185485
   9 C :    0.445223
  10 H :   -0.136765
  11 H :   -0.131020
  12 C :    0.440553
  13 H :   -0.082416
  14 H :   -0.094873
  15 H :   -0.078410
Sum of atomic charges:    0.0000000

LOEWDIN ATOMIC CHARGES
----------------------
   0 N :    0.203796
   1 H :   -0.061348
   2 H :   -0.050318
   3 C :    0.159884
   4 H :   -0.008359
   5 H :   -0.018000
   6 H :   -0.014138
   7 C :   -0.303280
   8 H :    0.032179
   9 C :   -0.044719
  10 H :    0.018876
  11 H :    0.014108
  12 C :    0.135442
  13 H :   -0.020762
  14 H :   -0.026079
  15 H :   -0.017284

  Mayer bond orders larger than 0.100000
B(  0-N ,  1-H ) :   1.0265 B(  0-N ,  2-H ) :   1.0307 B(  0-N ,  7-C ) :   0.6921
B(  3-C ,  4-H ) :   0.8952 B(  3-C ,  5-H ) :   0.8447 B(  3-C ,  6-H ) :   0.7982
B(  3-C ,  7-C ) :   1.3052 B(  3-C ,  9-C ) :  -0.1243 B(  5-H ,  7-C ) :   0.1625
B(  6-H ,  7-C ) :   0.1170 B(  7-C ,  8-H ) :   0.7241 B(  7-C ,  9-C ) :   1.2793
B(  7-C , 10-H ) :   0.1619 B(  7-C , 11-H ) :   0.1076 B(  9-C , 10-H ) :   0.7820
B(  9-C , 11-H ) :   0.7119 B(  9-C , 12-C ) :   1.1490 B( 12-C , 13-H ) :   0.8879
B( 12-C , 14-H ) :   0.9405 B( 12-C , 15-H ) :   0.9431

MP2 TOTAL ENERGY:     -213.143379329 Eh
FINAL SINGLE POINT ENERGY      -213.143379329180

DIPOLE MOMENT
-------------
                                X             Y             Z
Electronic contribution:      0.78640       1.10498      -0.20894
Nuclear contribution   :     -0.81126      -1.09362       0.69846
                        -----------------------------------------
Total Dipole Moment    :     -0.02486       0.01137       0.48952
                        -----------------------------------------
Magnitude (a.u.)       :      0.49028
Magnitude (Debye)      :      1.24619

Rotational constants in cm-1:     0.260653     0.113432     0.087102
Rotational constants in MHz :  7814.176086  3400.613001  2611.256438

                             ****ORCA TERMINATED NORMALLY****
TOTAL RUN TIME: 0 days 0 hours 0 minutes 46 seconds 508 msec
