                         Program Version 5.0.3 -  RELEASE  -
|  1> !ri-mp2 aug-cc-pvdz aug-cc-pvdz/c tightscf
|  2> %pal nprocs 16 end
|  3>
|  4> * xyz 0 1
|  5> S     0.807257   -1.220346    0.197198
|  6> S    -1.948226   -0.076615   -0.421874
|  7> N     0.326375    1.278014    0.589110
|  8> N     1.350166    1.260862   -0.340449
|  9> C    -0.427430    0.038051    0.678459
| 10> C     1.721627    0.074068   -0.599627
| 11> H    -2.794969    0.485790    0.462355
| 12> H    -0.239031    2.107672    0.478029
| 13> H    -0.761306   -0.139902    1.694067
| 14> H     2.549843   -0.147039   -1.253252
| 15> *
| 16>
| 17>                          ****END OF INPUT****

CARTESIAN COORDINATES (ANGSTROEM)
---------------------------------
  S      0.807257   -1.220346    0.197198
  S     -1.948226   -0.076615   -0.421874
  N      0.326375    1.278014    0.589110
  N      1.350166    1.260862   -0.340449
  C     -0.427430    0.038051    0.678459
  C      1.721627    0.074068   -0.599627
  H     -2.794969    0.485790    0.462355
  H     -0.239031    2.107672    0.478029
  H     -0.761306   -0.139902    1.694067
  H      2.549843   -0.147039   -1.253252

 Total Charge           Charge          ....    0
 Multiplicity           Mult            ....    1
 Number of Electrons    NEL             ....   62
 Basis Dimension        Dim             ....  182

ORBITAL ENERGIES
----------------

  NO   OCC          E(Eh)            E(eV)
   0   2.0000     -91.989403     -2503.1589
   1   2.0000     -91.971347     -2502.6676
   2   2.0000     -15.625316      -425.1865
   3   2.0000     -15.620501      -425.0554
   4   2.0000     -11.357375      -309.0499
   5   2.0000     -11.316545      -307.9389
   6   2.0000      -8.992001      -244.6848
   7   2.0000      -8.972978      -244.1671
   8   2.0000      -6.673580      -181.5973
   9   2.0000      -6.672577      -181.5700
  10   2.0000      -6.670249      -181.5067
  11   2.0000      -6.654722      -181.0842
  12   2.0000      -6.653473      -181.0502
  13   2.0000      -6.651365      -180.9928
  14   2.0000      -1.362735       -37.0819
  15   2.0000      -1.137774       -30.9604
  16   2.0000      -1.076726       -29.2992
  17   2.0000      -0.973040       -26.4778
  18   2.0000      -0.842082       -22.9142
  19   2.0000      -0.815752       -22.1977
  20   2.0000      -0.715862       -19.4796
  21   2.0000      -0.657944       -17.9036
  22   2.0000      -0.634474       -17.2649
  23   2.0000      -0.570310       -15.5189
  24   2.0000      -0.549717       -14.9585
  25   2.0000      -0.506416       -13.7803
  26   2.0000      -0.480547       -13.0764
  27   2.0000      -0.452991       -12.3265
  28   2.0000      -0.433557       -11.7977
  29   2.0000      -0.374976       -10.2036
  30   2.0000      -0.329430        -8.9642
  31   0.0000       0.032730         0.8906
  32   0.0000       0.041292         1.1236
  33   0.0000       0.052273         1.4224
  34   0.0000       0.060060         1.6343
  35   0.0000       0.079120         2.1530

MULLIKEN ATOMIC CHARGES
-----------------------
   0 S :    0.495062
   1 S :    0.153633
   2 N :   -0.359366
   3 N :   -0.374946
   4 C :    0.120753
   5 C :    0.250721
   6 H :    0.108748
   7 H :    0.045596
   8 H :   -0.256984
   9 H :   -0.183216
Sum of atomic charges:   -0.0000000

LOEWDIN ATOMIC CHARGES
----------------------
   0 S :    0.844673
   1 S :    0.677102
   2 N :   -0.078138
   3 N :   -0.059448
   4 C :   -0.694595
   5 C :   -0.325025
   6 H :   -0.237265
   7 H :   -0.020498
   8 H :   -0.059746
   9 H :   -0.047061

  Mayer bond orders larger than 0.100000
B(  0-S ,  4-C ) :   1.0455 B(  0-S ,  5-C ) :   0.8798 B(  1-S ,  4-C ) :   1.1158
B(  1-S ,  6-H ) :   0.9371 B(  2-N ,  3-N ) :   0.8811 B(  2-N ,  4-C ) :   0.9672
B(  2-N ,  5-C ) :  -0.1636 B(  2-N ,  7-H ) :   1.0278 B(  3-N ,  5-C ) :   1.8202
B(  4-C ,  8-H ) :   0.9734 B(  5-C ,  9-H ) :   1.0268

MP2 TOTAL ENERGY:     -982.906803964 Eh
FINAL SINGLE POINT ENERGY      -982.906803964088

DIPOLE MOMENT
-------------
                                X             Y             Z
Electronic contribution:      0.88542      -2.27267      -0.95214
Nuclear contribution   :     -1.16299       2.28781       1.34626
                        -----------------------------------------
Total Dipole Moment    :     -0.27757       0.01514       0.39412
                        -----------------------------------------
Magnitude (a.u.)       :      0.48229
Magnitude (Debye)      :      1.22589

Rotational constants in cm-1:     0.133949     0.067253     0.052592
Rotational constants in MHz :  4015.687724  2016.199008  1576.680124

                             ****ORCA TERMINATED NORMALLY****
TOTAL RUN TIME: 0 days 0 hours 0 minutes 49 seconds 852 msec
