                         Program Version 5.0.3 -  RELEASE  -
|  1> !ri-mp2 aug-cc-pvdz aug-cc-pvdz/c tightscf
|  2> %pal nprocs 16 end
|  3>
|  4> * xyz 0 1
|  5> N     -0.400750   -2.173012    0.000000
|  6> C     -0.026829   -1.085083    0.000000
|  7> H      1.527406    0.267302    0.000000
|  8> C      0.434603    0.306529    0.000000
|  9> H      0.322951    0.513931    2.170270
| 10> H      0.322951    0.513931   -2.170270
| 11> H     -1.114559    1.081957   -1.317044
| 12> H     -1.114559    1.081957    1.317044
| 13> C     -0.026829    1.027994   -1.276481
| 14> C     -0.026829    1.027994    1.276481
| 15> H      0.368182    2.043699   -1.284867
| 16> H      0.368182    2.043699    1.284867
| 17> *
| 18>
| 19>                          ****END OF INPUT****

CARTESIAN COORDINATES (ANGSTROEM)
---------------------------------
  N     -0.400750   -2.173012    0.000000
  C     -0.026829   -1.085083    0.000000
  H      1.527406    0.267302    0.000000
  C      0.434603    0.306529    0.000000
  H      0.322951    0.513931    2.170270
  H      0.322951    0.513931   -2.170270
  H     -1.114559    1.081957   -1.317044
  H     -1.114559    1.081957    1.317044
  C     -0.026829    1.027994   -1.276481
  C     -0.026829    1.027994    1.276481
  H      0.368182    2.043699   -1.284867
  H      0.368182    2.043699    1.284867

 Total Charge           Charge          ....    0
 Multiplicity           Mult            ....    1
 Number of Electrons    NEL             ....   38
 Basis Dimension        Dim             ....  178

ORBITAL ENERGIES
----------------

  NO   OCC          E(Eh)            E(eV)
   0   2.0000     -15.575439      -423.8292
   1   2.0000     -11.293403      -307.3091
   2   2.0000     -11.276400      -306.8465
   3   2.0000     -11.250831      -306.1507
   4   2.0000     -11.250814      -306.1502
   5   2.0000      -1.223790       -33.3010
   6   2.0000      -1.110011       -30.2049
   7   2.0000      -0.963204       -26.2101
   8   2.0000      -0.880743       -23.9662
   9   2.0000      -0.705733       -19.2040
  10   2.0000      -0.643980       -17.5236
  11   2.0000      -0.599780       -16.3208
  12   2.0000      -0.574153       -15.6235
  13   2.0000      -0.565953       -15.4004
  14   2.0000      -0.534230       -14.5371
  15   2.0000      -0.526490       -14.3265
  16   2.0000      -0.523179       -14.2364
  17   2.0000      -0.454082       -12.3562
  18   2.0000      -0.453363       -12.3366
  19   0.0000       0.028542         0.7767
  20   0.0000       0.043707         1.1893
  21   0.0000       0.044176         1.2021
  22   0.0000       0.052629         1.4321
  23   0.0000       0.069041         1.8787

MULLIKEN ATOMIC CHARGES
-----------------------
   0 N :   -0.323640
   1 C :   -0.233471
   2 H :   -0.004184
   3 C :   -0.582918
   4 H :   -0.074776
   5 H :   -0.074776
   6 H :   -0.016959
   7 H :   -0.016959
   8 C :    0.729952
   9 C :    0.729952
  10 H :   -0.066111
  11 H :   -0.066111
Sum of atomic charges:   -0.0000000

LOEWDIN ATOMIC CHARGES
----------------------
   0 N :    0.075652
   1 C :   -0.127752
   2 H :    0.044727
   3 C :   -0.295280
   4 H :   -0.007892
   5 H :   -0.007892
   6 H :   -0.005410
   7 H :   -0.005410
   8 C :    0.174224
   9 C :    0.174224
  10 H :   -0.009596
  11 H :   -0.009596

  Mayer bond orders larger than 0.100000
B(  0-N ,  1-C ) :   2.6642 B(  0-N ,  3-C ) :  -0.1311 B(  1-C ,  3-C ) :   0.5020
B(  2-H ,  3-C ) :   0.7490 B(  3-C ,  8-C ) :   1.2701 B(  3-C ,  9-C ) :   1.2701
B(  3-C , 10-H ) :   0.1254 B(  3-C , 11-H ) :   0.1254 B(  4-H ,  9-C ) :   0.8631
B(  5-H ,  8-C ) :   0.8631 B(  6-H ,  8-C ) :   0.8949 B(  7-H ,  9-C ) :   0.8949
B(  8-C ,  9-C ) :  -0.1139 B(  8-C , 10-H ) :   0.8228 B(  9-C , 11-H ) :   0.8228

MP2 TOTAL ENERGY:     -210.757586744 Eh
FINAL SINGLE POINT ENERGY      -210.757586744234

DIPOLE MOMENT
-------------
                                X             Y             Z
Electronic contribution:     -0.20236      -6.11740      -0.00000
Nuclear contribution   :      0.70038       7.78007       0.00000
                        -----------------------------------------
Total Dipole Moment    :      0.49802       1.66267      -0.00000
                        -----------------------------------------
Magnitude (a.u.)       :      1.73566
Magnitude (Debye)      :      4.41169

Rotational constants in cm-1:     0.264510     0.132479     0.096638
Rotational constants in MHz :  7929.816385  3971.625079  2897.147785

                             ****ORCA TERMINATED NORMALLY****
TOTAL RUN TIME: 0 days 0 hours 0 minutes 37 seconds 919 msec
