                         Program Version 5.0.3 -  RELEASE  -
|  1> !ri-mp2 aug-cc-pvdz aug-cc-pvdz/c tightscf
|  2> %pal nprocs 16 end
|  3>
|  4> * xyz 0 1
|  5> C      0.674889    0.424910    0.000000
|  6> C      1.189289    1.875357    0.000000
|  7> H      2.280421    1.893123    0.000000
|  8> S     -1.677881   -1.162383    0.000000
|  9> H     -2.940602   -0.701861    0.000000
| 10> C     -0.864560    0.499457    0.000000
| 11> C      1.189289   -0.290385    1.258329
| 12> C      1.189289   -0.290385   -1.258329
| 13> H     -1.202991    1.037483    0.884380
| 14> H     -1.202991    1.037483   -0.884380
| 15> H      2.280323   -0.281639    1.280304
| 16> H      2.280323   -0.281639   -1.280304
| 17> H      0.862904   -1.329613    1.294987
| 18> H      0.862904   -1.329613   -1.294987
| 19> H      0.831671    0.202325    2.164531
| 20> H      0.831671    0.202325   -2.164531
| 21> H      0.846646    2.418019   -0.883096
| 22> H      0.846646    2.418019    0.883096
| 23> *
| 24>
| 25>                          ****END OF INPUT****

CARTESIAN COORDINATES (ANGSTROEM)
---------------------------------
  C      0.674889    0.424910    0.000000
  C      1.189289    1.875357    0.000000
  H      2.280421    1.893123    0.000000
  S     -1.677881   -1.162383    0.000000
  H     -2.940602   -0.701861    0.000000
  C     -0.864560    0.499457    0.000000
  C      1.189289   -0.290385    1.258329
  C      1.189289   -0.290385   -1.258329
  H     -1.202991    1.037483    0.884380
  H     -1.202991    1.037483   -0.884380
  H      2.280323   -0.281639    1.280304
  H      2.280323   -0.281639   -1.280304
  H      0.862904   -1.329613    1.294987
  H      0.862904   -1.329613   -1.294987
  H      0.831671    0.202325    2.164531
  H      0.831671    0.202325   -2.164531
  H      0.846646    2.418019   -0.883096
  H      0.846646    2.418019    0.883096

 Total Charge           Charge          ....    0
 Multiplicity           Mult            ....    1
 Number of Electrons    NEL             ....   58
 Basis Dimension        Dim             ....  250

ORBITAL ENERGIES
----------------

  NO   OCC          E(Eh)            E(eV)
   0   2.0000     -91.949326     -2502.0684
   1   2.0000     -11.263570      -306.4973
   2   2.0000     -11.250151      -306.1322
   3   2.0000     -11.223884      -305.4174
   4   2.0000     -11.218469      -305.2701
   5   2.0000     -11.218450      -305.2696
   6   2.0000      -8.950842      -243.5648
   7   2.0000      -6.632959      -180.4920
   8   2.0000      -6.631640      -180.4561
   9   2.0000      -6.629529      -180.3986
  10   2.0000      -1.121378       -30.5142
  11   2.0000      -1.005642       -27.3649
  12   2.0000      -0.938172       -25.5290
  13   2.0000      -0.935699       -25.4617
  14   2.0000      -0.870097       -23.6765
  15   2.0000      -0.734089       -19.9756
  16   2.0000      -0.630576       -17.1588
  17   2.0000      -0.629956       -17.1420
  18   2.0000      -0.605143       -16.4668
  19   2.0000      -0.570887       -15.5346
  20   2.0000      -0.558982       -15.2107
  21   2.0000      -0.525604       -14.3024
  22   2.0000      -0.525066       -14.2878
  23   2.0000      -0.515835       -14.0366
  24   2.0000      -0.482042       -13.1170
  25   2.0000      -0.464016       -12.6265
  26   2.0000      -0.460596       -12.5335
  27   2.0000      -0.432545       -11.7701
  28   2.0000      -0.350906        -9.5486
  29   0.0000       0.034935         0.9506
  30   0.0000       0.042819         1.1652
  31   0.0000       0.047923         1.3040
  32   0.0000       0.049171         1.3380
  33   0.0000       0.064277         1.7491

MULLIKEN ATOMIC CHARGES
-----------------------
   0 C :   -3.778380
   1 C :    1.240370
   2 H :   -0.060331
   3 S :    0.201067
   4 H :    0.064755
   5 C :    0.693220
   6 C :    1.199143
   7 C :    1.199143
   8 H :   -0.216956
   9 H :   -0.216956
  10 H :   -0.025644
  11 H :   -0.025644
  12 H :   -0.055565
  13 H :   -0.055565
  14 H :   -0.041145
  15 H :   -0.041145
  16 H :   -0.040182
  17 H :   -0.040182
Sum of atomic charges:   -0.0000000

LOEWDIN ATOMIC CHARGES
----------------------
   0 C :   -0.565952
   1 C :    0.168196
   2 H :   -0.007222
   3 S :    0.737579
   4 H :   -0.231119
   5 C :   -0.257832
   6 C :    0.156254
   7 C :    0.156254
   8 H :   -0.027280
   9 H :   -0.027280
  10 H :   -0.008158
  11 H :   -0.008158
  12 H :   -0.027645
  13 H :   -0.027645
  14 H :   -0.006985
  15 H :   -0.006985
  16 H :   -0.008010
  17 H :   -0.008010

  Mayer bond orders larger than 0.100000
B(  0-C ,  1-C ) :   1.4709 B(  0-C ,  2-H ) :   0.2773 B(  0-C ,  3-S ) :  -0.4641
B(  0-C ,  5-C ) :   0.4991 B(  0-C ,  6-C ) :   1.4655 B(  0-C ,  7-C ) :   1.4655
B(  0-C ,  8-H ) :   0.2399 B(  0-C ,  9-H ) :   0.2399 B(  0-C , 10-H ) :   0.2211
B(  0-C , 11-H ) :   0.2211 B(  0-C , 12-H ) :   0.1647 B(  0-C , 13-H ) :   0.1647
B(  0-C , 14-H ) :   0.2144 B(  0-C , 15-H ) :   0.2144 B(  0-C , 16-H ) :   0.1757
B(  0-C , 17-H ) :   0.1757 B(  1-C ,  2-H ) :   0.7420 B(  1-C ,  6-C ) :  -0.1270
B(  1-C ,  7-C ) :  -0.1270 B(  1-C , 16-H ) :   0.7224 B(  1-C , 17-H ) :   0.7224
B(  2-H , 16-H ) :  -0.1087 B(  2-H , 17-H ) :  -0.1087 B(  3-S ,  4-H ) :   0.9689
B(  3-S ,  5-C ) :   1.3541 B(  3-S ,  8-H ) :  -0.1031 B(  3-S ,  9-H ) :  -0.1031
B(  5-C ,  8-H ) :   0.8150 B(  5-C ,  9-H ) :   0.8150 B(  6-C ,  7-C ) :  -0.1195
B(  6-C , 10-H ) :   0.6881 B(  6-C , 12-H ) :   0.7452 B(  6-C , 14-H ) :   0.7301
B(  7-C , 11-H ) :   0.6881 B(  7-C , 13-H ) :   0.7452 B(  7-C , 15-H ) :   0.7301
B(  8-H ,  9-H ) :  -0.1228 B( 10-H , 12-H ) :  -0.1090 B( 10-H , 14-H ) :  -0.1063
B( 11-H , 13-H ) :  -0.1090 B( 11-H , 15-H ) :  -0.1063 B( 12-H , 14-H ) :  -0.1111
B( 13-H , 15-H ) :  -0.1111 B( 16-H , 17-H ) :  -0.1100

MP2 TOTAL ENERGY:     -594.793588836 Eh
FINAL SINGLE POINT ENERGY      -594.793588836367

DIPOLE MOMENT
-------------
                                X             Y             Z
Electronic contribution:     -6.81814      -4.88059      -0.00000
Nuclear contribution   :      6.92875       5.56111       0.00000
                        -----------------------------------------
Total Dipole Moment    :      0.11061       0.68051      -0.00000
                        -----------------------------------------
Magnitude (a.u.)       :      0.68944
Magnitude (Debye)      :      1.75243

Rotational constants in cm-1:     0.144427     0.056339     0.055948
Rotational constants in MHz :  4329.814396  1688.987476  1677.278106

                             ****ORCA TERMINATED NORMALLY****
TOTAL RUN TIME: 0 days 0 hours 0 minutes 53 seconds 301 msec
