                         Program Version 5.0.3 -  RELEASE  -
|  1> !ri-mp2 aug-cc-pvdz aug-cc-pvdz/c tightscf
|  2> %pal nprocs 16 end
|  3>
|  4> * xyz 0 1
|  5> O      0.216355   -1.131231   -0.000019
|  6> N     -1.034393   -0.361708    0.000007
|  7> C      1.141200   -0.042903    0.000000
|  8> C     -1.003508    0.912444    0.000005
|  9> C      0.486277    1.267077   -0.000055
| 10> H     -1.812094   -1.012004    0.000017
| 11> H      1.788873   -0.112783    0.883419
| 12> H      1.789317   -0.113121   -0.883034
| 13> *
| 14>
| 15>                          ****END OF INPUT****

CARTESIAN COORDINATES (ANGSTROEM)
---------------------------------
  O      0.216355   -1.131231   -0.000019
  N     -1.034393   -0.361708    0.000007
  C      1.141200   -0.042903    0.000000
  C     -1.003508    0.912444    0.000005
  C      0.486277    1.267077   -0.000055
  H     -1.812094   -1.012004    0.000017
  H      1.788873   -0.112783    0.883419
  H      1.789317   -0.113121   -0.883034

 Total Charge           Charge          ....    0
 Multiplicity           Mult            ....    1
 Number of Electrons    NEL             ....   36
 Basis Dimension        Dim             ....  142

ORBITAL ENERGIES
----------------

  NO   OCC          E(Eh)            E(eV)
   0   2.0000     -20.648447      -561.8728
   1   2.0000     -15.716236      -427.6605
   2   2.0000     -11.314426      -307.8812
   3   2.0000     -11.297680      -307.4255
   4   2.0000     -11.276075      -306.8376
   5   2.0000      -1.472506       -40.0689
   6   2.0000      -1.231551       -33.5122
   7   2.0000      -1.072665       -29.1887
   8   2.0000      -0.885326       -24.0910
   9   2.0000      -0.810436       -22.0531
  10   2.0000      -0.703646       -19.1472
  11   2.0000      -0.699361       -19.0306
  12   2.0000      -0.629308       -17.1243
  13   2.0000      -0.563722       -15.3397
  14   2.0000      -0.561779       -15.2868
  15   2.0000      -0.461888       -12.5686
  16   2.0000      -0.397739       -10.8230
  17   2.0000      -0.367750       -10.0070
  18   0.0000       0.015627         0.4252
  19   0.0000       0.029837         0.8119
  20   0.0000       0.042927         1.1681
  21   0.0000       0.051957         1.4138
  22   0.0000       0.083927         2.2838

MULLIKEN ATOMIC CHARGES
-----------------------
   0 O :   -0.862324
   1 N :    0.220859
   2 C :    0.986656
   3 C :    0.100854
   4 C :   -0.468786
   5 H :    0.055938
   6 H :   -0.016489
   7 H :   -0.016708
Sum of atomic charges:    0.0000000

LOEWDIN ATOMIC CHARGES
----------------------
   0 O :    0.022994
   1 N :   -0.029006
   2 C :   -0.135682
   3 C :   -0.020413
   4 C :    0.099021
   5 H :    0.023334
   6 H :    0.019885
   7 H :    0.019866

  Mayer bond orders larger than 0.100000
B(  0-O ,  1-N ) :   0.7069 B(  0-O ,  2-C ) :   0.5033 B(  0-O ,  4-C ) :   0.1396
B(  1-N ,  3-C ) :   1.4066 B(  1-N ,  4-C ) :   0.1595 B(  1-N ,  5-H ) :   1.1234
B(  2-C ,  4-C ) :   0.9732 B(  2-C ,  6-H ) :   0.9057 B(  2-C ,  7-H ) :   0.9059
B(  3-C ,  4-C ) :   0.5013 B(  3-C ,  5-H ) :  -0.1091

MP2 TOTAL ENERGY:     -245.171324344 Eh
FINAL SINGLE POINT ENERGY      -245.171324343572

DIPOLE MOMENT
-------------
                                X             Y             Z
Electronic contribution:     -1.47547      -0.03980      -0.00032
Nuclear contribution   :      1.72635      -1.23141       0.00039
                        -----------------------------------------
Total Dipole Moment    :      0.25088      -1.27121       0.00007
                        -----------------------------------------
Magnitude (a.u.)       :      1.29573
Magnitude (Debye)      :      3.29348

Rotational constants in cm-1:     0.313784     0.290144     0.155114
Rotational constants in MHz :  9407.008007  8698.291749  4650.186256

                             ****ORCA TERMINATED NORMALLY****
TOTAL RUN TIME: 0 days 0 hours 0 minutes 39 seconds 356 msec
