                         Program Version 5.0.3 -  RELEASE  -
|  1> !ri-mp2 aug-cc-pvdz aug-cc-pvdz/c tightscf
|  2> %pal nprocs 16 end
|  3>
|  4> * xyz 0 1
|  5> Cl    -2.404059   -0.918678    0.064286
|  6> S      3.086866   -0.390320    0.010773
|  7> N      0.477949    0.509740   -0.210547
|  8> C     -0.645305    1.190578    0.353524
|  9> C     -1.953863    0.791832   -0.301178
| 10> C      1.598040    0.139991   -0.071736
| 11> H     -0.688979    1.001710    1.427947
| 12> H     -0.514156    2.267281    0.204283
| 13> H     -1.896342    0.876305   -1.382173
| 14> H     -2.760260    1.414766    0.074888
| 15> *
| 16>
| 17>                          ****END OF INPUT****

CARTESIAN COORDINATES (ANGSTROEM)
---------------------------------
  Cl    -2.404059   -0.918678    0.064286
  S      3.086866   -0.390320    0.010773
  N      0.477949    0.509740   -0.210547
  C     -0.645305    1.190578    0.353524
  C     -1.953863    0.791832   -0.301178
  C      1.598040    0.139991   -0.071736
  H     -0.688979    1.001710    1.427947
  H     -0.514156    2.267281    0.204283
  H     -1.896342    0.876305   -1.382173
  H     -2.760260    1.414766    0.074888

 Total Charge           Charge          ....    0
 Multiplicity           Mult            ....    1
 Number of Electrons    NEL             ....   62
 Basis Dimension        Dim             ....  182

ORBITAL ENERGIES
----------------

  NO   OCC          E(Eh)            E(eV)
   0   2.0000    -104.836365     -2852.7425
   1   2.0000     -91.954252     -2502.2024
   2   2.0000     -15.622405      -425.1073
   3   2.0000     -11.388708      -309.9025
   4   2.0000     -11.332729      -308.3792
   5   2.0000     -11.325817      -308.1911
   6   2.0000     -10.562316      -287.4152
   7   2.0000      -8.957576      -243.7480
   8   2.0000      -8.029957      -218.5062
   9   2.0000      -8.026781      -218.4198
  10   2.0000      -8.026691      -218.4174
  11   2.0000      -6.640265      -180.6908
  12   2.0000      -6.636454      -180.5871
  13   2.0000      -6.636140      -180.5785
  14   2.0000      -1.308775       -35.6136
  15   2.0000      -1.158283       -31.5185
  16   2.0000      -1.069608       -29.1055
  17   2.0000      -1.015841       -27.6424
  18   2.0000      -0.895919       -24.3792
  19   2.0000      -0.757902       -20.6236
  20   2.0000      -0.682915       -18.5831
  21   2.0000      -0.647411       -17.6170
  22   2.0000      -0.618047       -16.8179
  23   2.0000      -0.594523       -16.1778
  24   2.0000      -0.563057       -15.3216
  25   2.0000      -0.537818       -14.6348
  26   2.0000      -0.519137       -14.1264
  27   2.0000      -0.451521       -12.2865
  28   2.0000      -0.449293       -12.2259
  29   2.0000      -0.368748       -10.0341
  30   2.0000      -0.359582        -9.7847
  31   0.0000       0.025033         0.6812
  32   0.0000       0.043503         1.1838
  33   0.0000       0.047970         1.3053
  34   0.0000       0.053751         1.4626
  35   0.0000       0.073991         2.0134

MULLIKEN ATOMIC CHARGES
-----------------------
   0 Cl:   -0.115738
   1 S :    0.147816
   2 N :   -0.308865
   3 C :    0.792764
   4 C :    0.001881
   5 C :   -0.403988
   6 H :   -0.094407
   7 H :   -0.106545
   8 H :    0.036513
   9 H :    0.050568
Sum of atomic charges:    0.0000000

LOEWDIN ATOMIC CHARGES
----------------------
   0 Cl:    0.468359
   1 S :    0.586257
   2 N :   -0.027660
   3 C :   -0.082745
   4 C :   -0.307121
   5 C :   -0.632918
   6 H :    0.021856
   7 H :    0.026388
   8 H :   -0.026304
   9 H :   -0.026112

  Mayer bond orders larger than 0.100000
B(  0-Cl,  4-C ) :   1.1903 B(  1-S ,  5-C ) :   1.8255 B(  2-N ,  3-C ) :   0.6377
B(  2-N ,  5-C ) :   2.0369 B(  3-C ,  4-C ) :   1.2311 B(  3-C ,  6-H ) :   0.9015
B(  3-C ,  7-H ) :   0.8969 B(  4-C ,  8-H ) :   0.9424 B(  4-C ,  9-H ) :   0.8723

MP2 TOTAL ENERGY:    -1028.301302743 Eh
FINAL SINGLE POINT ENERGY     -1028.301302742510

DIPOLE MOMENT
-------------
                                X             Y             Z
Electronic contribution:      1.43889      -5.25267      -0.09380
Nuclear contribution   :     -2.40648       6.59791       0.22161
                        -----------------------------------------
Total Dipole Moment    :     -0.96759       1.34524       0.12782
                        -----------------------------------------
Magnitude (a.u.)       :      1.66199
Magnitude (Debye)      :      4.22445

Rotational constants in cm-1:     0.213190     0.027421     0.024828
Rotational constants in MHz :  6391.290208   822.064029   744.333886

                             ****ORCA TERMINATED NORMALLY****
TOTAL RUN TIME: 0 days 0 hours 0 minutes 37 seconds 117 msec
