                         Program Version 5.0.3 -  RELEASE  -
|  1> !ri-mp2 aug-cc-pvdz aug-cc-pvdz/c tightscf
|  2> %pal nprocs 16 end
|  3>
|  4> * xyz 0 1
|  5> C     -2.206969   -0.247941    0.120536
|  6> C      1.308098    1.482588   -0.007133
|  7> C     -1.084035    0.682292   -0.327997
|  8> C      0.256250    0.451574    0.355516
|  9> Cl     0.901845   -1.220351   -0.068863
| 10> H     -3.140782    0.008425   -0.380359
| 11> H     -2.375597   -0.171892    1.196607
| 12> H     -1.974733   -1.286618   -0.109767
| 13> H      0.967730    2.473657    0.301639
| 14> H      2.253331    1.274190    0.490384
| 15> H      1.481667    1.499431   -1.083110
| 16> H     -1.364879    1.719380   -0.116341
| 17> H     -0.943092    0.614242   -1.409190
| 18> H      0.124917    0.404075    1.435284
| 19> *
| 20>
| 21>                          ****END OF INPUT****

CARTESIAN COORDINATES (ANGSTROEM)
---------------------------------
  C     -2.206969   -0.247941    0.120536
  C      1.308098    1.482588   -0.007133
  C     -1.084035    0.682292   -0.327997
  C      0.256250    0.451574    0.355516
  Cl     0.901845   -1.220351   -0.068863
  H     -3.140782    0.008425   -0.380359
  H     -2.375597   -0.171892    1.196607
  H     -1.974733   -1.286618   -0.109767
  H      0.967730    2.473657    0.301639
  H      2.253331    1.274190    0.490384
  H      1.481667    1.499431   -1.083110
  H     -1.364879    1.719380   -0.116341
  H     -0.943092    0.614242   -1.409190
  H      0.124917    0.404075    1.435284

 Total Charge           Charge          ....    0
 Multiplicity           Mult            ....    1
 Number of Electrons    NEL             ....   50
 Basis Dimension        Dim             ....  200

ORBITAL ENERGIES
----------------

  NO   OCC          E(Eh)            E(eV)
   0   2.0000    -104.809743     -2852.0181
   1   2.0000     -11.304919      -307.6225
   2   2.0000     -11.242225      -305.9165
   3   2.0000     -11.237490      -305.7876
   4   2.0000     -11.224643      -305.4381
   5   2.0000     -10.535806      -286.6939
   6   2.0000      -8.003277      -217.7802
   7   2.0000      -8.000430      -217.7028
   8   2.0000      -8.000376      -217.7013
   9   2.0000      -1.143647       -31.1202
  10   2.0000      -1.037561       -28.2335
  11   2.0000      -0.993259       -27.0279
  12   2.0000      -0.877928       -23.8896
  13   2.0000      -0.791360       -21.5340
  14   2.0000      -0.649395       -17.6709
  15   2.0000      -0.612247       -16.6601
  16   2.0000      -0.604709       -16.4550
  17   2.0000      -0.583098       -15.8669
  18   2.0000      -0.538662       -14.6577
  19   2.0000      -0.513157       -13.9637
  20   2.0000      -0.499361       -13.5883
  21   2.0000      -0.493180       -13.4201
  22   2.0000      -0.475646       -12.9430
  23   2.0000      -0.425677       -11.5833
  24   2.0000      -0.424745       -11.5579
  25   0.0000       0.034821         0.9475
  26   0.0000       0.043644         1.1876
  27   0.0000       0.046879         1.2756
  28   0.0000       0.053929         1.4675
  29   0.0000       0.066614         1.8127

MULLIKEN ATOMIC CHARGES
-----------------------
   0 C :    0.436409
   1 C :    0.680905
   2 C :    0.343636
   3 C :   -0.631898
   4 Cl:   -0.227556
   5 H :   -0.061289
   6 H :   -0.073160
   7 H :   -0.036844
   8 H :   -0.037821
   9 H :   -0.053780
  10 H :   -0.005735
  11 H :   -0.110733
  12 H :   -0.126774
  13 H :   -0.095358
Sum of atomic charges:    0.0000000

LOEWDIN ATOMIC CHARGES
----------------------
   0 C :    0.127198
   1 C :    0.102412
   2 C :   -0.108771
   3 C :   -0.507078
   4 Cl:    0.473948
   5 H :   -0.019694
   6 H :   -0.018338
   7 H :   -0.034371
   8 H :   -0.011547
   9 H :   -0.018576
  10 H :   -0.012344
  11 H :    0.017011
  12 H :    0.015262
  13 H :   -0.005112

  Mayer bond orders larger than 0.100000
B(  0-C ,  2-C ) :   1.2190 B(  0-C ,  5-H ) :   0.8909 B(  0-C ,  6-H ) :   0.9400
B(  0-C ,  7-H ) :   0.9448 B(  1-C ,  3-C ) :   1.2333 B(  1-C ,  8-H ) :   0.8186
B(  1-C ,  9-H ) :   0.8869 B(  1-C , 10-H ) :   0.9380 B(  2-C ,  3-C ) :   1.2037
B(  2-C , 11-H ) :   0.7656 B(  2-C , 12-H ) :   0.8576 B(  3-C ,  4-Cl) :   0.9230
B(  3-C ,  9-H ) :   0.1086 B(  3-C , 13-H ) :   0.7877

MP2 TOTAL ENERGY:     -616.998300743 Eh
FINAL SINGLE POINT ENERGY      -616.998300742620

DIPOLE MOMENT
-------------
                                X             Y             Z
Electronic contribution:      5.96480      -7.48502      -0.26338
Nuclear contribution   :     -6.35195       8.40018       0.42977
                        -----------------------------------------
Total Dipole Moment    :     -0.38715       0.91516       0.16639
                        -----------------------------------------
Magnitude (a.u.)       :      1.00752
Magnitude (Debye)      :      2.56091

Rotational constants in cm-1:     0.151177     0.102324     0.065966
Rotational constants in MHz :  4532.181864  3067.588372  1977.603923

                             ****ORCA TERMINATED NORMALLY****
TOTAL RUN TIME: 0 days 0 hours 0 minutes 40 seconds 735 msec
