                         Program Version 5.0.3 -  RELEASE  -
|  1> !ri-mp2 aug-cc-pvdz aug-cc-pvdz/c tightscf
|  2> %pal nprocs 16 end
|  3>
|  4> * xyz 0 1
|  5> S      0.000000    0.000000    2.086086
|  6> C      0.000000    0.000000    0.422971
|  7> N      0.000000    1.095429   -0.390077
|  8> C     -0.231274    0.733283   -1.785169
|  9> C      0.231274   -0.733283   -1.785169
| 10> N      0.000000   -1.095429   -0.390077
| 11> H     -0.275915    1.980156   -0.001574
| 12> H      0.347846    1.354361   -2.465670
| 13> H     -1.290782    0.811565   -2.048808
| 14> H      1.290782   -0.811565   -2.048808
| 15> H     -0.347846   -1.354361   -2.465670
| 16> H      0.275915   -1.980156   -0.001574
| 17> *
| 18>
| 19>                          ****END OF INPUT****

CARTESIAN COORDINATES (ANGSTROEM)
---------------------------------
  S      0.000000    0.000000    2.086086
  C      0.000000    0.000000    0.422971
  N      0.000000    1.095429   -0.390077
  C     -0.231274    0.733283   -1.785169
  C      0.231274   -0.733283   -1.785169
  N      0.000000   -1.095429   -0.390077
  H     -0.275915    1.980156   -0.001574
  H      0.347846    1.354361   -2.465670
  H     -1.290782    0.811565   -2.048808
  H      1.290782   -0.811565   -2.048808
  H     -0.347846   -1.354361   -2.465670
  H      0.275915   -1.980156   -0.001574

 Total Charge           Charge          ....    0
 Multiplicity           Mult            ....    1
 Number of Electrons    NEL             ....   54
 Basis Dimension        Dim             ....  196

ORBITAL ENERGIES
----------------

  NO   OCC          E(Eh)            E(eV)
   0   2.0000     -91.889407     -2500.4379
   1   2.0000     -15.608647      -424.7329
   2   2.0000     -15.608615      -424.7320
   3   2.0000     -11.376404      -309.5677
   4   2.0000     -11.301087      -307.5182
   5   2.0000     -11.300495      -307.5021
   6   2.0000      -8.892784      -241.9849
   7   2.0000      -6.575400      -178.9257
   8   2.0000      -6.572203      -178.8387
   9   2.0000      -6.571458      -178.8185
  10   2.0000      -1.349433       -36.7200
  11   2.0000      -1.199989       -32.6534
  12   2.0000      -1.068020       -29.0623
  13   2.0000      -0.938315       -25.5329
  14   2.0000      -0.879230       -23.9251
  15   2.0000      -0.842644       -22.9295
  16   2.0000      -0.703261       -19.1367
  17   2.0000      -0.692442       -18.8423
  18   2.0000      -0.661576       -18.0024
  19   2.0000      -0.617713       -16.8088
  20   2.0000      -0.580800       -15.8044
  21   2.0000      -0.551046       -14.9947
  22   2.0000      -0.535668       -14.5763
  23   2.0000      -0.506068       -13.7708
  24   2.0000      -0.403073       -10.9682
  25   2.0000      -0.321239        -8.7413
  26   2.0000      -0.318652        -8.6710
  27   0.0000       0.024946         0.6788
  28   0.0000       0.037227         1.0130
  29   0.0000       0.041520         1.1298
  30   0.0000       0.049854         1.3566
  31   0.0000       0.064793         1.7631

MULLIKEN ATOMIC CHARGES
-----------------------
   0 S :    0.016547
   1 C :    0.261014
   2 N :   -0.488431
   3 C :    0.800751
   4 C :    0.800751
   5 N :   -0.488431
   6 H :   -0.122590
   7 H :   -0.133354
   8 H :   -0.195156
   9 H :   -0.195156
  10 H :   -0.133354
  11 H :   -0.122590
Sum of atomic charges:   -0.0000000

LOEWDIN ATOMIC CHARGES
----------------------
   0 S :    0.462557
   1 C :   -0.737258
   2 N :    0.051858
   3 C :    0.041465
   4 C :    0.041465
   5 N :    0.051858
   6 H :    0.010194
   7 H :    0.014901
   8 H :    0.018933
   9 H :    0.018933
  10 H :    0.014901
  11 H :    0.010194

  Mayer bond orders larger than 0.100000
B(  0-S ,  1-C ) :   1.7674 B(  1-C ,  2-N ) :   1.0169 B(  1-C ,  5-N ) :   1.0169
B(  2-N ,  3-C ) :   0.8243 B(  2-N ,  6-H ) :   1.1718 B(  3-C ,  4-C ) :   1.2715
B(  3-C ,  7-H ) :   0.9154 B(  3-C ,  8-H ) :   0.7462 B(  3-C ,  9-H ) :   0.1183
B(  4-C ,  5-N ) :   0.8243 B(  4-C ,  8-H ) :   0.1183 B(  4-C ,  9-H ) :   0.7462
B(  4-C , 10-H ) :   0.9154 B(  5-N , 11-H ) :   1.1718

MP2 TOTAL ENERGY:     -624.476571737 Eh
FINAL SINGLE POINT ENERGY      -624.476571736856

DIPOLE MOMENT
-------------
                                X             Y             Z
Electronic contribution:      0.00000       0.00000       6.56521
Nuclear contribution   :      0.00000      -0.00000      -9.03521
                        -----------------------------------------
Total Dipole Moment    :      0.00000       0.00000      -2.47000
                        -----------------------------------------
Magnitude (a.u.)       :      2.47000
Magnitude (Debye)      :      6.27823

Rotational constants in cm-1:     0.261342     0.068329     0.055711
Rotational constants in MHz :  7834.825997  2048.446868  1670.168735

                             ****ORCA TERMINATED NORMALLY****
TOTAL RUN TIME: 0 days 0 hours 0 minutes 33 seconds 85 msec
