                         Program Version 5.0.3 -  RELEASE  -
|  1> !ri-mp2 aug-cc-pvdz aug-cc-pvdz/c tightscf
|  2> %pal nprocs 16 end
|  3>
|  4> * xyz 0 1
|  5> C     -1.104968   -1.663429        0.000000
|  6> C     -1.932817   -0.545821        0.000000
|  7> C      0.277669   -1.523878        0.000000
|  8> C     -1.373010    0.728438        0.000000
|  9> C      0.848168   -0.256096        0.000000
| 10> C      0.000000    0.846928        0.000000
| 11> O      2.201785   -0.118858        0.000000
| 12> F      0.585079    2.077027        0.000000
| 13> H     -1.536548   -2.654610        0.000000
| 14> H     -3.007204   -0.659939        0.000000
| 15> H      0.930968   -2.385091        0.000000
| 16> H     -1.982396    1.621014        0.000000
| 17> H      2.424943    0.819401        0.000000
| 18> *
| 19>
| 20>                          ****END OF INPUT****

CARTESIAN COORDINATES (ANGSTROEM)
---------------------------------
  C     -1.104968   -1.663429    0.000000
  C     -1.932817   -0.545821    0.000000
  C      0.277669   -1.523878    0.000000
  C     -1.373010    0.728438    0.000000
  C      0.848168   -0.256096    0.000000
  C      0.000000    0.846928    0.000000
  O      2.201785   -0.118858    0.000000
  F      0.585079    2.077027    0.000000
  H     -1.536548   -2.654610    0.000000
  H     -3.007204   -0.659939    0.000000
  H      0.930968   -2.385091    0.000000
  H     -1.982396    1.621014    0.000000
  H      2.424943    0.819401    0.000000

 Total Charge           Charge          ....    0
 Multiplicity           Mult            ....    1
 Number of Electrons    NEL             ....   58
 Basis Dimension        Dim             ....  229

ORBITAL ENERGIES
----------------

  NO   OCC          E(Eh)            E(eV)
   0   2.0000     -26.334799      -716.6063
   1   2.0000     -20.610164      -560.8311
   2   2.0000     -11.334654      -308.4316
   3   2.0000     -11.321183      -308.0650
   4   2.0000     -11.259465      -306.3856
   5   2.0000     -11.253309      -306.2181
   6   2.0000     -11.249559      -306.1161
   7   2.0000     -11.249214      -306.1067
   8   2.0000      -1.640066       -44.6285
   9   2.0000      -1.420591       -38.6562
  10   2.0000      -1.168959       -31.8090
  11   2.0000      -1.037919       -28.2432
  12   2.0000      -1.023870       -27.8609
  13   2.0000      -0.869284       -23.6544
  14   2.0000      -0.853210       -23.2170
  15   2.0000      -0.775339       -21.0980
  16   2.0000      -0.735639       -20.0178
  17   2.0000      -0.706053       -19.2127
  18   2.0000      -0.705190       -19.1892
  19   2.0000      -0.657069       -17.8797
  20   2.0000      -0.629879       -17.1399
  21   2.0000      -0.617209       -16.7951
  22   2.0000      -0.596982       -16.2447
  23   2.0000      -0.584502       -15.9051
  24   2.0000      -0.540392       -14.7048
  25   2.0000      -0.516165       -14.0456
  26   2.0000      -0.495997       -13.4968
  27   2.0000      -0.352574        -9.5940
  28   2.0000      -0.327542        -8.9129
  29   0.0000       0.034799         0.9469
  30   0.0000       0.041759         1.1363
  31   0.0000       0.042789         1.1643
  32   0.0000       0.057816         1.5733
  33   0.0000       0.062156         1.6913

MULLIKEN ATOMIC CHARGES
-----------------------
   0 C :    0.443683
   1 C :    0.692276
   2 C :    0.730431
   3 C :    0.213577
   4 C :    0.299492
   5 C :    0.920684
   6 O :   -0.888622
   7 F :   -0.859455
   8 H :   -0.426300
   9 H :   -0.428898
  10 H :   -0.461077
  11 H :   -0.410408
  12 H :    0.174615
Sum of atomic charges:    0.0000000

LOEWDIN ATOMIC CHARGES
----------------------
   0 C :    0.008290
   1 C :    0.004741
   2 C :    0.058510
   3 C :    0.048934
   4 C :   -0.202386
   5 C :   -0.152037
   6 O :    0.197866
   7 F :    0.056604
   8 H :    0.001633
   9 H :   -0.002323
  10 H :    0.010706
  11 H :    0.012646
  12 H :   -0.043184

  Mayer bond orders larger than 0.100000
B(  0-C ,  1-C ) :   1.7196 B(  0-C ,  2-C ) :   1.7005 B(  0-C ,  5-C ) :   0.1460
B(  0-C ,  8-H ) :   0.4219 B(  0-C ,  9-H ) :   0.1892 B(  1-C ,  3-C ) :   1.7537
B(  1-C ,  4-C ) :   0.1295 B(  1-C ,  8-H ) :   0.1457 B(  1-C ,  9-H ) :   0.3481
B(  2-C ,  3-C ) :   0.2427 B(  2-C ,  4-C ) :   1.8180 B(  2-C ,  8-H ) :   0.1819
B(  2-C , 10-H ) :   0.1666 B(  3-C ,  5-C ) :   1.7467 B(  3-C ,  7-F ) :   0.2399
B(  3-C ,  9-H ) :   0.1938 B(  3-C , 11-H ) :   0.3981 B(  4-C ,  5-C ) :   1.3754
B(  4-C ,  7-F ) :   0.5393 B(  4-C , 10-H ) :   0.4535 B(  5-C ,  6-O ) :   0.1976
B(  5-C ,  7-F ) :  -0.6000 B(  5-C , 11-H ) :   0.3250 B(  6-O , 12-H ) :   1.0687

MP2 TOTAL ENERGY:     -405.666510075 Eh
FINAL SINGLE POINT ENERGY      -405.666510075082

DIPOLE MOMENT
-------------
                                X             Y             Z
Electronic contribution:      3.15665       5.05007       0.00000
Nuclear contribution   :     -3.60818      -5.16190       0.00000
                        -----------------------------------------
Total Dipole Moment    :     -0.45153      -0.11184       0.00000
                        -----------------------------------------
Magnitude (a.u.)       :      0.46518
Magnitude (Debye)      :      1.18239

Rotational constants in cm-1:     0.111740     0.074559     0.044720
Rotational constants in MHz :  3349.887404  2235.211615  1340.657920

                             ****ORCA TERMINATED NORMALLY****
TOTAL RUN TIME: 0 days 0 hours 1 minutes 6 seconds 34 msec
