                         Program Version 5.0.3 -  RELEASE  -
|  1> !ri-mp2 aug-cc-pvdz aug-cc-pvdz/c tightscf
|  2> %pal nprocs 16 end
|  3>
|  4> * xyz 0 1
|  5> C     0.000000     0.000000   -1.831849
|  6> C     0.000000     1.195324   -1.129066
|  7> C     0.000000    -1.195324   -1.129066
|  8> C     0.000000     1.155404    0.265392
|  9> C     0.000000    -1.155404    0.265392
| 10> C     0.000000     2.411589    1.091716
| 11> C     0.000000    -2.411589    1.091716
| 12> N     0.000000     0.000000    0.937784
| 13> H     0.000000     0.000000   -2.914051
| 14> H     0.000000     2.144159   -1.647425
| 15> H     0.000000    -2.144159   -1.647425
| 16> H    -0.876787     2.436350    1.740225
| 17> H     0.876787     2.436350    1.740225
| 18> H     0.000000     3.304826    0.469053
| 19> H     0.000000    -3.304826    0.469053
| 20> H     0.876787    -2.436350    1.740225
| 21> H    -0.876787    -2.436350    1.740225
| 22> *
| 23>
| 24>                          ****END OF INPUT****

CARTESIAN COORDINATES (ANGSTROEM)
---------------------------------
  C      0.000000    0.000000   -1.831849
  C      0.000000    1.195324   -1.129066
  C      0.000000   -1.195324   -1.129066
  C      0.000000    1.155404    0.265392
  C      0.000000   -1.155404    0.265392
  C      0.000000    2.411589    1.091716
  C      0.000000   -2.411589    1.091716
  N      0.000000    0.000000    0.937784
  H      0.000000    0.000000   -2.914051
  H      0.000000    2.144159   -1.647425
  H      0.000000   -2.144159   -1.647425
  H     -0.876787    2.436350    1.740225
  H      0.876787    2.436350    1.740225
  H      0.000000    3.304826    0.469053
  H      0.000000   -3.304826    0.469053
  H      0.876787   -2.436350    1.740225
  H     -0.876787   -2.436350    1.740225

 Total Charge           Charge          ....    0
 Multiplicity           Mult            ....    1
 Number of Electrons    NEL             ....   58
 Basis Dimension        Dim             ....  265

ORBITAL ENERGIES
----------------

  NO   OCC          E(Eh)            E(eV)
   0   2.0000     -15.556600      -423.3166
   1   2.0000     -11.282000      -306.9988
   2   2.0000     -11.281981      -306.9983
   3   2.0000     -11.258025      -306.3464
   4   2.0000     -11.233200      -305.6709
   5   2.0000     -11.233156      -305.6697
   6   2.0000     -11.226385      -305.4855
   7   2.0000     -11.226384      -305.4854
   8   2.0000      -1.259098       -34.2618
   9   2.0000      -1.084024       -29.4978
  10   2.0000      -1.072842       -29.1935
  11   2.0000      -0.977701       -26.6046
  12   2.0000      -0.934785       -25.4368
  13   2.0000      -0.833193       -22.6723
  14   2.0000      -0.812461       -22.1082
  15   2.0000      -0.686107       -18.6699
  16   2.0000      -0.671238       -18.2653
  17   2.0000      -0.619411       -16.8550
  18   2.0000      -0.592324       -16.1180
  19   2.0000      -0.577441       -15.7130
  20   2.0000      -0.569601       -15.4996
  21   2.0000      -0.566551       -15.4166
  22   2.0000      -0.534022       -14.5315
  23   2.0000      -0.533889       -14.5279
  24   2.0000      -0.502158       -13.6644
  25   2.0000      -0.498384       -13.5617
  26   2.0000      -0.404424       -11.0049
  27   2.0000      -0.374609       -10.1936
  28   2.0000      -0.326973        -8.8974
  29   0.0000       0.033902         0.9225
  30   0.0000       0.039888         1.0854
  31   0.0000       0.042560         1.1581
  32   0.0000       0.054306         1.4777
  33   0.0000       0.058669         1.5965

MULLIKEN ATOMIC CHARGES
-----------------------
   0 C :   -0.643879
   1 C :    0.965492
   2 C :    0.965492
   3 C :   -0.012755
   4 C :   -0.012755
   5 C :    0.520314
   6 C :    0.520314
   7 N :   -0.861844
   8 H :   -0.417472
   9 H :   -0.540274
  10 H :   -0.540274
  11 H :    0.073092
  12 H :    0.073092
  13 H :   -0.117363
  14 H :   -0.117363
  15 H :    0.073092
  16 H :    0.073092
Sum of atomic charges:   -0.0000000

LOEWDIN ATOMIC CHARGES
----------------------
   0 C :    0.021844
   1 C :    0.043713
   2 C :    0.043713
   3 C :   -0.254146
   4 C :   -0.254146
   5 C :    0.185351
   6 C :    0.185351
   7 N :    0.085868
   8 H :    0.008222
   9 H :   -0.001543
  10 H :   -0.001543
  11 H :   -0.007179
  12 H :   -0.007179
  13 H :   -0.016985
  14 H :   -0.016985
  15 H :   -0.007179
  16 H :   -0.007179

  Mayer bond orders larger than 0.100000
B(  0-C ,  1-C ) :   1.5583 B(  0-C ,  2-C ) :   1.5583 B(  0-C ,  5-C ) :   0.1685
B(  0-C ,  6-C ) :   0.1685 B(  0-C ,  7-N ) :   0.1266 B(  0-C ,  8-H ) :   0.4946
B(  0-C ,  9-H ) :   0.4616 B(  0-C , 10-H ) :   0.4616 B(  1-C ,  2-C ) :   0.3485
B(  1-C ,  3-C ) :   1.1823 B(  1-C ,  4-C ) :  -0.2166 B(  1-C ,  5-C ) :  -0.1791
B(  1-C ,  7-N ) :  -0.1778 B(  1-C ,  8-H ) :   0.1129 B(  1-C ,  9-H ) :   0.1432
B(  1-C , 13-H ) :  -0.1818 B(  2-C ,  3-C ) :  -0.2166 B(  2-C ,  4-C ) :   1.1823
B(  2-C ,  6-C ) :  -0.1791 B(  2-C ,  7-N ) :  -0.1778 B(  2-C ,  8-H ) :   0.1129
B(  2-C , 10-H ) :   0.1432 B(  2-C , 14-H ) :  -0.1818 B(  3-C ,  4-C ) :   0.1133
B(  3-C ,  5-C ) :   1.1878 B(  3-C ,  7-N ) :   1.3539 B(  3-C , 10-H ) :  -0.1043
B(  3-C , 11-H ) :   0.1171 B(  3-C , 12-H ) :   0.1171 B(  3-C , 13-H ) :   0.4533
B(  4-C ,  6-C ) :   1.1878 B(  4-C ,  7-N ) :   1.3539 B(  4-C ,  9-H ) :  -0.1043
B(  4-C , 14-H ) :   0.4533 B(  4-C , 15-H ) :   0.1171 B(  4-C , 16-H ) :   0.1171
B(  5-C , 11-H ) :   0.8811 B(  5-C , 12-H ) :   0.8811 B(  5-C , 13-H ) :   0.6818
B(  6-C , 14-H ) :   0.6818 B(  6-C , 15-H ) :   0.8811 B(  6-C , 16-H ) :   0.8811

MP2 TOTAL ENERGY:     -325.951852083 Eh
FINAL SINGLE POINT ENERGY      -325.951852082575

DIPOLE MOMENT
-------------
                                X             Y             Z
Electronic contribution:     -0.00000       0.00000      -2.32335
Nuclear contribution   :      0.00000       0.00000       1.72365
                        -----------------------------------------
Total Dipole Moment    :     -0.00000       0.00000      -0.59970
                        -----------------------------------------
Magnitude (a.u.)       :      0.59970
Magnitude (Debye)      :      1.52431

Rotational constants in cm-1:     0.117617     0.063754     0.041982
Rotational constants in MHz :  3526.062802  1911.298088  1258.589007

                             ****ORCA TERMINATED NORMALLY****
TOTAL RUN TIME: 0 days 0 hours 1 minutes 33 seconds 184 msec
