                         Program Version 5.0.3 -  RELEASE  -
|  1> !ri-mp2 aug-cc-pvdz aug-cc-pvdz/c tightscf
|  2> %pal nprocs 16 end
|  3>
|  4> * xyz 0 1
|  5> C     -0.678099    1.442161   -0.097723
|  6> C     -1.602385   -0.909150   -0.006698
|  7> C      1.963999   -0.107579    0.092089
|  8> C     -0.421488   -0.006587    0.311499
|  9> O      0.708102   -0.560944   -0.366728
| 10> H     -1.546873    1.837096    0.431111
| 11> H      0.169074    2.086994    0.135299
| 12> H     -0.870837    1.501789   -1.170041
| 13> H     -2.500908   -0.561297    0.503988
| 14> H     -1.397458   -1.932194    0.306542
| 15> H     -1.795646   -0.912336   -1.080473
| 16> H      2.130121    0.953843   -0.119355
| 17> H      2.722137   -0.686882   -0.431688
| 18> H      2.076887   -0.270336    1.171121
| 19> H     -0.223479   -0.042199    1.392313
| 20> *
| 21>
| 22>                          ****END OF INPUT****

CARTESIAN COORDINATES (ANGSTROEM)
---------------------------------
  C     -0.678099    1.442161   -0.097723
  C     -1.602385   -0.909150   -0.006698
  C      1.963999   -0.107579    0.092089
  C     -0.421488   -0.006587    0.311499
  O      0.708102   -0.560944   -0.366728
  H     -1.546873    1.837096    0.431111
  H      0.169074    2.086994    0.135299
  H     -0.870837    1.501789   -1.170041
  H     -2.500908   -0.561297    0.503988
  H     -1.397458   -1.932194    0.306542
  H     -1.795646   -0.912336   -1.080473
  H      2.130121    0.953843   -0.119355
  H      2.722137   -0.686882   -0.431688
  H      2.076887   -0.270336    1.171121
  H     -0.223479   -0.042199    1.392313

 Total Charge           Charge          ....    0
 Multiplicity           Mult            ....    1
 Number of Electrons    NEL             ....   42
 Basis Dimension        Dim             ....  205

ORBITAL ENERGIES
----------------

  NO   OCC          E(Eh)            E(eV)
   0   2.0000     -20.557958      -559.4105
   1   2.0000     -11.282801      -307.0206
   2   2.0000     -11.273137      -306.7577
   3   2.0000     -11.219485      -305.2977
   4   2.0000     -11.215813      -305.1978
   5   2.0000      -1.368669       -37.2434
   6   2.0000      -1.052335       -28.6355
   7   2.0000      -0.941640       -25.6233
   8   2.0000      -0.913480       -24.8571
   9   2.0000      -0.791689       -21.5430
  10   2.0000      -0.667558       -18.1652
  11   2.0000      -0.635249       -17.2860
  12   2.0000      -0.632110       -17.2006
  13   2.0000      -0.586918       -15.9709
  14   2.0000      -0.548453       -14.9242
  15   2.0000      -0.540525       -14.7084
  16   2.0000      -0.527199       -14.3458
  17   2.0000      -0.497396       -13.5348
  18   2.0000      -0.489199       -13.3118
  19   2.0000      -0.457720       -12.4552
  20   2.0000      -0.413594       -11.2545
  21   0.0000       0.036903         1.0042
  22   0.0000       0.046321         1.2604
  23   0.0000       0.048791         1.3277
  24   0.0000       0.050304         1.3688
  25   0.0000       0.066270         1.8033

MULLIKEN ATOMIC CHARGES
-----------------------
   0 C :    0.450948
   1 C :    0.484970
   2 C :    0.815819
   3 C :    0.131359
   4 O :   -0.981477
   5 H :   -0.028942
   6 H :   -0.154223
   7 H :   -0.002445
   8 H :   -0.032748
   9 H :   -0.071006
  10 H :   -0.016774
  11 H :   -0.103137
  12 H :   -0.252809
  13 H :   -0.092850
  14 H :   -0.146685
Sum of atomic charges:    0.0000000

LOEWDIN ATOMIC CHARGES
----------------------
   0 C :    0.159638
   1 C :    0.157654
   2 C :    0.125266
   3 C :   -0.294555
   4 O :   -0.010222
   5 H :   -0.012964
   6 H :   -0.027756
   7 H :   -0.007215
   8 H :   -0.013720
   9 H :   -0.012827
  10 H :   -0.009876
  11 H :   -0.032025
  12 H :   -0.027664
  13 H :   -0.022549
  14 H :    0.028814

  Mayer bond orders larger than 0.100000
B(  0-C ,  1-C ) :  -0.1352 B(  0-C ,  3-C ) :   1.2885 B(  0-C ,  4-O ) :   0.1118
B(  0-C ,  5-H ) :   0.8698 B(  0-C ,  6-H ) :   0.9086 B(  0-C ,  7-H ) :   0.9039
B(  1-C ,  3-C ) :   1.4088 B(  1-C ,  8-H ) :   0.8593 B(  1-C ,  9-H ) :   0.8379
B(  1-C , 10-H ) :   0.9315 B(  2-C ,  4-O ) :   0.7718 B(  2-C , 11-H ) :   0.9552
B(  2-C , 12-H ) :   1.0368 B(  2-C , 13-H ) :   0.9420 B(  3-C ,  4-O ) :   0.2312
B(  3-C ,  6-H ) :   0.1134 B(  3-C ,  9-H ) :   0.1628 B(  3-C , 10-H ) :   0.1066
B(  3-C , 14-H ) :   0.6871

MP2 TOTAL ENERGY:     -232.975095831 Eh
FINAL SINGLE POINT ENERGY      -232.975095830740

DIPOLE MOMENT
-------------
                                X             Y             Z
Electronic contribution:      1.31796      -1.72178      -0.79721
Nuclear contribution   :     -1.30447       2.09176       1.20574
                        -----------------------------------------
Total Dipole Moment    :      0.01349       0.36998       0.40853
                        -----------------------------------------
Magnitude (a.u.)       :      0.55132
Magnitude (Debye)      :      1.40135

Rotational constants in cm-1:     0.253098     0.125625     0.093390
Rotational constants in MHz :  7587.700887  3766.134166  2799.758971

                             ****ORCA TERMINATED NORMALLY****
TOTAL RUN TIME: 0 days 0 hours 0 minutes 42 seconds 716 msec
