                         Program Version 5.0.3 -  RELEASE  -
|  1> !ri-mp2 aug-cc-pvdz aug-cc-pvdz/c tightscf
|  2> %pal nprocs 16 end
|  3>
|  4> * xyz 0 1
|  5> C    -0.230967     0.739015    0.000000
|  6> C     0.230967     1.496803    1.250954
|  7> C     0.230967     1.496803   -1.250954
|  8> H    -0.181582     1.079091    2.167949
|  9> H     1.320994     1.480162    1.335695
| 10> H     1.320994     1.480162   -1.335695
| 11> H    -0.181582     1.079091   -2.167949
| 12> H    -0.077437     2.542265    1.200790
| 13> H    -0.077437     2.542265   -1.200790
| 14> H    -1.328230     0.732224    0.000000
| 15> C     0.230967    -0.739015    0.000000
| 16> C    -0.230967    -1.496803    1.250954
| 17> C    -0.230967    -1.496803   -1.250954
| 18> H     0.181582    -1.079091    2.167949
| 19> H    -1.320994    -1.480162    1.335695
| 20> H    -1.320994    -1.480162   -1.335695
| 21> H     0.077437    -2.542265   -1.200790
| 22> H     0.181582    -1.079091   -2.167949
| 23> H     0.077437    -2.542265    1.200790
| 24> H     1.328230    -0.732224    0.000000
| 25> *
| 26>
| 27>                          ****END OF INPUT****

CARTESIAN COORDINATES (ANGSTROEM)
---------------------------------
  C     -0.230967    0.739015    0.000000
  C      0.230967    1.496803    1.250954
  C      0.230967    1.496803   -1.250954
  H     -0.181582    1.079091    2.167949
  H      1.320994    1.480162    1.335695
  H      1.320994    1.480162   -1.335695
  H     -0.181582    1.079091   -2.167949
  H     -0.077437    2.542265    1.200790
  H     -0.077437    2.542265   -1.200790
  H     -1.328230    0.732224    0.000000
  C      0.230967   -0.739015    0.000000
  C     -0.230967   -1.496803    1.250954
  C     -0.230967   -1.496803   -1.250954
  H      0.181582   -1.079091    2.167949
  H     -1.320994   -1.480162    1.335695
  H     -1.320994   -1.480162   -1.335695
  H      0.077437   -2.542265   -1.200790
  H      0.181582   -1.079091   -2.167949
  H      0.077437   -2.542265    1.200790
  H      1.328230   -0.732224    0.000000

 Total Charge           Charge          ....    0
 Multiplicity           Mult            ....    1
 Number of Electrons    NEL             ....   50
 Basis Dimension        Dim             ....  264

ORBITAL ENERGIES
----------------

  NO   OCC          E(Eh)            E(eV)
   0   2.0000     -11.226716      -305.4945
   1   2.0000     -11.226154      -305.4792
   2   2.0000     -11.212888      -305.1182
   3   2.0000     -11.212880      -305.1180
   4   2.0000     -11.212859      -305.1174
   5   2.0000     -11.212856      -305.1173
   6   2.0000      -1.101009       -29.9600
   7   2.0000      -1.011736       -27.5307
   8   2.0000      -0.938769       -25.5452
   9   2.0000      -0.910515       -24.7764
  10   2.0000      -0.831128       -22.6161
  11   2.0000      -0.748932       -20.3795
  12   2.0000      -0.623297       -16.9608
  13   2.0000      -0.619648       -16.8615
  14   2.0000      -0.589391       -16.0381
  15   2.0000      -0.576887       -15.6979
  16   2.0000      -0.543228       -14.7820
  17   2.0000      -0.537201       -14.6180
  18   2.0000      -0.525195       -14.2913
  19   2.0000      -0.507721       -13.8158
  20   2.0000      -0.497181       -13.5290
  21   2.0000      -0.478925       -13.0322
  22   2.0000      -0.450720       -12.2647
  23   2.0000      -0.442399       -12.0383
  24   2.0000      -0.435557       -11.8521
  25   0.0000       0.038429         1.0457
  26   0.0000       0.044085         1.1996
  27   0.0000       0.045943         1.2502
  28   0.0000       0.047351         1.2885
  29   0.0000       0.062920         1.7121

MULLIKEN ATOMIC CHARGES
-----------------------
   0 C :   -1.034567
   1 C :    0.856340
   2 C :    0.856340
   3 H :   -0.102648
   4 H :   -0.033377
   5 H :   -0.033377
   6 H :   -0.102648
   7 H :   -0.080506
   8 H :   -0.080506
   9 H :   -0.245051
  10 C :   -1.034567
  11 C :    0.856340
  12 C :    0.856340
  13 H :   -0.102648
  14 H :   -0.033377
  15 H :   -0.033377
  16 H :   -0.080506
  17 H :   -0.102648
  18 H :   -0.080506
  19 H :   -0.245051
Sum of atomic charges:    0.0000000

LOEWDIN ATOMIC CHARGES
----------------------
   0 C :   -0.253578
   1 C :    0.157055
   2 C :    0.157055
   3 H :   -0.026691
   4 H :   -0.006376
   5 H :   -0.006376
   6 H :   -0.026691
   7 H :   -0.016651
   8 H :   -0.016651
   9 H :    0.038906
  10 C :   -0.253578
  11 C :    0.157055
  12 C :    0.157055
  13 H :   -0.026691
  14 H :   -0.006376
  15 H :   -0.006376
  16 H :   -0.016651
  17 H :   -0.026691
  18 H :   -0.016651
  19 H :    0.038906

  Mayer bond orders larger than 0.100000
B(  0-C ,  1-C ) :   1.3394 B(  0-C ,  2-C ) :   1.3394 B(  0-C ,  3-H ) :   0.1314
B(  0-C ,  4-H ) :   0.2190 B(  0-C ,  5-H ) :   0.2190 B(  0-C ,  6-H ) :   0.1314
B(  0-C ,  7-H ) :   0.1331 B(  0-C ,  8-H ) :   0.1331 B(  0-C ,  9-H ) :   0.5739
B(  0-C , 10-C ) :   1.0231 B(  0-C , 11-C ) :  -0.1260 B(  0-C , 12-C ) :  -0.1260
B(  0-C , 19-H ) :   0.1506 B(  1-C ,  2-C ) :  -0.1836 B(  1-C ,  3-H ) :   0.8118
B(  1-C ,  4-H ) :   0.8739 B(  1-C ,  7-H ) :   0.7941 B(  1-C , 10-C ) :  -0.1260
B(  2-C ,  5-H ) :   0.8739 B(  2-C ,  6-H ) :   0.8118 B(  2-C ,  8-H ) :   0.7941
B(  2-C , 10-C ) :  -0.1260 B(  9-H , 10-C ) :   0.1506 B( 10-C , 11-C ) :   1.3394
B( 10-C , 12-C ) :   1.3394 B( 10-C , 13-H ) :   0.1314 B( 10-C , 14-H ) :   0.2190
B( 10-C , 15-H ) :   0.2190 B( 10-C , 16-H ) :   0.1331 B( 10-C , 17-H ) :   0.1314
B( 10-C , 18-H ) :   0.1331 B( 10-C , 19-H ) :   0.5739 B( 11-C , 12-C ) :  -0.1836
B( 11-C , 13-H ) :   0.8118 B( 11-C , 14-H ) :   0.8739 B( 11-C , 18-H ) :   0.7941
B( 12-C , 15-H ) :   0.8739 B( 12-C , 16-H ) :   0.7941 B( 12-C , 17-H ) :   0.8118

MP2 TOTAL ENERGY:     -236.305114489 Eh
FINAL SINGLE POINT ENERGY      -236.305114488740

DIPOLE MOMENT
-------------
                                X             Y             Z
Electronic contribution:     -0.00000      -0.00000      -0.00000
Nuclear contribution   :      0.00000       0.00000       0.00000
                        -----------------------------------------
Total Dipole Moment    :     -0.00000      -0.00000      -0.00000
                        -----------------------------------------
Magnitude (a.u.)       :      0.00000
Magnitude (Debye)      :      0.00000

Rotational constants in cm-1:     0.140684     0.095771     0.062326
Rotational constants in MHz :  4217.591196  2871.131215  1868.479515

                             ****ORCA TERMINATED NORMALLY****
TOTAL RUN TIME: 0 days 0 hours 1 minutes 9 seconds 845 msec
