                         Program Version 5.0.3 -  RELEASE  -
|  1> !ri-mp2 aug-cc-pvdz aug-cc-pvdz/c tightscf
|  2> %pal nprocs 16 end
|  3>
|  4> * xyz 0 1
|  5> C     -0.186018    1.136555   -0.016276
|  6> C      2.009439    0.143910   -0.020263
|  7> C     -1.688458    0.930915   -0.085110
|  8> C     -2.193334   -0.451194    0.319463
|  9> C     -1.329801   -1.518012   -0.342061
| 10> C      0.110985   -1.389348    0.120028
| 11> N      0.625043   -0.010474   -0.004995
| 12> O      0.292401    2.250735   -0.012180
| 13> O      2.774688   -0.789444    0.046595
| 14> H      2.318270    1.188945   -0.103512
| 15> H     -2.134838    1.730283    0.504410
| 16> H     -1.958505    1.134988   -1.126204
| 17> H     -2.147779   -0.565223    1.406075
| 18> H     -3.240882   -0.559386    0.036482
| 19> H     -1.680512   -2.521239   -0.096983
| 20> H     -1.383960   -1.417352   -1.429648
| 21> H      0.200795   -1.695360    1.165693
| 22> H      0.778519   -2.029625   -0.451356
| 23> *
| 24>
| 25>                          ****END OF INPUT****

CARTESIAN COORDINATES (ANGSTROEM)
---------------------------------
  C     -0.186018    1.136555   -0.016276
  C      2.009439    0.143910   -0.020263
  C     -1.688458    0.930915   -0.085110
  C     -2.193334   -0.451194    0.319463
  C     -1.329801   -1.518012   -0.342061
  C      0.110985   -1.389348    0.120028
  N      0.625043   -0.010474   -0.004995
  O      0.292401    2.250735   -0.012180
  O      2.774688   -0.789444    0.046595
  H      2.318270    1.188945   -0.103512
  H     -2.134838    1.730283    0.504410
  H     -1.958505    1.134988   -1.126204
  H     -2.147779   -0.565223    1.406075
  H     -3.240882   -0.559386    0.036482
  H     -1.680512   -2.521239   -0.096983
  H     -1.383960   -1.417352   -1.429648
  H      0.200795   -1.695360    1.165693
  H      0.778519   -2.029625   -0.451356

 Total Charge           Charge          ....    0
 Multiplicity           Mult            ....    1
 Number of Electrons    NEL             ....   68
 Basis Dimension        Dim             ....  288

ORBITAL ENERGIES
----------------

  NO   OCC          E(Eh)            E(eV)
   0   2.0000     -20.560155      -559.4703
   1   2.0000     -20.555963      -559.3562
   2   2.0000     -15.625128      -425.1814
   3   2.0000     -11.385317      -309.8102
   4   2.0000     -11.368544      -309.3538
   5   2.0000     -11.287878      -307.1588
   6   2.0000     -11.261962      -306.4536
   7   2.0000     -11.256269      -306.2987
   8   2.0000     -11.254702      -306.2560
   9   2.0000      -1.424459       -38.7615
  10   2.0000      -1.401681       -38.1417
  11   2.0000      -1.266075       -34.4516
  12   2.0000      -1.113835       -30.3090
  13   2.0000      -1.035241       -28.1704
  14   2.0000      -0.939882       -25.5755
  15   2.0000      -0.880687       -23.9647
  16   2.0000      -0.837398       -22.7868
  17   2.0000      -0.754310       -20.5258
  18   2.0000      -0.707002       -19.2385
  19   2.0000      -0.689221       -18.7547
  20   2.0000      -0.667907       -18.1747
  21   2.0000      -0.635706       -17.2984
  22   2.0000      -0.626775       -17.0554
  23   2.0000      -0.619999       -16.8710
  24   2.0000      -0.615156       -16.7392
  25   2.0000      -0.596299       -16.2261
  26   2.0000      -0.541712       -14.7407
  27   2.0000      -0.520910       -14.1747
  28   2.0000      -0.518967       -14.1218
  29   2.0000      -0.501766       -13.6538
  30   2.0000      -0.495554       -13.4847
  31   2.0000      -0.465684       -12.6719
  32   2.0000      -0.422792       -11.5048
  33   2.0000      -0.407894       -11.0994
  34   0.0000       0.026640         0.7249
  35   0.0000       0.038977         1.0606
  36   0.0000       0.040616         1.1052
  37   0.0000       0.046612         1.2684
  38   0.0000       0.062313         1.6956

MULLIKEN ATOMIC CHARGES
-----------------------
   0 C :    0.630020
   1 C :    0.779725
   2 C :    0.158605
   3 C :    0.477873
   4 C :    0.376689
   5 C :    0.728475
   6 N :   -0.701990
   7 O :   -0.830225
   8 O :   -0.677189
   9 H :   -0.139963
  10 H :   -0.016220
  11 H :    0.063469
  12 H :   -0.136502
  13 H :   -0.083786
  14 H :   -0.073436
  15 H :   -0.146523
  16 H :   -0.212407
  17 H :   -0.196615
Sum of atomic charges:   -0.0000000

LOEWDIN ATOMIC CHARGES
----------------------
   0 C :   -0.262773
   1 C :   -0.066091
   2 C :    0.055196
   3 C :   -0.012479
   4 C :   -0.008473
   5 C :    0.040540
   6 N :   -0.045633
   7 O :    0.046824
   8 O :    0.029663
   9 H :    0.017051
  10 H :    0.029243
  11 H :    0.035390
  12 H :    0.023197
  13 H :    0.020432
  14 H :    0.025355
  15 H :    0.025882
  16 H :    0.030493
  17 H :    0.016181

  Mayer bond orders larger than 0.100000
B(  0-C ,  2-C ) :   0.9250 B(  0-C ,  6-N ) :   0.9837 B(  0-C ,  7-O ) :   1.4578
B(  0-C , 10-H ) :   0.1376 B(  1-C ,  6-N ) :   1.1180 B(  1-C ,  8-O ) :   1.6040
B(  1-C ,  9-H ) :   0.9714 B(  2-C ,  3-C ) :   1.2871 B(  2-C , 10-H ) :   0.7342
B(  2-C , 11-H ) :   0.8508 B(  3-C ,  4-C ) :   1.2370 B(  3-C , 12-H ) :   0.7823
B(  3-C , 13-H ) :   0.7709 B(  4-C ,  5-C ) :   1.2586 B(  4-C , 14-H ) :   0.7748
B(  4-C , 15-H ) :   0.8241 B(  5-C ,  6-N ) :   0.7942 B(  5-C , 16-H ) :   0.7681
B(  5-C , 17-H ) :   0.8685 B(  8-O ,  9-H ) :  -0.1015 B( 10-H , 11-H ) :  -0.1027
B( 12-H , 13-H ) :  -0.1295 B( 14-H , 15-H ) :  -0.1236

MP2 TOTAL ENERGY:     -438.109726038 Eh
FINAL SINGLE POINT ENERGY      -438.109726037896

DIPOLE MOMENT
-------------
                                X             Y             Z
Electronic contribution:      7.44443       4.03482       0.03801
Nuclear contribution   :     -9.23781      -4.73196      -0.09495
                        -----------------------------------------
Total Dipole Moment    :     -1.79338      -0.69715      -0.05694
                        -----------------------------------------
Magnitude (a.u.)       :      1.92496
Magnitude (Debye)      :      4.89287

Rotational constants in cm-1:     0.083386     0.050098     0.032518
Rotational constants in MHz :  2499.850164  1501.893695   974.852515

                             ****ORCA TERMINATED NORMALLY****
TOTAL RUN TIME: 0 days 0 hours 1 minutes 23 seconds 321 msec
