                         Program Version 5.0.3 -  RELEASE  -
|  1> !ri-mp2 aug-cc-pvdz aug-cc-pvdz/c tightscf
|  2> %pal nprocs 16 end
|  3>
|  4> * xyz 0 1
|  5> O     -0.353454   -1.104461    0.000000
|  6> N      0.000000    1.089677    0.000000
|  7> C     -1.093179    0.134053    0.000000
|  8> C      0.952187   -0.943381    0.000000
|  9> C      1.214335    0.602031    0.000000
| 10> H     -0.198428    2.081953    0.000000
| 11> H     -1.707000    0.184886    0.898569
| 12> H     -1.707000    0.184886   -0.898569
| 13> *
| 14>
| 15>                          ****END OF INPUT****

CARTESIAN COORDINATES (ANGSTROEM)
---------------------------------
  O     -0.353454   -1.104461    0.000000
  N      0.000000    1.089677    0.000000
  C     -1.093179    0.134053    0.000000
  C      0.952187   -0.943381    0.000000
  C      1.214335    0.602031    0.000000
  H     -0.198428    2.081953    0.000000
  H     -1.707000    0.184886    0.898569
  H     -1.707000    0.184886   -0.898569

 Total Charge           Charge          ....    0
 Multiplicity           Mult            ....    1
 Number of Electrons    NEL             ....   36
 Basis Dimension        Dim             ....  142

ORBITAL ENERGIES
----------------

  NO   OCC          E(Eh)            E(eV)
   0   2.0000     -20.658086      -562.1351
   1   2.0000     -15.655171      -425.9989
   2   2.0000     -11.368545      -309.3538
   3   2.0000     -11.312265      -307.8224
   4   2.0000     -11.271963      -306.7257
   5   2.0000      -1.489210       -40.5235
   6   2.0000      -1.290731       -35.1226
   7   2.0000      -1.035665       -28.1819
   8   2.0000      -0.888550       -24.1787
   9   2.0000      -0.825365       -22.4593
  10   2.0000      -0.727530       -19.7971
  11   2.0000      -0.722146       -19.6506
  12   2.0000      -0.646811       -17.6006
  13   2.0000      -0.592345       -16.1185
  14   2.0000      -0.552255       -15.0276
  15   2.0000      -0.493424       -13.4268
  16   2.0000      -0.382198       -10.4001
  17   2.0000      -0.359962        -9.7951
  18   0.0000       0.019679         0.5355
  19   0.0000       0.037462         1.0194
  20   0.0000       0.042961         1.1690
  21   0.0000       0.053261         1.4493
  22   0.0000       0.079533         2.1642

MULLIKEN ATOMIC CHARGES
-----------------------
   0 O :   -0.667216
   1 N :   -0.295210
   2 C :    1.173663
   3 C :    0.162061
   4 C :   -0.056208
   5 H :   -0.080458
   6 H :   -0.118316
   7 H :   -0.118316
Sum of atomic charges:    0.0000000

LOEWDIN ATOMIC CHARGES
----------------------
   0 O :   -0.045813
   1 N :   -0.077305
   2 C :    0.041654
   3 C :    0.034270
   4 C :   -0.003378
   5 H :    0.017953
   6 H :    0.016309
   7 H :    0.016309

  Mayer bond orders larger than 0.100000
B(  0-O ,  2-C ) :   0.5727 B(  0-O ,  3-C ) :   0.9478 B(  1-N ,  2-C ) :   0.7036
B(  1-N ,  4-C ) :   1.3686 B(  1-N ,  5-H ) :   1.1562 B(  2-C ,  6-H ) :   0.9637
B(  2-C ,  7-H ) :   0.9637 B(  3-C ,  4-C ) :   0.4857 B(  4-C ,  5-H ) :  -0.1263

MP2 TOTAL ENERGY:     -245.250910704 Eh
FINAL SINGLE POINT ENERGY      -245.250910703911

DIPOLE MOMENT
-------------
                                X             Y             Z
Electronic contribution:      1.47589      -1.18282      -0.00000
Nuclear contribution   :     -3.54191       2.38938       0.00000
                        -----------------------------------------
Total Dipole Moment    :     -2.06602       1.20656      -0.00000
                        -----------------------------------------
Magnitude (a.u.)       :      2.39254
Magnitude (Debye)      :      6.08134

Rotational constants in cm-1:     0.324984     0.291537     0.158377
Rotational constants in MHz :  9742.760239  8740.070592  4748.020409

                             ****ORCA TERMINATED NORMALLY****
TOTAL RUN TIME: 0 days 0 hours 0 minutes 37 seconds 381 msec
