                         Program Version 5.0.3 -  RELEASE  -
|  1> !ri-mp2 aug-cc-pvdz aug-cc-pvdz/c tightscf
|  2> %pal nprocs 16 end
|  3>
|  4> * xyz 0 1
|  5> N      1.184590    0.251105    0.000000
|  6> C      0.000000    0.875562    0.000000
|  7> C     -1.202367    0.166726    0.000000
|  8> C     -1.174475   -1.220655    0.000000
|  9> C      0.054155   -1.864985    0.000000
| 10> C      1.201261   -1.080306    0.000000
| 11> C      0.032915    2.378142    0.000000
| 12> H     -2.143876    0.698947    0.000000
| 13> H     -2.096226   -1.787364    0.000000
| 14> H      0.127330   -2.943410    0.000000
| 15> H      2.181582   -1.544032    0.000000
| 16> H     -0.968801    2.804749    0.000000
| 17> H      0.569466    2.743239    0.876757
| 18> H      0.569466    2.743239   -0.876757
| 19> *
| 20>
| 21>                          ****END OF INPUT****

CARTESIAN COORDINATES (ANGSTROEM)
---------------------------------
  N      1.184590    0.251105    0.000000
  C      0.000000    0.875562    0.000000
  C     -1.202367    0.166726    0.000000
  C     -1.174475   -1.220655    0.000000
  C      0.054155   -1.864985    0.000000
  C      1.201261   -1.080306    0.000000
  C      0.032915    2.378142    0.000000
  H     -2.143876    0.698947    0.000000
  H     -2.096226   -1.787364    0.000000
  H      0.127330   -2.943410    0.000000
  H      2.181582   -1.544032    0.000000
  H     -0.968801    2.804749    0.000000
  H      0.569466    2.743239    0.876757
  H      0.569466    2.743239   -0.876757

 Total Charge           Charge          ....    0
 Multiplicity           Mult            ....    1
 Number of Electrons    NEL             ....   50
 Basis Dimension        Dim             ....  224

ORBITAL ENERGIES
----------------

  NO   OCC          E(Eh)            E(eV)
   0   2.0000     -15.565004      -423.5453
   1   2.0000     -11.284657      -307.0711
   2   2.0000     -11.277975      -306.8893
   3   2.0000     -11.261647      -306.4450
   4   2.0000     -11.240512      -305.8699
   5   2.0000     -11.240147      -305.8600
   6   2.0000     -11.228616      -305.5462
   7   2.0000      -1.261270       -34.3209
   8   2.0000      -1.088801       -29.6278
   9   2.0000      -1.059032       -28.8177
  10   2.0000      -0.954456       -25.9721
  11   2.0000      -0.858856       -23.3707
  12   2.0000      -0.825478       -22.4624
  13   2.0000      -0.702182       -19.1073
  14   2.0000      -0.669020       -18.2050
  15   2.0000      -0.639945       -17.4138
  16   2.0000      -0.585444       -15.9307
  17   2.0000      -0.585347       -15.9281
  18   2.0000      -0.570759       -15.5312
  19   2.0000      -0.538458       -14.6522
  20   2.0000      -0.517180       -14.0732
  21   2.0000      -0.510750       -13.8982
  22   2.0000      -0.410768       -11.1776
  23   2.0000      -0.379987       -10.3400
  24   2.0000      -0.336512        -9.1570
  25   0.0000       0.032924         0.8959
  26   0.0000       0.040145         1.0924
  27   0.0000       0.044180         1.2022
  28   0.0000       0.056912         1.5487
  29   0.0000       0.061022         1.6605

MULLIKEN ATOMIC CHARGES
-----------------------
   0 N :   -0.726347
   1 C :   -0.244356
   2 C :    1.087209
   3 C :   -0.229392
   4 C :    0.878220
   5 C :    0.422775
   6 C :    0.463692
   7 H :   -0.521808
   8 H :   -0.407708
   9 H :   -0.416199
  10 H :   -0.347110
  11 H :   -0.103175
  12 H :    0.072100
  13 H :    0.072100
Sum of atomic charges:    0.0000000

LOEWDIN ATOMIC CHARGES
----------------------
   0 N :    0.056917
   1 C :   -0.259120
   2 C :    0.045858
   3 C :    0.018177
   4 C :    0.011745
   5 C :   -0.030496
   6 C :    0.183616
   7 H :   -0.000178
   8 H :    0.007328
   9 H :   -0.003988
  10 H :    0.001450
  11 H :   -0.017087
  12 H :   -0.007111
  13 H :   -0.007111

  Mayer bond orders larger than 0.100000
B(  0-N ,  1-C ) :   1.2279 B(  0-N ,  4-C ) :  -0.1572 B(  0-N ,  5-C ) :   1.3518
B(  1-C ,  2-C ) :   1.1647 B(  1-C ,  3-C ) :   0.2152 B(  1-C ,  5-C ) :   0.1483
B(  1-C ,  6-C ) :   1.3687 B(  1-C , 11-H ) :   0.3717 B(  1-C , 12-H ) :   0.1264
B(  1-C , 13-H ) :   0.1264 B(  2-C ,  3-C ) :   1.3883 B(  2-C ,  4-C ) :   0.1490
B(  2-C ,  5-C ) :  -0.2539 B(  2-C ,  6-C ) :  -0.2363 B(  2-C ,  7-H ) :   0.3185
B(  2-C , 11-H ) :  -0.1907 B(  3-C ,  4-C ) :   1.5738 B(  3-C ,  5-C ) :   0.2451
B(  3-C ,  6-C ) :   0.1446 B(  3-C ,  7-H ) :   0.2473 B(  3-C ,  8-H ) :   0.5536
B(  3-C ,  9-H ) :   0.3030 B(  4-C ,  5-C ) :   1.1962 B(  4-C ,  9-H ) :   0.4324
B(  5-C , 10-H ) :   0.8650 B(  6-C , 11-H ) :   0.7739 B(  6-C , 12-H ) :   0.8600
B(  6-C , 13-H ) :   0.8600

MP2 TOTAL ENERGY:     -286.756994766 Eh
FINAL SINGLE POINT ENERGY      -286.756994765799

DIPOLE MOMENT
-------------
                                X             Y             Z
Electronic contribution:      1.05908      -3.01677      -0.00000
Nuclear contribution   :     -1.76870       2.73944       0.00000
                        -----------------------------------------
Total Dipole Moment    :     -0.70962      -0.27733      -0.00000
                        -----------------------------------------
Magnitude (a.u.)       :      0.76189
Magnitude (Debye)      :      1.93656

Rotational constants in cm-1:     0.191740     0.088027     0.061006
Rotational constants in MHz :  5748.219969  2638.970957  1828.923768

                             ****ORCA TERMINATED NORMALLY****
TOTAL RUN TIME: 0 days 0 hours 0 minutes 42 seconds 799 msec
