                         Program Version 5.0.3 -  RELEASE  -
|  1> !ri-mp2 aug-cc-pvdz aug-cc-pvdz/c tightscf
|  2> %pal nprocs 16 end
|  3>
|  4> * xyz 0 1
|  5> C    -1.022816    0.186174   -0.000039
|  6> C    -0.513038   -1.102920   -0.000143
|  7> C    -0.116583    1.240174    0.000005
|  8> C     1.559349   -0.205422    0.000000
|  9> C    -1.388160   -2.314502    0.000022
| 10> N     0.818742   -1.284102   -0.000133
| 11> N     1.178216    1.060469    0.000038
| 12> F    -2.341445    0.427343    0.000001
| 13> F    -0.566309    2.486423    0.000014
| 14> F     2.872628   -0.397773    0.000055
| 15> H    -1.162280   -2.925605   -0.874234
| 16> H    -1.170278   -2.919635    0.880532
| 17> H    -2.442518   -2.054287   -0.005320
| 18> *
| 19>
| 20>                          ****END OF INPUT****

CARTESIAN COORDINATES (ANGSTROEM)
---------------------------------
  C     -1.022816    0.186174   -0.000039
  C     -0.513038   -1.102920   -0.000143
  C     -0.116583    1.240174    0.000005
  C      1.559349   -0.205422    0.000000
  C     -1.388160   -2.314502    0.000022
  N      0.818742   -1.284102   -0.000133
  N      1.178216    1.060469    0.000038
  F     -2.341445    0.427343    0.000001
  F     -0.566309    2.486423    0.000014
  F      2.872628   -0.397773    0.000055
  H     -1.162280   -2.925605   -0.874234
  H     -1.170278   -2.919635    0.880532
  H     -2.442518   -2.054287   -0.005320

 Total Charge           Charge          ....    0
 Multiplicity           Mult            ....    1
 Number of Electrons    NEL             ....   74
 Basis Dimension        Dim             ....  257

ORBITAL ENERGIES
----------------

  NO   OCC          E(Eh)            E(eV)
   0   2.0000     -26.372921      -717.6437
   1   2.0000     -26.359776      -717.2860
   2   2.0000     -26.354361      -717.1386
   3   2.0000     -15.620368      -425.0518
   4   2.0000     -15.611388      -424.8075
   5   2.0000     -11.441602      -311.3418
   6   2.0000     -11.432849      -311.1037
   7   2.0000     -11.365579      -309.2731
   8   2.0000     -11.353344      -308.9402
   9   2.0000     -11.266404      -306.5744
  10   2.0000      -1.692938       -46.0672
  11   2.0000      -1.676020       -45.6068
  12   2.0000      -1.667756       -45.3819
  13   2.0000      -1.367702       -37.2171
  14   2.0000      -1.258698       -34.2509
  15   2.0000      -1.119921       -30.4746
  16   2.0000      -1.035769       -28.1847
  17   2.0000      -0.947351       -25.7787
  18   2.0000      -0.913708       -24.8633
  19   2.0000      -0.837500       -22.7895
  20   2.0000      -0.815678       -22.1957
  21   2.0000      -0.788400       -21.4535
  22   2.0000      -0.759591       -20.6695
  23   2.0000      -0.752807       -20.4849
  24   2.0000      -0.731567       -19.9070
  25   2.0000      -0.722930       -19.6719
  26   2.0000      -0.701126       -19.0786
  27   2.0000      -0.680881       -18.5277
  28   2.0000      -0.647472       -17.6186
  29   2.0000      -0.624192       -16.9851
  30   2.0000      -0.603305       -16.4168
  31   2.0000      -0.583346       -15.8736
  32   2.0000      -0.573768       -15.6130
  33   2.0000      -0.552931       -15.0460
  34   2.0000      -0.461409       -12.5556
  35   2.0000      -0.455962       -12.4074
  36   2.0000      -0.393518       -10.7082
  37   0.0000       0.028522         0.7761
  38   0.0000       0.049894         1.3577
  39   0.0000       0.053184         1.4472
  40   0.0000       0.060270         1.6400
  41   0.0000       0.070665         1.9229

MULLIKEN ATOMIC CHARGES
-----------------------
   0 C :    1.026949
   1 C :   -0.242909
   2 C :    1.109067
   3 C :    1.055762
   4 C :    0.616383
   5 N :   -0.797763
   6 N :   -0.685839
   7 F :   -0.808695
   8 F :   -0.694270
   9 F :   -0.678656
  10 H :    0.101466
  11 H :    0.103266
  12 H :   -0.104761
Sum of atomic charges:   -0.0000000

LOEWDIN ATOMIC CHARGES
----------------------
   0 C :   -0.108258
   1 C :   -0.200822
   2 C :   -0.181510
   3 C :   -0.267482
   4 C :    0.220835
   5 N :    0.105283
   6 N :    0.117647
   7 F :    0.086485
   8 F :    0.121180
   9 F :    0.106709
  10 H :    0.004977
  11 H :    0.005106
  12 H :   -0.010151

  Mayer bond orders larger than 0.100000
B(  0-C ,  1-C ) :   1.2529 B(  0-C ,  2-C ) :   1.1004 B(  0-C ,  7-F ) :  -0.4192
B(  0-C ,  8-F ) :   0.2593 B(  0-C , 12-H ) :  -0.1840 B(  1-C ,  2-C ) :   0.1922
B(  1-C ,  3-C ) :  -0.2458 B(  1-C ,  4-C ) :   1.3375 B(  1-C ,  5-N ) :   1.0106
B(  1-C ,  7-F ) :   0.3615 B(  1-C ,  9-F ) :   0.1141 B(  1-C , 10-H ) :   0.1527
B(  1-C , 11-H ) :   0.1530 B(  1-C , 12-H ) :   0.4100 B(  2-C ,  3-C ) :  -0.2021
B(  2-C ,  4-C ) :   0.1012 B(  2-C ,  6-N ) :   1.3249 B(  2-C ,  7-F ) :   0.2164
B(  3-C ,  5-N ) :   1.5524 B(  3-C ,  6-N ) :   1.3676 B(  3-C ,  9-F ) :   0.2246
B(  4-C , 10-H ) :   0.8436 B(  4-C , 11-H ) :   0.8432 B(  4-C , 12-H ) :   0.7157

MP2 TOTAL ENERGY:     -599.966468515 Eh
FINAL SINGLE POINT ENERGY      -599.966468514698

DIPOLE MOMENT
-------------
                                X             Y             Z
Electronic contribution:      3.50738       8.93559      -0.00062
Nuclear contribution   :     -4.43778      -9.74674       0.00085
                        -----------------------------------------
Total Dipole Moment    :     -0.93040      -0.81114       0.00023
                        -----------------------------------------
Magnitude (a.u.)       :      1.23434
Magnitude (Debye)      :      3.13744

Rotational constants in cm-1:     0.060027     0.044733     0.025753
Rotational constants in MHz :  1799.568692  1341.068703   772.069093

                             ****ORCA TERMINATED NORMALLY****
TOTAL RUN TIME: 0 days 0 hours 0 minutes 57 seconds 494 msec
