                         Program Version 5.0.3 -  RELEASE  -
|  1> !ri-mp2 aug-cc-pvdz aug-cc-pvdz/c tightscf
|  2> %pal nprocs 16 end
|  3>
|  4> * xyz 0 1
|  5> C     -0.211213    2.098944    0.000000
|  6> H     -0.763664    2.429115    0.882489
|  7> H      0.758858    2.588726    0.000000
|  8> H     -0.763664    2.429115   -0.882489
|  9> N     -1.022980   -0.282177    0.000000
| 10> H     -2.004898   -0.069530    0.000000
| 11> C      0.000000    0.624449    0.000000
| 12> N      1.160665    0.009381    0.000000
| 13> C      0.880939   -1.338149    0.000000
| 14> H      1.664738   -2.075911    0.000000
| 15> C     -0.467672   -1.544500    0.000000
| 16> H     -1.067486   -2.436412    0.000000
| 17> *
| 18>
| 19>                          ****END OF INPUT****

CARTESIAN COORDINATES (ANGSTROEM)
---------------------------------
  C     -0.211213    2.098944    0.000000
  H     -0.763664    2.429115    0.882489
  H      0.758858    2.588726    0.000000
  H     -0.763664    2.429115   -0.882489
  N     -1.022980   -0.282177    0.000000
  H     -2.004898   -0.069530    0.000000
  C      0.000000    0.624449    0.000000
  N      1.160665    0.009381    0.000000
  C      0.880939   -1.338149    0.000000
  H      1.664738   -2.075911    0.000000
  C     -0.467672   -1.544500    0.000000
  H     -1.067486   -2.436412    0.000000

 Total Charge           Charge          ....    0
 Multiplicity           Mult            ....    1
 Number of Electrons    NEL             ....   44
 Basis Dimension        Dim             ....  192

ORBITAL ENERGIES
----------------

  NO   OCC          E(Eh)            E(eV)
   0   2.0000     -15.620020      -425.0424
   1   2.0000     -15.543611      -422.9632
   2   2.0000     -11.303798      -307.5920
   3   2.0000     -11.260561      -306.4154
   4   2.0000     -11.243237      -305.9440
   5   2.0000     -11.243219      -305.9435
   6   2.0000      -1.340462       -36.4758
   7   2.0000      -1.163123       -31.6502
   8   2.0000      -1.047306       -28.4986
   9   2.0000      -0.946740       -25.7621
  10   2.0000      -0.816308       -22.2129
  11   2.0000      -0.794636       -21.6231
  12   2.0000      -0.716330       -19.4923
  13   2.0000      -0.618626       -16.8337
  14   2.0000      -0.611630       -16.6433
  15   2.0000      -0.596367       -16.2280
  16   2.0000      -0.557005       -15.1569
  17   2.0000      -0.551499       -15.0070
  18   2.0000      -0.541089       -14.7238
  19   2.0000      -0.429213       -11.6795
  20   2.0000      -0.394988       -10.7482
  21   2.0000      -0.310344        -8.4449
  22   0.0000       0.027631         0.7519
  23   0.0000       0.039673         1.0796
  24   0.0000       0.049217         1.3393
  25   0.0000       0.055406         1.5077
  26   0.0000       0.060877         1.6565

MULLIKEN ATOMIC CHARGES
-----------------------
   0 C :    0.600989
   1 H :    0.006351
   2 H :   -0.066514
   3 H :    0.006351
   4 N :   -0.628969
   5 H :   -0.131326
   6 C :    0.089266
   7 N :   -0.827957
   8 C :    0.654370
   9 H :   -0.246378
  10 C :    0.809360
  11 H :   -0.265543
Sum of atomic charges:    0.0000000

LOEWDIN ATOMIC CHARGES
----------------------
   0 C :    0.197497
   1 H :   -0.009692
   2 H :   -0.005353
   3 H :   -0.009692
   4 N :    0.093534
   5 H :    0.030563
   6 C :   -0.278452
   7 N :    0.040028
   8 C :   -0.052127
   9 H :   -0.015540
  10 C :    0.021353
  11 H :   -0.012120

  Mayer bond orders larger than 0.100000
B(  0-C ,  1-H ) :   0.8762 B(  0-C ,  2-H ) :   0.7749 B(  0-C ,  3-H ) :   0.8762
B(  0-C ,  6-C ) :   1.1319 B(  0-C ,  8-C ) :   0.1109 B(  2-H ,  6-C ) :   0.2683
B(  4-N ,  5-H ) :   1.2421 B(  4-N ,  6-C ) :   0.9855 B(  4-N , 10-C ) :   0.8438
B(  5-H , 10-C ) :  -0.1707 B(  6-C ,  7-N ) :   1.4631 B(  6-C ,  9-H ) :   0.1237
B(  6-C , 11-H ) :   0.1058 B(  7-N ,  8-C ) :   1.0235 B(  8-C ,  9-H ) :   0.9205
B(  8-C , 10-C ) :   1.5296 B(  9-H , 10-C ) :  -0.1062 B( 10-C , 11-H ) :   0.8665

MP2 TOTAL ENERGY:     -264.792910410 Eh
FINAL SINGLE POINT ENERGY      -264.792910410275

DIPOLE MOMENT
-------------
                                X             Y             Z
Electronic contribution:      0.72703      -2.74868       0.00000
Nuclear contribution   :     -2.18933       2.88196       0.00000
                        -----------------------------------------
Total Dipole Moment    :     -1.46230       0.13328       0.00000
                        -----------------------------------------
Magnitude (a.u.)       :      1.46836
Magnitude (Debye)      :      3.73227

Rotational constants in cm-1:     0.299450     0.120147     0.087136
Rotational constants in MHz :  8977.278203  3601.913651  2612.267099

                             ****ORCA TERMINATED NORMALLY****
TOTAL RUN TIME: 0 days 0 hours 0 minutes 36 seconds 123 msec
