                         Program Version 5.0.3 -  RELEASE  -
|  1> !ri-mp2 aug-cc-pvdz aug-cc-pvdz/c tightscf
|  2> %pal nprocs 16 end
|  3>
|  4> * xyz 0 1
|  5> C     -1.909658   -1.067465    0.000000
|  6> C      0.899358   -0.498996    1.255256
|  7> C      0.899358    1.663266    0.000000
|  8> C      0.899358   -0.498996   -1.255256
|  9> C     -1.169008    0.270451    0.000000
| 10> C      0.377490    0.217634    0.000000
| 11> H     -1.674987   -1.665724    0.881080
| 12> H     -2.987965   -0.901561    0.000000
| 13> H     -1.674987   -1.665724   -0.881080
| 14> H      0.598153   -1.546802    1.280112
| 15> H      0.527055   -0.021077    2.164092
| 16> H      1.990351   -0.471536    1.288745
| 17> H      0.553781    2.206619   -0.882017
| 18> H      0.553781    2.206619    0.882017
| 19> H      1.990950    1.686803    0.000000
| 20> H      0.598153   -1.546802   -1.280112
| 21> H      1.990351   -0.471536   -1.288745
| 22> H      0.527055   -0.021077   -2.164092
| 23> H     -1.486539    0.848219    0.873569
| 24> H     -1.486539    0.848219   -0.873569
| 25> *
| 26>
| 27>                          ****END OF INPUT****

CARTESIAN COORDINATES (ANGSTROEM)
---------------------------------
  C     -1.909658   -1.067465    0.000000
  C      0.899358   -0.498996    1.255256
  C      0.899358    1.663266    0.000000
  C      0.899358   -0.498996   -1.255256
  C     -1.169008    0.270451    0.000000
  C      0.377490    0.217634    0.000000
  H     -1.674987   -1.665724    0.881080
  H     -2.987965   -0.901561    0.000000
  H     -1.674987   -1.665724   -0.881080
  H      0.598153   -1.546802    1.280112
  H      0.527055   -0.021077    2.164092
  H      1.990351   -0.471536    1.288745
  H      0.553781    2.206619   -0.882017
  H      0.553781    2.206619    0.882017
  H      1.990950    1.686803    0.000000
  H      0.598153   -1.546802   -1.280112
  H      1.990351   -0.471536   -1.288745
  H      0.527055   -0.021077   -2.164092
  H     -1.486539    0.848219    0.873569
  H     -1.486539    0.848219   -0.873569

 Total Charge           Charge          ....    0
 Multiplicity           Mult            ....    1
 Number of Electrons    NEL             ....   50
 Basis Dimension        Dim             ....  264

ORBITAL ENERGIES
----------------

  NO   OCC          E(Eh)            E(eV)
   0   2.0000     -11.233824      -305.6879
   1   2.0000     -11.218741      -305.2775
   2   2.0000     -11.214675      -305.1668
   3   2.0000     -11.212388      -305.1046
   4   2.0000     -11.212348      -305.1035
   5   2.0000     -11.212323      -305.1028
   6   2.0000      -1.107359       -30.1328
   7   2.0000      -0.997168       -27.1343
   8   2.0000      -0.928447       -25.2643
   9   2.0000      -0.928166       -25.2567
  10   2.0000      -0.850207       -23.1353
  11   2.0000      -0.723064       -19.6756
  12   2.0000      -0.622335       -16.9346
  13   2.0000      -0.621624       -16.9153
  14   2.0000      -0.595355       -16.2004
  15   2.0000      -0.579681       -15.7739
  16   2.0000      -0.549711       -14.9584
  17   2.0000      -0.529757       -14.4154
  18   2.0000      -0.523834       -14.2542
  19   2.0000      -0.508186       -13.8284
  20   2.0000      -0.499429       -13.5902
  21   2.0000      -0.484038       -13.1713
  22   2.0000      -0.446910       -12.1611
  23   2.0000      -0.444265       -12.0891
  24   2.0000      -0.436490       -11.8775
  25   0.0000       0.037223         1.0129
  26   0.0000       0.044553         1.2123
  27   0.0000       0.047106         1.2818
  28   0.0000       0.048153         1.3103
  29   0.0000       0.064433         1.7533

MULLIKEN ATOMIC CHARGES
-----------------------
   0 C :    0.499076
   1 C :    1.275243
   2 C :    1.436281
   3 C :    1.275243
   4 C :    1.045218
   5 C :   -4.454276
   6 H :   -0.082564
   7 H :   -0.068452
   8 H :   -0.082564
   9 H :   -0.090134
  10 H :   -0.031049
  11 H :   -0.041132
  12 H :   -0.048548
  13 H :   -0.048548
  14 H :   -0.057522
  15 H :   -0.090134
  16 H :   -0.041132
  17 H :   -0.031049
  18 H :   -0.181978
  19 H :   -0.181978
Sum of atomic charges:   -0.0000000

LOEWDIN ATOMIC CHARGES
----------------------
   0 C :    0.142423
   1 C :    0.170416
   2 C :    0.167571
   3 C :    0.170416
   4 C :   -0.029677
   5 C :   -0.500879
   6 H :   -0.023940
   7 H :   -0.018784
   8 H :   -0.023940
   9 H :   -0.016994
  10 H :   -0.005157
  11 H :   -0.008551
  12 H :   -0.008289
  13 H :   -0.008289
  14 H :   -0.009746
  15 H :   -0.016994
  16 H :   -0.008551
  17 H :   -0.005157
  18 H :    0.017063
  19 H :    0.017063

  Mayer bond orders larger than 0.100000
B(  0-C ,  4-C ) :   1.0426 B(  0-C ,  6-H ) :   0.9296 B(  0-C ,  7-H ) :   0.8661
B(  0-C ,  8-H ) :   0.9296 B(  1-C ,  2-C ) :  -0.1213 B(  1-C ,  3-C ) :  -0.1224
B(  1-C ,  5-C ) :   1.3602 B(  1-C ,  9-H ) :   0.7301 B(  1-C , 10-H ) :   0.7105
B(  1-C , 11-H ) :   0.6801 B(  2-C ,  3-C ) :  -0.1213 B(  2-C ,  5-C ) :   1.1271
B(  2-C , 12-H ) :   0.7027 B(  2-C , 13-H ) :   0.7027 B(  2-C , 14-H ) :   0.7217
B(  3-C ,  5-C ) :   1.3602 B(  3-C , 15-H ) :   0.7301 B(  3-C , 16-H ) :   0.6801
B(  3-C , 17-H ) :   0.7105 B(  4-C ,  5-C ) :   0.3899 B(  4-C , 18-H ) :   0.6370
B(  4-C , 19-H ) :   0.6370 B(  5-C ,  9-H ) :   0.1863 B(  5-C , 10-H ) :   0.2186
B(  5-C , 11-H ) :   0.2127 B(  5-C , 12-H ) :   0.2011 B(  5-C , 13-H ) :   0.2011
B(  5-C , 14-H ) :   0.1956 B(  5-C , 15-H ) :   0.1863 B(  5-C , 16-H ) :   0.2127
B(  5-C , 17-H ) :   0.2186 B(  5-C , 18-H ) :   0.3193 B(  5-C , 19-H ) :   0.3193
B(  9-H , 10-H ) :  -0.1128 B(  9-H , 11-H ) :  -0.1055 B( 10-H , 11-H ) :  -0.1101
B( 12-H , 13-H ) :  -0.1072 B( 12-H , 14-H ) :  -0.1110 B( 13-H , 14-H ) :  -0.1110
B( 15-H , 16-H ) :  -0.1055 B( 15-H , 17-H ) :  -0.1128 B( 16-H , 17-H ) :  -0.1101
B( 18-H , 19-H ) :  -0.1827

MP2 TOTAL ENERGY:     -236.308568344 Eh
FINAL SINGLE POINT ENERGY      -236.308568343911

DIPOLE MOMENT
-------------
                                X             Y             Z
Electronic contribution:     -0.04057       0.56440       0.00000
Nuclear contribution   :      0.02028      -0.56156       0.00000
                        -----------------------------------------
Total Dipole Moment    :     -0.02029       0.00283       0.00000
                        -----------------------------------------
Magnitude (a.u.)       :      0.02049
Magnitude (Debye)      :      0.05208

Rotational constants in cm-1:     0.142933     0.082832     0.082545
Rotational constants in MHz :  4285.038442  2483.242815  2474.626663

                             ****ORCA TERMINATED NORMALLY****
TOTAL RUN TIME: 0 days 0 hours 0 minutes 56 seconds 935 msec
