                         Program Version 5.0.3 -  RELEASE  -
|  1> !ri-mp2 aug-cc-pvdz aug-cc-pvdz/c tightscf
|  2> %pal nprocs 16 end
|  3>
|  4> * xyz 0 1
|  5> C      0.836982   -0.734002    1.259163
|  6> C      0.836982   -0.734002   -1.259163
|  7> C      0.836982    1.444049    0.000000
|  8> C      0.356343   -0.010366    0.000000
|  9> S     -1.509289    0.094963    0.000000
| 10> H      0.477461   -1.763198    1.286405
| 11> H      1.929912   -0.761420    1.279568
| 12> H      0.489091   -0.229768    2.159568
| 13> H      0.489091   -0.229768   -2.159568
| 14> H      0.477461   -1.763198   -1.286405
| 15> H      1.929912   -0.761420   -1.279568
| 16> H      0.487296    1.977794    0.883980
| 17> H      1.928534    1.468659    0.000000
| 18> H      0.487296    1.977794   -0.883980
| 19> H     -1.751158   -1.228962    0.000000
| 20> *
| 21>
| 22>                          ****END OF INPUT****

CARTESIAN COORDINATES (ANGSTROEM)
---------------------------------
  C      0.836982   -0.734002    1.259163
  C      0.836982   -0.734002   -1.259163
  C      0.836982    1.444049    0.000000
  C      0.356343   -0.010366    0.000000
  S     -1.509289    0.094963    0.000000
  H      0.477461   -1.763198    1.286405
  H      1.929912   -0.761420    1.279568
  H      0.489091   -0.229768    2.159568
  H      0.489091   -0.229768   -2.159568
  H      0.477461   -1.763198   -1.286405
  H      1.929912   -0.761420   -1.279568
  H      0.487296    1.977794    0.883980
  H      1.928534    1.468659    0.000000
  H      0.487296    1.977794   -0.883980
  H     -1.751158   -1.228962    0.000000

 Total Charge           Charge          ....    0
 Multiplicity           Mult            ....    1
 Number of Electrons    NEL             ....   50
 Basis Dimension        Dim             ....  209

ORBITAL ENERGIES
----------------

  NO   OCC          E(Eh)            E(eV)
   0   2.0000     -91.945813     -2501.9728
   1   2.0000     -11.282279      -307.0064
   2   2.0000     -11.230305      -305.5921
   3   2.0000     -11.228856      -305.5527
   4   2.0000     -11.228838      -305.5522
   5   2.0000      -8.947472      -243.4731
   6   2.0000      -6.629538      -180.3989
   7   2.0000      -6.628081      -180.3592
   8   2.0000      -6.626136      -180.3063
   9   2.0000      -1.116923       -30.3930
  10   2.0000      -0.946235       -25.7484
  11   2.0000      -0.944712       -25.7069
  12   2.0000      -0.939695       -25.5704
  13   2.0000      -0.743168       -20.2226
  14   2.0000      -0.627696       -17.0805
  15   2.0000      -0.611133       -16.6298
  16   2.0000      -0.610586       -16.6149
  17   2.0000      -0.557674       -15.1751
  18   2.0000      -0.550573       -14.9819
  19   2.0000      -0.523426       -14.2431
  20   2.0000      -0.506471       -13.7818
  21   2.0000      -0.484520       -13.1844
  22   2.0000      -0.475851       -12.9486
  23   2.0000      -0.424942       -11.5633
  24   2.0000      -0.351649        -9.5689
  25   0.0000       0.034851         0.9483
  26   0.0000       0.046251         1.2585
  27   0.0000       0.049227         1.3395
  28   0.0000       0.052315         1.4236
  29   0.0000       0.068162         1.8548

MULLIKEN ATOMIC CHARGES
-----------------------
   0 C :    0.984513
   1 C :    0.984513
   2 C :    0.969615
   3 C :   -2.720938
   4 S :    0.143968
   5 H :   -0.104744
   6 H :   -0.013137
   7 H :   -0.037034
   8 H :   -0.037034
   9 H :   -0.104744
  10 H :   -0.013137
  11 H :   -0.061969
  12 H :   -0.017996
  13 H :   -0.061969
  14 H :    0.090093
Sum of atomic charges:   -0.0000000

LOEWDIN ATOMIC CHARGES
----------------------
   0 C :    0.109016
   1 C :    0.109016
   2 C :    0.102900
   3 C :   -0.760043
   4 S :    0.779552
   5 H :   -0.016911
   6 H :   -0.008767
   7 H :   -0.014705
   8 H :   -0.014705
   9 H :   -0.016911
  10 H :   -0.008767
  11 H :   -0.015152
  12 H :   -0.008252
  13 H :   -0.015152
  14 H :   -0.221123

  Mayer bond orders larger than 0.100000
B(  0-C ,  1-C ) :  -0.1048 B(  0-C ,  3-C ) :   1.4906 B(  0-C ,  5-H ) :   0.7694
B(  0-C ,  6-H ) :   0.8089 B(  0-C ,  7-H ) :   0.8234 B(  1-C ,  3-C ) :   1.4906
B(  1-C ,  8-H ) :   0.8234 B(  1-C ,  9-H ) :   0.7694 B(  1-C , 10-H ) :   0.8089
B(  2-C ,  3-C ) :   1.5240 B(  2-C , 11-H ) :   0.7956 B(  2-C , 12-H ) :   0.8069
B(  2-C , 13-H ) :   0.7956 B(  3-C ,  4-S ) :   0.8613 B(  3-C ,  5-H ) :   0.2104
B(  3-C ,  6-H ) :   0.1772 B(  3-C ,  9-H ) :   0.2104 B(  3-C , 10-H ) :   0.1772
B(  3-C , 11-H ) :   0.1549 B(  3-C , 12-H ) :   0.1473 B(  3-C , 13-H ) :   0.1549
B(  3-C , 14-H ) :   0.1126 B(  4-S , 14-H ) :   0.9187 B(  5-H ,  7-H ) :  -0.1048
B(  8-H ,  9-H ) :  -0.1048 B( 11-H , 13-H ) :  -0.1053

MP2 TOTAL ENERGY:     -555.608128372 Eh
FINAL SINGLE POINT ENERGY      -555.608128371520

DIPOLE MOMENT
-------------
                                X             Y             Z
Electronic contribution:     -6.58693       1.06330      -0.00000
Nuclear contribution   :      7.27983      -1.37071       0.00000
                        -----------------------------------------
Total Dipole Moment    :      0.69290      -0.30741      -0.00000
                        -----------------------------------------
Magnitude (a.u.)       :      0.75803
Magnitude (Debye)      :      1.92676

Rotational constants in cm-1:     0.149235     0.098664     0.097772
Rotational constants in MHz :  4473.966195  2957.858357  2931.131184

                             ****ORCA TERMINATED NORMALLY****
TOTAL RUN TIME: 0 days 0 hours 0 minutes 32 seconds 36 msec
