                         Program Version 5.0.3 -  RELEASE  -
|  1> !ri-mp2 aug-cc-pvdz aug-cc-pvdz/c tightscf
|  2> %pal nprocs 16 end
|  3>
|  4> * xyz 0 1
|  5> S      1.003766   -1.201120   -0.007299
|  6> H      1.244543   -0.995639    1.301926
|  7> C      1.183258    1.587414   -0.017139
|  8> H      1.384325    1.633112    1.054995
|  9> H      0.747685    2.544290   -0.314961
| 10> C      0.224532    0.446006   -0.342190
| 11> H      0.071406    0.407063   -1.423635
| 12> C     -1.135558    0.616531    0.342215
| 13> H     -1.467515    1.642836    0.153798
| 14> H     -0.998475    0.536154    1.424474
| 15> C     -2.218912   -0.353099   -0.120370
| 16> H     -2.402233   -0.253586   -1.192432
| 17> H     -1.934408   -1.386199    0.075183
| 18> H     -3.159570   -0.156548    0.395174
| 19> H      2.134068    1.465332   -0.532831
| 20> *
| 21>
| 22>                          ****END OF INPUT****

CARTESIAN COORDINATES (ANGSTROEM)
---------------------------------
  S      1.003766   -1.201120   -0.007299
  H      1.244543   -0.995639    1.301926
  C      1.183258    1.587414   -0.017139
  H      1.384325    1.633112    1.054995
  H      0.747685    2.544290   -0.314961
  C      0.224532    0.446006   -0.342190
  H      0.071406    0.407063   -1.423635
  C     -1.135558    0.616531    0.342215
  H     -1.467515    1.642836    0.153798
  H     -0.998475    0.536154    1.424474
  C     -2.218912   -0.353099   -0.120370
  H     -2.402233   -0.253586   -1.192432
  H     -1.934408   -1.386199    0.075183
  H     -3.159570   -0.156548    0.395174
  H      2.134068    1.465332   -0.532831

 Total Charge           Charge          ....    0
 Multiplicity           Mult            ....    1
 Number of Electrons    NEL             ....   50
 Basis Dimension        Dim             ....  209

ORBITAL ENERGIES
----------------

  NO   OCC          E(Eh)            E(eV)
   0   2.0000     -91.948017     -2502.0327
   1   2.0000     -11.273345      -306.7633
   2   2.0000     -11.234692      -305.7115
   3   2.0000     -11.230365      -305.5938
   4   2.0000     -11.219035      -305.2855
   5   2.0000      -8.949634      -243.5319
   6   2.0000      -6.631719      -180.4583
   7   2.0000      -6.630280      -180.4191
   8   2.0000      -6.628323      -180.3658
   9   2.0000      -1.103615       -30.0309
  10   2.0000      -1.002428       -27.2775
  11   2.0000      -0.941341       -25.6152
  12   2.0000      -0.865301       -23.5460
  13   2.0000      -0.780703       -21.2440
  14   2.0000      -0.632207       -17.2032
  15   2.0000      -0.604061       -16.4373
  16   2.0000      -0.595215       -16.1966
  17   2.0000      -0.572220       -15.5709
  18   2.0000      -0.538644       -14.6572
  19   2.0000      -0.510864       -13.9013
  20   2.0000      -0.499693       -13.5973
  21   2.0000      -0.481525       -13.1030
  22   2.0000      -0.473801       -12.8928
  23   2.0000      -0.429196       -11.6790
  24   2.0000      -0.352672        -9.5967
  25   0.0000       0.036042         0.9808
  26   0.0000       0.044924         1.2224
  27   0.0000       0.045575         1.2402
  28   0.0000       0.051663         1.4058
  29   0.0000       0.066487         1.8092

MULLIKEN ATOMIC CHARGES
-----------------------
   0 S :    0.156456
   1 H :    0.143499
   2 C :    0.635389
   3 H :   -0.072572
   4 H :   -0.074049
   5 C :   -0.825540
   6 H :   -0.151350
   7 C :    0.311043
   8 H :   -0.138667
   9 H :   -0.175281
  10 C :    0.440573
  11 H :   -0.073736
  12 H :   -0.045771
  13 H :   -0.065165
  14 H :   -0.064829
Sum of atomic charges:   -0.0000000

LOEWDIN ATOMIC CHARGES
----------------------
   0 S :    0.759081
   1 H :   -0.220468
   2 C :    0.094081
   3 H :   -0.018678
   4 H :   -0.016284
   5 C :   -0.518500
   6 H :   -0.008514
   7 C :   -0.112599
   8 H :    0.012075
   9 H :    0.010106
  10 C :    0.121747
  11 H :   -0.019249
  12 H :   -0.039775
  13 H :   -0.020979
  14 H :   -0.022044

  Mayer bond orders larger than 0.100000
B(  0-S ,  1-H ) :   0.8990 B(  0-S ,  5-C ) :   1.1639 B(  2-C ,  3-H ) :   0.9118
B(  2-C ,  4-H ) :   0.8256 B(  2-C ,  5-C ) :   1.3882 B(  2-C , 14-H ) :   0.8633
B(  4-H ,  5-C ) :   0.1146 B(  5-C ,  6-H ) :   0.6744 B(  5-C ,  7-C ) :   1.2401
B(  5-C ,  9-H ) :   0.1012 B(  5-C , 14-H ) :   0.1093 B(  6-H ,  7-C ) :   0.1021
B(  7-C ,  8-H ) :   0.7523 B(  7-C ,  9-H ) :   0.8032 B(  7-C , 10-C ) :   1.2268
B( 10-C , 11-H ) :   0.9448 B( 10-C , 12-H ) :   0.9497 B( 10-C , 13-H ) :   0.8839

MP2 TOTAL ENERGY:     -555.602130120 Eh
FINAL SINGLE POINT ENERGY      -555.602130120391

DIPOLE MOMENT
-------------
                                X             Y             Z
Electronic contribution:      4.32151      -5.03399      -0.81059
Nuclear contribution   :     -4.59309       5.69965       0.98076
                        -----------------------------------------
Total Dipole Moment    :     -0.27158       0.66566       0.17018
                        -----------------------------------------
Magnitude (a.u.)       :      0.73879
Magnitude (Debye)      :      1.87786

Rotational constants in cm-1:     0.148785     0.100142     0.065376
Rotational constants in MHz :  4460.461128  3002.178999  1959.936317

                             ****ORCA TERMINATED NORMALLY****
TOTAL RUN TIME: 0 days 0 hours 0 minutes 49 seconds 97 msec
