                         Program Version 5.0.3 -  RELEASE  -
|  1> !ri-mp2 aug-cc-pvdz aug-cc-pvdz/c tightscf
|  2> %pal nprocs 16 end
|  3>
|  4> * xyz 0 1
|  5> S     -0.341510   -0.991986   -0.000006
|  6> O      2.519011   -1.365713   -0.000008
|  7> O      3.108200    0.731357    0.000007
|  8> N      2.272192   -0.162941    0.000001
|  9> C      0.889034    0.218887    0.000002
| 10> C      0.400378    1.497039    0.000009
| 11> C     -1.005032    1.513710    0.000008
| 12> C     -1.562355    0.249687    0.000001
| 13> C     -2.927020   -0.091395   -0.000003
| 14> C     -4.090699   -0.393484   -0.000005
| 15> H      1.038617    2.365715    0.000015
| 16> H     -1.603763    2.410935    0.000014
| 17> H     -5.119557   -0.656096   -0.000007
| 18> *
| 19>
| 20>                          ****END OF INPUT****

CARTESIAN COORDINATES (ANGSTROEM)
---------------------------------
  S     -0.341510   -0.991986   -0.000006
  O      2.519011   -1.365713   -0.000008
  O      3.108200    0.731357    0.000007
  N      2.272192   -0.162941    0.000001
  C      0.889034    0.218887    0.000002
  C      0.400378    1.497039    0.000009
  C     -1.005032    1.513710    0.000008
  C     -1.562355    0.249687    0.000001
  C     -2.927020   -0.091395   -0.000003
  C     -4.090699   -0.393484   -0.000005
  H      1.038617    2.365715    0.000015
  H     -1.603763    2.410935    0.000014
  H     -5.119557   -0.656096   -0.000007

 Total Charge           Charge          ....    0
 Multiplicity           Mult            ....    1
 Number of Electrons    NEL             ....   78
 Basis Dimension        Dim             ....  261

ORBITAL ENERGIES
----------------

  NO   OCC          E(Eh)            E(eV)
   0   2.0000     -92.033870     -2504.3689
   1   2.0000     -20.621676      -561.1443
   2   2.0000     -20.621196      -561.1313
   3   2.0000     -15.876423      -432.0194
   4   2.0000     -11.343561      -308.6740
   5   2.0000     -11.337407      -308.5065
   6   2.0000     -11.300298      -307.4967
   7   2.0000     -11.287661      -307.1529
   8   2.0000     -11.280969      -306.9708
   9   2.0000     -11.276013      -306.8359
  10   2.0000      -9.034853      -245.8509
  11   2.0000      -6.716236      -182.7581
  12   2.0000      -6.715402      -182.7354
  13   2.0000      -6.713398      -182.6809
  14   2.0000      -1.621941       -44.1353
  15   2.0000      -1.414447       -38.4891
  16   2.0000      -1.236358       -33.6430
  17   2.0000      -1.120566       -30.4922
  18   2.0000      -1.066841       -29.0302
  19   2.0000      -1.033559       -28.1246
  20   2.0000      -0.962633       -26.1946
  21   2.0000      -0.852658       -23.2020
  22   2.0000      -0.810872       -22.0649
  23   2.0000      -0.766884       -20.8680
  24   2.0000      -0.743707       -20.2373
  25   2.0000      -0.733425       -19.9575
  26   2.0000      -0.732325       -19.9276
  27   2.0000      -0.682393       -18.5689
  28   2.0000      -0.630624       -17.1601
  29   2.0000      -0.593011       -16.1367
  30   2.0000      -0.575521       -15.6607
  31   2.0000      -0.532282       -14.4841
  32   2.0000      -0.505620       -13.7586
  33   2.0000      -0.502346       -13.6695
  34   2.0000      -0.466026       -12.6812
  35   2.0000      -0.464550       -12.6411
  36   2.0000      -0.429227       -11.6799
  37   2.0000      -0.389102       -10.5880
  38   2.0000      -0.348206        -9.4752
  39   0.0000       0.006207         0.1689
  40   0.0000       0.026784         0.7288
  41   0.0000       0.033035         0.8989
  42   0.0000       0.051529         1.4022
  43   0.0000       0.071844         1.9550

MULLIKEN ATOMIC CHARGES
-----------------------
   0 S :    0.479276
   1 O :   -0.802346
   2 O :   -0.815799
   3 N :    0.492675
   4 C :    0.394857
   5 C :    0.246448
   6 C :    0.493112
   7 C :   -0.185401
   8 C :    0.674085
   9 C :    0.370627
  10 H :   -0.340309
  11 H :   -0.481649
  12 H :   -0.525574
Sum of atomic charges:    0.0000000

LOEWDIN ATOMIC CHARGES
----------------------
   0 S :    1.112244
   1 O :    0.064134
   2 O :    0.087409
   3 N :   -0.410403
   4 C :   -0.411985
   5 C :    0.009981
   6 C :   -0.008002
   7 C :   -0.488136
   8 C :   -0.134934
   9 C :    0.247002
  10 H :    0.015057
  11 H :    0.009867
  12 H :   -0.092234

  Mayer bond orders larger than 0.100000
B(  0-S ,  4-C ) :   1.1311 B(  0-S ,  7-C ) :   0.9159 B(  0-S ,  8-C ) :  -0.4212
B(  1-O ,  2-O ) :   0.2020 B(  1-O ,  3-N ) :   1.2001 B(  2-O ,  3-N ) :   1.2181
B(  2-O ,  4-C ) :  -0.1491 B(  3-N ,  4-C ) :   0.4163 B(  4-C ,  5-C ) :   1.8780
B(  4-C ,  7-C ) :   0.2294 B(  4-C ,  8-C ) :  -0.1424 B(  4-C , 10-H ) :   0.4041
B(  5-C ,  6-C ) :   1.9690 B(  5-C ,  7-C ) :  -0.1537 B(  5-C ,  9-C ) :   0.1806
B(  5-C , 10-H ) :   0.3247 B(  5-C , 11-H ) :   0.2636 B(  6-C ,  7-C ) :   2.0106
B(  6-C ,  8-C ) :  -0.1088 B(  7-C ,  8-C ) :   1.7276 B(  7-C ,  9-C ) :   0.2296
B(  7-C , 11-H ) :   0.5616 B(  7-C , 12-H ) :   0.1947 B(  8-C ,  9-C ) :   2.1569
B(  8-C , 11-H ) :  -0.1800 B(  8-C , 12-H ) :   0.3174

MP2 TOTAL ENERGY:     -832.020629303 Eh
FINAL SINGLE POINT ENERGY      -832.020629302715

DIPOLE MOMENT
-------------
                                X             Y             Z
Electronic contribution:      3.34947      -3.14325      -0.00002
Nuclear contribution   :     -5.32962       3.96002       0.00002
                        -----------------------------------------
Total Dipole Moment    :     -1.98015       0.81677       0.00000
                        -----------------------------------------
Magnitude (a.u.)       :      2.14199
Magnitude (Debye)      :      5.44450

Rotational constants in cm-1:     0.120532     0.023452     0.019632
Rotational constants in MHz :  3613.453438   703.080238   588.562002

                             ****ORCA TERMINATED NORMALLY****
TOTAL RUN TIME: 0 days 0 hours 1 minutes 13 seconds 387 msec
