                         Program Version 5.0.3 -  RELEASE  -
|  1> !ri-mp2 aug-cc-pvdz aug-cc-pvdz/c tightscf
|  2> %pal nprocs 16 end
|  3>
|  4> * xyz 0 1
|  5> S     -1.950591   -0.686147   -0.303940
|  6> N      1.432922    1.428952   -0.545421
|  7> N     -0.711841    1.245188    1.046284
|  8> N      2.117170   -1.659656    0.627854
|  9> C      0.684478    0.164121   -0.583266
| 10> C     -0.693718    0.297052    0.111210
| 11> C      1.467167   -0.871492    0.100755
| 12> H      0.479303   -0.201586   -1.591769
| 13> H      1.137544    2.029439   -1.305751
| 14> H      2.426777    1.267897   -0.644579
| 15> H     -1.552470    1.410472    1.572884
| 16> H      0.102983    1.832653    1.159037
| 17> *
| 18>
| 19>                          ****END OF INPUT****

CARTESIAN COORDINATES (ANGSTROEM)
---------------------------------
  S     -1.950591   -0.686147   -0.303940
  N      1.432922    1.428952   -0.545421
  N     -0.711841    1.245188    1.046284
  N      2.117170   -1.659656    0.627854
  C      0.684478    0.164121   -0.583266
  C     -0.693718    0.297052    0.111210
  C      1.467167   -0.871492    0.100755
  H      0.479303   -0.201586   -1.591769
  H      1.137544    2.029439   -1.305751
  H      2.426777    1.267897   -0.644579
  H     -1.552470    1.410472    1.572884
  H      0.102983    1.832653    1.159037

 Total Charge           Charge          ....    0
 Multiplicity           Mult            ....    1
 Number of Electrons    NEL             ....   60
 Basis Dimension        Dim             ....  210

ORBITAL ENERGIES
----------------

  NO   OCC          E(Eh)            E(eV)
   0   2.0000     -91.920069     -2501.2722
   1   2.0000     -15.632188      -425.3734
   2   2.0000     -15.612862      -424.8476
   3   2.0000     -15.601701      -424.5439
   4   2.0000     -11.378953      -309.6371
   5   2.0000     -11.354883      -308.9821
   6   2.0000     -11.300914      -307.5135
   7   2.0000      -8.923486      -242.8204
   8   2.0000      -6.605806      -179.7531
   9   2.0000      -6.603150      -179.6808
  10   2.0000      -6.601940      -179.6479
  11   2.0000      -1.306337       -35.5472
  12   2.0000      -1.253068       -34.0977
  13   2.0000      -1.225882       -33.3579
  14   2.0000      -1.059619       -28.8337
  15   2.0000      -0.973218       -26.4826
  16   2.0000      -0.834879       -22.7182
  17   2.0000      -0.772147       -21.0112
  18   2.0000      -0.748742       -20.3743
  19   2.0000      -0.684150       -18.6167
  20   2.0000      -0.660151       -17.9636
  21   2.0000      -0.648354       -17.6426
  22   2.0000      -0.575725       -15.6663
  23   2.0000      -0.542723       -14.7682
  24   2.0000      -0.525587       -14.3020
  25   2.0000      -0.493456       -13.4276
  26   2.0000      -0.482654       -13.1337
  27   2.0000      -0.456960       -12.4345
  28   2.0000      -0.351408        -9.5623
  29   2.0000      -0.342611        -9.3229
  30   0.0000       0.019837         0.5398
  31   0.0000       0.035040         0.9535
  32   0.0000       0.046538         1.2664
  33   0.0000       0.052690         1.4338
  34   0.0000       0.068257         1.8574

MULLIKEN ATOMIC CHARGES
-----------------------
   0 S :   -0.048659
   1 N :   -0.444367
   2 N :   -0.359608
   3 N :   -0.293388
   4 C :    0.864537
   5 C :    0.307039
   6 C :   -0.209154
   7 H :    0.036165
   8 H :    0.026220
   9 H :    0.063164
  10 H :   -0.009049
  11 H :    0.067100
Sum of atomic charges:   -0.0000000

LOEWDIN ATOMIC CHARGES
----------------------
   0 S :    0.565718
   1 N :    0.230978
   2 N :    0.228278
   3 N :    0.099938
   4 C :   -0.256410
   5 C :   -0.706801
   6 C :   -0.107838
   7 H :    0.033717
   8 H :   -0.022437
   9 H :   -0.032428
  10 H :   -0.000281
  11 H :   -0.032433

  Mayer bond orders larger than 0.100000
B(  0-S ,  5-C ) :   1.8097 B(  1-N ,  4-C ) :   0.7710 B(  1-N ,  8-H ) :   1.0590
B(  1-N ,  9-H ) :   1.0282 B(  2-N ,  5-C ) :   1.0796 B(  2-N , 10-H ) :   1.1203
B(  2-N , 11-H ) :   1.0693 B(  3-N ,  6-C ) :   2.7300 B(  4-C ,  5-C ) :   0.9812
B(  4-C ,  6-C ) :   0.5563 B(  4-C ,  7-H ) :   0.6928 B(  5-C ,  6-C ) :   0.1639
B(  5-C , 10-H ) :  -0.1172 B( 10-H , 11-H ) :  -0.1071

MP2 TOTAL ENERGY:     -678.487406059 Eh
FINAL SINGLE POINT ENERGY      -678.487406058895

DIPOLE MOMENT
-------------
                                X             Y             Z
Electronic contribution:     -2.08506      -3.98980       0.35238
Nuclear contribution   :      2.61370       6.22947      -0.77714
                        -----------------------------------------
Total Dipole Moment    :      0.52865       2.23968      -0.42476
                        -----------------------------------------
Magnitude (a.u.)       :      2.34009
Magnitude (Debye)      :      5.94805

Rotational constants in cm-1:     0.101562     0.054612     0.042865
Rotational constants in MHz :  3044.747608  1637.227775  1285.060367

                             ****ORCA TERMINATED NORMALLY****
TOTAL RUN TIME: 0 days 0 hours 0 minutes 53 seconds 765 msec
