                         Program Version 5.0.3 -  RELEASE  -
|  1> !ri-mp2 aug-cc-pvdz aug-cc-pvdz/c tightscf
|  2> %pal nprocs 16 end
|  3>
|  4> * xyz 0 1
|  5> C     0.000000     0.000000    1.130632
|  6> N     0.000000     1.186666    0.292106
|  7> N     0.000000    -1.186666    0.292106
|  8> C     0.000000     0.737561   -0.907000
|  9> C     0.000000    -0.737561   -0.907000
| 10> H    -0.879628     0.000000    1.780422
| 11> H     0.879628     0.000000    1.780422
| 12> H     0.000000     1.384794   -1.775054
| 13> H     0.000000    -1.384794   -1.775054
| 14> *
| 15>
| 16>                          ****END OF INPUT****

CARTESIAN COORDINATES (ANGSTROEM)
---------------------------------
  C      0.000000    0.000000    1.130632
  N      0.000000    1.186666    0.292106
  N      0.000000   -1.186666    0.292106
  C      0.000000    0.737561   -0.907000
  C      0.000000   -0.737561   -0.907000
  H     -0.879628    0.000000    1.780422
  H      0.879628    0.000000    1.780422
  H      0.000000    1.384794   -1.775054
  H      0.000000   -1.384794   -1.775054

 Total Charge           Charge          ....    0
 Multiplicity           Mult            ....    1
 Number of Electrons    NEL             ....   36
 Basis Dimension        Dim             ....  151

ORBITAL ENERGIES
----------------

  NO   OCC          E(Eh)            E(eV)
   0   2.0000     -15.589457      -424.2107
   1   2.0000     -15.589417      -424.2096
   2   2.0000     -11.296993      -307.4068
   3   2.0000     -11.296222      -307.3858
   4   2.0000     -11.293991      -307.3251
   5   2.0000      -1.328577       -36.1524
   6   2.0000      -1.177457       -32.0402
   7   2.0000      -1.001157       -27.2429
   8   2.0000      -0.821437       -22.3524
   9   2.0000      -0.790110       -21.5000
  10   2.0000      -0.712521       -19.3887
  11   2.0000      -0.647215       -17.6116
  12   2.0000      -0.609241       -16.5783
  13   2.0000      -0.562640       -15.3102
  14   2.0000      -0.467629       -12.7248
  15   2.0000      -0.463695       -12.6178
  16   2.0000      -0.443537       -12.0692
  17   2.0000      -0.410135       -11.1604
  18   0.0000       0.031828         0.8661
  19   0.0000       0.047363         1.2888
  20   0.0000       0.048852         1.3293
  21   0.0000       0.053522         1.4564
  22   0.0000       0.074159         2.0180

MULLIKEN ATOMIC CHARGES
-----------------------
   0 C :    0.947838
   1 N :   -0.693926
   2 N :   -0.693926
   3 C :    0.509169
   4 C :    0.509169
   5 H :   -0.117781
   6 H :   -0.117781
   7 H :   -0.171380
   8 H :   -0.171380
Sum of atomic charges:   -0.0000000

LOEWDIN ATOMIC CHARGES
----------------------
   0 C :   -0.090641
   1 N :    0.040094
   2 N :    0.040094
   3 C :   -0.014819
   4 C :   -0.014819
   5 H :    0.020775
   6 H :    0.020775
   7 H :   -0.000729
   8 H :   -0.000729

  Mayer bond orders larger than 0.100000
B(  0-C ,  1-N ) :   0.8425 B(  0-C ,  2-N ) :   0.8425 B(  0-C ,  5-H ) :   0.9200
B(  0-C ,  6-H ) :   0.9200 B(  1-N ,  3-C ) :   1.7295 B(  2-N ,  4-C ) :   1.7295
B(  3-C ,  4-C ) :   0.9747 B(  3-C ,  7-H ) :   1.0006 B(  4-C ,  8-H ) :   1.0006

MP2 TOTAL ENERGY:     -225.569080502 Eh
FINAL SINGLE POINT ENERGY      -225.569080501955

DIPOLE MOMENT
-------------
                                X             Y             Z
Electronic contribution:     -0.00000      -0.00000      -0.66350
Nuclear contribution   :      0.00000       0.00000       0.01407
                        -----------------------------------------
Total Dipole Moment    :     -0.00000      -0.00000      -0.64943
                        -----------------------------------------
Magnitude (a.u.)       :      0.64943
Magnitude (Debye)      :      1.65072

Rotational constants in cm-1:     0.325384     0.290938     0.158093
Rotational constants in MHz :  9754.771509  8722.103146  4739.513647

                             ****ORCA TERMINATED NORMALLY****
TOTAL RUN TIME: 0 days 0 hours 0 minutes 27 seconds 53 msec
