                         Program Version 5.0.3 -  RELEASE  -
|  1> !ri-mp2 aug-cc-pvdz aug-cc-pvdz/c tightscf
|  2> %pal nprocs 16 end
|  3>
|  4> * xyz 0 1
|  5> H      1.090374    2.042312    0.076465
|  6> C      0.596544    1.086224    0.038981
|  7> H      2.249849   -0.338572    0.019187
|  8> C      1.198765   -0.096252    0.008788
|  9> O      0.365290   -1.176016   -0.062866
| 10> H     -1.297406    1.237768   -1.005784
| 11> H     -1.452898    1.372804    0.739281
| 12> C     -0.896855    0.873537   -0.055484
| 13> H     -1.592748   -1.131233   -0.710934
| 14> H     -1.364629   -0.974542    1.041627
| 15> C     -0.990931   -0.663577    0.064896
| 16> *
| 17>
| 18>                          ****END OF INPUT****

CARTESIAN COORDINATES (ANGSTROEM)
---------------------------------
  H      1.090374    2.042312    0.076465
  C      0.596544    1.086224    0.038981
  H      2.249849   -0.338572    0.019187
  C      1.198765   -0.096252    0.008788
  O      0.365290   -1.176016   -0.062866
  H     -1.297406    1.237768   -1.005784
  H     -1.452898    1.372804    0.739281
  C     -0.896855    0.873537   -0.055484
  H     -1.592748   -1.131233   -0.710934
  H     -1.364629   -0.974542    1.041627
  C     -0.990931   -0.663577    0.064896

 Total Charge           Charge          ....    0
 Multiplicity           Mult            ....    1
 Number of Electrons    NEL             ....   38
 Basis Dimension        Dim             ....  169

ORBITAL ENERGIES
----------------

  NO   OCC          E(Eh)            E(eV)
   0   2.0000     -20.581855      -560.0608
   1   2.0000     -11.290504      -307.2302
   2   2.0000     -11.288636      -307.1794
   3   2.0000     -11.240460      -305.8685
   4   2.0000     -11.221919      -305.3639
   5   2.0000      -1.403431       -38.1893
   6   2.0000      -1.067441       -29.0465
   7   2.0000      -1.000136       -27.2151
   8   2.0000      -0.830829       -22.6080
   9   2.0000      -0.770039       -20.9538
  10   2.0000      -0.704800       -19.1786
  11   2.0000      -0.666589       -18.1388
  12   2.0000      -0.591864       -16.1054
  13   2.0000      -0.553257       -15.0549
  14   2.0000      -0.540403       -14.7051
  15   2.0000      -0.523302       -14.2398
  16   2.0000      -0.497742       -13.5443
  17   2.0000      -0.492257       -13.3950
  18   2.0000      -0.324883        -8.8405
  19   0.0000       0.036177         0.9844
  20   0.0000       0.045918         1.2495
  21   0.0000       0.048641         1.3236
  22   0.0000       0.051895         1.4121
  23   0.0000       0.064838         1.7643

MULLIKEN ATOMIC CHARGES
-----------------------
   0 H :   -0.301878
   1 C :    0.248572
   2 H :   -0.260100
   3 C :    0.698156
   4 O :   -0.890310
   5 H :   -0.077582
   6 H :   -0.059807
   7 C :    0.084861
   8 H :   -0.208171
   9 H :   -0.194263
  10 C :    0.960521
Sum of atomic charges:    0.0000000

LOEWDIN ATOMIC CHARGES
----------------------
   0 H :   -0.018724
   1 C :   -0.004270
   2 H :   -0.001237
   3 C :   -0.031762
   4 O :    0.010541
   5 H :    0.005862
   6 H :    0.005184
   7 C :   -0.015674
   8 H :    0.001112
   9 H :    0.004537
  10 C :    0.044431

  Mayer bond orders larger than 0.100000
B(  0-H ,  1-C ) :   0.7609 B(  1-C ,  3-C ) :   1.9007 B(  1-C ,  7-C ) :   1.1813
B(  2-H ,  3-C ) :   0.9596 B(  3-C ,  4-O ) :   0.5251 B(  4-O , 10-C ) :   0.7050
B(  5-H ,  7-C ) :   0.8003 B(  6-H ,  7-C ) :   0.8231 B(  7-C , 10-C ) :   1.2167
B(  8-H ,  9-H ) :  -0.1127 B(  8-H , 10-C ) :   0.8927 B(  9-H , 10-C ) :   0.8773

MP2 TOTAL ENERGY:     -230.571916725 Eh
FINAL SINGLE POINT ENERGY      -230.571916724651

DIPOLE MOMENT
-------------
                                X             Y             Z
Electronic contribution:      2.08875      -1.79093      -0.12564
Nuclear contribution   :     -2.40469       2.22986       0.16174
                        -----------------------------------------
Total Dipole Moment    :     -0.31594       0.43893       0.03611
                        -----------------------------------------
Magnitude (a.u.)       :      0.54202
Magnitude (Debye)      :      1.37770

Rotational constants in cm-1:     0.269879     0.260765     0.139997
Rotational constants in MHz :  8090.774851  7817.529386  4197.005407

                             ****ORCA TERMINATED NORMALLY****
TOTAL RUN TIME: 0 days 0 hours 0 minutes 48 seconds 227 msec
