                         Program Version 5.0.3 -  RELEASE  -
|  1> !ri-mp2 aug-cc-pvdz aug-cc-pvdz/c tightscf
|  2> %pal nprocs 16 end
|  3>
|  4> * xyz 0 1
|  5> C     -0.367218    2.951058    0.128332
|  6> C      0.367218   -2.951058    0.128332
|  7> C     -0.964817    1.668994    0.237015
|  8> C      0.964817   -1.668994    0.237015
|  9> C      0.964817    2.761561   -0.145704
| 10> C     -0.964817   -2.761561   -0.145704
| 11> C      0.021536    0.722146    0.022813
| 12> C     -0.021536   -0.722146    0.022813
| 13> N      1.189772    1.410224   -0.205634
| 14> N     -1.189772   -1.410224   -0.205634
| 15> H     -0.856131    3.902314    0.249268
| 16> H      0.856131   -3.902314    0.249268
| 17> H     -1.992085    1.462515    0.486567
| 18> H      1.992085   -1.462515    0.486567
| 19> H      1.761222    3.466788   -0.303118
| 20> H     -1.761222   -3.466788   -0.303118
| 21> H      2.062056    0.976796   -0.448014
| 22> H     -2.062056   -0.976796   -0.448014
| 23> *
| 24>
| 25>                          ****END OF INPUT****

CARTESIAN COORDINATES (ANGSTROEM)
---------------------------------
  C     -0.367218    2.951058    0.128332
  C      0.367218   -2.951058    0.128332
  C     -0.964817    1.668994    0.237015
  C      0.964817   -1.668994    0.237015
  C      0.964817    2.761561   -0.145704
  C     -0.964817   -2.761561   -0.145704
  C      0.021536    0.722146    0.022813
  C     -0.021536   -0.722146    0.022813
  N      1.189772    1.410224   -0.205634
  N     -1.189772   -1.410224   -0.205634
  H     -0.856131    3.902314    0.249268
  H      0.856131   -3.902314    0.249268
  H     -1.992085    1.462515    0.486567
  H      1.992085   -1.462515    0.486567
  H      1.761222    3.466788   -0.303118
  H     -1.761222   -3.466788   -0.303118
  H      2.062056    0.976796   -0.448014
  H     -2.062056   -0.976796   -0.448014

 Total Charge           Charge          ....    0
 Multiplicity           Mult            ....    1
 Number of Electrons    NEL             ....   70
 Basis Dimension        Dim             ....  302

ORBITAL ENERGIES
----------------

  NO   OCC          E(Eh)            E(eV)
   0   2.0000     -15.614411      -424.8897
   1   2.0000     -15.614410      -424.8897
   2   2.0000     -11.273206      -306.7595
   3   2.0000     -11.272346      -306.7361
   4   2.0000     -11.262016      -306.4550
   5   2.0000     -11.262015      -306.4550
   6   2.0000     -11.220655      -305.3295
   7   2.0000     -11.220653      -305.3295
   8   2.0000     -11.219169      -305.2891
   9   2.0000     -11.219169      -305.2891
  10   2.0000      -1.309229       -35.6259
  11   2.0000      -1.292064       -35.1589
  12   2.0000      -1.055730       -28.7279
  13   2.0000      -1.046657       -28.4810
  14   2.0000      -1.035441       -28.1758
  15   2.0000      -0.949731       -25.8435
  16   2.0000      -0.815735       -22.1973
  17   2.0000      -0.798473       -21.7276
  18   2.0000      -0.782210       -21.2850
  19   2.0000      -0.777378       -21.1535
  20   2.0000      -0.755052       -20.5460
  21   2.0000      -0.663991       -18.0681
  22   2.0000      -0.607301       -16.5255
  23   2.0000      -0.596334       -16.2271
  24   2.0000      -0.590114       -16.0578
  25   2.0000      -0.576045       -15.6750
  26   2.0000      -0.570987       -15.5373
  27   2.0000      -0.556432       -15.1413
  28   2.0000      -0.549889       -14.9632
  29   2.0000      -0.542686       -14.7672
  30   2.0000      -0.520751       -14.1704
  31   2.0000      -0.354590        -9.6489
  32   2.0000      -0.354125        -9.6362
  33   2.0000      -0.346687        -9.4338
  34   2.0000      -0.257131        -6.9969
  35   0.0000       0.032094         0.8733
  36   0.0000       0.035822         0.9748
  37   0.0000       0.040782         1.1097
  38   0.0000       0.049769         1.3543
  39   0.0000       0.052069         1.4169

MULLIKEN ATOMIC CHARGES
-----------------------
   0 C :    0.398496
   1 C :    0.398496
   2 C :    0.392212
   3 C :    0.392212
   4 C :    0.535214
   5 C :    0.535214
   6 C :    0.556762
   7 C :    0.556762
   8 N :   -0.580804
   9 N :   -0.580804
  10 H :   -0.344065
  11 H :   -0.344065
  12 H :   -0.490283
  13 H :   -0.490283
  14 H :   -0.333094
  15 H :   -0.333094
  16 H :   -0.134438
  17 H :   -0.134438
Sum of atomic charges:   -0.0000000

LOEWDIN ATOMIC CHARGES
----------------------
   0 C :   -0.005660
   1 C :   -0.005660
   2 C :    0.039799
   3 C :    0.039799
   4 C :    0.023536
   5 C :    0.023536
   6 C :   -0.155483
   7 C :   -0.155483
   8 N :    0.101130
   9 N :    0.101130
  10 H :   -0.014209
  11 H :   -0.014209
  12 H :   -0.010640
  13 H :   -0.010640
  14 H :   -0.007640
  15 H :   -0.007640
  16 H :    0.029169
  17 H :    0.029169

  Mayer bond orders larger than 0.100000
B(  0-C ,  2-C ) :   1.6046 B(  0-C ,  4-C ) :   1.5287 B(  0-C , 10-H ) :   0.5565
B(  0-C , 12-H ) :   0.1043 B(  0-C , 14-H ) :  -0.1235 B(  1-C ,  3-C ) :   1.6046
B(  1-C ,  5-C ) :   1.5287 B(  1-C , 11-H ) :   0.5565 B(  1-C , 13-H ) :   0.1043
B(  1-C , 15-H ) :  -0.1235 B(  2-C ,  3-C ) :   0.1388 B(  2-C ,  6-C ) :   1.3554
B(  2-C ,  7-C ) :  -0.1283 B(  2-C ,  8-N ) :  -0.1544 B(  2-C , 12-H ) :   0.1153
B(  3-C ,  6-C ) :  -0.1283 B(  3-C ,  7-C ) :   1.3554 B(  3-C ,  9-N ) :  -0.1544
B(  3-C , 13-H ) :   0.1153 B(  4-C ,  8-N ) :   0.9992 B(  4-C , 14-H ) :   0.8894
B(  4-C , 16-H ) :  -0.1659 B(  5-C ,  9-N ) :   0.9992 B(  5-C , 15-H ) :   0.8894
B(  5-C , 17-H ) :  -0.1659 B(  6-C ,  7-C ) :   1.0808 B(  6-C ,  8-N ) :   0.9960
B(  6-C ,  9-N ) :  -0.1005 B(  6-C , 10-H ) :   0.1011 B(  6-C , 12-H ) :   0.5458
B(  6-C , 14-H ) :   0.1221 B(  7-C ,  8-N ) :  -0.1005 B(  7-C ,  9-N ) :   0.9960
B(  7-C , 11-H ) :   0.1011 B(  7-C , 13-H ) :   0.5458 B(  7-C , 15-H ) :   0.1221
B(  8-N , 16-H ) :   1.2171 B(  9-N , 17-H ) :   1.2171

MP2 TOTAL ENERGY:     -417.963808933 Eh
FINAL SINGLE POINT ENERGY      -417.963808933087

DIPOLE MOMENT
-------------
                                X             Y             Z
Electronic contribution:      0.00000      -0.00000      -0.23732
Nuclear contribution   :      0.00000       0.00000      -0.03283
                        -----------------------------------------
Total Dipole Moment    :      0.00000      -0.00000      -0.27015
                        -----------------------------------------
Magnitude (a.u.)       :      0.27015
Magnitude (Debye)      :      0.68667

Rotational constants in cm-1:     0.151459     0.028160     0.024060
Rotational constants in MHz :  4540.630046   844.216713   721.301274

                             ****ORCA TERMINATED NORMALLY****
TOTAL RUN TIME: 0 days 0 hours 1 minutes 31 seconds 133 msec
