                         Program Version 5.0.3 -  RELEASE  -
|  1> !ri-mp2 aug-cc-pvdz aug-cc-pvdz/c tightscf
|  2> %pal nprocs 16 end
|  3>
|  4> * xyz 0 1
|  5> C      0.000000    0.764255   -1.297167
|  6> C      0.000000   -0.764255   -1.297167
|  7> C     -0.468541    1.090526    0.123716
|  8> C      0.468541   -1.090526    0.123716
|  9> C      0.032579    2.405081    0.690505
| 10> C     -0.032579   -2.405081    0.690505
| 11> O      0.000000    0.000000    0.938605
| 12> H      1.011237    1.147828   -1.454012
| 13> H     -0.646734    1.200592   -2.057687
| 14> H     -1.011237   -1.147828   -1.454012
| 15> H      0.646734   -1.200592   -2.057687
| 16> H     -1.565793    1.083362    0.154246
| 17> H      1.565793   -1.083362    0.154246
| 18> H     -0.297960    2.529471    1.721560
| 19> H      1.122913    2.439253    0.673182
| 20> H     -0.351842    3.243340    0.105964
| 21> H     -1.122913   -2.439253    0.673182
| 22> H      0.351842   -3.243340    0.105964
| 23> H      0.297960   -2.529471    1.721560
| 24> *
| 25>
| 26>                          ****END OF INPUT****

CARTESIAN COORDINATES (ANGSTROEM)
---------------------------------
  C      0.000000    0.764255   -1.297167
  C      0.000000   -0.764255   -1.297167
  C     -0.468541    1.090526    0.123716
  C      0.468541   -1.090526    0.123716
  C      0.032579    2.405081    0.690505
  C     -0.032579   -2.405081    0.690505
  O      0.000000    0.000000    0.938605
  H      1.011237    1.147828   -1.454012
  H     -0.646734    1.200592   -2.057687
  H     -1.011237   -1.147828   -1.454012
  H      0.646734   -1.200592   -2.057687
  H     -1.565793    1.083362    0.154246
  H      1.565793   -1.083362    0.154246
  H     -0.297960    2.529471    1.721560
  H      1.122913    2.439253    0.673182
  H     -0.351842    3.243340    0.105964
  H     -1.122913   -2.439253    0.673182
  H      0.351842   -3.243340    0.105964
  H      0.297960   -2.529471    1.721560

 Total Charge           Charge          ....    0
 Multiplicity           Mult            ....    1
 Number of Electrons    NEL             ....   56
 Basis Dimension        Dim             ....  269

ORBITAL ENERGIES
----------------

  NO   OCC          E(Eh)            E(eV)
   0   2.0000     -20.548120      -559.1428
   1   2.0000     -11.277506      -306.8765
   2   2.0000     -11.277482      -306.8759
   3   2.0000     -11.227249      -305.5090
   4   2.0000     -11.226641      -305.4924
   5   2.0000     -11.216134      -305.2065
   6   2.0000     -11.216133      -305.2065
   7   2.0000      -1.363215       -37.0950
   8   2.0000      -1.063178       -28.9305
   9   2.0000      -1.050241       -28.5785
  10   2.0000      -0.966252       -26.2931
  11   2.0000      -0.877047       -23.8656
  12   2.0000      -0.801459       -21.8088
  13   2.0000      -0.766104       -20.8467
  14   2.0000      -0.681432       -18.5427
  15   2.0000      -0.656881       -17.8746
  16   2.0000      -0.592096       -16.1117
  17   2.0000      -0.588230       -16.0066
  18   2.0000      -0.579393       -15.7661
  19   2.0000      -0.553510       -15.0618
  20   2.0000      -0.540803       -14.7160
  21   2.0000      -0.518226       -14.1017
  22   2.0000      -0.504738       -13.7346
  23   2.0000      -0.490911       -13.3584
  24   2.0000      -0.469871       -12.7858
  25   2.0000      -0.467562       -12.7230
  26   2.0000      -0.450440       -12.2571
  27   2.0000      -0.398322       -10.8389
  28   0.0000       0.035982         0.9791
  29   0.0000       0.042926         1.1681
  30   0.0000       0.045298         1.2326
  31   0.0000       0.047351         1.2885
  32   0.0000       0.062097         1.6897

MULLIKEN ATOMIC CHARGES
-----------------------
   0 C :    0.452617
   1 C :    0.452617
   2 C :    0.313703
   3 C :    0.313703
   4 C :    0.478153
   5 C :    0.478153
   6 O :   -1.077117
   7 H :   -0.247184
   8 H :   -0.096252
   9 H :   -0.247184
  10 H :   -0.096252
  11 H :   -0.285273
  12 H :   -0.285273
  13 H :   -0.038162
  14 H :   -0.035501
  15 H :   -0.003543
  16 H :   -0.035501
  17 H :   -0.003543
  18 H :   -0.038162
Sum of atomic charges:    0.0000000

LOEWDIN ATOMIC CHARGES
----------------------
   0 C :    0.013723
   1 C :    0.013723
   2 C :   -0.229309
   3 C :   -0.229309
   4 C :    0.163184
   5 C :    0.163184
   6 O :    0.034626
   7 H :    0.018144
   8 H :    0.018578
   9 H :    0.018144
  10 H :    0.018578
  11 H :    0.033080
  12 H :    0.033080
  13 H :   -0.012747
  14 H :   -0.010895
  15 H :   -0.011070
  16 H :   -0.010895
  17 H :   -0.011070
  18 H :   -0.012747

  Mayer bond orders larger than 0.100000
B(  0-C ,  1-C ) :   1.2498 B(  0-C ,  2-C ) :   1.2107 B(  0-C ,  4-C ) :  -0.1819
B(  0-C ,  7-H ) :   0.7216 B(  0-C ,  8-H ) :   0.7726 B(  0-C , 11-H ) :   0.1015
B(  1-C ,  3-C ) :   1.2107 B(  1-C ,  5-C ) :  -0.1819 B(  1-C ,  9-H ) :   0.7216
B(  1-C , 10-H ) :   0.7726 B(  1-C , 12-H ) :   0.1015 B(  2-C ,  4-C ) :   1.3513
B(  2-C ,  6-O ) :   0.3586 B(  2-C , 11-H ) :   0.6472 B(  2-C , 13-H ) :   0.1615
B(  2-C , 14-H ) :   0.1415 B(  3-C ,  5-C ) :   1.3513 B(  3-C ,  6-O ) :   0.3586
B(  3-C , 12-H ) :   0.6472 B(  3-C , 16-H ) :   0.1415 B(  3-C , 18-H ) :   0.1615
B(  4-C , 13-H ) :   0.8396 B(  4-C , 14-H ) :   0.9222 B(  4-C , 15-H ) :   0.8400
B(  5-C , 16-H ) :   0.9222 B(  5-C , 17-H ) :   0.8400 B(  5-C , 18-H ) :   0.8396
B(  7-H ,  8-H ) :  -0.1253 B(  9-H , 10-H ) :  -0.1253

MP2 TOTAL ENERGY:     -310.174479541 Eh
FINAL SINGLE POINT ENERGY      -310.174479540510

DIPOLE MOMENT
-------------
                                X             Y             Z
Electronic contribution:      0.00000      -0.00000       1.10539
Nuclear contribution   :      0.00000       0.00000      -1.78368
                        -----------------------------------------
Total Dipole Moment    :      0.00000      -0.00000      -0.67829
                        -----------------------------------------
Magnitude (a.u.)       :      0.67829
Magnitude (Debye)      :      1.72407

Rotational constants in cm-1:     0.165924     0.066976     0.052316
Rotational constants in MHz :  4974.284275  2007.879139  1568.380201

                             ****ORCA TERMINATED NORMALLY****
TOTAL RUN TIME: 0 days 0 hours 1 minutes 17 seconds 734 msec
