                         Program Version 5.0.3 -  RELEASE  -
|  1> !ri-mp2 aug-cc-pvdz aug-cc-pvdz/c tightscf
|  2> %pal nprocs 16 end
|  3>
|  4> * xyz 0 1
|  5> C     1.685700   -1.598566    0.155043
|  6> C     1.000120   -0.422584   -0.529065
|  7> C     1.568891    0.929035   -0.216112
|  8> C     0.733478    1.900514    0.142277
|  9> C    -0.724568    1.573344    0.203570
| 10> S    -0.774100   -0.249045   -0.007386
| 11> O    -0.956176   -0.865654    1.303800
| 12> O    -1.661019   -0.613275   -1.108479
| 13> H     1.194401   -2.537785   -0.094112
| 14> H     2.721514   -1.657362   -0.182632
| 15> H     1.674864   -1.482978    1.236789
| 16> H     0.941234   -0.587664   -1.606882
| 17> H     2.639629    1.076501   -0.276618
| 18> H     1.070634    2.897063    0.393682
| 19> H    -1.307196    2.010364   -0.607179
| 20> H    -1.193646    1.807560    1.158274
| 21> *
| 22>
| 23>                          ****END OF INPUT****

CARTESIAN COORDINATES (ANGSTROEM)
---------------------------------
  C      1.685700   -1.598566    0.155043
  C      1.000120   -0.422584   -0.529065
  C      1.568891    0.929035   -0.216112
  C      0.733478    1.900514    0.142277
  C     -0.724568    1.573344    0.203570
  S     -0.774100   -0.249045   -0.007386
  O     -0.956176   -0.865654    1.303800
  O     -1.661019   -0.613275   -1.108479
  H      1.194401   -2.537785   -0.094112
  H      2.721514   -1.657362   -0.182632
  H      1.674864   -1.482978    1.236789
  H      0.941234   -0.587664   -1.606882
  H      2.639629    1.076501   -0.276618
  H      1.070634    2.897063    0.393682
  H     -1.307196    2.010364   -0.607179
  H     -1.193646    1.807560    1.158274

 Total Charge           Charge          ....    0
 Multiplicity           Mult            ....    1
 Number of Electrons    NEL             ....   70
 Basis Dimension        Dim             ....  260

ORBITAL ENERGIES
----------------

  NO   OCC          E(Eh)            E(eV)
   0   2.0000     -92.190962     -2508.6436
   1   2.0000     -20.552290      -559.2563
   2   2.0000     -20.551645      -559.2387
   3   2.0000     -11.296076      -307.3819
   4   2.0000     -11.290812      -307.2386
   5   2.0000     -11.278002      -306.8900
   6   2.0000     -11.274975      -306.8077
   7   2.0000     -11.248588      -306.0896
   8   2.0000      -9.164755      -249.3857
   9   2.0000      -6.849895      -186.3951
  10   2.0000      -6.848460      -186.3561
  11   2.0000      -6.848136      -186.3473
  12   2.0000      -1.446473       -39.3605
  13   2.0000      -1.333583       -36.2886
  14   2.0000      -1.168106       -31.7858
  15   2.0000      -1.064321       -28.9616
  16   2.0000      -0.989776       -26.9332
  17   2.0000      -0.923518       -25.1302
  18   2.0000      -0.805525       -21.9195
  19   2.0000      -0.783926       -21.3317
  20   2.0000      -0.709163       -19.2973
  21   2.0000      -0.667605       -18.1665
  22   2.0000      -0.653244       -17.7757
  23   2.0000      -0.637290       -17.3415
  24   2.0000      -0.622332       -16.9345
  25   2.0000      -0.607141       -16.5212
  26   2.0000      -0.586336       -15.9550
  27   2.0000      -0.561508       -15.2794
  28   2.0000      -0.553575       -15.0635
  29   2.0000      -0.522678       -14.2228
  30   2.0000      -0.486863       -13.2482
  31   2.0000      -0.479025       -13.0349
  32   2.0000      -0.463534       -12.6134
  33   2.0000      -0.414808       -11.2875
  34   2.0000      -0.392137       -10.6706
  35   0.0000       0.026085         0.7098
  36   0.0000       0.035446         0.9645
  37   0.0000       0.046045         1.2529
  38   0.0000       0.048649         1.3238
  39   0.0000       0.058771         1.5992

MULLIKEN ATOMIC CHARGES
-----------------------
   0 C :    0.621423
   1 C :   -0.990102
   2 C :    0.592651
   3 C :    0.164075
   4 C :   -0.142116
   5 S :    3.004482
   6 O :   -1.258601
   7 O :   -1.229288
   8 H :   -0.084584
   9 H :   -0.047752
  10 H :    0.016595
  11 H :   -0.030546
  12 H :   -0.384949
  13 H :   -0.315685
  14 H :    0.051197
  15 H :    0.033202
Sum of atomic charges:   -0.0000000

LOEWDIN ATOMIC CHARGES
----------------------
   0 C :    0.143073
   1 C :   -0.264885
   2 C :   -0.004508
   3 C :   -0.026015
   4 C :   -0.044273
   5 S :    1.000464
   6 O :   -0.396021
   7 O :   -0.408718
   8 H :   -0.007260
   9 H :   -0.010827
  10 H :   -0.010981
  11 H :    0.022258
  12 H :    0.008127
  13 H :    0.001445
  14 H :   -0.000841
  15 H :   -0.001040

  Mayer bond orders larger than 0.100000
B(  0-C ,  1-C ) :   1.2816 B(  0-C ,  2-C ) :  -0.1013 B(  0-C ,  3-C ) :   0.2470
B(  0-C ,  8-H ) :   0.8238 B(  0-C ,  9-H ) :   0.8493 B(  0-C , 10-H ) :   0.9412
B(  1-C ,  2-C ) :   1.2967 B(  1-C ,  3-C ) :  -0.3074 B(  1-C ,  4-C ) :   0.2069
B(  1-C ,  5-S ) :   0.7285 B(  1-C ,  6-O ) :   0.3165 B(  1-C ,  7-O ) :   0.2759
B(  1-C ,  8-H ) :   0.1249 B(  1-C , 11-H ) :   0.7683 B(  2-C ,  3-C ) :   2.1629
B(  2-C ,  4-C ) :  -0.1144 B(  2-C , 11-H ) :   0.1547 B(  2-C , 12-H ) :   0.5320
B(  2-C , 13-H ) :   0.1164 B(  3-C ,  4-C ) :   1.2310 B(  3-C , 12-H ) :   0.1302
B(  3-C , 13-H ) :   0.6542 B(  3-C , 14-H ) :   0.1299 B(  4-C ,  5-S ) :   0.8458
B(  4-C ,  6-O ) :   0.1312 B(  4-C ,  7-O ) :   0.1599 B(  4-C , 14-H ) :   0.7746
B(  4-C , 15-H ) :   0.8045 B(  5-S ,  6-O ) :   0.6017 B(  5-S ,  7-O ) :   0.5881
B(  6-O ,  7-O ) :   0.1751

MP2 TOTAL ENERGY:     -742.461082676 Eh
FINAL SINGLE POINT ENERGY      -742.461082676397

DIPOLE MOMENT
-------------
                                X             Y             Z
Electronic contribution:     -5.99732      -0.15469      -0.25146
Nuclear contribution   :      7.68246       1.50194       0.02450
                        -----------------------------------------
Total Dipole Moment    :      1.68515       1.34725      -0.22696
                        -----------------------------------------
Magnitude (a.u.)       :      2.16940
Magnitude (Debye)      :      5.51419

Rotational constants in cm-1:     0.076624     0.067171     0.047471
Rotational constants in MHz :  2297.129332  2013.720992  1423.138732

                             ****ORCA TERMINATED NORMALLY****
TOTAL RUN TIME: 0 days 0 hours 1 minutes 3 seconds 663 msec
