                         Program Version 5.0.3 -  RELEASE  -
|  1> !ri-mp2 aug-cc-pvdz aug-cc-pvdz/c tightscf
|  2> %pal nprocs 16 end
|  3>
|  4> * xyz 0 1
|  5> H     -2.241590   -1.215243   -0.387645
|  6> H     -0.912425   -2.289504   -0.826315
|  7> H     -1.300954   -0.896147   -1.846390
|  8> C     -1.239595   -1.246048   -0.816810
|  9> C     -0.259075   -0.399357   -0.001092
| 10> H      1.407768   -1.489975   -0.756299
| 11> H      1.007906   -0.079353   -1.707859
| 12> C      1.124715   -0.435306   -0.681589
| 13> H      2.022628    1.398388    0.091245
| 14> H      3.169518    0.252206   -0.593787
| 15> H      2.473612   -0.046308    0.992131
| 16> C      2.255992    0.338004   -0.004285
| 17> H      0.185174   -1.926656    1.466143
| 18> H     -1.196829   -0.915576    1.889107
| 19> H      0.434562   -0.280652    2.066600
| 20> C     -0.201951   -0.903990    1.442827
| 21> H     -2.042025    1.174320    0.484066
| 22> S     -0.817991    1.387168   -0.031582
| 23> *
| 24>
| 25>                          ****END OF INPUT****

CARTESIAN COORDINATES (ANGSTROEM)
---------------------------------
  H     -2.241590   -1.215243   -0.387645
  H     -0.912425   -2.289504   -0.826315
  H     -1.300954   -0.896147   -1.846390
  C     -1.239595   -1.246048   -0.816810
  C     -0.259075   -0.399357   -0.001092
  H      1.407768   -1.489975   -0.756299
  H      1.007906   -0.079353   -1.707859
  C      1.124715   -0.435306   -0.681589
  H      2.022628    1.398388    0.091245
  H      3.169518    0.252206   -0.593787
  H      2.473612   -0.046308    0.992131
  C      2.255992    0.338004   -0.004285
  H      0.185174   -1.926656    1.466143
  H     -1.196829   -0.915576    1.889107
  H      0.434562   -0.280652    2.066600
  C     -0.201951   -0.903990    1.442827
  H     -2.042025    1.174320    0.484066
  S     -0.817991    1.387168   -0.031582

 Total Charge           Charge          ....    0
 Multiplicity           Mult            ....    1
 Number of Electrons    NEL             ....   58
 Basis Dimension        Dim             ....  250

ORBITAL ENERGIES
----------------

  NO   OCC          E(Eh)            E(eV)
   0   2.0000     -91.944378     -2501.9337
   1   2.0000     -11.280295      -306.9524
   2   2.0000     -11.234796      -305.7144
   3   2.0000     -11.227936      -305.5277
   4   2.0000     -11.227303      -305.5105
   5   2.0000     -11.220897      -305.3361
   6   2.0000      -8.946085      -243.4353
   7   2.0000      -6.628156      -180.3613
   8   2.0000      -6.626723      -180.3223
   9   2.0000      -6.624781      -180.2695
  10   2.0000      -1.121178       -30.5088
  11   2.0000      -1.007806       -27.4238
  12   2.0000      -0.944059       -25.6892
  13   2.0000      -0.939038       -25.5525
  14   2.0000      -0.863787       -23.5048
  15   2.0000      -0.734026       -19.9739
  16   2.0000      -0.637651       -17.3514
  17   2.0000      -0.624991       -17.0069
  18   2.0000      -0.595364       -16.2007
  19   2.0000      -0.580699       -15.8016
  20   2.0000      -0.550788       -14.9877
  21   2.0000      -0.540025       -14.6948
  22   2.0000      -0.520971       -14.1763
  23   2.0000      -0.513302       -13.9677
  24   2.0000      -0.493223       -13.4213
  25   2.0000      -0.472148       -12.8478
  26   2.0000      -0.460207       -12.5229
  27   2.0000      -0.421060       -11.4576
  28   2.0000      -0.349914        -9.5216
  29   0.0000       0.035233         0.9587
  30   0.0000       0.042845         1.1659
  31   0.0000       0.047845         1.3019
  32   0.0000       0.051401         1.3987
  33   0.0000       0.063785         1.7357

MULLIKEN ATOMIC CHARGES
-----------------------
   0 H :   -0.125737
   1 H :   -0.016624
   2 H :   -0.031810
   3 C :    1.070700
   4 C :   -2.426314
   5 H :   -0.143118
   6 H :   -0.183272
   7 C :    0.730147
   8 H :   -0.076966
   9 H :   -0.071322
  10 H :   -0.090691
  11 C :    0.477666
  12 H :   -0.023232
  13 H :   -0.106032
  14 H :   -0.074607
  15 C :    0.922171
  16 H :    0.052400
  17 S :    0.116642
Sum of atomic charges:    0.0000000

LOEWDIN ATOMIC CHARGES
----------------------
   0 H :   -0.018295
   1 H :   -0.007874
   2 H :   -0.013705
   3 C :    0.111318
   4 C :   -0.705003
   5 H :    0.018159
   6 H :    0.011176
   7 C :   -0.091992
   8 H :   -0.034740
   9 H :   -0.018225
  10 H :   -0.025541
  11 C :    0.128057
  12 H :   -0.004377
  13 H :   -0.015724
  14 H :   -0.022219
  15 C :    0.114626
  16 H :   -0.219800
  17 S :    0.794159

  Mayer bond orders larger than 0.100000
B(  0-H ,  1-H ) :  -0.1018 B(  0-H ,  2-H ) :  -0.1105 B(  0-H ,  3-C ) :   0.7482
B(  0-H ,  4-C ) :   0.2437 B(  1-H ,  3-C ) :   0.7786 B(  1-H ,  4-C ) :   0.2070
B(  2-H ,  3-C ) :   0.8092 B(  2-H ,  4-C ) :   0.1050 B(  3-C ,  4-C ) :   1.4707
B(  3-C , 15-C ) :  -0.1598 B(  4-C ,  5-H ) :   0.2133 B(  4-C ,  6-H ) :   0.2661
B(  4-C ,  7-C ) :   1.2065 B(  4-C , 12-H ) :   0.2847 B(  4-C , 13-H ) :   0.2135
B(  4-C , 14-H ) :   0.1032 B(  4-C , 15-C ) :   1.6068 B(  4-C , 16-H ) :   0.1130
B(  4-C , 17-S ) :   0.7331 B(  5-H ,  6-H ) :  -0.1505 B(  5-H ,  7-C ) :   0.7438
B(  6-H ,  7-C ) :   0.6815 B(  7-C , 11-C ) :   1.0957 B(  8-H , 11-C ) :   0.9317
B(  9-H , 11-C ) :   0.8815 B( 10-H , 11-C ) :   0.9488 B( 12-H , 13-H ) :  -0.1009
B( 12-H , 14-H ) :  -0.1047 B( 12-H , 15-C ) :   0.7774 B( 13-H , 15-C ) :   0.7252
B( 14-H , 15-C ) :   0.8296 B( 15-C , 17-S ) :   0.1268 B( 16-H , 17-S ) :   0.9232

MP2 TOTAL ENERGY:     -594.795305754 Eh
FINAL SINGLE POINT ENERGY      -594.795305753925

DIPOLE MOMENT
-------------
                                X             Y             Z
Electronic contribution:     -3.15214       5.91445      -0.79974
Nuclear contribution   :      3.16986      -6.64508       0.91144
                        -----------------------------------------
Total Dipole Moment    :      0.01771      -0.73063       0.11170
                        -----------------------------------------
Magnitude (a.u.)       :      0.73933
Magnitude (Debye)      :      1.87923

Rotational constants in cm-1:     0.098787     0.079100     0.062990
Rotational constants in MHz :  2961.562986  2371.368434  1888.397841

                             ****ORCA TERMINATED NORMALLY****
TOTAL RUN TIME: 0 days 0 hours 0 minutes 56 seconds 802 msec
