                         Program Version 5.0.3 -  RELEASE  -
|  1> !ri-mp2 aug-cc-pvdz aug-cc-pvdz/c tightscf
|  2> %pal nprocs 16 end
|  3>
|  4> * xyz 0 1
|  5> F     -0.777482   -0.846334    1.091554
|  6> F     -0.777487   -0.846342   -1.091545
|  7> O      2.802791    0.007738   -0.000006
|  8> N      0.529576    0.669815   -0.000003
|  9> C     -0.715131   -0.014559    0.000002
| 10> C     -1.891632    0.924090    0.000000
| 11> C      1.670848    0.263476   -0.000005
| 12> H     -2.809445    0.341143    0.000005
| 13> H     -1.854854    1.552140   -0.887058
| 14> H     -1.854850    1.552146    0.887056
| 15> *
| 16>
| 17>                          ****END OF INPUT****

CARTESIAN COORDINATES (ANGSTROEM)
---------------------------------
  F     -0.777482   -0.846334    1.091554
  F     -0.777487   -0.846342   -1.091545
  O      2.802791    0.007738   -0.000006
  N      0.529576    0.669815   -0.000003
  C     -0.715131   -0.014559    0.000002
  C     -1.891632    0.924090    0.000000
  C      1.670848    0.263476   -0.000005
  H     -2.809445    0.341143    0.000005
  H     -1.854854    1.552140   -0.887058
  H     -1.854850    1.552146    0.887056

 Total Charge           Charge          ....    0
 Multiplicity           Mult            ....    1
 Number of Electrons    NEL             ....   54
 Basis Dimension        Dim             ....  188

ORBITAL ENERGIES
----------------

  NO   OCC          E(Eh)            E(eV)
   0   2.0000     -26.338491      -716.7068
   1   2.0000     -26.338471      -716.7062
   2   2.0000     -20.653789      -562.0182
   3   2.0000     -15.618052      -424.9888
   4   2.0000     -11.488751      -312.6248
   5   2.0000     -11.449139      -311.5469
   6   2.0000     -11.262473      -306.4675
   7   2.0000      -1.684401       -45.8349
   8   2.0000      -1.618243       -44.0346
   9   2.0000      -1.503013       -40.8990
  10   2.0000      -1.308948       -35.6183
  11   2.0000      -1.079014       -29.3615
  12   2.0000      -0.935178       -25.4475
  13   2.0000      -0.837039       -22.7770
  14   2.0000      -0.786576       -21.4038
  15   2.0000      -0.758955       -20.6522
  16   2.0000      -0.753385       -20.5006
  17   2.0000      -0.693505       -18.8712
  18   2.0000      -0.687419       -18.7056
  19   2.0000      -0.666006       -18.1229
  20   2.0000      -0.662151       -18.0181
  21   2.0000      -0.643416       -17.5082
  22   2.0000      -0.587818       -15.9954
  23   2.0000      -0.584176       -15.8962
  24   2.0000      -0.565771       -15.3954
  25   2.0000      -0.492817       -13.4102
  26   2.0000      -0.470604       -12.8058
  27   0.0000       0.032757         0.8914
  28   0.0000       0.053758         1.4628
  29   0.0000       0.054386         1.4799
  30   0.0000       0.067035         1.8241
  31   0.0000       0.091782         2.4975

MULLIKEN ATOMIC CHARGES
-----------------------
   0 F :   -0.676557
   1 F :   -0.676557
   2 O :   -0.418764
   3 N :   -0.494977
   4 C :    1.731745
   5 C :    0.286780
   6 C :    0.197437
   7 H :   -0.003117
   8 H :    0.027003
   9 H :    0.027008
Sum of atomic charges:   -0.0000000

LOEWDIN ATOMIC CHARGES
----------------------
   0 F :    0.058197
   1 F :    0.058196
   2 O :    0.138324
   3 N :    0.079988
   4 C :   -0.412084
   5 C :    0.200122
   6 C :   -0.126919
   7 H :    0.001434
   8 H :    0.001371
   9 H :    0.001372

  Mayer bond orders larger than 0.100000
B(  0-F ,  3-N ) :   0.1362 B(  1-F ,  3-N ) :   0.1362 B(  2-O ,  6-C ) :   1.9844
B(  3-N ,  4-C ) :   0.6414 B(  3-N ,  6-C ) :   1.9873 B(  4-C ,  5-C ) :   1.3302
B(  4-C ,  6-C ) :  -0.1884 B(  4-C ,  7-H ) :   0.1054 B(  5-C ,  7-H ) :   0.8696
B(  5-C ,  8-H ) :   0.9227 B(  5-C ,  9-H ) :   0.9227

MP2 TOTAL ENERGY:     -444.784903589 Eh
FINAL SINGLE POINT ENERGY      -444.784903588871

DIPOLE MOMENT
-------------
                                X             Y             Z
Electronic contribution:      3.93127      -4.17947       0.00001
Nuclear contribution   :     -4.67600       4.85122      -0.00001
                        -----------------------------------------
Total Dipole Moment    :     -0.74473       0.67175      -0.00000
                        -----------------------------------------
Magnitude (a.u.)       :      1.00293
Magnitude (Debye)      :      2.54924

Rotational constants in cm-1:     0.175875     0.056742     0.056338
Rotational constants in MHz :  5272.614273  1701.094107  1688.960875

                             ****ORCA TERMINATED NORMALLY****
TOTAL RUN TIME: 0 days 0 hours 0 minutes 42 seconds 186 msec
