                         Program Version 5.0.3 -  RELEASE  -
|  1> !ri-mp2 aug-cc-pvdz aug-cc-pvdz/c tightscf
|  2> %pal nprocs 16 end
|  3>
|  4> * xyz 0 1
|  5> Cl    1.196824   -1.594182   -0.748571
|  6> Cl   -0.018487    1.607823   -0.809981
|  7> O     1.639322    1.360355    1.198885
|  8> O    -2.947869   -0.058570   -0.171301
|  9> C     0.488767   -0.684550    0.702596
| 10> C     0.860125    0.779605    0.528686
| 11> C    -0.940974   -0.958589    0.955829
| 12> C    -1.982431   -0.450327    0.322211
| 13> H     1.078224   -1.040998    1.539221
| 14> H    -1.194497   -1.722002    1.679561
| 15> *
| 16>
| 17>                          ****END OF INPUT****

CARTESIAN COORDINATES (ANGSTROEM)
---------------------------------
  Cl     1.196824   -1.594182   -0.748571
  Cl    -0.018487    1.607823   -0.809981
  O      1.639322    1.360355    1.198885
  O     -2.947869   -0.058570   -0.171301
  C      0.488767   -0.684550    0.702596
  C      0.860125    0.779605    0.528686
  C     -0.940974   -0.958589    0.955829
  C     -1.982431   -0.450327    0.322211
  H      1.078224   -1.040998    1.539221
  H     -1.194497   -1.722002    1.679561

 Total Charge           Charge          ....    0
 Multiplicity           Mult            ....    1
 Number of Electrons    NEL             ....   76
 Basis Dimension        Dim             ....  210

ORBITAL ENERGIES
----------------

  NO   OCC          E(Eh)            E(eV)
   0   2.0000    -104.866414     -2853.5602
   1   2.0000    -104.851850     -2853.1639
   2   2.0000     -20.674263      -562.5753
   3   2.0000     -20.630519      -561.3850
   4   2.0000     -11.444396      -311.4179
   5   2.0000     -11.431189      -311.0585
   6   2.0000     -11.375742      -309.5497
   7   2.0000     -11.287422      -307.1464
   8   2.0000     -10.592955      -288.2490
   9   2.0000     -10.577312      -287.8233
  10   2.0000      -8.060429      -219.3354
  11   2.0000      -8.057256      -219.2491
  12   2.0000      -8.057081      -219.2443
  13   2.0000      -8.044807      -218.9103
  14   2.0000      -8.041602      -218.8231
  15   2.0000      -8.041488      -218.8200
  16   2.0000      -1.517499       -41.2933
  17   2.0000      -1.481878       -40.3239
  18   2.0000      -1.197130       -32.5756
  19   2.0000      -1.138494       -30.9800
  20   2.0000      -1.092711       -29.7342
  21   2.0000      -0.984192       -26.7812
  22   2.0000      -0.828582       -22.5469
  23   2.0000      -0.776826       -21.1385
  24   2.0000      -0.735895       -20.0247
  25   2.0000      -0.717128       -19.5140
  26   2.0000      -0.680546       -18.5186
  27   2.0000      -0.678920       -18.4743
  28   2.0000      -0.653785       -17.7904
  29   2.0000      -0.624747       -17.0002
  30   2.0000      -0.609049       -16.5731
  31   2.0000      -0.563436       -15.3319
  32   2.0000      -0.502254       -13.6670
  33   2.0000      -0.489115       -13.3095
  34   2.0000      -0.485514       -13.2115
  35   2.0000      -0.466335       -12.6896
  36   2.0000      -0.455850       -12.4043
  37   2.0000      -0.386672       -10.5219
  38   0.0000       0.025841         0.7032
  39   0.0000       0.048288         1.3140
  40   0.0000       0.063302         1.7225
  41   0.0000       0.067570         1.8387
  42   0.0000       0.083626         2.2756

MULLIKEN ATOMIC CHARGES
-----------------------
   0 Cl:   -0.074642
   1 Cl:   -0.090159
   2 O :   -0.601771
   3 O :   -0.391060
   4 C :   -0.062384
   5 C :    0.493162
   6 C :    1.254487
   7 C :   -0.246555
   8 H :    0.046796
   9 H :   -0.327874
Sum of atomic charges:    0.0000000

LOEWDIN ATOMIC CHARGES
----------------------
   0 Cl:    0.487671
   1 Cl:    0.550373
   2 O :    0.058294
   3 O :    0.147673
   4 C :   -0.494002
   5 C :   -0.596830
   6 C :   -0.056943
   7 C :   -0.098021
   8 H :    0.000642
   9 H :    0.001144

  Mayer bond orders larger than 0.100000
B(  0-Cl,  4-C ) :   1.1334 B(  0-Cl,  5-C ) :  -0.1141 B(  1-Cl,  4-C ) :  -0.2615
B(  1-Cl,  5-C ) :   1.0912 B(  2-O ,  5-C ) :   1.6375 B(  3-O ,  6-C ) :  -0.1388
B(  3-O ,  7-C ) :   2.1807 B(  4-C ,  5-C ) :   0.6604 B(  4-C ,  6-C ) :   1.0362
B(  4-C ,  8-H ) :   0.8442 B(  6-C ,  7-C ) :   0.9321 B(  6-C ,  9-H ) :   0.7035

MP2 TOTAL ENERGY:    -1222.586312616 Eh
FINAL SINGLE POINT ENERGY     -1222.586312615630

DIPOLE MOMENT
-------------
                                X             Y             Z
Electronic contribution:      1.28319       1.78784      -4.42912
Nuclear contribution   :     -1.70079      -2.57727       5.09924
                        -----------------------------------------
Total Dipole Moment    :     -0.41760      -0.78943       0.67012
                        -----------------------------------------
Magnitude (a.u.)       :      1.11653
Magnitude (Debye)      :      2.83801

Rotational constants in cm-1:     0.050358     0.042331     0.030819
Rotational constants in MHz :  1509.705171  1269.045673   923.945047

                             ****ORCA TERMINATED NORMALLY****
TOTAL RUN TIME: 0 days 0 hours 0 minutes 43 seconds 600 msec
