                         Program Version 5.0.3 -  RELEASE  -
|  1> !ri-mp2 aug-cc-pvdz aug-cc-pvdz/c tightscf
|  2> %pal nprocs 16 end
|  3>
|  4> * xyz 0 1
|  5> C     -1.079574    0.025415   -0.000044
|  6> C     -0.317064    1.276053    0.000024
|  7> C      1.029994    1.272817    0.000051
|  8> C      1.811253    0.048223   -0.000048
|  9> C      1.208607   -1.145981   -0.000088
| 10> C     -0.278700   -1.273628    0.000176
| 11> O     -2.298529    0.003675   -0.000115
| 12> H     -0.888882    2.193888    0.000022
| 13> H      1.565350    2.214743    0.000240
| 14> H      2.890068    0.123598   -0.000248
| 15> H      1.792087   -2.058324   -0.000305
| 16> H     -0.608643   -1.860082    0.864683
| 17> H     -0.608845   -1.860624   -0.863902
| 18> *
| 19>
| 20>                          ****END OF INPUT****

CARTESIAN COORDINATES (ANGSTROEM)
---------------------------------
  C     -1.079574    0.025415   -0.000044
  C     -0.317064    1.276053    0.000024
  C      1.029994    1.272817    0.000051
  C      1.811253    0.048223   -0.000048
  C      1.208607   -1.145981   -0.000088
  C     -0.278700   -1.273628    0.000176
  O     -2.298529    0.003675   -0.000115
  H     -0.888882    2.193888    0.000022
  H      1.565350    2.214743    0.000240
  H      2.890068    0.123598   -0.000248
  H      1.792087   -2.058324   -0.000305
  H     -0.608643   -1.860082    0.864683
  H     -0.608845   -1.860624   -0.863902

 Total Charge           Charge          ....    0
 Multiplicity           Mult            ....    1
 Number of Electrons    NEL             ....   50
 Basis Dimension        Dim             ....  215

ORBITAL ENERGIES
----------------

  NO   OCC          E(Eh)            E(eV)
   0   2.0000     -20.546863      -559.1086
   1   2.0000     -11.338682      -308.5412
   2   2.0000     -11.277978      -306.8894
   3   2.0000     -11.268957      -306.6439
   4   2.0000     -11.256220      -306.2973
   5   2.0000     -11.254890      -306.2611
   6   2.0000     -11.246897      -306.0436
   7   2.0000      -1.381983       -37.6057
   8   2.0000      -1.152912       -31.3723
   9   2.0000      -1.046398       -28.4740
  10   2.0000      -1.001478       -27.2516
  11   2.0000      -0.861314       -23.4375
  12   2.0000      -0.810063       -22.0429
  13   2.0000      -0.708873       -19.2894
  14   2.0000      -0.668894       -18.2015
  15   2.0000      -0.659372       -17.9424
  16   2.0000      -0.620440       -16.8830
  17   2.0000      -0.612732       -16.6733
  18   2.0000      -0.594426       -16.1752
  19   2.0000      -0.535604       -14.5745
  20   2.0000      -0.524357       -14.2685
  21   2.0000      -0.508799       -13.8451
  22   2.0000      -0.454638       -12.3713
  23   2.0000      -0.410537       -11.1713
  24   2.0000      -0.333063        -9.0631
  25   0.0000       0.028823         0.7843
  26   0.0000       0.037663         1.0249
  27   0.0000       0.045913         1.2494
  28   0.0000       0.051173         1.3925
  29   0.0000       0.057189         1.5562

MULLIKEN ATOMIC CHARGES
-----------------------
   0 C :    0.312516
   1 C :    0.584659
   2 C :    0.635109
   3 C :    0.334241
   4 C :    0.602828
   5 C :   -0.170679
   6 O :   -0.903037
   7 H :   -0.426421
   8 H :   -0.437597
   9 H :   -0.434480
  10 H :   -0.407336
  11 H :    0.155079
  12 H :    0.155118
Sum of atomic charges:    0.0000000

LOEWDIN ATOMIC CHARGES
----------------------
   0 C :   -0.276666
   1 C :    0.060676
   2 C :    0.030119
   3 C :   -0.005350
   4 C :    0.030504
   5 C :    0.046509
   6 O :    0.026300
   7 H :    0.004262
   8 H :    0.009052
   9 H :   -0.002535
  10 H :    0.005583
  11 H :    0.035773
  12 H :    0.035773

  Mayer bond orders larger than 0.100000
B(  0-C ,  1-C ) :   0.9197 B(  0-C ,  2-C ) :  -0.1208 B(  0-C ,  5-C ) :   1.1197
B(  0-C ,  6-O ) :   1.3306 B(  0-C ,  7-H ) :   0.1265 B(  1-C ,  2-C ) :   2.0355
B(  1-C ,  5-C ) :   0.1775 B(  1-C ,  7-H ) :   0.4348 B(  1-C ,  8-H ) :   0.2200
B(  2-C ,  3-C ) :   1.3022 B(  2-C ,  4-C ) :  -0.1355 B(  2-C ,  7-H ) :   0.1640
B(  2-C ,  8-H ) :   0.4497 B(  2-C ,  9-H ) :   0.1208 B(  3-C ,  4-C ) :   2.0722
B(  3-C ,  8-H ) :   0.1050 B(  3-C ,  9-H ) :   0.3828 B(  3-C , 10-H ) :   0.1937
B(  4-C ,  5-C ) :   1.1468 B(  4-C ,  9-H ) :   0.2122 B(  4-C , 10-H ) :   0.6076
B(  5-C , 11-H ) :   0.7883 B(  5-C , 12-H ) :   0.7883

MP2 TOTAL ENERGY:     -306.572660141 Eh
FINAL SINGLE POINT ENERGY      -306.572660141084

DIPOLE MOMENT
-------------
                                X             Y             Z
Electronic contribution:     -2.45673       1.08357      -0.00036
Nuclear contribution   :      4.09577      -1.24397       0.00049
                        -----------------------------------------
Total Dipole Moment    :      1.63904      -0.16040       0.00013
                        -----------------------------------------
Magnitude (a.u.)       :      1.64687
Magnitude (Debye)      :      4.18600

Rotational constants in cm-1:     0.174048     0.089976     0.059949
Rotational constants in MHz :  5217.826104  2697.411672  1797.214039

                             ****ORCA TERMINATED NORMALLY****
TOTAL RUN TIME: 0 days 0 hours 0 minutes 42 seconds 856 msec
