                         Program Version 5.0.3 -  RELEASE  -
|  1> !ri-mp2 aug-cc-pvdz aug-cc-pvdz/c tightscf
|  2> %pal nprocs 16 end
|  3>
|  4> * xyz 0 1
|  5> O    -1.386694   -0.955842   -0.030927
|  6> O     1.673838   -1.363612    1.177598
|  7> O     1.760784   -1.318632   -1.074923
|  8> O     2.466034    1.540093   -0.013587
|  9> N     1.079600    1.577817   -0.028311
| 10> N    -2.776900   -0.886607   -0.040218
| 11> C    -0.883578    0.294634    0.005329
| 12> C     0.564807    0.409695    0.011606
| 13> C     1.394065   -0.855428    0.129539
| 14> C    -1.901139    1.199961    0.020623
| 15> C    -3.059097    0.390299   -0.009356
| 16> H     2.283422   -2.124288   -0.935669
| 17> H     2.715908    2.470145   -0.038919
| 18> H    -1.826555    2.270621    0.050855
| 19> H    -4.093711    0.694019   -0.008296
| 20> *
| 21>
| 22>                          ****END OF INPUT****

CARTESIAN COORDINATES (ANGSTROEM)
---------------------------------
  O     -1.386694   -0.955842   -0.030927
  O      1.673838   -1.363612    1.177598
  O      1.760784   -1.318632   -1.074923
  O      2.466034    1.540093   -0.013587
  N      1.079600    1.577817   -0.028311
  N     -2.776900   -0.886607   -0.040218
  C     -0.883578    0.294634    0.005329
  C      0.564807    0.409695    0.011606
  C      1.394065   -0.855428    0.129539
  C     -1.901139    1.199961    0.020623
  C     -3.059097    0.390299   -0.009356
  H      2.283422   -2.124288   -0.935669
  H      2.715908    2.470145   -0.038919
  H     -1.826555    2.270621    0.050855
  H     -4.093711    0.694019   -0.008296

 Total Charge           Charge          ....    0
 Multiplicity           Mult            ....    1
 Number of Electrons    NEL             ....   80
 Basis Dimension        Dim             ....  289

ORBITAL ENERGIES
----------------

  NO   OCC          E(Eh)            E(eV)
   0   2.0000     -20.673472      -562.5538
   1   2.0000     -20.646477      -561.8192
   2   2.0000     -20.643936      -561.7500
   3   2.0000     -20.586576      -560.1892
   4   2.0000     -15.682390      -426.7395
   5   2.0000     -15.648576      -425.8194
   6   2.0000     -11.428545      -310.9865
   7   2.0000     -11.349700      -308.8410
   8   2.0000     -11.338816      -308.5449
   9   2.0000     -11.301590      -307.5319
  10   2.0000     -11.264118      -306.5122
  11   2.0000      -1.519245       -41.3408
  12   2.0000      -1.496850       -40.7314
  13   2.0000      -1.472818       -40.0774
  14   2.0000      -1.394489       -37.9460
  15   2.0000      -1.223989       -33.3064
  16   2.0000      -1.185133       -32.2491
  17   2.0000      -1.092124       -29.7182
  18   2.0000      -0.966146       -26.2902
  19   2.0000      -0.880560       -23.9612
  20   2.0000      -0.844840       -22.9893
  21   2.0000      -0.798389       -21.7253
  22   2.0000      -0.770121       -20.9560
  23   2.0000      -0.727824       -19.8051
  24   2.0000      -0.723905       -19.6985
  25   2.0000      -0.711247       -19.3540
  26   2.0000      -0.678224       -18.4554
  27   2.0000      -0.649777       -17.6813
  28   2.0000      -0.634888       -17.2762
  29   2.0000      -0.631327       -17.1793
  30   2.0000      -0.629664       -17.1340
  31   2.0000      -0.598748       -16.2928
  32   2.0000      -0.585378       -15.9290
  33   2.0000      -0.519978       -14.1493
  34   2.0000      -0.503752       -13.7078
  35   2.0000      -0.496252       -13.5037
  36   2.0000      -0.473080       -12.8731
  37   2.0000      -0.458144       -12.4667
  38   2.0000      -0.442315       -12.0360
  39   2.0000      -0.359442        -9.7809
  40   0.0000       0.027758         0.7553
  41   0.0000       0.036262         0.9867
  42   0.0000       0.041142         1.1195
  43   0.0000       0.052855         1.4383
  44   0.0000       0.054235         1.4758

MULLIKEN ATOMIC CHARGES
-----------------------
   0 O :   -1.011698
   1 O :   -0.736308
   2 O :   -0.685892
   3 O :   -0.583059
   4 N :   -0.314147
   5 N :   -0.213606
   6 C :    0.488732
   7 C :    0.540288
   8 C :    1.263296
   9 C :    0.981479
  10 C :    0.498721
  11 H :    0.198007
  12 H :    0.175990
  13 H :   -0.396678
  14 H :   -0.205125
Sum of atomic charges:    0.0000000

LOEWDIN ATOMIC CHARGES
----------------------
   0 O :    0.071796
   1 O :    0.081256
   2 O :    0.226301
   3 O :    0.143364
   4 N :    0.064018
   5 N :    0.047030
   6 C :   -0.165959
   7 C :   -0.145305
   8 C :   -0.311695
   9 C :    0.073874
  10 C :   -0.042095
  11 H :   -0.004727
  12 H :   -0.049270
  13 H :    0.003374
  14 H :    0.008037

  Mayer bond orders larger than 0.100000
B(  0-O ,  5-N ) :   0.6996 B(  0-O ,  6-C ) :   0.5999 B(  0-O ,  7-C ) :   0.1548
B(  1-O ,  2-O ) :   0.1416 B(  1-O ,  8-C ) :   1.4421 B(  2-O ,  7-C ) :   0.2666
B(  2-O ,  8-C ) :   0.4121 B(  2-O , 11-H ) :   1.0209 B(  3-O ,  4-N ) :   0.8428
B(  3-O ,  7-C ) :  -0.1904 B(  3-O , 12-H ) :   1.0665 B(  4-N ,  7-C ) :   1.5505
B(  5-N , 10-C ) :   1.3224 B(  6-C ,  7-C ) :   1.0978 B(  6-C ,  9-C ) :   1.3996
B(  6-C , 10-C ) :   0.2291 B(  6-C , 13-H ) :   0.6449 B(  6-C , 14-H ) :   0.1902
B(  7-C ,  8-C ) :   0.6284 B(  7-C ,  9-C ) :  -0.1470 B(  9-C , 10-C ) :   0.9492
B(  9-C , 14-H ) :  -0.1253 B( 10-C , 13-H ) :   0.2253 B( 10-C , 14-H ) :   0.7767

MP2 TOTAL ENERGY:     -601.770370350 Eh
FINAL SINGLE POINT ENERGY      -601.770370350221

DIPOLE MOMENT
-------------
                                X             Y             Z
Electronic contribution:      1.00267      -1.78140       0.30313
Nuclear contribution   :     -0.82751       3.15848      -0.89660
                        -----------------------------------------
Total Dipole Moment    :      0.17516       1.37708      -0.59347
                        -----------------------------------------
Magnitude (a.u.)       :      1.50971
Magnitude (Debye)      :      3.83739

Rotational constants in cm-1:     0.068797     0.027456     0.021739
Rotational constants in MHz :  2062.472089   823.108494   651.713989

                             ****ORCA TERMINATED NORMALLY****
TOTAL RUN TIME: 0 days 0 hours 1 minutes 20 seconds 950 msec
