                         Program Version 5.0.3 -  RELEASE  -
|  1> !ri-mp2 aug-cc-pvdz aug-cc-pvdz/c tightscf
|  2> %pal nprocs 16 end
|  3>
|  4> * xyz 0 1
|  5> O      0.000000    0.000000    0.648088
|  6> O      0.000000    3.317523   -0.078152
|  7> O      0.000000   -3.317523   -0.078152
|  8> C     -0.698728    0.939522   -0.114391
|  9> C      0.698728   -0.939522   -0.114391
| 10> C     -0.313392    2.199290   -0.102139
| 11> C      0.313392   -2.199290   -0.102139
| 12> H     -1.576390    0.640518   -0.667959
| 13> H      1.576390   -0.640518   -0.667959
| 14> *
| 15>
| 16>                          ****END OF INPUT****

CARTESIAN COORDINATES (ANGSTROEM)
---------------------------------
  O      0.000000    0.000000    0.648088
  O      0.000000    3.317523   -0.078152
  O      0.000000   -3.317523   -0.078152
  C     -0.698728    0.939522   -0.114391
  C      0.698728   -0.939522   -0.114391
  C     -0.313392    2.199290   -0.102139
  C      0.313392   -2.199290   -0.102139
  H     -1.576390    0.640518   -0.667959
  H      1.576390   -0.640518   -0.667959

 Total Charge           Charge          ....    0
 Multiplicity           Mult            ....    1
 Number of Electrons    NEL             ....   50
 Basis Dimension        Dim             ....  179

ORBITAL ENERGIES
----------------

  NO   OCC          E(Eh)            E(eV)
   0   2.0000     -20.656156      -562.0826
   1   2.0000     -20.656156      -562.0826
   2   2.0000     -20.636952      -561.5600
   3   2.0000     -11.403703      -310.3105
   4   2.0000     -11.403703      -310.3105
   5   2.0000     -11.317491      -307.9646
   6   2.0000     -11.317471      -307.9640
   7   2.0000      -1.493619       -40.6434
   8   2.0000      -1.492874       -40.6232
   9   2.0000      -1.437255       -39.1097
  10   2.0000      -1.089254       -29.6401
  11   2.0000      -1.019956       -27.7544
  12   2.0000      -0.800575       -21.7847
  13   2.0000      -0.770779       -20.9740
  14   2.0000      -0.738512       -20.0959
  15   2.0000      -0.728650       -19.8276
  16   2.0000      -0.717983       -19.5373
  17   2.0000      -0.666540       -18.1375
  18   2.0000      -0.657849       -17.9010
  19   2.0000      -0.632499       -17.2112
  20   2.0000      -0.597232       -16.2515
  21   2.0000      -0.588677       -16.0187
  22   2.0000      -0.527492       -14.3538
  23   2.0000      -0.374783       -10.1984
  24   2.0000      -0.359499        -9.7825
  25   0.0000       0.029413         0.8004
  26   0.0000       0.042081         1.1451
  27   0.0000       0.058227         1.5844
  28   0.0000       0.064646         1.7591
  29   0.0000       0.084715         2.3052

MULLIKEN ATOMIC CHARGES
-----------------------
   0 O :   -0.945385
   1 O :   -0.380729
   2 O :   -0.380729
   3 C :    1.345977
   4 C :    1.345977
   5 C :   -0.315004
   6 C :   -0.315004
   7 H :   -0.177550
   8 H :   -0.177550
Sum of atomic charges:   -0.0000000

LOEWDIN ATOMIC CHARGES
----------------------
   0 O :    0.003936
   1 O :    0.116614
   2 O :    0.116614
   3 C :   -0.041736
   4 C :   -0.041736
   5 C :   -0.065732
   6 C :   -0.065732
   7 H :   -0.011114
   8 H :   -0.011114

  Mayer bond orders larger than 0.100000
B(  0-O ,  3-C ) :   0.5666 B(  0-O ,  4-C ) :   0.5666 B(  0-O ,  5-C ) :   0.1108
B(  0-O ,  6-C ) :   0.1108 B(  1-O ,  3-C ) :  -0.1288 B(  1-O ,  5-C ) :   2.1175
B(  2-O ,  4-C ) :  -0.1288 B(  2-O ,  6-C ) :   2.1175 B(  3-C ,  5-C ) :   1.1697
B(  3-C ,  7-H ) :   0.8380 B(  4-C ,  6-C ) :   1.1697 B(  4-C ,  8-H ) :   0.8380

MP2 TOTAL ENERGY:     -378.237043594 Eh
FINAL SINGLE POINT ENERGY      -378.237043593711

DIPOLE MOMENT
-------------
                                X             Y             Z
Electronic contribution:      0.00000       0.00000       0.71775
Nuclear contribution   :      0.00000       0.00000      -1.27191
                        -----------------------------------------
Total Dipole Moment    :      0.00000       0.00000      -0.55416
                        -----------------------------------------
Magnitude (a.u.)       :      0.55416
Magnitude (Debye)      :      1.40856

Rotational constants in cm-1:     0.675200     0.033632     0.033087
Rotational constants in MHz : 20241.984144  1008.247207   991.934836

                             ****ORCA TERMINATED NORMALLY****
TOTAL RUN TIME: 0 days 0 hours 0 minutes 38 seconds 670 msec
