                         Program Version 5.0.3 -  RELEASE  -
|  1> !ri-mp2 aug-cc-pvdz aug-cc-pvdz/c tightscf
|  2> %pal nprocs 16 end
|  3>
|  4> * xyz 0 1
|  5> C      0.291567    0.213459    0.000000
|  6> N     -0.907457    1.063947    0.000000
|  7> H      1.214879    0.812042    0.000000
|  8> C      0.291567   -0.643023    1.262440
|  9> C      0.291567   -0.643023   -1.262440
| 10> H     -0.926663    1.665263   -0.815022
| 11> H     -0.926663    1.665263    0.815022
| 12> H     -0.596181   -1.276761    1.290536
| 13> H     -0.596181   -1.276761   -1.290536
| 14> H      1.176573   -1.279494    1.299902
| 15> H      1.176573   -1.279494   -1.299902
| 16> H      0.290826   -0.021081    2.160146
| 17> H      0.290826   -0.021081   -2.160146
| 18> *
| 19>
| 20>                          ****END OF INPUT****

CARTESIAN COORDINATES (ANGSTROEM)
---------------------------------
  C      0.291567    0.213459    0.000000
  N     -0.907457    1.063947    0.000000
  H      1.214879    0.812042    0.000000
  C      0.291567   -0.643023    1.262440
  C      0.291567   -0.643023   -1.262440
  H     -0.926663    1.665263   -0.815022
  H     -0.926663    1.665263    0.815022
  H     -0.596181   -1.276761    1.290536
  H     -0.596181   -1.276761   -1.290536
  H      1.176573   -1.279494    1.299902
  H      1.176573   -1.279494   -1.299902
  H      0.290826   -0.021081    2.160146
  H      0.290826   -0.021081   -2.160146

 Total Charge           Charge          ....    0
 Multiplicity           Mult            ....    1
 Number of Electrons    NEL             ....   34
 Basis Dimension        Dim             ....  173

ORBITAL ENERGIES
----------------

  NO   OCC          E(Eh)            E(eV)
   0   2.0000     -15.543590      -422.9626
   1   2.0000     -11.257404      -306.3295
   2   2.0000     -11.215332      -305.1847
   3   2.0000     -11.215314      -305.1842
   4   2.0000      -1.182615       -32.1806
   5   2.0000      -1.013892       -27.5894
   6   2.0000      -0.932354       -25.3706
   7   2.0000      -0.781058       -21.2537
   8   2.0000      -0.651031       -17.7155
   9   2.0000      -0.650238       -17.6939
  10   2.0000      -0.597052       -16.2466
  11   2.0000      -0.537387       -14.6231
  12   2.0000      -0.526843       -14.3361
  13   2.0000      -0.505715       -13.7612
  14   2.0000      -0.489070       -13.3083
  15   2.0000      -0.473203       -12.8765
  16   2.0000      -0.385012       -10.4767
  17   0.0000       0.035804         0.9743
  18   0.0000       0.048091         1.3086
  19   0.0000       0.048272         1.3136
  20   0.0000       0.051546         1.4026
  21   0.0000       0.070001         1.9048

MULLIKEN ATOMIC CHARGES
-----------------------
   0 C :   -0.536516
   1 N :   -0.299851
   2 H :   -0.134844
   3 C :    0.667007
   4 C :    0.667007
   5 H :   -0.036081
   6 H :   -0.036081
   7 H :    0.006629
   8 H :    0.006629
   9 H :   -0.049371
  10 H :   -0.049371
  11 H :   -0.102578
  12 H :   -0.102578
Sum of atomic charges:   -0.0000000

LOEWDIN ATOMIC CHARGES
----------------------
   0 C :   -0.341003
   1 N :    0.193411
   2 H :    0.027695
   3 C :    0.154183
   4 C :    0.154183
   5 H :   -0.051423
   6 H :   -0.051423
   7 H :   -0.009840
   8 H :   -0.009840
   9 H :   -0.014666
  10 H :   -0.014666
  11 H :   -0.018305
  12 H :   -0.018305

  Mayer bond orders larger than 0.100000
B(  0-C ,  1-N ) :   0.6859 B(  0-C ,  2-H ) :   0.8043 B(  0-C ,  3-C ) :   1.3770
B(  0-C ,  4-C ) :   1.3770 B(  0-C , 11-H ) :   0.1417 B(  0-C , 12-H ) :   0.1417
B(  1-N ,  5-H ) :   1.0472 B(  1-N ,  6-H ) :   1.0472 B(  3-C ,  4-C ) :  -0.1207
B(  3-C ,  7-H ) :   0.8904 B(  3-C ,  9-H ) :   0.8280 B(  3-C , 11-H ) :   0.8573
B(  4-C ,  8-H ) :   0.8904 B(  4-C , 10-H ) :   0.8280 B(  4-C , 12-H ) :   0.8573

MP2 TOTAL ENERGY:     -173.955992048 Eh
FINAL SINGLE POINT ENERGY      -173.955992048092

DIPOLE MOMENT
-------------
                                X             Y             Z
Electronic contribution:     -0.76809       1.39556      -0.00000
Nuclear contribution   :      1.18681      -1.08656       0.00000
                        -----------------------------------------
Total Dipole Moment    :      0.41872       0.30900      -0.00000
                        -----------------------------------------
Magnitude (a.u.)       :      0.52039
Magnitude (Debye)      :      1.32273

Rotational constants in cm-1:     0.278015     0.265776     0.154943
Rotational constants in MHz :  8334.675571  7967.755451  4645.080603

                             ****ORCA TERMINATED NORMALLY****
TOTAL RUN TIME: 0 days 0 hours 0 minutes 27 seconds 766 msec
