                         Program Version 5.0.3 -  RELEASE  -
|  1> !ri-mp2 aug-cc-pvdz aug-cc-pvdz/c tightscf
|  2> %pal nprocs 16 end
|  3>
|  4> * xyz 0 1
|  5> C     -1.194148   -1.273079   -0.003365
|  6> C      0.157194   -1.604887   -0.000788
|  7> C     -0.609182    1.039610   -0.002377
|  8> C     -1.601991    0.056026   -0.003248
|  9> C      0.749394    0.743892   -0.000095
| 10> C      1.120492   -0.606384    0.001279
| 11> C     -3.061050    0.433615    0.003949
| 12> C      1.799096    1.819578   -0.000742
| 13> O      2.465444   -0.884994    0.002866
| 14> H     -1.932914   -2.064353   -0.006041
| 15> H      0.460474   -2.645819   -0.001658
| 16> H     -0.904309    2.082983   -0.004426
| 17> H     -3.301613    1.113926   -0.815300
| 18> H     -3.696847   -0.445427   -0.096389
| 19> H     -3.338323    0.937663    0.932716
| 20> H      2.446613    1.742179    0.874661
| 21> H      2.448306    1.739421   -0.874651
| 22> H      1.340514    2.807196   -0.002729
| 23> H      2.595723   -1.838040    0.003211
| 24> *
| 25>
| 26>                          ****END OF INPUT****

CARTESIAN COORDINATES (ANGSTROEM)
---------------------------------
  C     -1.194148   -1.273079   -0.003365
  C      0.157194   -1.604887   -0.000788
  C     -0.609182    1.039610   -0.002377
  C     -1.601991    0.056026   -0.003248
  C      0.749394    0.743892   -0.000095
  C      1.120492   -0.606384    0.001279
  C     -3.061050    0.433615    0.003949
  C      1.799096    1.819578   -0.000742
  O      2.465444   -0.884994    0.002866
  H     -1.932914   -2.064353   -0.006041
  H      0.460474   -2.645819   -0.001658
  H     -0.904309    2.082983   -0.004426
  H     -3.301613    1.113926   -0.815300
  H     -3.696847   -0.445427   -0.096389
  H     -3.338323    0.937663    0.932716
  H      2.446613    1.742179    0.874661
  H      2.448306    1.739421   -0.874651
  H      1.340514    2.807196   -0.002729
  H      2.595723   -1.838040    0.003211

 Total Charge           Charge          ....    0
 Multiplicity           Mult            ....    1
 Number of Electrons    NEL             ....   66
 Basis Dimension        Dim             ....  297

ORBITAL ENERGIES
----------------

  NO   OCC          E(Eh)            E(eV)
   0   2.0000     -20.595823      -560.4408
   1   2.0000     -11.297431      -307.4187
   2   2.0000     -11.238812      -305.8236
   3   2.0000     -11.235990      -305.7468
   4   2.0000     -11.235174      -305.7246
   5   2.0000     -11.234153      -305.6968
   6   2.0000     -11.232085      -305.6406
   7   2.0000     -11.226782      -305.4963
   8   2.0000     -11.223106      -305.3962
   9   2.0000      -1.403525       -38.1919
  10   2.0000      -1.154711       -31.4213
  11   2.0000      -1.054677       -28.6992
  12   2.0000      -1.029979       -28.0271
  13   2.0000      -0.937581       -25.5129
  14   2.0000      -0.923246       -25.1228
  15   2.0000      -0.838755       -22.8237
  16   2.0000      -0.783036       -21.3075
  17   2.0000      -0.728137       -19.8136
  18   2.0000      -0.673261       -18.3204
  19   2.0000      -0.632253       -17.2045
  20   2.0000      -0.602852       -16.4044
  21   2.0000      -0.598148       -16.2764
  22   2.0000      -0.574265       -15.6266
  23   2.0000      -0.568659       -15.4740
  24   2.0000      -0.567430       -15.4405
  25   2.0000      -0.548301       -14.9200
  26   2.0000      -0.544940       -14.8286
  27   2.0000      -0.523038       -14.2326
  28   2.0000      -0.493411       -13.4264
  29   2.0000      -0.479582       -13.0501
  30   2.0000      -0.463340       -12.6081
  31   2.0000      -0.330893        -9.0041
  32   2.0000      -0.300071        -8.1653
  33   0.0000       0.032925         0.8959
  34   0.0000       0.038976         1.0606
  35   0.0000       0.041845         1.1386
  36   0.0000       0.053414         1.4535
  37   0.0000       0.057364         1.5610

MULLIKEN ATOMIC CHARGES
-----------------------
   0 C :    0.548433
   1 C :    0.270080
   2 C :    0.846072
   3 C :   -0.243320
   4 C :   -0.584188
   5 C :    0.832638
   6 C :    0.343397
   7 C :    0.600500
   8 O :   -0.986429
   9 H :   -0.581044
  10 H :   -0.636463
  11 H :   -0.658143
  12 H :    0.064782
  13 H :   -0.191552
  14 H :    0.103062
  15 H :    0.130519
  16 H :    0.131375
  17 H :   -0.188502
  18 H :    0.198783
Sum of atomic charges:   -0.0000000

LOEWDIN ATOMIC CHARGES
----------------------
   0 C :    0.034722
   1 C :    0.043259
   2 C :    0.075414
   3 C :   -0.222120
   4 C :   -0.175323
   5 C :   -0.193521
   6 C :    0.169194
   7 C :    0.178434
   8 O :    0.184178
   9 H :    0.002991
  10 H :    0.000489
  11 H :    0.011907
  12 H :   -0.011760
  13 H :   -0.018070
  14 H :   -0.010123
  15 H :   -0.005688
  16 H :   -0.005670
  17 H :   -0.016939
  18 H :   -0.041374

  Mayer bond orders larger than 0.100000
B(  0-C ,  1-C ) :   1.8290 B(  0-C ,  2-C ) :  -0.6485 B(  0-C ,  3-C ) :   2.0292
B(  0-C ,  4-C ) :   0.1180 B(  0-C ,  6-C ) :  -0.4128 B(  0-C ,  9-H ) :  -0.1716
B(  0-C , 10-H ) :   0.2167 B(  0-C , 13-H ) :  -0.1290 B(  1-C ,  2-C ) :   0.1145
B(  1-C ,  3-C ) :  -0.2949 B(  1-C ,  4-C ) :   0.1735 B(  1-C ,  5-C ) :   1.5325
B(  1-C ,  6-C ) :   0.3823 B(  1-C ,  8-O ) :   0.2362 B(  1-C ,  9-H ) :   0.1876
B(  1-C , 10-H ) :  -0.4830 B(  1-C , 18-H ) :   0.1771 B(  2-C ,  3-C ) :   1.0305
B(  2-C ,  4-C ) :   2.2250 B(  2-C ,  5-C ) :  -0.5188 B(  2-C ,  6-C ) :  -0.6896
B(  2-C ,  7-C ) :  -0.2995 B(  2-C , 10-H ) :   0.1079 B(  2-C , 11-H ) :  -0.3590
B(  2-C , 12-H ) :  -0.1018 B(  2-C , 17-H ) :  -0.1351 B(  3-C ,  4-C ) :   0.1688
B(  3-C ,  5-C ) :   0.2334 B(  3-C ,  6-C ) :   1.3982 B(  3-C ,  7-C ) :   0.1053
B(  3-C ,  9-H ) :   0.4793 B(  3-C , 10-H ) :  -0.1727 B(  3-C , 11-H ) :   0.3413
B(  3-C , 12-H ) :   0.2540 B(  3-C , 13-H ) :   0.4651 B(  3-C , 14-H ) :   0.2233
B(  4-C ,  5-C ) :   1.4550 B(  4-C ,  6-C ) :   0.1347 B(  4-C ,  7-C ) :   1.4560
B(  4-C ,  8-O ) :   0.3151 B(  4-C , 11-H ) :   0.6096 B(  4-C , 15-H ) :   0.1191
B(  4-C , 16-H ) :   0.1153 B(  4-C , 17-H ) :   0.4874 B(  5-C ,  7-C ) :  -0.2745
B(  5-C ,  8-O ) :  -0.4295 B(  5-C , 10-H ) :   0.9982 B(  5-C , 11-H ) :  -0.1352
B(  5-C , 18-H ) :  -0.1959 B(  6-C , 11-H ) :   0.1426 B(  6-C , 12-H ) :   0.8505
B(  6-C , 13-H ) :   0.5828 B(  6-C , 14-H ) :   0.8874 B(  7-C , 15-H ) :   0.8314
B(  7-C , 16-H ) :   0.8324 B(  7-C , 17-H ) :   0.5201 B(  8-O , 18-H ) :   1.0322

MP2 TOTAL ENERGY:     -384.994219575 Eh
FINAL SINGLE POINT ENERGY      -384.994219574932

DIPOLE MOMENT
-------------
                                X             Y             Z
Electronic contribution:      3.69042      -3.81442      -0.00667
Nuclear contribution   :     -3.89970       3.46571       0.00958
                        -----------------------------------------
Total Dipole Moment    :     -0.20927      -0.34871       0.00291
                        -----------------------------------------
Magnitude (a.u.)       :      0.40670
Magnitude (Debye)      :      1.03375

Rotational constants in cm-1:     0.100629     0.043481     0.030705
Rotational constants in MHz :  3016.771450  1303.520439   920.498366

                             ****ORCA TERMINATED NORMALLY****
TOTAL RUN TIME: 0 days 0 hours 1 minutes 29 seconds 778 msec
