                         Program Version 5.0.3 -  RELEASE  -
|  1> !ri-mp2 aug-cc-pvdz aug-cc-pvdz/c tightscf
|  2> %pal nprocs 16 end
|  3>
|  4> * xyz 0 1
|  5> C     1.309093    1.172916    0.000000
|  6> C    -1.309093   -1.172916    0.000000
|  7> C     2.068867    0.039777    0.000000
|  8> C    -2.068867   -0.039777    0.000000
|  9> C    -0.023065    0.680222    0.000000
| 10> C     0.023065   -0.680222    0.000000
| 11> O     1.309093   -1.111529    0.000000
| 12> O    -1.309093    1.111529    0.000000
| 13> H     1.675271    2.183812    0.000000
| 14> H    -1.675271   -2.183812    0.000000
| 15> H     3.132307   -0.112935    0.000000
| 16> H    -3.132307    0.112935    0.000000
| 17> *
| 18>
| 19>                          ****END OF INPUT****

CARTESIAN COORDINATES (ANGSTROEM)
---------------------------------
  C      1.309093    1.172916    0.000000
  C     -1.309093   -1.172916    0.000000
  C      2.068867    0.039777    0.000000
  C     -2.068867   -0.039777    0.000000
  C     -0.023065    0.680222    0.000000
  C      0.023065   -0.680222    0.000000
  O      1.309093   -1.111529    0.000000
  O     -1.309093    1.111529    0.000000
  H      1.675271    2.183812    0.000000
  H     -1.675271   -2.183812    0.000000
  H      3.132307   -0.112935    0.000000
  H     -3.132307    0.112935    0.000000

 Total Charge           Charge          ....    0
 Multiplicity           Mult            ....    1
 Number of Electrons    NEL             ....   56
 Basis Dimension        Dim             ....  220

ORBITAL ENERGIES
----------------

  NO   OCC          E(Eh)            E(eV)
   0   2.0000     -20.640211      -561.6487
   1   2.0000     -20.640208      -561.6486
   2   2.0000     -11.308010      -307.7066
   3   2.0000     -11.308009      -307.7066
   4   2.0000     -11.288246      -307.1688
   5   2.0000     -11.286756      -307.1282
   6   2.0000     -11.255279      -306.2717
   7   2.0000     -11.255278      -306.2717
   8   2.0000      -1.476416       -40.1753
   9   2.0000      -1.454040       -39.5664
  10   2.0000      -1.102667       -30.0051
  11   2.0000      -1.088321       -29.6147
  12   2.0000      -0.988646       -26.9024
  13   2.0000      -0.852822       -23.2065
  14   2.0000      -0.814534       -22.1646
  15   2.0000      -0.779351       -21.2072
  16   2.0000      -0.719519       -19.5791
  17   2.0000      -0.667800       -18.1718
  18   2.0000      -0.665106       -18.0984
  19   2.0000      -0.649229       -17.6664
  20   2.0000      -0.610323       -16.6077
  21   2.0000      -0.591784       -16.1033
  22   2.0000      -0.586718       -15.9654
  23   2.0000      -0.567018       -15.4293
  24   2.0000      -0.514836       -14.0094
  25   2.0000      -0.410847       -11.1797
  26   2.0000      -0.387936       -10.5563
  27   2.0000      -0.289095        -7.8667
  28   0.0000       0.035337         0.9616
  29   0.0000       0.037586         1.0228
  30   0.0000       0.044610         1.2139
  31   0.0000       0.053027         1.4429
  32   0.0000       0.090451         2.4613

MULLIKEN ATOMIC CHARGES
-----------------------
   0 C :    1.028864
   1 C :    1.028864
   2 C :    0.655915
   3 C :    0.655915
   4 C :   -0.082152
   5 C :   -0.082152
   6 O :   -0.971474
   7 O :   -0.971474
   8 H :   -0.306981
   9 H :   -0.306981
  10 H :   -0.324173
  11 H :   -0.324173
Sum of atomic charges:    0.0000000

LOEWDIN ATOMIC CHARGES
----------------------
   0 C :    0.068224
   1 C :    0.068224
   2 C :    0.032178
   3 C :    0.032178
   4 C :   -0.191302
   5 C :   -0.191302
   6 O :    0.105836
   7 O :    0.105836
   8 H :   -0.004228
   9 H :   -0.004228
  10 H :   -0.010708
  11 H :   -0.010708

  Mayer bond orders larger than 0.100000
B(  0-C ,  1-C ) :   0.1085 B(  0-C ,  2-C ) :   1.5336 B(  0-C ,  4-C ) :   1.2055
B(  0-C ,  6-O ) :   0.1561 B(  0-C ,  8-H ) :   0.3362 B(  0-C , 10-H ) :  -0.1656
B(  1-C ,  3-C ) :   1.5336 B(  1-C ,  5-C ) :   1.2055 B(  1-C ,  7-O ) :   0.1561
B(  1-C ,  9-H ) :   0.3362 B(  1-C , 11-H ) :  -0.1656 B(  2-C ,  3-C ) :   0.1710
B(  2-C ,  4-C ) :   0.1825 B(  2-C ,  6-O ) :   0.5470 B(  2-C , 10-H ) :   0.9251
B(  3-C ,  5-C ) :   0.1825 B(  3-C ,  7-O ) :   0.5470 B(  3-C , 11-H ) :   0.9251
B(  4-C ,  5-C ) :   1.7949 B(  4-C ,  6-O ) :   0.1693 B(  4-C ,  7-O ) :   0.3297
B(  4-C ,  8-H ) :   0.4659 B(  4-C , 11-H ) :   0.1119 B(  5-C ,  6-O ) :   0.3297
B(  5-C ,  7-O ) :   0.1693 B(  5-C ,  9-H ) :   0.4659 B(  5-C , 10-H ) :   0.1119
B(  6-O , 10-H ) :  -0.1076 B(  7-O , 11-H ) :  -0.1076

MP2 TOTAL ENERGY:     -380.418093642 Eh
FINAL SINGLE POINT ENERGY      -380.418093641591

DIPOLE MOMENT
-------------
                                X             Y             Z
Electronic contribution:     -0.00000      -0.00000      -0.00000
Nuclear contribution   :      0.00000       0.00000       0.00000
                        -----------------------------------------
Total Dipole Moment    :     -0.00000      -0.00000      -0.00000
                        -----------------------------------------
Magnitude (a.u.)       :      0.00000
Magnitude (Debye)      :      0.00000

Rotational constants in cm-1:     0.180568     0.075161     0.053070
Rotational constants in MHz :  5413.284238  2253.263902  1591.010418

                             ****ORCA TERMINATED NORMALLY****
TOTAL RUN TIME: 0 days 0 hours 0 minutes 49 seconds 355 msec
