                         Program Version 5.0.3 -  RELEASE  -
|  1> !ri-mp2 aug-cc-pvdz aug-cc-pvdz/c tightscf
|  2> %pal nprocs 16 end
|  3>
|  4> * xyz 0 1
|  5> C      1.691694   -1.059638    0.022200
|  6> C      0.834706    0.103985   -0.438962
|  7> C     -0.626301   -0.051282   -0.007120
|  8> O      1.377143    1.294553    0.099907
|  9> F     -1.202071   -1.107944   -0.616961
| 10> F     -0.772758   -0.215589    1.316667
| 11> F     -1.341353    1.047142   -0.354298
| 12> H      1.723765   -1.097280    1.109737
| 13> H      2.704918   -0.923400   -0.350521
| 14> H      1.303296   -2.003475   -0.356524
| 15> H      0.809896    0.144005   -1.533728
| 16> H      0.886012    2.052862   -0.233600
| 17> *
| 18>
| 19>                          ****END OF INPUT****

CARTESIAN COORDINATES (ANGSTROEM)
---------------------------------
  C      1.691694   -1.059638    0.022200
  C      0.834706    0.103985   -0.438962
  C     -0.626301   -0.051282   -0.007120
  O      1.377143    1.294553    0.099907
  F     -1.202071   -1.107944   -0.616961
  F     -0.772758   -0.215589    1.316667
  F     -1.341353    1.047142   -0.354298
  H      1.723765   -1.097280    1.109737
  H      2.704918   -0.923400   -0.350521
  H      1.303296   -2.003475   -0.356524
  H      0.809896    0.144005   -1.533728
  H      0.886012    2.052862   -0.233600

 Total Charge           Charge          ....    0
 Multiplicity           Mult            ....    1
 Number of Electrons    NEL             ....   58
 Basis Dimension        Dim             ....  206

ORBITAL ENERGIES
----------------

  NO   OCC          E(Eh)            E(eV)
   0   2.0000     -26.355713      -717.1754
   1   2.0000     -26.355048      -717.1573
   2   2.0000     -26.352891      -717.0986
   3   2.0000     -20.597687      -560.4916
   4   2.0000     -11.515750      -313.3595
   5   2.0000     -11.330347      -308.3144
   6   2.0000     -11.244218      -305.9707
   7   2.0000      -1.734393       -47.1952
   8   2.0000      -1.641278       -44.6614
   9   2.0000      -1.639953       -44.6254
  10   2.0000      -1.398753       -38.0620
  11   2.0000      -1.079859       -29.3845
  12   2.0000      -0.977609       -26.6021
  13   2.0000      -0.884106       -24.0577
  14   2.0000      -0.826784       -22.4979
  15   2.0000      -0.823825       -22.4174
  16   2.0000      -0.789532       -21.4843
  17   2.0000      -0.733627       -19.9630
  18   2.0000      -0.713832       -19.4244
  19   2.0000      -0.700681       -19.0665
  20   2.0000      -0.667836       -18.1727
  21   2.0000      -0.664995       -18.0954
  22   2.0000      -0.651387       -17.7252
  23   2.0000      -0.634110       -17.2550
  24   2.0000      -0.600025       -16.3275
  25   2.0000      -0.560662       -15.2564
  26   2.0000      -0.552416       -15.0320
  27   2.0000      -0.521873       -14.2009
  28   2.0000      -0.481091       -13.0912
  29   0.0000       0.033679         0.9165
  30   0.0000       0.046260         1.2588
  31   0.0000       0.051660         1.4057
  32   0.0000       0.060044         1.6339
  33   0.0000       0.073379         1.9968

MULLIKEN ATOMIC CHARGES
-----------------------
   0 C :    0.393891
   1 C :    0.243245
   2 C :    2.079980
   3 O :   -0.740990
   4 F :   -0.655192
   5 F :   -0.650138
   6 F :   -0.677604
   7 H :    0.013379
   8 H :   -0.022289
   9 H :   -0.012769
  10 H :   -0.095108
  11 H :    0.123595
Sum of atomic charges:    0.0000000

LOEWDIN ATOMIC CHARGES
----------------------
   0 C :    0.182937
   1 C :   -0.228268
   2 C :   -0.336616
   3 O :    0.155152
   4 F :    0.081732
   5 F :    0.092303
   6 F :    0.074250
   7 H :   -0.005138
   8 H :   -0.005818
   9 H :   -0.006895
  10 H :    0.045006
  11 H :   -0.048644

  Mayer bond orders larger than 0.100000
B(  0-C ,  1-C ) :   1.3227 B(  0-C ,  7-H ) :   0.9012 B(  0-C ,  8-H ) :   0.8521
B(  0-C ,  9-H ) :   0.8810 B(  1-C ,  2-C ) :   1.1855 B(  1-C ,  3-O ) :   0.3493
B(  1-C ,  4-F ) :   0.1234 B(  1-C ,  6-F ) :   0.2568 B(  1-C ,  8-H ) :   0.1345
B(  1-C , 10-H ) :   0.7114 B(  2-C ,  4-F ) :   0.2364 B(  2-C ,  5-F ) :   0.2708
B(  2-C ,  6-F ) :   0.1293 B(  3-O , 11-H ) :   1.0695

MP2 TOTAL ENERGY:     -491.011756509 Eh
FINAL SINGLE POINT ENERGY      -491.011756509138

DIPOLE MOMENT
-------------
                                X             Y             Z
Electronic contribution:     -9.75372       1.45546       1.02192
Nuclear contribution   :     10.24157      -1.46483      -1.62742
                        -----------------------------------------
Total Dipole Moment    :      0.48784      -0.00937      -0.60550
                        -----------------------------------------
Magnitude (a.u.)       :      0.77763
Magnitude (Debye)      :      1.97658

Rotational constants in cm-1:     0.116768     0.079281     0.065036
Rotational constants in MHz :  3500.624039  2376.793361  1949.731357

                             ****ORCA TERMINATED NORMALLY****
TOTAL RUN TIME: 0 days 0 hours 0 minutes 33 seconds 717 msec
