                         Program Version 5.0.3 -  RELEASE  -
|  1> !ri-mp2 aug-cc-pvdz aug-cc-pvdz/c tightscf
|  2> %pal nprocs 16 end
|  3>
|  4> * xyz 0 1
|  5> C     -1.545200    0.674146   -0.126359
|  6> C     -0.105076    1.223728    0.005730
|  7> C     -1.368914   -0.846757    0.057412
|  8> C      0.732800   -0.011059    0.378649
|  9> C      2.152046   -0.027585   -0.146353
| 10> O      0.009355   -1.112893   -0.176593
| 11> H     -2.218989    1.088613    0.622495
| 12> H     -1.962003    0.904798   -1.105364
| 13> H      0.242266    1.630722   -0.944467
| 14> H     -0.020334    2.011011    0.754025
| 15> H     -1.637823   -1.149102    1.077531
| 16> H     -1.947361   -1.446214   -0.643058
| 17> H      0.744850   -0.121334    1.473448
| 18> H      2.155499    0.063414   -1.233368
| 19> H      2.721516    0.803002    0.273159
| 20> H      2.653606   -0.956606    0.123859
| 21> *
| 22>
| 23>                          ****END OF INPUT****

CARTESIAN COORDINATES (ANGSTROEM)
---------------------------------
  C     -1.545200    0.674146   -0.126359
  C     -0.105076    1.223728    0.005730
  C     -1.368914   -0.846757    0.057412
  C      0.732800   -0.011059    0.378649
  C      2.152046   -0.027585   -0.146353
  O      0.009355   -1.112893   -0.176593
  H     -2.218989    1.088613    0.622495
  H     -1.962003    0.904798   -1.105364
  H      0.242266    1.630722   -0.944467
  H     -0.020334    2.011011    0.754025
  H     -1.637823   -1.149102    1.077531
  H     -1.947361   -1.446214   -0.643058
  H      0.744850   -0.121334    1.473448
  H      2.155499    0.063414   -1.233368
  H      2.721516    0.803002    0.273159
  H      2.653606   -0.956606    0.123859

 Total Charge           Charge          ....    0
 Multiplicity           Mult            ....    1
 Number of Electrons    NEL             ....   48
 Basis Dimension        Dim             ....  228

ORBITAL ENERGIES
----------------

  NO   OCC          E(Eh)            E(eV)
   0   2.0000     -20.556035      -559.3582
   1   2.0000     -11.278774      -306.9110
   2   2.0000     -11.273733      -306.7739
   3   2.0000     -11.227675      -305.5206
   4   2.0000     -11.225903      -305.4724
   5   2.0000     -11.218115      -305.2604
   6   2.0000      -1.374645       -37.4060
   7   2.0000      -1.055876       -28.7318
   8   2.0000      -1.028634       -27.9906
   9   2.0000      -0.914843       -24.8941
  10   2.0000      -0.809826       -22.0365
  11   2.0000      -0.787654       -21.4332
  12   2.0000      -0.674224       -18.3466
  13   2.0000      -0.653068       -17.7709
  14   2.0000      -0.626884       -17.0584
  15   2.0000      -0.583917       -15.8892
  16   2.0000      -0.568983       -15.4828
  17   2.0000      -0.529316       -14.4034
  18   2.0000      -0.517465       -14.0809
  19   2.0000      -0.494377       -13.4527
  20   2.0000      -0.476920       -12.9777
  21   2.0000      -0.463187       -12.6040
  22   2.0000      -0.458449       -12.4750
  23   2.0000      -0.412591       -11.2272
  24   0.0000       0.037326         1.0157
  25   0.0000       0.045086         1.2269
  26   0.0000       0.046414         1.2630
  27   0.0000       0.050219         1.3665
  28   0.0000       0.063500         1.7279

MULLIKEN ATOMIC CHARGES
-----------------------
   0 C :    0.274791
   1 C :    0.201854
   2 C :    0.930580
   3 C :    0.331480
   4 C :    0.453002
   5 O :   -0.996942
   6 H :   -0.090322
   7 H :   -0.123200
   8 H :   -0.179206
   9 H :   -0.143237
  10 H :   -0.177988
  11 H :   -0.269634
  12 H :   -0.197875
  13 H :    0.016205
  14 H :    0.011063
  15 H :   -0.040572
Sum of atomic charges:   -0.0000000

LOEWDIN ATOMIC CHARGES
----------------------
   0 C :    0.008923
   1 C :    0.023045
   2 C :   -0.008183
   3 C :   -0.247110
   4 C :    0.164268
   5 O :    0.015126
   6 H :    0.005266
   7 H :    0.004281
   8 H :    0.010003
   9 H :    0.012273
  10 H :    0.006237
  11 H :    0.001598
  12 H :    0.036478
  13 H :   -0.009475
  14 H :   -0.010462
  15 H :   -0.012268

  Mayer bond orders larger than 0.100000
B(  0-C ,  1-C ) :   1.2851 B(  0-C ,  2-C ) :   1.1950 B(  0-C ,  6-H ) :   0.7842
B(  0-C ,  7-H ) :   0.7821 B(  1-C ,  3-C ) :   1.1989 B(  1-C ,  4-C ) :  -0.1479
B(  1-C ,  7-H ) :   0.1072 B(  1-C ,  8-H ) :   0.7568 B(  1-C ,  9-H ) :   0.7915
B(  1-C , 12-H ) :   0.1292 B(  1-C , 13-H ) :  -0.1077 B(  2-C ,  5-O ) :   0.6933
B(  2-C , 10-H ) :   0.8465 B(  2-C , 11-H ) :   0.9705 B(  3-C ,  4-C ) :   1.3872
B(  3-C ,  5-O ) :   0.2861 B(  3-C , 12-H ) :   0.6595 B(  3-C , 13-H ) :   0.1860
B(  3-C , 15-H ) :   0.1639 B(  4-C , 13-H ) :   0.8781 B(  4-C , 14-H ) :   0.8625
B(  4-C , 15-H ) :   0.8395 B(  6-H ,  7-H ) :  -0.1396 B(  8-H ,  9-H ) :  -0.1335
B( 10-H , 11-H ) :  -0.1543

MP2 TOTAL ENERGY:     -270.979549334 Eh
FINAL SINGLE POINT ENERGY      -270.979549334188

DIPOLE MOMENT
-------------
                                X             Y             Z
Electronic contribution:     -0.99390      -2.36790      -0.16517
Nuclear contribution   :      0.76545       2.94173       0.41391
                        -----------------------------------------
Total Dipole Moment    :     -0.22845       0.57383       0.24874
                        -----------------------------------------
Magnitude (a.u.)       :      0.66584
Magnitude (Debye)      :      1.69243

Rotational constants in cm-1:     0.219510     0.105478     0.078686
Rotational constants in MHz :  6580.746921  3162.162576  2358.953791

                             ****ORCA TERMINATED NORMALLY****
TOTAL RUN TIME: 0 days 0 hours 0 minutes 42 seconds 748 msec
