                         Program Version 5.0.3 -  RELEASE  -
|  1> !ri-mp2 aug-cc-pvdz aug-cc-pvdz/c tightscf
|  2> %pal nprocs 16 end
|  3>
|  4> * xyz 0 1
|  5> N     -2.017293   -0.027830   -0.195165
|  6> H     -2.820908   -0.592269    0.048212
|  7> H     -2.147266    0.872192    0.248999
|  8> C     -0.776018   -0.669821    0.249843
|  9> H     -0.672045   -0.698833    1.345476
| 10> H     -0.809076   -1.707432   -0.088935
| 11> C      1.722505   -0.804982    0.017003
| 12> H      1.877218   -0.832599    1.098733
| 13> H      1.649672   -1.835748   -0.334919
| 14> H      2.613446   -0.362479   -0.430967
| 15> C      0.606424    1.454776    0.111148
| 16> H      1.501894    1.911846   -0.313053
| 17> H     -0.244796    2.059218   -0.204351
| 18> H      0.687235    1.520067    1.200032
| 19> C      0.469897   -0.001587   -0.340529
| 20> H      0.348831   -0.009471   -1.427859
| 21> *
| 22>
| 23>                          ****END OF INPUT****

CARTESIAN COORDINATES (ANGSTROEM)
---------------------------------
  N     -2.017293   -0.027830   -0.195165
  H     -2.820908   -0.592269    0.048212
  H     -2.147266    0.872192    0.248999
  C     -0.776018   -0.669821    0.249843
  H     -0.672045   -0.698833    1.345476
  H     -0.809076   -1.707432   -0.088935
  C      1.722505   -0.804982    0.017003
  H      1.877218   -0.832599    1.098733
  H      1.649672   -1.835748   -0.334919
  H      2.613446   -0.362479   -0.430967
  C      0.606424    1.454776    0.111148
  H      1.501894    1.911846   -0.313053
  H     -0.244796    2.059218   -0.204351
  H      0.687235    1.520067    1.200032
  C      0.469897   -0.001587   -0.340529
  H      0.348831   -0.009471   -1.427859

 Total Charge           Charge          ....    0
 Multiplicity           Mult            ....    1
 Number of Electrons    NEL             ....   42
 Basis Dimension        Dim             ....  214

ORBITAL ENERGIES
----------------

  NO   OCC          E(Eh)            E(eV)
   0   2.0000     -15.544824      -422.9962
   1   2.0000     -11.248519      -306.0878
   2   2.0000     -11.224876      -305.4444
   3   2.0000     -11.215559      -305.1909
   4   2.0000     -11.215233      -305.1820
   5   2.0000      -1.177615       -32.0445
   6   2.0000      -1.063365       -28.9356
   7   2.0000      -0.929245       -25.2860
   8   2.0000      -0.894952       -24.3529
   9   2.0000      -0.764183       -20.7945
  10   2.0000      -0.667259       -18.1570
  11   2.0000      -0.633681       -17.2433
  12   2.0000      -0.594622       -16.1805
  13   2.0000      -0.579906       -15.7800
  14   2.0000      -0.552236       -15.0271
  15   2.0000      -0.533628       -14.5208
  16   2.0000      -0.516774       -14.0621
  17   2.0000      -0.468157       -12.7392
  18   2.0000      -0.463339       -12.6081
  19   2.0000      -0.458861       -12.4862
  20   2.0000      -0.384583       -10.4650
  21   0.0000       0.036524         0.9939
  22   0.0000       0.044029         1.1981
  23   0.0000       0.047479         1.2920
  24   0.0000       0.050498         1.3741
  25   0.0000       0.066989         1.8229

MULLIKEN ATOMIC CHARGES
-----------------------
   0 N :   -0.360760
   1 H :   -0.035015
   2 H :    0.028001
   3 C :    0.989254
   4 H :   -0.106672
   5 H :   -0.192655
   6 C :    0.771699
   7 H :   -0.018552
   8 H :   -0.085060
   9 H :   -0.087682
  10 C :    0.809571
  11 H :   -0.085716
  12 H :   -0.114306
  13 H :   -0.019295
  14 C :   -1.352478
  15 H :   -0.140333
Sum of atomic charges:   -0.0000000

LOEWDIN ATOMIC CHARGES
----------------------
   0 N :    0.185906
   1 H :   -0.054309
   2 H :   -0.063227
   3 C :   -0.058013
   4 H :    0.012564
   5 H :    0.011939
   6 C :    0.153045
   7 H :   -0.012782
   8 H :   -0.015942
   9 H :   -0.016173
  10 C :    0.153856
  11 H :   -0.015401
  12 H :   -0.021850
  13 H :   -0.010132
  14 C :   -0.287705
  15 H :    0.038226

  Mayer bond orders larger than 0.100000
B(  0-N ,  1-H ) :   1.0695 B(  0-N ,  2-H ) :   1.0222 B(  0-N ,  3-C ) :   0.9018
B(  3-C ,  4-H ) :   0.8353 B(  3-C ,  5-H ) :   0.7500 B(  3-C ,  6-C ) :  -0.1334
B(  3-C , 10-C ) :  -0.1039 B(  3-C , 14-C ) :   1.3007 B(  4-H ,  5-H ) :  -0.1166
B(  4-H , 14-C ) :   0.1403 B(  5-H , 14-C ) :   0.1376 B(  6-C ,  7-H ) :   0.9073
B(  6-C ,  8-H ) :   0.8276 B(  6-C ,  9-H ) :   0.8099 B(  6-C , 10-C ) :  -0.1444
B(  6-C , 14-C ) :   1.3761 B(  7-H , 14-C ) :   0.1136 B(  8-H , 14-C ) :   0.1150
B(  9-H , 14-C ) :   0.1536 B( 10-C , 11-H ) :   0.8165 B( 10-C , 12-H ) :   0.8454
B( 10-C , 13-H ) :   0.8861 B( 10-C , 14-C ) :   1.3082 B( 11-H , 14-C ) :   0.1208
B( 12-H , 14-C ) :   0.1034 B( 13-H , 14-C ) :   0.1333 B( 14-C , 15-H ) :   0.7006

MP2 TOTAL ENERGY:     -213.141095105 Eh
FINAL SINGLE POINT ENERGY      -213.141095104718

DIPOLE MOMENT
-------------
                                X             Y             Z
Electronic contribution:     -2.16671      -0.41593      -0.78588
Nuclear contribution   :      2.12716       0.34978       1.22971
                        -----------------------------------------
Total Dipole Moment    :     -0.03955      -0.06614       0.44383
                        -----------------------------------------
Magnitude (a.u.)       :      0.45047
Magnitude (Debye)      :      1.14500

Rotational constants in cm-1:     0.249641     0.114944     0.086688
Rotational constants in MHz :  7484.047145  3445.930340  2598.833597

                             ****ORCA TERMINATED NORMALLY****
TOTAL RUN TIME: 0 days 0 hours 0 minutes 34 seconds 690 msec
