                         Program Version 5.0.3 -  RELEASE  -
|  1> !ri-mp2 aug-cc-pvdz aug-cc-pvdz/c tightscf
|  2> %pal nprocs 16 end
|  3>
|  4> * xyz 0 1
|  5> C      0.000000    0.000000    0.603507
|  6> C      0.000000    0.000000   -0.603507
|  7> C      0.000000    0.000000    1.966164
|  8> C      0.000000    0.000000   -1.966164
|  9> N      0.000000    0.000000    3.122257
| 10> N      0.000000    0.000000   -3.122257
| 11> *
| 12>
| 13>                          ****END OF INPUT****

CARTESIAN COORDINATES (ANGSTROEM)
---------------------------------
  C      0.000000    0.000000    0.603507
  C      0.000000    0.000000   -0.603507
  C      0.000000    0.000000    1.966164
  C      0.000000    0.000000   -1.966164
  N      0.000000    0.000000    3.122257
  N      0.000000    0.000000   -3.122257

 Total Charge           Charge          ....    0
 Multiplicity           Mult            ....    1
 Number of Electrons    NEL             ....   38
 Basis Dimension        Dim             ....  138

ORBITAL ENERGIES
----------------

  NO   OCC          E(Eh)            E(eV)
   0   2.0000     -15.650903      -425.8827
   1   2.0000     -15.650903      -425.8827
   2   2.0000     -11.361148      -309.1526
   3   2.0000     -11.357546      -309.0545
   4   2.0000     -11.349055      -308.8235
   5   2.0000     -11.349045      -308.8232
   6   2.0000      -1.284604       -34.9559
   7   2.0000      -1.281491       -34.8711
   8   2.0000      -1.151982       -31.3470
   9   2.0000      -0.991953       -26.9924
  10   2.0000      -0.885666       -24.1002
  11   2.0000      -0.619513       -16.8578
  12   2.0000      -0.617501       -16.8031
  13   2.0000      -0.600996       -16.3539
  14   2.0000      -0.600996       -16.3539
  15   2.0000      -0.546450       -14.8697
  16   2.0000      -0.546450       -14.8697
  17   2.0000      -0.442456       -12.0398
  18   2.0000      -0.442456       -12.0398
  19   0.0000       0.015631         0.4253
  20   0.0000       0.015631         0.4253
  21   0.0000       0.046057         1.2533
  22   0.0000       0.060128         1.6362
  23   0.0000       0.083382         2.2690

MULLIKEN ATOMIC CHARGES
-----------------------
   0 C :    1.184636
   1 C :    1.184636
   2 C :   -0.860085
   3 C :   -0.860085
   4 N :   -0.324551
   5 N :   -0.324551
Sum of atomic charges:    0.0000000

LOEWDIN ATOMIC CHARGES
----------------------
   0 C :    0.025670
   1 C :    0.025670
   2 C :   -0.160672
   3 C :   -0.160672
   4 N :    0.135002
   5 N :    0.135002

  Mayer bond orders larger than 0.100000
B(  0-C ,  1-C ) :   2.6275 B(  0-C ,  2-C ) :   0.3348 B(  0-C ,  3-C ) :  -0.5861
B(  0-C ,  4-N ) :  -0.6550 B(  0-C ,  5-N ) :   0.3251 B(  1-C ,  2-C ) :  -0.5861
B(  1-C ,  3-C ) :   0.3348 B(  1-C ,  4-N ) :   0.3251 B(  1-C ,  5-N ) :  -0.6550
B(  2-C ,  3-C ) :   0.3157 B(  2-C ,  4-N ) :   3.0806 B(  3-C ,  5-N ) :   3.0806

MP2 TOTAL ENERGY:     -261.121100060 Eh
FINAL SINGLE POINT ENERGY      -261.121100059550

DIPOLE MOMENT
-------------
                                X             Y             Z
Electronic contribution:     -0.00000      -0.00000       0.00000
Nuclear contribution   :      0.00000       0.00000       0.00000
                        -----------------------------------------
Total Dipole Moment    :     -0.00000      -0.00000       0.00000
                        -----------------------------------------
Magnitude (a.u.)       :      0.00000
Magnitude (Debye)      :      0.00000

Rotational constants in cm-1:     0.000000     0.044989     0.044989
Rotational constants in MHz :     0.000000  1348.729749  1348.729749

                             ****ORCA TERMINATED NORMALLY****
TOTAL RUN TIME: 0 days 0 hours 0 minutes 27 seconds 783 msec
