                         Program Version 5.0.3 -  RELEASE  -
|  1> !ri-mp2 aug-cc-pvdz aug-cc-pvdz/c tightscf
|  2> %pal nprocs 16 end
|  3>
|  4> * xyz 0 1
|  5> O      1.200695   -1.750566    0.240229
|  6> N      2.095132    0.298369   -0.157996
|  7> N     -2.390612   -1.479398   -0.111412
|  8> N     -0.628948    2.555406   -0.003648
|  9> C     -0.321090    0.047446   -0.017924
| 10> C      1.054680   -0.568996    0.024318
| 11> C     -1.457343   -0.805306   -0.066056
| 12> C     -0.506482    1.358873    0.056891
| 13> H      1.962629    1.187336   -0.607887
| 14> H      3.009679   -0.117160   -0.220990
| 15> H     -0.725463    3.121623    0.835062
| 16> *
| 17>
| 18>                          ****END OF INPUT****

CARTESIAN COORDINATES (ANGSTROEM)
---------------------------------
  O      1.200695   -1.750566    0.240229
  N      2.095132    0.298369   -0.157996
  N     -2.390612   -1.479398   -0.111412
  N     -0.628948    2.555406   -0.003648
  C     -0.321090    0.047446   -0.017924
  C      1.054680   -0.568996    0.024318
  C     -1.457343   -0.805306   -0.066056
  C     -0.506482    1.358873    0.056891
  H      1.962629    1.187336   -0.607887
  H      3.009679   -0.117160   -0.220990
  H     -0.725463    3.121623    0.835062

 Total Charge           Charge          ....    0
 Multiplicity           Mult            ....    1
 Number of Electrons    NEL             ....   56
 Basis Dimension        Dim             ....  211

ORBITAL ENERGIES
----------------

  NO   OCC          E(Eh)            E(eV)
   0   2.0000     -20.559878      -559.4627
   1   2.0000     -15.663908      -426.2366
   2   2.0000     -15.618296      -424.9954
   3   2.0000     -15.588638      -424.1884
   4   2.0000     -11.404517      -310.3327
   5   2.0000     -11.403595      -310.3076
   6   2.0000     -11.318698      -307.9974
   7   2.0000     -11.296956      -307.4058
   8   2.0000      -1.421282       -38.6751
   9   2.0000      -1.326241       -36.0888
  10   2.0000      -1.245109       -33.8811
  11   2.0000      -1.233149       -33.5557
  12   2.0000      -1.119373       -30.4597
  13   2.0000      -0.880767       -23.9669
  14   2.0000      -0.852974       -23.2106
  15   2.0000      -0.794418       -21.6172
  16   2.0000      -0.773488       -21.0477
  17   2.0000      -0.696060       -18.9408
  18   2.0000      -0.640750       -17.4357
  19   2.0000      -0.636807       -17.3284
  20   2.0000      -0.596575       -16.2336
  21   2.0000      -0.570326       -15.5194
  22   2.0000      -0.551930       -15.0188
  23   2.0000      -0.514739       -14.0068
  24   2.0000      -0.477561       -12.9951
  25   2.0000      -0.461678       -12.5629
  26   2.0000      -0.442683       -12.0460
  27   2.0000      -0.388074       -10.5600
  28   0.0000       0.015219         0.4141
  29   0.0000       0.030976         0.8429
  30   0.0000       0.054898         1.4939
  31   0.0000       0.070705         1.9240
  32   0.0000       0.074869         2.0373

MULLIKEN ATOMIC CHARGES
-----------------------
   0 O :   -0.763994
   1 N :   -0.264430
   2 N :   -0.306315
   3 N :   -0.246729
   4 C :    1.971646
   5 C :    0.714617
   6 C :   -0.719354
   7 C :   -0.519005
   8 H :   -0.022386
   9 H :    0.035356
  10 H :    0.120594
Sum of atomic charges:   -0.0000000

LOEWDIN ATOMIC CHARGES
----------------------
   0 O :    0.052888
   1 N :    0.281501
   2 N :    0.101519
   3 N :    0.260375
   4 C :   -0.152477
   5 C :   -0.351471
   6 C :   -0.138151
   7 C :   -0.009917
   8 H :   -0.021792
   9 H :   -0.000958
  10 H :   -0.021518

  Mayer bond orders larger than 0.100000
B(  0-O ,  5-C ) :   1.3879 B(  1-N ,  5-C ) :   0.8852 B(  1-N ,  8-H ) :   1.1142
B(  1-N ,  9-H ) :   1.0452 B(  2-N ,  4-C ) :  -0.1550 B(  2-N ,  6-C ) :   2.6055
B(  3-N ,  4-C ) :  -0.1094 B(  3-N ,  7-C ) :   2.2691 B(  3-N , 10-H ) :   0.9130
B(  4-C ,  5-C ) :   0.4976 B(  4-C ,  7-C ) :   0.6597 B(  5-C ,  6-C ) :  -0.1128
B(  5-C ,  7-C ) :  -0.1468 B(  5-C ,  8-H ) :  -0.1290

MP2 TOTAL ENERGY:     -392.653792542 Eh
FINAL SINGLE POINT ENERGY      -392.653792541765

DIPOLE MOMENT
-------------
                                X             Y             Z
Electronic contribution:     -2.80174      -1.27875       0.15689
Nuclear contribution   :      4.10741       4.02250       0.00807
                        -----------------------------------------
Total Dipole Moment    :      1.30567       2.74375       0.16496
                        -----------------------------------------
Magnitude (a.u.)       :      3.04305
Magnitude (Debye)      :      7.73482

Rotational constants in cm-1:     0.076616     0.073496     0.037956
Rotational constants in MHz :  2296.888972  2203.347533  1137.894052

                             ****ORCA TERMINATED NORMALLY****
TOTAL RUN TIME: 0 days 0 hours 0 minutes 41 seconds 869 msec
