                         Program Version 5.0.3 -  RELEASE  -
|  1> !ri-mp2 aug-cc-pvdz aug-cc-pvdz/c tightscf
|  2> %pal nprocs 16 end
|  3>
|  4> * xyz 0 1
|  5> C     0.000000    0.000000   -3.930784
|  6> C     0.000000    0.000000   -2.731540
|  7> C     0.000000    0.000000    2.793427
|  8> C     0.000000    1.188249    0.632112
|  9> C     0.000000   -1.188249    0.632112
| 10> C     0.000000    0.000000   -1.302335
| 11> C     0.000000    0.000000    1.369921
| 12> N     0.000000    0.000000    3.945700
| 13> N     0.000000    1.194481   -0.690626
| 14> N     0.000000   -1.194481   -0.690626
| 15> H     0.000000    0.000000   -4.992828
| 16> H     0.000000    2.149383    1.132106
| 17> H     0.000000   -2.149383    1.132106
| 18> *
| 19>
| 20>                          ****END OF INPUT****

CARTESIAN COORDINATES (ANGSTROEM)
---------------------------------
  C      0.000000    0.000000   -3.930784
  C      0.000000    0.000000   -2.731540
  C      0.000000    0.000000    2.793427
  C      0.000000    1.188249    0.632112
  C      0.000000   -1.188249    0.632112
  C      0.000000    0.000000   -1.302335
  C      0.000000    0.000000    1.369921
  N      0.000000    0.000000    3.945700
  N      0.000000    1.194481   -0.690626
  N      0.000000   -1.194481   -0.690626
  H      0.000000    0.000000   -4.992828
  H      0.000000    2.149383    1.132106
  H      0.000000   -2.149383    1.132106

 Total Charge           Charge          ....    0
 Multiplicity           Mult            ....    1
 Number of Electrons    NEL             ....   66
 Basis Dimension        Dim             ....  257

ORBITAL ENERGIES
----------------

  NO   OCC          E(Eh)            E(eV)
   0   2.0000     -15.618274      -424.9948
   1   2.0000     -15.618245      -424.9941
   2   2.0000     -15.604947      -424.6322
   3   2.0000     -11.385088      -309.8040
   4   2.0000     -11.348105      -308.7976
   5   2.0000     -11.348088      -308.7972
   6   2.0000     -11.315383      -307.9072
   7   2.0000     -11.306307      -307.6603
   8   2.0000     -11.275133      -306.8120
   9   2.0000     -11.268916      -306.6428
  10   2.0000      -1.362291       -37.0698
  11   2.0000      -1.248917       -33.9848
  12   2.0000      -1.241674       -33.7877
  13   2.0000      -1.144932       -31.1552
  14   2.0000      -1.066037       -29.0083
  15   2.0000      -0.965759       -26.2796
  16   2.0000      -0.941756       -25.6265
  17   2.0000      -0.811569       -22.0839
  18   2.0000      -0.796638       -21.6776
  19   2.0000      -0.758416       -20.6376
  20   2.0000      -0.731402       -19.9025
  21   2.0000      -0.647300       -17.6139
  22   2.0000      -0.637961       -17.3598
  23   2.0000      -0.629484       -17.1291
  24   2.0000      -0.582697       -15.8560
  25   2.0000      -0.532759       -14.4971
  26   2.0000      -0.525966       -14.3123
  27   2.0000      -0.499924       -13.6036
  28   2.0000      -0.461744       -12.5647
  29   2.0000      -0.453577       -12.3424
  30   2.0000      -0.444262       -12.0890
  31   2.0000      -0.428816       -11.6687
  32   2.0000      -0.375334       -10.2133
  33   0.0000       0.026770         0.7285
  34   0.0000       0.030060         0.8180
  35   0.0000       0.035638         0.9698
  36   0.0000       0.041961         1.1418
  37   0.0000       0.054973         1.4959

MULLIKEN ATOMIC CHARGES
-----------------------
   0 C :    1.092546
   1 C :    0.039013
   2 C :   -0.817576
   3 C :    0.744813
   4 C :    0.744813
   5 C :   -0.278224
   6 C :    1.400724
   7 N :   -0.240125
   8 N :   -0.725133
   9 N :   -0.725133
  10 H :   -0.544362
  11 H :   -0.345677
  12 H :   -0.345677
Sum of atomic charges:   -0.0000000

LOEWDIN ATOMIC CHARGES
----------------------
   0 C :    0.260070
   1 C :   -0.023666
   2 C :   -0.126163
   3 C :    0.057888
   4 C :    0.057888
   5 C :   -0.292168
   6 C :   -0.186417
   7 N :    0.099164
   8 N :    0.092192
   9 N :    0.092192
  10 H :   -0.088927
  11 H :    0.028974
  12 H :    0.028974

  Mayer bond orders larger than 0.100000
B(  0-C ,  1-C ) :   2.5266 B(  0-C ,  5-C ) :   0.2254 B(  0-C ,  6-C ) :   0.1424
B(  0-C , 10-H ) :  -0.4237 B(  1-C ,  2-C ) :   0.1051 B(  1-C ,  5-C ) :   1.6943
B(  1-C ,  6-C ) :  -0.1796 B(  1-C , 10-H ) :   0.7170 B(  2-C ,  3-C ) :  -0.1852
B(  2-C ,  4-C ) :  -0.1852 B(  2-C ,  7-N ) :   2.5443 B(  3-C ,  4-C ) :  -0.1545
B(  3-C ,  5-C ) :  -0.1707 B(  3-C ,  6-C ) :   1.1027 B(  3-C ,  8-N ) :   1.1247
B(  3-C , 11-H ) :   0.8955 B(  4-C ,  5-C ) :  -0.1707 B(  4-C ,  6-C ) :   1.1027
B(  4-C ,  9-N ) :   1.1247 B(  4-C , 12-H ) :   0.8955 B(  5-C ,  6-C ) :   0.1419
B(  5-C ,  8-N ) :   1.5061 B(  5-C ,  9-N ) :   1.5061 B(  5-C , 10-H ) :   0.1716

MP2 TOTAL ENERGY:     -431.527635403 Eh
FINAL SINGLE POINT ENERGY      -431.527635403182

DIPOLE MOMENT
-------------
                                X             Y             Z
Electronic contribution:     -0.00000       0.00000       1.48787
Nuclear contribution   :      0.00000       0.00000      -2.60493
                        -----------------------------------------
Total Dipole Moment    :     -0.00000       0.00000      -1.11706
                        -----------------------------------------
Magnitude (a.u.)       :      1.11706
Magnitude (Debye)      :      2.83934

Rotational constants in cm-1:     0.202613     0.024772     0.022073
Rotational constants in MHz :  6074.193583   742.635520   661.731700

                             ****ORCA TERMINATED NORMALLY****
TOTAL RUN TIME: 0 days 0 hours 0 minutes 58 seconds 485 msec
