                         Program Version 5.0.3 -  RELEASE  -
|  1> !ri-mp2 aug-cc-pvdz aug-cc-pvdz/c tightscf
|  2> %pal nprocs 16 end
|  3>
|  4> * xyz 0 1
|  5> C      1.137455    0.146005   -0.002101
|  6> C      2.339985   -0.775148    0.003438
|  7> C     -2.754057   -0.294448   -0.000481
|  8> C     -0.225440   -0.525525   -0.005704
|  9> C     -1.410723    0.432588    0.006368
| 10> O      1.262714    1.350118   -0.002835
| 11> H      2.311679   -1.443961   -0.859263
| 12> H      2.326989   -1.406936    0.894211
| 13> H      3.256222   -0.191143   -0.015540
| 14> H     -2.862511   -0.940914    0.873136
| 15> H     -2.864356   -0.920583   -0.888559
| 16> H     -3.583566    0.413374    0.008555
| 17> H     -0.263760   -1.203516    0.854803
| 18> H     -0.266645   -1.183799   -0.881400
| 19> H     -1.338759    1.077971    0.883375
| 20> H     -1.340329    1.097732   -0.855756
| 21> *
| 22>
| 23>                          ****END OF INPUT****

CARTESIAN COORDINATES (ANGSTROEM)
---------------------------------
  C      1.137455    0.146005   -0.002101
  C      2.339985   -0.775148    0.003438
  C     -2.754057   -0.294448   -0.000481
  C     -0.225440   -0.525525   -0.005704
  C     -1.410723    0.432588    0.006368
  O      1.262714    1.350118   -0.002835
  H      2.311679   -1.443961   -0.859263
  H      2.326989   -1.406936    0.894211
  H      3.256222   -0.191143   -0.015540
  H     -2.862511   -0.940914    0.873136
  H     -2.864356   -0.920583   -0.888559
  H     -3.583566    0.413374    0.008555
  H     -0.263760   -1.203516    0.854803
  H     -0.266645   -1.183799   -0.881400
  H     -1.338759    1.077971    0.883375
  H     -1.340329    1.097732   -0.855756

 Total Charge           Charge          ....    0
 Multiplicity           Mult            ....    1
 Number of Electrons    NEL             ....   48
 Basis Dimension        Dim             ....  228

ORBITAL ENERGIES
----------------

  NO   OCC          E(Eh)            E(eV)
   0   2.0000     -20.553887      -559.2997
   1   2.0000     -11.336123      -308.4716
   2   2.0000     -11.242088      -305.9128
   3   2.0000     -11.240094      -305.8585
   4   2.0000     -11.227450      -305.5144
   5   2.0000     -11.223043      -305.3945
   6   2.0000      -1.390735       -37.8438
   7   2.0000      -1.079234       -29.3675
   8   2.0000      -1.017896       -27.6984
   9   2.0000      -0.947686       -25.7878
  10   2.0000      -0.824782       -22.4435
  11   2.0000      -0.735230       -20.0066
  12   2.0000      -0.653662       -17.7870
  13   2.0000      -0.648819       -17.6553
  14   2.0000      -0.625624       -17.0241
  15   2.0000      -0.596402       -16.2289
  16   2.0000      -0.566487       -15.4149
  17   2.0000      -0.558856       -15.2073
  18   2.0000      -0.544047       -14.8043
  19   2.0000      -0.501552       -13.6479
  20   2.0000      -0.489152       -13.3105
  21   2.0000      -0.484021       -13.1709
  22   2.0000      -0.474512       -12.9121
  23   2.0000      -0.407064       -11.0768
  24   0.0000       0.032043         0.8719
  25   0.0000       0.040967         1.1148
  26   0.0000       0.045341         1.2338
  27   0.0000       0.051031         1.3886
  28   0.0000       0.062737         1.7071

MULLIKEN ATOMIC CHARGES
-----------------------
   0 C :    0.141588
   1 C :    0.439324
   2 C :    0.512110
   3 C :   -0.004738
   4 C :    0.346330
   5 O :   -0.802335
   6 H :    0.034305
   7 H :    0.039479
   8 H :   -0.083002
   9 H :   -0.088901
  10 H :   -0.088436
  11 H :   -0.059540
  12 H :   -0.047119
  13 H :   -0.043344
  14 H :   -0.149076
  15 H :   -0.146647
Sum of atomic charges:    0.0000000

LOEWDIN ATOMIC CHARGES
----------------------
   0 C :   -0.303053
   1 C :    0.195180
   2 C :    0.133035
   3 C :    0.002182
   4 C :   -0.064138
   5 O :    0.046232
   6 H :   -0.009588
   7 H :   -0.009086
   8 H :   -0.009664
   9 H :   -0.020648
  10 H :   -0.020621
  11 H :   -0.020099
  12 H :    0.024346
  13 H :    0.024492
  14 H :    0.015796
  15 H :    0.015633

  Mayer bond orders larger than 0.100000
B(  0-C ,  1-C ) :   1.0473 B(  0-C ,  3-C ) :   1.1000 B(  0-C ,  5-O ) :   1.4121
B(  0-C ,  8-H ) :   0.1700 B(  1-C ,  6-H ) :   0.9324 B(  1-C ,  7-H ) :   0.9309
B(  1-C ,  8-H ) :   0.8168 B(  2-C ,  3-C ) :  -0.1010 B(  2-C ,  4-C ) :   1.1880
B(  2-C ,  9-H ) :   0.9336 B(  2-C , 10-H ) :   0.9353 B(  2-C , 11-H ) :   0.9045
B(  3-C ,  4-C ) :   1.1635 B(  3-C , 12-H ) :   0.8854 B(  3-C , 13-H ) :   0.8943
B(  4-C , 14-H ) :   0.7922 B(  4-C , 15-H ) :   0.7909

MP2 TOTAL ENERGY:     -270.990204161 Eh
FINAL SINGLE POINT ENERGY      -270.990204160967

DIPOLE MOMENT
-------------
                                X             Y             Z
Electronic contribution:      4.63990       3.67278      -0.01245
Nuclear contribution   :     -4.81971      -4.89858       0.01415
                        -----------------------------------------
Total Dipole Moment    :     -0.17981      -1.22581       0.00170
                        -----------------------------------------
Magnitude (a.u.)       :      1.23892
Magnitude (Debye)      :      3.14910

Rotational constants in cm-1:     0.279405     0.059516     0.050890
Rotational constants in MHz :  8376.352900  1784.256052  1525.641906

                             ****ORCA TERMINATED NORMALLY****
TOTAL RUN TIME: 0 days 0 hours 0 minutes 37 seconds 647 msec
