                         Program Version 5.0.3 -  RELEASE  -
|  1> !ri-mp2 aug-cc-pvdz aug-cc-pvdz/c tightscf
|  2> %pal nprocs 16 end
|  3>
|  4> * xyz 0 1
|  5> S    -0.692409   -1.055906    0.000000
|  6> C    -0.026867    0.686541    0.000000
|  7> C    -1.284091    1.562967    0.000000
|  8> C     0.800267   -2.097232    0.000000
|  9> H     0.440552   -3.124595    0.000000
| 10> H    -0.998307    2.616921    0.000000
| 11> C     0.800267    0.953171    1.259728
| 12> C     0.800267    0.953171   -1.259728
| 13> H     1.404795   -1.943574    0.891889
| 14> H     1.404795   -1.943574   -0.891889
| 15> H     0.214552    0.768111   -2.159589
| 16> H     0.214552    0.768111    2.159589
| 17> H     1.131617    1.995073    1.274003
| 18> H     1.131617    1.995073   -1.274003
| 19> H     1.692762    0.328379    1.299095
| 20> H     1.692762    0.328379   -1.299095
| 21> H    -1.895101    1.377247   -0.883681
| 22> H    -1.895101    1.377247    0.883681
| 23> *
| 24>
| 25>                          ****END OF INPUT****

CARTESIAN COORDINATES (ANGSTROEM)
---------------------------------
  S     -0.692409   -1.055906    0.000000
  C     -0.026867    0.686541    0.000000
  C     -1.284091    1.562967    0.000000
  C      0.800267   -2.097232    0.000000
  H      0.440552   -3.124595    0.000000
  H     -0.998307    2.616921    0.000000
  C      0.800267    0.953171    1.259728
  C      0.800267    0.953171   -1.259728
  H      1.404795   -1.943574    0.891889
  H      1.404795   -1.943574   -0.891889
  H      0.214552    0.768111   -2.159589
  H      0.214552    0.768111    2.159589
  H      1.131617    1.995073    1.274003
  H      1.131617    1.995073   -1.274003
  H      1.692762    0.328379    1.299095
  H      1.692762    0.328379   -1.299095
  H     -1.895101    1.377247   -0.883681
  H     -1.895101    1.377247    0.883681

 Total Charge           Charge          ....    0
 Multiplicity           Mult            ....    1
 Number of Electrons    NEL             ....   58
 Basis Dimension        Dim             ....  250

ORBITAL ENERGIES
----------------

  NO   OCC          E(Eh)            E(eV)
   0   2.0000     -91.936707     -2501.7250
   1   2.0000     -11.274457      -306.7936
   2   2.0000     -11.253806      -306.2316
   3   2.0000     -11.225233      -305.4541
   4   2.0000     -11.225216      -305.4537
   5   2.0000     -11.225109      -305.4507
   6   2.0000      -8.938081      -243.2176
   7   2.0000      -6.620116      -180.1425
   8   2.0000      -6.618543      -180.0997
   9   2.0000      -6.616720      -180.0501
  10   2.0000      -1.114678       -30.3319
  11   2.0000      -1.008582       -27.4449
  12   2.0000      -0.941445       -25.6180
  13   2.0000      -0.941400       -25.6168
  14   2.0000      -0.857587       -23.3361
  15   2.0000      -0.726824       -19.7779
  16   2.0000      -0.626567       -17.0498
  17   2.0000      -0.607945       -16.5430
  18   2.0000      -0.607851       -16.5405
  19   2.0000      -0.587966       -15.9994
  20   2.0000      -0.564835       -15.3700
  21   2.0000      -0.547884       -14.9087
  22   2.0000      -0.538759       -14.6604
  23   2.0000      -0.519092       -14.1252
  24   2.0000      -0.489289       -13.3142
  25   2.0000      -0.479456       -13.0467
  26   2.0000      -0.455122       -12.3845
  27   2.0000      -0.406429       -11.0595
  28   2.0000      -0.331830        -9.0296
  29   0.0000       0.035916         0.9773
  30   0.0000       0.043243         1.1767
  31   0.0000       0.048954         1.3321
  32   0.0000       0.049377         1.3436
  33   0.0000       0.062951         1.7130

MULLIKEN ATOMIC CHARGES
-----------------------
   0 S :    0.271802
   1 C :   -2.562825
   2 C :    1.187424
   3 C :    0.099688
   4 H :   -0.116534
   5 H :   -0.021410
   6 C :    0.945183
   7 C :    0.945183
   8 H :   -0.075862
   9 H :   -0.075862
  10 H :   -0.055638
  11 H :   -0.055638
  12 H :   -0.028068
  13 H :   -0.028068
  14 H :   -0.154533
  15 H :   -0.154533
  16 H :   -0.060156
  17 H :   -0.060156
Sum of atomic charges:   -0.0000000

LOEWDIN ATOMIC CHARGES
----------------------
   0 S :    0.864498
   1 C :   -0.725598
   2 C :    0.103677
   3 C :   -0.133129
   4 H :   -0.070706
   5 H :   -0.009202
   6 C :    0.117353
   7 C :    0.117353
   8 H :   -0.072481
   9 H :   -0.072481
  10 H :   -0.011000
  11 H :   -0.011000
  12 H :   -0.008207
  13 H :   -0.008207
  14 H :   -0.024822
  15 H :   -0.024822
  16 H :   -0.015613
  17 H :   -0.015613

  Mayer bond orders larger than 0.100000
B(  0-S ,  1-C ) :   0.4773 B(  0-S ,  2-C ) :  -0.1102 B(  0-S ,  3-C ) :   1.0334
B(  0-S ,  6-C ) :   0.1580 B(  0-S ,  7-C ) :   0.1580 B(  1-C ,  2-C ) :   1.4673
B(  1-C ,  5-H ) :   0.1449 B(  1-C ,  6-C ) :   1.5666 B(  1-C ,  7-C ) :   1.5666
B(  1-C , 10-H ) :   0.1655 B(  1-C , 11-H ) :   0.1655 B(  1-C , 12-H ) :   0.2095
B(  1-C , 13-H ) :   0.2095 B(  1-C , 14-H ) :   0.1558 B(  1-C , 15-H ) :   0.1558
B(  1-C , 16-H ) :   0.1954 B(  1-C , 17-H ) :   0.1954 B(  2-C ,  5-H ) :   0.7903
B(  2-C ,  6-C ) :  -0.1483 B(  2-C ,  7-C ) :  -0.1483 B(  2-C , 16-H ) :   0.7554
B(  2-C , 17-H ) :   0.7554 B(  3-C ,  4-H ) :   0.9668 B(  3-C ,  8-H ) :   0.9901
B(  3-C ,  9-H ) :   0.9901 B(  5-H , 16-H ) :  -0.1048 B(  5-H , 17-H ) :  -0.1048
B(  6-C , 11-H ) :   0.7919 B(  6-C , 12-H ) :   0.7695 B(  6-C , 14-H ) :   0.8085
B(  7-C , 10-H ) :   0.7919 B(  7-C , 13-H ) :   0.7695 B(  7-C , 15-H ) :   0.8085
B( 10-H , 13-H ) :  -0.1097 B( 10-H , 15-H ) :  -0.1126 B( 11-H , 12-H ) :  -0.1097
B( 11-H , 14-H ) :  -0.1126 B( 16-H , 17-H ) :  -0.1056

MP2 TOTAL ENERGY:     -594.791362308 Eh
FINAL SINGLE POINT ENERGY      -594.791362308250

DIPOLE MOMENT
-------------
                                X             Y             Z
Electronic contribution:     -4.11721      -4.47783      -0.00000
Nuclear contribution   :      4.76731       4.78249       0.00000
                        -----------------------------------------
Total Dipole Moment    :      0.65010       0.30466      -0.00000
                        -----------------------------------------
Magnitude (a.u.)       :      0.71795
Magnitude (Debye)      :      1.82489

Rotational constants in cm-1:     0.124865     0.069805     0.064403
Rotational constants in MHz :  3743.361107  2092.710337  1930.763902

                             ****ORCA TERMINATED NORMALLY****
TOTAL RUN TIME: 0 days 0 hours 0 minutes 46 seconds 667 msec
