                         Program Version 5.0.3 -  RELEASE  -
|  1> !ri-mp2 aug-cc-pvdz aug-cc-pvdz/c tightscf
|  2> %pal nprocs 16 end
|  3>
|  4> * xyz 0 1
|  5> C     0.000000    0.000000     0.352403
|  6> Cl    1.474178    0.000000    -0.722182
|  7> Cl   -1.474178    0.000000    -0.722182
|  8> C     0.000000    1.271429     1.177208
|  9> C     0.000000   -1.271429     1.177208
| 10> H     0.000000    2.149972     0.537521
| 11> H     0.000000   -2.149972     0.537521
| 12> H    -0.887342    1.294212     1.809560
| 13> H     0.887342    1.294212     1.809560
| 14> H     0.887342   -1.294212     1.809560
| 15> H    -0.887342   -1.294212     1.809560
| 16> *
| 17>
| 18>                          ****END OF INPUT****

CARTESIAN COORDINATES (ANGSTROEM)
---------------------------------
  C      0.000000    0.000000    0.352403
  Cl     1.474178    0.000000   -0.722182
  Cl    -1.474178    0.000000   -0.722182
  C      0.000000    1.271429    1.177208
  C      0.000000   -1.271429    1.177208
  H      0.000000    2.149972    0.537521
  H      0.000000   -2.149972    0.537521
  H     -0.887342    1.294212    1.809560
  H      0.887342    1.294212    1.809560
  H      0.887342   -1.294212    1.809560
  H     -0.887342   -1.294212    1.809560

 Total Charge           Charge          ....    0
 Multiplicity           Mult            ....    1
 Number of Electrons    NEL             ....   58
 Basis Dimension        Dim             ....  177

ORBITAL ENERGIES
----------------

  NO   OCC          E(Eh)            E(eV)
   0   2.0000    -104.834481     -2852.6912
   1   2.0000    -104.834480     -2852.6912
   2   2.0000     -11.383921      -309.7722
   3   2.0000     -11.254714      -306.2563
   4   2.0000     -11.254696      -306.2558
   5   2.0000     -10.560583      -287.3681
   6   2.0000     -10.560571      -287.3678
   7   2.0000      -8.028114      -218.4561
   8   2.0000      -8.028112      -218.4560
   9   2.0000      -8.024934      -218.3696
  10   2.0000      -8.024933      -218.3695
  11   2.0000      -8.024913      -218.3690
  12   2.0000      -8.024912      -218.3690
  13   2.0000      -1.198521       -32.6134
  14   2.0000      -1.082378       -29.4530
  15   2.0000      -1.024464       -27.8771
  16   2.0000      -0.977829       -26.6081
  17   2.0000      -0.778503       -21.1842
  18   2.0000      -0.646986       -17.6054
  19   2.0000      -0.639816       -17.4103
  20   2.0000      -0.624589       -16.9959
  21   2.0000      -0.577355       -15.7106
  22   2.0000      -0.540048       -14.6955
  23   2.0000      -0.536473       -14.5982
  24   2.0000      -0.511930       -13.9303
  25   2.0000      -0.462867       -12.5952
  26   2.0000      -0.454960       -12.3801
  27   2.0000      -0.442274       -12.0349
  28   2.0000      -0.432394       -11.7660
  29   0.0000       0.034289         0.9331
  30   0.0000       0.047828         1.3015
  31   0.0000       0.054103         1.4722
  32   0.0000       0.060173         1.6374
  33   0.0000       0.072875         1.9830

MULLIKEN ATOMIC CHARGES
-----------------------
   0 C :   -1.695010
   1 Cl:   -0.123420
   2 Cl:   -0.123420
   3 C :    0.963588
   4 C :    0.963588
   5 H :   -0.018122
   6 H :   -0.018122
   7 H :    0.012730
   8 H :    0.012730
   9 H :    0.012730
  10 H :    0.012730
Sum of atomic charges:    0.0000000

LOEWDIN ATOMIC CHARGES
----------------------
   0 C :   -1.039666
   1 Cl:    0.499202
   2 Cl:    0.499202
   3 C :    0.058558
   4 C :    0.058558
   5 H :   -0.016642
   6 H :   -0.016642
   7 H :   -0.010643
   8 H :   -0.010643
   9 H :   -0.010643
  10 H :   -0.010643

  Mayer bond orders larger than 0.100000
B(  0-C ,  1-Cl) :   0.9634 B(  0-C ,  2-Cl) :   0.9634 B(  0-C ,  3-C ) :   1.2448
B(  0-C ,  4-C ) :   1.2448 B(  0-C ,  5-H ) :   0.1058 B(  0-C ,  6-H ) :   0.1058
B(  3-C ,  5-H ) :   0.8926 B(  3-C ,  7-H ) :   0.8459 B(  3-C ,  8-H ) :   0.8459
B(  4-C ,  6-H ) :   0.8926 B(  4-C ,  9-H ) :   0.8459 B(  4-C , 10-H ) :   0.8459

MP2 TOTAL ENERGY:    -1036.877729761 Eh
FINAL SINGLE POINT ENERGY     -1036.877729760621

DIPOLE MOMENT
-------------
                                X             Y             Z
Electronic contribution:     -0.00000       0.00000      -8.96400
Nuclear contribution   :      0.00000       0.00000      10.00681
                        -----------------------------------------
Total Dipole Moment    :     -0.00000       0.00000       1.04281
                        -----------------------------------------
Magnitude (a.u.)       :      1.04281
Magnitude (Debye)      :      2.65061

Rotational constants in cm-1:     0.120834     0.079453     0.069696
Rotational constants in MHz :  3622.516209  2381.930111  2089.435326

                             ****ORCA TERMINATED NORMALLY****
TOTAL RUN TIME: 0 days 0 hours 0 minutes 37 seconds 482 msec
