                         Program Version 5.0.3 -  RELEASE  -
|  1> !ri-mp2 aug-cc-pvdz aug-cc-pvdz/c tightscf
|  2> %pal nprocs 16 end
|  3>
|  4> * xyz 0 1
|  5> Cl    0.000000    1.591361    2.692912
|  6> C     0.000000    0.696756    1.212282
|  7> C     0.000000   -0.696756    1.212282
|  8> Cl    0.000000   -1.591361    2.692912
|  9> C     0.000000   -1.409756    0.008295
| 10> O     0.000000   -2.759999    0.052901
| 11> C     0.000000   -0.695960   -1.189657
| 12> Cl    0.000000   -1.601358   -2.678734
| 13> C     0.000000    0.695960   -1.189657
| 14> C     0.000000    1.409756    0.008295
| 15> O     0.000000    2.759999    0.052901
| 16> Cl    0.000000    1.601358   -2.678734
| 17> H     0.000000   -3.106114   -0.849754
| 18> H     0.000000    3.106114   -0.849754
| 19> *
| 20>
| 21>                          ****END OF INPUT****

CARTESIAN COORDINATES (ANGSTROEM)
---------------------------------
  Cl     0.000000    1.591361    2.692912
  C      0.000000    0.696756    1.212282
  C      0.000000   -0.696756    1.212282
  Cl     0.000000   -1.591361    2.692912
  C      0.000000   -1.409756    0.008295
  O      0.000000   -2.759999    0.052901
  C      0.000000   -0.695960   -1.189657
  Cl     0.000000   -1.601358   -2.678734
  C      0.000000    0.695960   -1.189657
  C      0.000000    1.409756    0.008295
  O      0.000000    2.759999    0.052901
  Cl     0.000000    1.601358   -2.678734
  H      0.000000   -3.106114   -0.849754
  H      0.000000    3.106114   -0.849754

 Total Charge           Charge          ....    0
 Multiplicity           Mult            ....    1
 Number of Electrons    NEL             ....  122
 Basis Dimension        Dim             ....  310

ORBITAL ENERGIES
----------------

  NO   OCC          E(Eh)            E(eV)
   0   2.0000    -104.882247     -2853.9910
   1   2.0000    -104.882247     -2853.9910
   2   2.0000    -104.857489     -2853.3173
   3   2.0000    -104.857488     -2853.3173
   4   2.0000     -20.630016      -561.3713
   5   2.0000     -20.630014      -561.3712
   6   2.0000     -11.356738      -309.0326
   7   2.0000     -11.356725      -309.0322
   8   2.0000     -11.349328      -308.8309
   9   2.0000     -11.348141      -308.7986
  10   2.0000     -11.342490      -308.6448
  11   2.0000     -11.341294      -308.6123
  12   2.0000     -10.608127      -288.6618
  13   2.0000     -10.608112      -288.6614
  14   2.0000     -10.583430      -287.9898
  15   2.0000     -10.583413      -287.9893
  16   2.0000      -8.075914      -219.7568
  17   2.0000      -8.075913      -219.7568
  18   2.0000      -8.072635      -219.6676
  19   2.0000      -8.072635      -219.6676
  20   2.0000      -8.072295      -219.6583
  21   2.0000      -8.072295      -219.6583
  22   2.0000      -8.051323      -219.0876
  23   2.0000      -8.051322      -219.0876
  24   2.0000      -8.047657      -218.9879
  25   2.0000      -8.047656      -218.9879
  26   2.0000      -8.047646      -218.9876
  27   2.0000      -8.047646      -218.9876
  28   2.0000      -1.449894       -39.4536
  29   2.0000      -1.447846       -39.3979
  30   2.0000      -1.250621       -34.0311
  31   2.0000      -1.213229       -33.0136
  32   2.0000      -1.169595       -31.8263
  33   2.0000      -1.150760       -31.3138
  34   2.0000      -1.110110       -30.2076
  35   2.0000      -1.023115       -27.8404
  36   2.0000      -0.995537       -27.0899
  37   2.0000      -0.878407       -23.9027
  38   2.0000      -0.861727       -23.4488
  39   2.0000      -0.794378       -21.6161
  40   2.0000      -0.755559       -20.5598
  41   2.0000      -0.727234       -19.7890
  42   2.0000      -0.659833       -17.9550
  43   2.0000      -0.646913       -17.6034
  44   2.0000      -0.634970       -17.2784
  45   2.0000      -0.624169       -16.9845
  46   2.0000      -0.621250       -16.9051
  47   2.0000      -0.611347       -16.6356
  48   2.0000      -0.592375       -16.1193
  49   2.0000      -0.560313       -15.2469
  50   2.0000      -0.547470       -14.8974
  51   2.0000      -0.545315       -14.8388
  52   2.0000      -0.516164       -14.0455
  53   2.0000      -0.514700       -14.0057
  54   2.0000      -0.493581       -13.4310
  55   2.0000      -0.490486       -13.3468
  56   2.0000      -0.485531       -13.2120
  57   2.0000      -0.456941       -12.4340
  58   2.0000      -0.453241       -12.3333
  59   2.0000      -0.358347        -9.7511
  60   2.0000      -0.332670        -9.0524
  61   0.0000       0.035064         0.9541
  62   0.0000       0.041538         1.1303
  63   0.0000       0.067796         1.8448
  64   0.0000       0.071599         1.9483
  65   0.0000       0.076300         2.0762

MULLIKEN ATOMIC CHARGES
-----------------------
   0 Cl:   -0.318777
   1 C :    0.227225
   2 C :    0.227225
   3 Cl:   -0.318777
   4 C :    1.332877
   5 O :   -0.877388
   6 C :   -0.134853
   7 Cl:   -0.480188
   8 C :   -0.134853
   9 C :    1.332877
  10 O :   -0.877388
  11 Cl:   -0.480188
  12 H :    0.251104
  13 H :    0.251104
Sum of atomic charges:    0.0000000

LOEWDIN ATOMIC CHARGES
----------------------
   0 Cl:    0.633355
   1 C :   -0.537007
   2 C :   -0.537007
   3 Cl:    0.633355
   4 C :   -0.300282
   5 O :    0.178352
   6 C :   -0.521438
   7 Cl:    0.641801
   8 C :   -0.521438
   9 C :   -0.300282
  10 O :    0.178352
  11 Cl:    0.641801
  12 H :   -0.094781
  13 H :   -0.094781

  Mayer bond orders larger than 0.100000
B(  0-Cl,  1-C ) :   1.3180 B(  0-Cl,  2-C ) :  -0.5328 B(  0-Cl,  4-C ) :   0.2154
B(  0-Cl,  8-C ) :   0.1784 B(  0-Cl,  9-C ) :  -0.4761 B(  1-C ,  2-C ) :   1.4580
B(  1-C ,  3-Cl) :  -0.5328 B(  1-C ,  4-C ) :   0.4509 B(  1-C ,  6-C ) :   0.1578
B(  1-C ,  8-C ) :  -0.4333 B(  1-C ,  9-C ) :   1.7998 B(  1-C , 11-Cl) :   0.1097
B(  2-C ,  3-Cl) :   1.3180 B(  2-C ,  4-C ) :   1.7998 B(  2-C ,  6-C ) :  -0.4333
B(  2-C ,  7-Cl) :   0.1097 B(  2-C ,  8-C ) :   0.1578 B(  2-C ,  9-C ) :   0.4509
B(  3-Cl,  4-C ) :  -0.4761 B(  3-Cl,  6-C ) :   0.1784 B(  3-Cl,  9-C ) :   0.2154
B(  4-C ,  5-O ) :  -0.4790 B(  4-C ,  6-C ) :   0.7602 B(  4-C ,  7-Cl) :  -0.5498
B(  4-C ,  8-C ) :  -0.4227 B(  4-C , 11-Cl) :   0.2594 B(  4-C , 12-H ) :  -0.1421
B(  5-O ,  6-C ) :   0.6452 B(  5-O , 12-H ) :   1.0073 B(  6-C ,  7-Cl) :   0.8732
B(  6-C ,  8-C ) :   1.8306 B(  6-C ,  9-C ) :  -0.4227 B(  6-C , 11-Cl) :  -0.1843
B(  7-Cl,  8-C ) :  -0.1843 B(  7-Cl,  9-C ) :   0.2594 B(  8-C ,  9-C ) :   0.7602
B(  8-C , 10-O ) :   0.6452 B(  8-C , 11-Cl) :   0.8732 B(  9-C , 10-O ) :  -0.4790
B(  9-C , 11-Cl) :  -0.5498 B(  9-C , 13-H ) :  -0.1421 B( 10-O , 13-H ) :   1.0073

MP2 TOTAL ENERGY:    -2217.934256873 Eh
FINAL SINGLE POINT ENERGY     -2217.934256872849

DIPOLE MOMENT
-------------
                                X             Y             Z
Electronic contribution:     -0.00000      -0.00000       0.51192
Nuclear contribution   :      0.00000       0.00000      -1.60680
                        -----------------------------------------
Total Dipole Moment    :     -0.00000      -0.00000      -1.09488
                        -----------------------------------------
Magnitude (a.u.)       :      1.09488
Magnitude (Debye)      :      2.78296

Rotational constants in cm-1:     0.024234     0.015412     0.009421
Rotational constants in MHz :   726.507223   462.029643   282.421086

                             ****ORCA TERMINATED NORMALLY****
TOTAL RUN TIME: 0 days 0 hours 1 minutes 54 seconds 988 msec
