                         Program Version 5.0.3 -  RELEASE  -
|  1> !ri-mp2 aug-cc-pvdz aug-cc-pvdz/c tightscf
|  2> %pal nprocs 16 end
|  3> %maxcore 3800
|  4>
|  5> * xyz 0 1
|  6> C      2.780946    0.034090   -0.496412
|  7> C      2.081979    1.196215   -0.197941
|  8> C      1.046417   -1.191362    0.282233
|  9> C      0.324882   -0.029326    0.581800
| 10> C     -2.293729    1.300701   -0.581142
| 11> C     -2.259009   -1.219791   -0.767466
| 12> C     -1.051716   -0.083716    1.186804
| 13> C     -2.235332   -0.022090    0.185648
| 14> N      2.262542   -1.168677   -0.252894
| 15> N      0.864183    1.170413    0.338964
| 16> H      3.772639    0.071644   -0.930765
| 17> H      2.515504    2.170975   -0.390188
| 18> H      0.623598   -2.167465    0.490849
| 19> H     -1.429831    1.424092   -1.234865
| 20> H     -2.314015    2.154514    0.096934
| 21> H     -3.190666    1.339309   -1.201754
| 22> H     -3.158002   -1.199555   -1.385241
| 23> H     -1.400440   -1.213979   -1.441787
| 24> H     -2.251536   -2.166685   -0.224003
| 25> H     -1.144990   -1.004046    1.767797
| 26> H     -1.141864    0.752268    1.881855
| 27> H     -3.134101   -0.081540    0.807527
| 28> *
| 29>
| 30>                          ****END OF INPUT****

CARTESIAN COORDINATES (ANGSTROEM)
---------------------------------
  C      2.780946    0.034090   -0.496412
  C      2.081979    1.196215   -0.197941
  C      1.046417   -1.191362    0.282233
  C      0.324882   -0.029326    0.581800
  C     -2.293729    1.300701   -0.581142
  C     -2.259009   -1.219791   -0.767466
  C     -1.051716   -0.083716    1.186804
  C     -2.235332   -0.022090    0.185648
  N      2.262542   -1.168677   -0.252894
  N      0.864183    1.170413    0.338964
  H      3.772639    0.071644   -0.930765
  H      2.515504    2.170975   -0.390188
  H      0.623598   -2.167465    0.490849
  H     -1.429831    1.424092   -1.234865
  H     -2.314015    2.154514    0.096934
  H     -3.190666    1.339309   -1.201754
  H     -3.158002   -1.199555   -1.385241
  H     -1.400440   -1.213979   -1.441787
  H     -2.251536   -2.166685   -0.224003
  H     -1.144990   -1.004046    1.767797
  H     -1.141864    0.752268    1.881855
  H     -3.134101   -0.081540    0.807527

 Total Charge           Charge          ....    0
 Multiplicity           Mult            ....    1
 Number of Electrons    NEL             ....   74
 Basis Dimension        Dim             ....  338

ORBITAL ENERGIES
----------------

  NO   OCC          E(Eh)            E(eV)
   0   2.0000     -15.596034      -424.3897
   1   2.0000     -15.591023      -424.2533
   2   2.0000     -11.289338      -307.1985
   3   2.0000     -11.285146      -307.0844
   4   2.0000     -11.281599      -306.9879
   5   2.0000     -11.281539      -306.9863
   6   2.0000     -11.239789      -305.8502
   7   2.0000     -11.237170      -305.7789
   8   2.0000     -11.220878      -305.3356
   9   2.0000     -11.214543      -305.1632
  10   2.0000      -1.308637       -35.6098
  11   2.0000      -1.219654       -33.1885
  12   2.0000      -1.103486       -30.0274
  13   2.0000      -1.050365       -28.5819
  14   2.0000      -0.958555       -26.0836
  15   2.0000      -0.932806       -25.3830
  16   2.0000      -0.895302       -24.3624
  17   2.0000      -0.862586       -23.4721
  18   2.0000      -0.772867       -21.0308
  19   2.0000      -0.711669       -19.3655
  20   2.0000      -0.707041       -19.2396
  21   2.0000      -0.657997       -17.9050
  22   2.0000      -0.635228       -17.2854
  23   2.0000      -0.600660       -16.3448
  24   2.0000      -0.593678       -16.1548
  25   2.0000      -0.580667       -15.8007
  26   2.0000      -0.565470       -15.3872
  27   2.0000      -0.538181       -14.6447
  28   2.0000      -0.536001       -14.5853
  29   2.0000      -0.517561       -14.0835
  30   2.0000      -0.491900       -13.3853
  31   2.0000      -0.475524       -12.9397
  32   2.0000      -0.468848       -12.7580
  33   2.0000      -0.467046       -12.7090
  34   2.0000      -0.427528       -11.6336
  35   2.0000      -0.400125       -10.8879
  36   2.0000      -0.344956        -9.3867
  37   0.0000       0.033772         0.9190
  38   0.0000       0.038157         1.0383
  39   0.0000       0.044493         1.2107
  40   0.0000       0.046038         1.2527
  41   0.0000       0.054606         1.4859

MULLIKEN ATOMIC CHARGES
-----------------------
   0 C :    0.587830
   1 C :    0.766752
   2 C :    0.699655
   3 C :    0.425314
   4 C :    0.872226
   5 C :    0.837369
   6 C :    0.605457
   7 C :   -1.460875
   8 N :   -0.745213
   9 N :   -0.835813
  10 H :   -0.277914
  11 H :   -0.335738
  12 H :   -0.434336
  13 H :   -0.021980
  14 H :   -0.082965
  15 H :   -0.072875
  16 H :   -0.115585
  17 H :    0.019743
  18 H :   -0.073838
  19 H :   -0.150669
  20 H :   -0.085581
  21 H :   -0.120963
Sum of atomic charges:   -0.0000000

LOEWDIN ATOMIC CHARGES
----------------------
   0 C :   -0.023525
   1 C :   -0.015830
   2 C :    0.016900
   3 C :   -0.205201
   4 C :    0.159921
   5 C :    0.156379
   6 C :    0.034305
   7 C :   -0.269622
   8 N :    0.050870
   9 N :    0.081970
  10 H :   -0.001182
  11 H :    0.001465
  12 H :    0.008583
  13 H :   -0.015887
  14 H :   -0.008956
  15 H :   -0.014347
  16 H :   -0.013466
  17 H :   -0.014484
  18 H :   -0.012384
  19 H :    0.021413
  20 H :    0.025653
  21 H :    0.037423

  Mayer bond orders larger than 0.100000
B(  0-C ,  1-C ) :   1.2224 B(  0-C ,  2-C ) :  -0.1630 B(  0-C ,  3-C ) :   0.1040
B(  0-C ,  8-N ) :   1.3209 B(  0-C , 10-H ) :   0.9941 B(  1-C ,  9-N ) :   1.2321
B(  1-C , 11-H ) :   0.8967 B(  2-C ,  3-C ) :   1.0502 B(  2-C ,  6-C ) :   0.1614
B(  2-C ,  8-N ) :   1.1950 B(  2-C , 12-H ) :   0.8705 B(  3-C ,  6-C ) :   1.0153
B(  3-C ,  8-N ) :   0.1270 B(  3-C ,  9-N ) :   1.1913 B(  3-C , 11-H ) :   0.1489
B(  3-C , 20-H ) :   0.1210 B(  4-C ,  5-C ) :  -0.2069 B(  4-C ,  7-C ) :   1.3877
B(  4-C , 13-H ) :   0.9102 B(  4-C , 14-H ) :   0.7783 B(  4-C , 15-H ) :   0.7686
B(  5-C ,  6-C ) :  -0.1258 B(  5-C ,  7-C ) :   1.4113 B(  5-C , 16-H ) :   0.7802
B(  5-C , 17-H ) :   0.8594 B(  5-C , 18-H ) :   0.7947 B(  6-C ,  7-C ) :   1.1688
B(  6-C , 12-H ) :   0.1333 B(  6-C , 19-H ) :   0.7478 B(  6-C , 20-H ) :   0.6212
B(  7-C , 13-H ) :   0.1819 B(  7-C , 14-H ) :   0.1289 B(  7-C , 15-H ) :   0.1847
B(  7-C , 16-H ) :   0.1782 B(  7-C , 17-H ) :   0.1929 B(  7-C , 19-H ) :   0.1139
B(  7-C , 20-H ) :   0.2001 B(  7-C , 21-H ) :   0.6902 B(  9-N , 11-H ) :  -0.1246
B( 14-H , 15-H ) :  -0.1085 B( 16-H , 17-H ) :  -0.1022 B( 16-H , 18-H ) :  -0.1117
B( 19-H , 20-H ) :  -0.1414

MP2 TOTAL ENERGY:     -420.346425976 Eh
FINAL SINGLE POINT ENERGY      -420.346425976368

DIPOLE MOMENT
-------------
                                X             Y             Z
Electronic contribution:     12.19183      -0.01040       1.86122
Nuclear contribution   :    -12.48504       0.08116      -1.79911
                        -----------------------------------------
Total Dipole Moment    :     -0.29320       0.07076       0.06211
                        -----------------------------------------
Magnitude (a.u.)       :      0.30795
Magnitude (Debye)      :      0.78274

Rotational constants in cm-1:     0.087245     0.030002     0.026139
Rotational constants in MHz :  2615.529093   899.431218   783.617531

                             ****ORCA TERMINATED NORMALLY****
TOTAL RUN TIME: 0 days 0 hours 2 minutes 5 seconds 381 msec
