                         Program Version 5.0.3 -  RELEASE  -
|  1> !ri-mp2 aug-cc-pvdz aug-cc-pvdz/c tightscf
|  2> %pal nprocs 16 end
|  3>
|  4> * xyz 0 1
|  5> O      4.066762    0.495957    0.360134
|  6> O     -4.066767    0.495911   -0.360185
|  7> C      0.673589   -0.167678   -0.057506
|  8> C     -0.673588   -0.167673    0.057516
|  9> C      1.882141   -0.160213   -0.149051
| 10> C     -1.882140   -0.160196    0.149061
| 11> C      3.314251   -0.185757   -0.295724
| 12> C     -3.314249   -0.185720    0.295752
| 13> H      3.682946   -0.885828   -1.064540
| 14> H     -3.682935   -0.885690    1.064664
| 15> *
| 16>
| 17>                          ****END OF INPUT****

CARTESIAN COORDINATES (ANGSTROEM)
---------------------------------
  O      4.066762    0.495957    0.360134
  O     -4.066767    0.495911   -0.360185
  C      0.673589   -0.167678   -0.057506
  C     -0.673588   -0.167673    0.057516
  C      1.882141   -0.160213   -0.149051
  C     -1.882140   -0.160196    0.149061
  C      3.314251   -0.185757   -0.295724
  C     -3.314249   -0.185720    0.295752
  H      3.682946   -0.885828   -1.064540
  H     -3.682935   -0.885690    1.064664

 Total Charge           Charge          ....    0
 Multiplicity           Mult            ....    1
 Number of Electrons    NEL             ....   54
 Basis Dimension        Dim             ....  202

ORBITAL ENERGIES
----------------

  NO   OCC          E(Eh)            E(eV)
   0   2.0000     -20.607109      -560.7479
   1   2.0000     -20.607108      -560.7479
   2   2.0000     -11.392983      -310.0188
   3   2.0000     -11.392982      -310.0188
   4   2.0000     -11.319302      -308.0139
   5   2.0000     -11.318008      -307.9787
   6   2.0000     -11.304112      -307.6005
   7   2.0000     -11.304097      -307.6001
   8   2.0000      -1.434912       -39.0459
   9   2.0000      -1.434903       -39.0457
  10   2.0000      -1.144711       -31.1492
  11   2.0000      -1.084830       -29.5197
  12   2.0000      -0.977375       -26.5957
  13   2.0000      -0.926456       -25.2102
  14   2.0000      -0.845038       -22.9947
  15   2.0000      -0.749731       -20.4012
  16   2.0000      -0.742706       -20.2101
  17   2.0000      -0.684470       -18.6254
  18   2.0000      -0.683691       -18.6042
  19   2.0000      -0.584473       -15.9043
  20   2.0000      -0.583987       -15.8911
  21   2.0000      -0.519559       -14.1379
  22   2.0000      -0.518602       -14.1119
  23   2.0000      -0.480200       -13.0669
  24   2.0000      -0.479107       -13.0372
  25   2.0000      -0.400258       -10.8916
  26   2.0000      -0.400244       -10.8912
  27   0.0000       0.021745         0.5917
  28   0.0000       0.024562         0.6684
  29   0.0000       0.028706         0.7811
  30   0.0000       0.034344         0.9345
  31   0.0000       0.066355         1.8056

MULLIKEN ATOMIC CHARGES
-----------------------
   0 O :   -0.652207
   1 O :   -0.652208
   2 C :    1.989340
   3 C :    1.989328
   4 C :   -1.966574
   5 C :   -1.966577
   6 C :    0.676512
   7 C :    0.676512
   8 H :   -0.047063
   9 H :   -0.047065
Sum of atomic charges:    0.0000000

LOEWDIN ATOMIC CHARGES
----------------------
   0 O :    0.049738
   1 O :    0.049737
   2 C :   -0.026633
   3 C :   -0.026633
   4 C :    0.076536
   5 C :    0.076536
   6 C :   -0.117351
   7 C :   -0.117350
   8 H :    0.017711
   9 H :    0.017711

  Mayer bond orders larger than 0.100000
B(  0-O ,  6-C ) :   1.6627 B(  1-O ,  7-C ) :   1.6627 B(  2-C ,  3-C ) :   2.7678
B(  2-C ,  4-C ) :   0.6426 B(  2-C ,  5-C ) :  -3.5063 B(  2-C ,  6-C ) :  -0.3011
B(  3-C ,  4-C ) :  -3.5063 B(  3-C ,  5-C ) :   0.6426 B(  3-C ,  7-C ) :  -0.3011
B(  4-C ,  5-C ) :   3.2185 B(  4-C ,  6-C ) :   1.8564 B(  4-C ,  8-H ) :   0.3148
B(  5-C ,  7-C ) :   1.8564 B(  5-C ,  9-H ) :   0.3148 B(  6-C ,  8-H ) :   0.6666
B(  7-C ,  9-H ) :   0.6666

MP2 TOTAL ENERGY:     -379.131284374 Eh
FINAL SINGLE POINT ENERGY      -379.131284374057

DIPOLE MOMENT
-------------
                                X             Y             Z
Electronic contribution:     -0.00000       0.45520      -0.00004
Nuclear contribution   :      0.00001      -1.67868       0.00012
                        -----------------------------------------
Total Dipole Moment    :      0.00001      -1.22348       0.00007
                        -----------------------------------------
Magnitude (a.u.)       :      1.22348
Magnitude (Debye)      :      3.10984

Rotational constants in cm-1:     0.817259     0.018214     0.018165
Rotational constants in MHz : 24500.800877   546.028054   544.580603

                             ****ORCA TERMINATED NORMALLY****
TOTAL RUN TIME: 0 days 0 hours 0 minutes 47 seconds 539 msec
