                         Program Version 5.0.3 -  RELEASE  -
|  1> !ri-mp2 aug-cc-pvdz aug-cc-pvdz/c tightscf
|  2> %pal nprocs 16 end
|  3>
|  4> * xyz 0 1
|  5> C     -2.749765   -0.583904   -0.153459
|  6> C     -1.683862    0.394741    0.292969
|  7> C      1.943584    0.269479   -0.404816
|  8> C      0.638750    0.818274    0.137976
|  9> O      2.366200   -0.943905    0.203717
| 10> O     -0.429726   -0.030575   -0.214940
| 11> H     -3.725084   -0.279288    0.228236
| 12> H     -2.802470   -0.625322   -1.241261
| 13> H     -2.530599   -1.585069    0.216980
| 14> H     -1.640996    0.446136    1.389514
| 15> H     -1.909147    1.406285   -0.072242
| 16> H      2.712674    1.045372   -0.307406
| 17> H      1.826768    0.042599   -1.464123
| 18> H      0.481049    1.826798   -0.273000
| 19> H      0.701134    0.920416    1.233025
| 20> H      2.502636   -0.793628    1.144037
| 21> *
| 22>
| 23>                          ****END OF INPUT****

CARTESIAN COORDINATES (ANGSTROEM)
---------------------------------
  C     -2.749765   -0.583904   -0.153459
  C     -1.683862    0.394741    0.292969
  C      1.943584    0.269479   -0.404816
  C      0.638750    0.818274    0.137976
  O      2.366200   -0.943905    0.203717
  O     -0.429726   -0.030575   -0.214940
  H     -3.725084   -0.279288    0.228236
  H     -2.802470   -0.625322   -1.241261
  H     -2.530599   -1.585069    0.216980
  H     -1.640996    0.446136    1.389514
  H     -1.909147    1.406285   -0.072242
  H      2.712674    1.045372   -0.307406
  H      1.826768    0.042599   -1.464123
  H      0.481049    1.826798   -0.273000
  H      0.701134    0.920416    1.233025
  H      2.502636   -0.793628    1.144037

 Total Charge           Charge          ....    0
 Multiplicity           Mult            ....    1
 Number of Electrons    NEL             ....   50
 Basis Dimension        Dim             ....  228

ORBITAL ENERGIES
----------------

  NO   OCC          E(Eh)            E(eV)
   0   2.0000     -20.564704      -559.5940
   1   2.0000     -20.564049      -559.5762
   2   2.0000     -11.285051      -307.0819
   3   2.0000     -11.281936      -306.9971
   4   2.0000     -11.281920      -306.9967
   5   2.0000     -11.220325      -305.3206
   6   2.0000      -1.382208       -37.6118
   7   2.0000      -1.355954       -36.8974
   8   2.0000      -1.041656       -28.3449
   9   2.0000      -0.979713       -26.6594
  10   2.0000      -0.848151       -23.0794
  11   2.0000      -0.832954       -22.6658
  12   2.0000      -0.695849       -18.9350
  13   2.0000      -0.679976       -18.5031
  14   2.0000      -0.653109       -17.7720
  15   2.0000      -0.623240       -16.9592
  16   2.0000      -0.614560       -16.7230
  17   2.0000      -0.559640       -15.2286
  18   2.0000      -0.550815       -14.9884
  19   2.0000      -0.530576       -14.4377
  20   2.0000      -0.500186       -13.6108
  21   2.0000      -0.496766       -13.5177
  22   2.0000      -0.472308       -12.8522
  23   2.0000      -0.441879       -12.0241
  24   2.0000      -0.421810       -11.4780
  25   0.0000       0.033774         0.9190
  26   0.0000       0.042758         1.1635
  27   0.0000       0.045067         1.2263
  28   0.0000       0.050255         1.3675
  29   0.0000       0.062747         1.7074

MULLIKEN ATOMIC CHARGES
-----------------------
   0 C :    0.282548
   1 C :    0.598531
   2 C :    1.005157
   3 C :    0.603645
   4 O :   -0.699439
   5 O :   -0.892612
   6 H :   -0.051273
   7 H :   -0.050698
   8 H :   -0.042431
   9 H :   -0.135303
  10 H :   -0.138417
  11 H :   -0.097868
  12 H :   -0.174344
  13 H :   -0.138033
  14 H :   -0.198671
  15 H :    0.129208
Sum of atomic charges:    0.0000000

LOEWDIN ATOMIC CHARGES
----------------------
   0 C :    0.137182
   1 C :   -0.086753
   2 C :   -0.047255
   3 C :   -0.058591
   4 O :    0.115173
   5 O :    0.005781
   6 H :   -0.017939
   7 H :   -0.016376
   8 H :   -0.015467
   9 H :    0.005819
  10 H :    0.006119
  11 H :    0.006108
  12 H :    0.007764
  13 H :    0.013706
  14 H :    0.010136
  15 H :   -0.065407

  Mayer bond orders larger than 0.100000
B(  0-C ,  1-C ) :   1.2631 B(  0-C ,  6-H ) :   0.8969 B(  0-C ,  7-H ) :   0.9535
B(  0-C ,  8-H ) :   0.9532 B(  1-C ,  5-O ) :   0.6588 B(  1-C ,  9-H ) :   0.8784
B(  1-C , 10-H ) :   0.8875 B(  2-C ,  3-C ) :   1.2498 B(  2-C ,  4-O ) :   0.5109
B(  2-C , 11-H ) :   0.8316 B(  2-C , 12-H ) :   0.9330 B(  3-C ,  5-O ) :   0.6845
B(  3-C , 13-H ) :   0.8636 B(  3-C , 14-H ) :   0.9117 B(  4-O , 15-H ) :   1.0790
B( 11-H , 12-H ) :  -0.1033

MP2 TOTAL ENERGY:     -308.033901875 Eh
FINAL SINGLE POINT ENERGY      -308.033901875481

DIPOLE MOMENT
-------------
                                X             Y             Z
Electronic contribution:      4.28763      -1.48878      -0.31012
Nuclear contribution   :     -4.53619       2.48918       0.88940
                        -----------------------------------------
Total Dipole Moment    :     -0.24856       1.00040       0.57928
                        -----------------------------------------
Magnitude (a.u.)       :      1.18244
Magnitude (Debye)      :      3.00552

Rotational constants in cm-1:     0.313208     0.050495     0.046790
Rotational constants in MHz :  9389.734286  1513.812879  1402.717515

                             ****ORCA TERMINATED NORMALLY****
TOTAL RUN TIME: 0 days 0 hours 0 minutes 53 seconds 557 msec
