                         Program Version 5.0.3 -  RELEASE  -
|  1> !ri-mp2 aug-cc-pvdz aug-cc-pvdz/c tightscf
|  2> %pal nprocs 16 end
|  3>
|  4> * xyz 0 1
|  5> C      3.005568   -0.234641   -0.075870
|  6> C     -1.946912   -1.107066   -0.387839
|  7> C     -1.238412    1.280682   -0.728586
|  8> C      1.632830    0.413030    0.105069
|  9> C      0.492710   -0.535387   -0.269388
| 10> C     -0.931821   -0.029161    0.003653
| 11> O     -0.996264    0.187836    1.428670
| 12> H      3.165367   -0.547167   -1.110366
| 13> H      3.109196   -1.119822    0.554911
| 14> H      3.807682    0.455938    0.188183
| 15> H     -2.963517   -0.784311   -0.150713
| 16> H     -1.747156   -2.030635    0.155349
| 17> H     -1.906985   -1.318328   -1.457633
| 18> H     -0.578207    2.078717   -0.394031
| 19> H     -2.268050    1.591351   -0.535843
| 20> H     -1.124654    1.164869   -1.807771
| 21> H      1.507934    0.728735    1.141736
| 22> H      1.583749    1.318038   -0.504908
| 23> H      0.564713   -0.793340   -1.330153
| 24> H      0.615355   -1.469442    0.286075
| 25> H     -1.879090    0.497967    1.653569
| 26> *
| 27>
| 28>                          ****END OF INPUT****

CARTESIAN COORDINATES (ANGSTROEM)
---------------------------------
  C      3.005568   -0.234641   -0.075870
  C     -1.946912   -1.107066   -0.387839
  C     -1.238412    1.280682   -0.728586
  C      1.632830    0.413030    0.105069
  C      0.492710   -0.535387   -0.269388
  C     -0.931821   -0.029161    0.003653
  O     -0.996264    0.187836    1.428670
  H      3.165367   -0.547167   -1.110366
  H      3.109196   -1.119822    0.554911
  H      3.807682    0.455938    0.188183
  H     -2.963517   -0.784311   -0.150713
  H     -1.747156   -2.030635    0.155349
  H     -1.906985   -1.318328   -1.457633
  H     -0.578207    2.078717   -0.394031
  H     -2.268050    1.591351   -0.535843
  H     -1.124654    1.164869   -1.807771
  H      1.507934    0.728735    1.141736
  H      1.583749    1.318038   -0.504908
  H      0.564713   -0.793340   -1.330153
  H      0.615355   -1.469442    0.286075
  H     -1.879090    0.497967    1.653569

 Total Charge           Charge          ....    0
 Multiplicity           Mult            ....    1
 Number of Electrons    NEL             ....   58
 Basis Dimension        Dim             ....  287

ORBITAL ENERGIES
----------------

  NO   OCC          E(Eh)            E(eV)
   0   2.0000     -20.558796      -559.4333
   1   2.0000     -11.288794      -307.1837
   2   2.0000     -11.220434      -305.3235
   3   2.0000     -11.220264      -305.3189
   4   2.0000     -11.218030      -305.2581
   5   2.0000     -11.214913      -305.1733
   6   2.0000     -11.212934      -305.1194
   7   2.0000      -1.355908       -36.8961
   8   2.0000      -1.081209       -29.4212
   9   2.0000      -1.026128       -27.9224
  10   2.0000      -0.941429       -25.6176
  11   2.0000      -0.924969       -25.1697
  12   2.0000      -0.815255       -22.1842
  13   2.0000      -0.762384       -20.7455
  14   2.0000      -0.670267       -18.2389
  15   2.0000      -0.633490       -17.2381
  16   2.0000      -0.612639       -16.6708
  17   2.0000      -0.602816       -16.4035
  18   2.0000      -0.579270       -15.7627
  19   2.0000      -0.556362       -15.1394
  20   2.0000      -0.544821       -14.8253
  21   2.0000      -0.523338       -14.2407
  22   2.0000      -0.514146       -13.9906
  23   2.0000      -0.508720       -13.8430
  24   2.0000      -0.497375       -13.5343
  25   2.0000      -0.470801       -12.8112
  26   2.0000      -0.460520       -12.5314
  27   2.0000      -0.443299       -12.0628
  28   2.0000      -0.426562       -11.6073
  29   0.0000       0.034520         0.9393
  30   0.0000       0.041943         1.1413
  31   0.0000       0.044931         1.2226
  32   0.0000       0.048367         1.3161
  33   0.0000       0.061330         1.6689

MULLIKEN ATOMIC CHARGES
-----------------------
   0 C :    0.516718
   1 C :    1.229306
   2 C :    1.068726
   3 C :    0.302931
   4 C :    0.760751
   5 C :   -2.286846
   6 O :   -0.752035
   7 H :   -0.073364
   8 H :   -0.083098
   9 H :   -0.070697
  10 H :   -0.046236
  11 H :    0.010371
  12 H :    0.035843
  13 H :    0.012773
  14 H :   -0.064119
  15 H :    0.012685
  16 H :   -0.156430
  17 H :   -0.215724
  18 H :   -0.137619
  19 H :   -0.158269
  20 H :    0.094334
Sum of atomic charges:   -0.0000000

LOEWDIN ATOMIC CHARGES
----------------------
   0 C :    0.133948
   1 C :    0.178002
   2 C :    0.180366
   3 C :   -0.059486
   4 C :   -0.000159
   5 C :   -0.475521
   6 O :    0.147335
   7 H :   -0.020478
   8 H :   -0.019573
   9 H :   -0.021813
  10 H :   -0.011967
  11 H :   -0.005515
  12 H :   -0.006330
  13 H :   -0.012672
  14 H :   -0.011462
  15 H :   -0.002865
  16 H :    0.012807
  17 H :    0.003862
  18 H :    0.024854
  19 H :    0.024064
  20 H :   -0.057395

  Mayer bond orders larger than 0.100000
B(  0-C ,  3-C ) :   1.1726 B(  0-C ,  7-H ) :   0.9203 B(  0-C ,  8-H ) :   0.8965
B(  0-C ,  9-H ) :   0.9018 B(  1-C ,  2-C ) :  -0.1465 B(  1-C ,  5-C ) :   1.0733
B(  1-C , 10-H ) :   0.6991 B(  1-C , 11-H ) :   0.7058 B(  1-C , 12-H ) :   0.8038
B(  1-C , 15-H ) :  -0.1323 B(  1-C , 19-H ) :  -0.1037 B(  2-C ,  4-C ) :  -0.1174
B(  2-C ,  5-C ) :   1.2370 B(  2-C , 13-H ) :   0.7734 B(  2-C , 14-H ) :   0.6944
B(  2-C , 15-H ) :   0.7846 B(  3-C ,  4-C ) :   1.0853 B(  3-C ,  9-H ) :   0.1133
B(  3-C , 16-H ) :   0.7594 B(  3-C , 17-H ) :   0.7085 B(  4-C ,  5-C ) :   0.7098
B(  4-C ,  6-O ) :   0.1511 B(  4-C , 17-H ) :   0.1668 B(  4-C , 18-H ) :   0.7539
B(  4-C , 19-H ) :   0.5534 B(  5-C ,  6-O ) :  -0.3178 B(  5-C , 10-H ) :   0.3250
B(  5-C , 11-H ) :   0.2142 B(  5-C , 12-H ) :   0.1554 B(  5-C , 13-H ) :   0.1229
B(  5-C , 14-H ) :   0.2784 B(  5-C , 15-H ) :   0.2782 B(  5-C , 18-H ) :   0.1796
B(  5-C , 19-H ) :   0.4265 B(  6-O , 20-H ) :   1.1099 B( 10-H , 11-H ) :  -0.1156
B( 13-H , 14-H ) :  -0.1037 B( 18-H , 19-H ) :  -0.1284

MP2 TOTAL ENERGY:     -311.376535396 Eh
FINAL SINGLE POINT ENERGY      -311.376535395642

DIPOLE MOMENT
-------------
                                X             Y             Z
Electronic contribution:     -2.45203       0.34724       3.06485
Nuclear contribution   :      1.99423      -0.23930      -3.50639
                        -----------------------------------------
Total Dipole Moment    :     -0.45780       0.10794      -0.44154
                        -----------------------------------------
Magnitude (a.u.)       :      0.64513
Magnitude (Debye)      :      1.63978

Rotational constants in cm-1:     0.142178     0.047473     0.046477
Rotational constants in MHz :  4262.398686  1423.207531  1393.333253

                             ****ORCA TERMINATED NORMALLY****
TOTAL RUN TIME: 0 days 0 hours 1 minutes 6 seconds 221 msec
