                         Program Version 5.0.3 -  RELEASE  -
|  1> !ri-mp2 aug-cc-pvdz aug-cc-pvdz/c tightscf
|  2> %pal nprocs 16 end
|  3>
|  4> * xyz 0 1
|  5> C     0.000000     0.000000    0.681952
|  6> C     0.000000     0.000000   -0.681952
|  7> C     0.000000     0.000000    1.889462
|  8> C     0.000000     0.000000   -1.889462
|  9> C     0.000000     0.000000    3.341026
| 10> C     0.000000     0.000000   -3.341026
| 11> H     0.000000     1.019522    3.732419
| 12> H    -0.882932    -0.509761    3.732419
| 13> H     0.882932    -0.509761    3.732419
| 14> H     0.000000     1.019522   -3.732419
| 15> H     0.882932    -0.509761   -3.732419
| 16> H    -0.882932    -0.509761   -3.732419
| 17> *
| 18>
| 19>                          ****END OF INPUT****

CARTESIAN COORDINATES (ANGSTROEM)
---------------------------------
  C      0.000000    0.000000    0.681952
  C      0.000000    0.000000   -0.681952
  C      0.000000    0.000000    1.889462
  C      0.000000    0.000000   -1.889462
  C      0.000000    0.000000    3.341026
  C      0.000000    0.000000   -3.341026
  H      0.000000    1.019522    3.732419
  H     -0.882932   -0.509761    3.732419
  H      0.882932   -0.509761    3.732419
  H      0.000000    1.019522   -3.732419
  H      0.882932   -0.509761   -3.732419
  H     -0.882932   -0.509761   -3.732419

 Total Charge           Charge          ....    0
 Multiplicity           Mult            ....    1
 Number of Electrons    NEL             ....   42
 Basis Dimension        Dim             ....  192

ORBITAL ENERGIES
----------------

  NO   OCC          E(Eh)            E(eV)
   0   2.0000     -11.260039      -306.4012
   1   2.0000     -11.260038      -306.4012
   2   2.0000     -11.250598      -306.1443
   3   2.0000     -11.250508      -306.1419
   4   2.0000     -11.244737      -305.9849
   5   2.0000     -11.243618      -305.9544
   6   2.0000      -1.090706       -29.6796
   7   2.0000      -1.057629       -28.7795
   8   2.0000      -0.997077       -27.1318
   9   2.0000      -0.944624       -25.7045
  10   2.0000      -0.797459       -21.7000
  11   2.0000      -0.641468       -17.4552
  12   2.0000      -0.628858       -17.1121
  13   2.0000      -0.595898       -16.2152
  14   2.0000      -0.595898       -16.2152
  15   2.0000      -0.592371       -16.1192
  16   2.0000      -0.592371       -16.1192
  17   2.0000      -0.458471       -12.4756
  18   2.0000      -0.458471       -12.4756
  19   2.0000      -0.334331        -9.0976
  20   2.0000      -0.334331        -9.0976
  21   0.0000       0.033048         0.8993
  22   0.0000       0.034461         0.9377
  23   0.0000       0.057334         1.5601
  24   0.0000       0.057334         1.5601
  25   0.0000       0.064465         1.7542

MULLIKEN ATOMIC CHARGES
-----------------------
   0 C :    1.663651
   1 C :    1.663651
   2 C :   -2.541394
   3 C :   -2.541394
   4 C :    0.351874
   5 C :    0.351874
   6 H :    0.175290
   7 H :    0.175290
   8 H :    0.175290
   9 H :    0.175290
  10 H :    0.175290
  11 H :    0.175290
Sum of atomic charges:    0.0000000

LOEWDIN ATOMIC CHARGES
----------------------
   0 C :   -0.070907
   1 C :   -0.070907
   2 C :   -0.031838
   3 C :   -0.031838
   4 C :    0.123548
   5 C :    0.123548
   6 H :   -0.006934
   7 H :   -0.006934
   8 H :   -0.006934
   9 H :   -0.006934
  10 H :   -0.006934
  11 H :   -0.006934

  Mayer bond orders larger than 0.100000
B(  0-C ,  1-C ) :   2.3448 B(  0-C ,  3-C ) :  -2.5792 B(  1-C ,  2-C ) :  -2.5792
B(  2-C ,  3-C ) :   3.3308 B(  2-C ,  4-C ) :   1.6565 B(  2-C ,  6-H ) :   0.3715
B(  2-C ,  7-H ) :   0.3715 B(  2-C ,  8-H ) :   0.3715 B(  3-C ,  5-C ) :   1.6565
B(  3-C ,  9-H ) :   0.3715 B(  3-C , 10-H ) :   0.3715 B(  3-C , 11-H ) :   0.3715
B(  4-C ,  5-C ) :   0.1061 B(  4-C ,  6-H ) :   0.6867 B(  4-C ,  7-H ) :   0.6867
B(  4-C ,  8-H ) :   0.6867 B(  5-C ,  9-H ) :   0.6867 B(  5-C , 10-H ) :   0.6867
B(  5-C , 11-H ) :   0.6867

MP2 TOTAL ENERGY:     -231.417213950 Eh
FINAL SINGLE POINT ENERGY      -231.417213950428

DIPOLE MOMENT
-------------
                                X             Y             Z
Electronic contribution:      0.00000       0.00000       0.00000
Nuclear contribution   :      0.00000       0.00000       0.00000
                        -----------------------------------------
Total Dipole Moment    :      0.00000       0.00000       0.00000
                        -----------------------------------------
Magnitude (a.u.)       :      0.00000
Magnitude (Debye)      :      0.00000

Rotational constants in cm-1:     2.681587     0.037257     0.037257
Rotational constants in MHz : 80391.955760  1116.925198  1116.925197

                             ****ORCA TERMINATED NORMALLY****
TOTAL RUN TIME: 0 days 0 hours 0 minutes 34 seconds 710 msec
