                         Program Version 5.0.3 -  RELEASE  -
|  1> !ri-mp2 aug-cc-pvdz aug-cc-pvdz/c tightscf
|  2> %pal nprocs 16 end
|  3>
|  4> * xyz 0 1
|  5> C     -0.370784   -1.943846    0.000000
|  6> C     -0.590876    1.724659    0.000000
|  7> C     -0.821447   -0.687962    0.000000
|  8> C      0.000000    0.523640    0.000000
|  9> C      1.497508    0.383184    0.000000
| 10> H     -1.054523   -2.781159    0.000000
| 11> H      0.684570   -2.180530    0.000000
| 12> H     -0.016812    2.641330    0.000000
| 13> H     -1.668879    1.820992    0.000000
| 14> H     -1.893631   -0.520009    0.000000
| 15> H      1.840844   -0.168419    0.877918
| 16> H      1.981179    1.358162    0.000000
| 17> H      1.840844   -0.168419   -0.877918
| 18> *
| 19>
| 20>                          ****END OF INPUT****

CARTESIAN COORDINATES (ANGSTROEM)
---------------------------------
  C     -0.370784   -1.943846    0.000000
  C     -0.590876    1.724659    0.000000
  C     -0.821447   -0.687962    0.000000
  C      0.000000    0.523640    0.000000
  C      1.497508    0.383184    0.000000
  H     -1.054523   -2.781159    0.000000
  H      0.684570   -2.180530    0.000000
  H     -0.016812    2.641330    0.000000
  H     -1.668879    1.820992    0.000000
  H     -1.893631   -0.520009    0.000000
  H      1.840844   -0.168419    0.877918
  H      1.981179    1.358162    0.000000
  H      1.840844   -0.168419   -0.877918

 Total Charge           Charge          ....    0
 Multiplicity           Mult            ....    1
 Number of Electrons    NEL             ....   38
 Basis Dimension        Dim             ....  187

ORBITAL ENERGIES
----------------

  NO   OCC          E(Eh)            E(eV)
   0   2.0000     -11.249210      -306.1066
   1   2.0000     -11.242218      -305.9163
   2   2.0000     -11.233172      -305.6702
   3   2.0000     -11.228753      -305.5499
   4   2.0000     -11.228398      -305.5403
   5   2.0000      -1.112590       -30.2751
   6   2.0000      -1.012591       -27.5540
   7   2.0000      -0.941427       -25.6175
   8   2.0000      -0.822326       -22.3766
   9   2.0000      -0.717662       -19.5286
  10   2.0000      -0.651574       -17.7302
  11   2.0000      -0.632208       -17.2033
  12   2.0000      -0.573318       -15.6008
  13   2.0000      -0.559371       -15.2212
  14   2.0000      -0.543400       -14.7867
  15   2.0000      -0.522467       -14.2171
  16   2.0000      -0.482331       -13.1249
  17   2.0000      -0.424280       -11.5453
  18   2.0000      -0.321411        -8.7460
  19   0.0000       0.037014         1.0072
  20   0.0000       0.042572         1.1584
  21   0.0000       0.046000         1.2517
  22   0.0000       0.059620         1.6223
  23   0.0000       0.060815         1.6549

MULLIKEN ATOMIC CHARGES
-----------------------
   0 C :    0.535586
   1 C :    1.037289
   2 C :    0.525538
   3 C :   -0.329222
   4 C :    0.270541
   5 H :   -0.334390
   6 H :   -0.397746
   7 H :   -0.400124
   8 H :   -0.402241
   9 H :   -0.570692
  10 H :    0.150644
  11 H :   -0.235826
  12 H :    0.150644
Sum of atomic charges:   -0.0000000

LOEWDIN ATOMIC CHARGES
----------------------
   0 C :    0.179578
   1 C :    0.206813
   2 C :   -0.045770
   3 C :   -0.303168
   4 C :    0.157559
   5 H :   -0.042694
   6 H :   -0.045894
   7 H :   -0.038328
   8 H :   -0.038481
   9 H :    0.000521
  10 H :   -0.006908
  11 H :   -0.016320
  12 H :   -0.006908

  Mayer bond orders larger than 0.100000
B(  0-C ,  1-C ) :   0.1554 B(  0-C ,  2-C ) :   1.7216 B(  0-C ,  5-H ) :   0.7120
B(  0-C ,  6-H ) :   0.7967 B(  1-C ,  2-C ) :  -0.2594 B(  1-C ,  3-C ) :   1.7210
B(  1-C ,  7-H ) :   0.5163 B(  1-C ,  8-H ) :   0.5286 B(  2-C ,  3-C ) :   1.3551
B(  2-C ,  4-C ) :  -0.1285 B(  2-C ,  5-H ) :   0.1667 B(  2-C ,  6-H ) :   0.1025
B(  2-C ,  9-H ) :   0.3374 B(  3-C ,  4-C ) :   1.3418 B(  3-C ,  6-H ) :  -0.1258
B(  3-C ,  7-H ) :   0.2492 B(  3-C ,  8-H ) :   0.3054 B(  3-C ,  9-H ) :   0.2582
B(  3-C , 10-H ) :   0.1653 B(  3-C , 11-H ) :   0.1426 B(  3-C , 12-H ) :   0.1653
B(  4-C , 10-H ) :   0.8068 B(  4-C , 11-H ) :   0.7848 B(  4-C , 12-H ) :   0.8068
B(  5-H ,  6-H ) :  -0.2095 B(  7-H ,  8-H ) :  -0.1624

MP2 TOTAL ENERGY:     -194.686860924 Eh
FINAL SINGLE POINT ENERGY      -194.686860923528

DIPOLE MOMENT
-------------
                                X             Y             Z
Electronic contribution:     -1.68787      -0.01125      -0.00000
Nuclear contribution   :      1.79529       0.00204       0.00000
                        -----------------------------------------
Total Dipole Moment    :      0.10742      -0.00921      -0.00000
                        -----------------------------------------
Magnitude (a.u.)       :      0.10782
Magnitude (Debye)      :      0.27405

Rotational constants in cm-1:     0.285858     0.139566     0.095429
Rotational constants in MHz :  8569.798578  4184.076005  2860.893392

                             ****ORCA TERMINATED NORMALLY****
TOTAL RUN TIME: 0 days 0 hours 0 minutes 32 seconds 618 msec
