                         Program Version 5.0.3 -  RELEASE  -
|  1> !ri-mp2 aug-cc-pvdz aug-cc-pvdz/c tightscf
|  2> %pal nprocs 16 end
|  3>
|  4> * xyz 0 1
|  5> Cl    -1.347415    1.412561    0.204092
|  6> S      2.973465    0.301056   -0.225140
|  7> N      0.624438   -1.122322    0.123077
|  8> C     -1.679642   -0.291748   -0.037658
|  9> C     -0.706921   -1.216488    0.644751
| 10> C      1.609055   -0.467672   -0.001390
| 11> C     -2.720952   -0.690146   -0.750013
| 12> H     -0.681309   -1.001003    1.716381
| 13> H     -1.057855   -2.239216    0.515322
| 14> H     -2.900921   -1.746442   -0.895230
| 15> H     -3.409606    0.008805   -1.199480
| 16> *
| 17>
| 18>                          ****END OF INPUT****

CARTESIAN COORDINATES (ANGSTROEM)
---------------------------------
  Cl    -1.347415    1.412561    0.204092
  S      2.973465    0.301056   -0.225140
  N      0.624438   -1.122322    0.123077
  C     -1.679642   -0.291748   -0.037658
  C     -0.706921   -1.216488    0.644751
  C      1.609055   -0.467672   -0.001390
  C     -2.720952   -0.690146   -0.750013
  H     -0.681309   -1.001003    1.716381
  H     -1.057855   -2.239216    0.515322
  H     -2.900921   -1.746442   -0.895230
  H     -3.409606    0.008805   -1.199480

 Total Charge           Charge          ....    0
 Multiplicity           Mult            ....    1
 Number of Electrons    NEL             ....   68
 Basis Dimension        Dim             ....  205

ORBITAL ENERGIES
----------------

  NO   OCC          E(Eh)            E(eV)
   0   2.0000    -104.852149     -2853.1720
   1   2.0000     -91.951268     -2502.1212
   2   2.0000     -15.620228      -425.0480
   3   2.0000     -11.387079      -309.8582
   4   2.0000     -11.335235      -308.4474
   5   2.0000     -11.332797      -308.3811
   6   2.0000     -11.271249      -306.7063
   7   2.0000     -10.578283      -287.8497
   8   2.0000      -8.954629      -243.6678
   9   2.0000      -8.046045      -218.9440
  10   2.0000      -8.042708      -218.8532
  11   2.0000      -8.042606      -218.8504
  12   2.0000      -6.637322      -180.6107
  13   2.0000      -6.633491      -180.5065
  14   2.0000      -6.633216      -180.4990
  15   2.0000      -1.307011       -35.5656
  16   2.0000      -1.184488       -32.2316
  17   2.0000      -1.076555       -29.2946
  18   2.0000      -1.036502       -28.2047
  19   2.0000      -0.991391       -26.9771
  20   2.0000      -0.802362       -21.8334
  21   2.0000      -0.734283       -19.9809
  22   2.0000      -0.688548       -18.7363
  23   2.0000      -0.672288       -18.2939
  24   2.0000      -0.617152       -16.7936
  25   2.0000      -0.595465       -16.2034
  26   2.0000      -0.570566       -15.5259
  27   2.0000      -0.535552       -14.5731
  28   2.0000      -0.525330       -14.2950
  29   2.0000      -0.510398       -13.8886
  30   2.0000      -0.469568       -12.7776
  31   2.0000      -0.392060       -10.6685
  32   2.0000      -0.363892        -9.9020
  33   2.0000      -0.357494        -9.7279
  34   0.0000       0.027716         0.7542
  35   0.0000       0.040886         1.1126
  36   0.0000       0.047678         1.2974
  37   0.0000       0.063518         1.7284
  38   0.0000       0.071007         1.9322

MULLIKEN ATOMIC CHARGES
-----------------------
   0 Cl:   -0.279899
   1 S :    0.152081
   2 N :   -0.337592
   3 C :   -0.220248
   4 C :    0.670492
   5 C :   -0.340011
   6 C :    1.080264
   7 H :    0.025694
   8 H :   -0.218420
   9 H :   -0.257235
  10 H :   -0.275126
Sum of atomic charges:   -0.0000000

LOEWDIN ATOMIC CHARGES
----------------------
   0 Cl:    0.582883
   1 S :    0.589383
   2 N :   -0.021718
   3 C :   -0.597047
   4 C :   -0.056236
   5 C :   -0.643484
   6 C :    0.163420
   7 H :    0.028229
   8 H :    0.016754
   9 H :   -0.028901
  10 H :   -0.033284

  Mayer bond orders larger than 0.100000
B(  0-Cl,  3-C ) :   1.1363 B(  0-Cl,  4-C ) :  -0.1506 B(  0-Cl,  6-C ) :  -0.2161
B(  1-S ,  5-C ) :   1.8385 B(  2-N ,  4-C ) :   0.7268 B(  2-N ,  5-C ) :   1.9613
B(  3-C ,  4-C ) :   1.0821 B(  3-C ,  6-C ) :   1.7177 B(  3-C , 10-H ) :   0.2159
B(  4-C ,  7-H ) :   0.8516 B(  4-C ,  8-H ) :   0.9480 B(  6-C ,  9-H ) :   0.7277
B(  6-C , 10-H ) :   0.6458 B(  9-H , 10-H ) :  -0.1500

MP2 TOTAL ENERGY:    -1066.272981150 Eh
FINAL SINGLE POINT ENERGY     -1066.272981150303

DIPOLE MOMENT
-------------
                                X             Y             Z
Electronic contribution:      4.48803       5.81296       0.36648
Nuclear contribution   :     -5.93644      -6.70551      -0.14083
                        -----------------------------------------
Total Dipole Moment    :     -1.44841      -0.89255       0.22565
                        -----------------------------------------
Magnitude (a.u.)       :      1.71623
Magnitude (Debye)      :      4.36232

Rotational constants in cm-1:     0.114344     0.030344     0.025465
Rotational constants in MHz :  3427.943744   909.678812   763.417871

                             ****ORCA TERMINATED NORMALLY****
TOTAL RUN TIME: 0 days 0 hours 0 minutes 42 seconds 88 msec
