                         Program Version 5.0.3 -  RELEASE  -
|  1> !ri-mp2 aug-cc-pvdz aug-cc-pvdz/c tightscf
|  2> %pal nprocs 16 end
|  3>
|  4> * xyz 0 1
|  5> O    -2.366456   -0.102241    0.000000
|  6> O     2.366456   -0.102242    0.000000
|  7> N     0.000000    1.711499    0.000000
|  8> N     0.000000    2.831814    0.000000
|  9> C     0.000000    0.410913    0.000000
| 10> C    -1.204476   -0.433611    0.000000
| 11> C     1.204475   -0.433612    0.000000
| 12> C    -0.666466   -1.837920    0.000000
| 13> C     0.666466   -1.837921    0.000000
| 14> H    -1.332425   -2.687206    0.000000
| 15> H     1.332424   -2.687207    0.000000
| 16> *
| 17>
| 18>                          ****END OF INPUT****

CARTESIAN COORDINATES (ANGSTROEM)
---------------------------------
  O     -2.366456   -0.102241    0.000000
  O      2.366456   -0.102242    0.000000
  N      0.000000    1.711499    0.000000
  N      0.000000    2.831814    0.000000
  C      0.000000    0.410913    0.000000
  C     -1.204476   -0.433611    0.000000
  C      1.204475   -0.433612    0.000000
  C     -0.666466   -1.837920    0.000000
  C      0.666466   -1.837921    0.000000
  H     -1.332425   -2.687206    0.000000
  H      1.332424   -2.687207    0.000000

 Total Charge           Charge          ....    0
 Multiplicity           Mult            ....    1
 Number of Electrons    NEL             ....   62
 Basis Dimension        Dim             ....  225

ORBITAL ENERGIES
----------------

  NO   OCC          E(Eh)            E(eV)
   0   2.0000     -20.583207      -560.0975
   1   2.0000     -20.583206      -560.0975
   2   2.0000     -15.805210      -430.0816
   3   2.0000     -15.744082      -428.4183
   4   2.0000     -11.379791      -309.6598
   5   2.0000     -11.379781      -309.6596
   6   2.0000     -11.307935      -307.7046
   7   2.0000     -11.295247      -307.3593
   8   2.0000     -11.293543      -307.3129
   9   2.0000      -1.535962       -41.7957
  10   2.0000      -1.423333       -38.7309
  11   2.0000      -1.418191       -38.5909
  12   2.0000      -1.211454       -32.9653
  13   2.0000      -1.140313       -31.0295
  14   2.0000      -0.928874       -25.2760
  15   2.0000      -0.927470       -25.2377
  16   2.0000      -0.807134       -21.9632
  17   2.0000      -0.737015       -20.0552
  18   2.0000      -0.723446       -19.6860
  19   2.0000      -0.718417       -19.5491
  20   2.0000      -0.694197       -18.8901
  21   2.0000      -0.683109       -18.5883
  22   2.0000      -0.641711       -17.4618
  23   2.0000      -0.627929       -17.0868
  24   2.0000      -0.614793       -16.7294
  25   2.0000      -0.601377       -16.3643
  26   2.0000      -0.556016       -15.1300
  27   2.0000      -0.476042       -12.9538
  28   2.0000      -0.430077       -11.7030
  29   2.0000      -0.426845       -11.6150
  30   2.0000      -0.369709       -10.0603
  31   0.0000       0.029861         0.8126
  32   0.0000       0.035234         0.9588
  33   0.0000       0.046539         1.2664
  34   0.0000       0.062875         1.7109
  35   0.0000       0.063030         1.7151

MULLIKEN ATOMIC CHARGES
-----------------------
   0 O :   -0.766091
   1 O :   -0.766093
   2 N :   -0.267381
   3 N :   -0.399424
   4 C :    1.209007
   5 C :    0.164728
   6 C :    0.164731
   7 C :    0.647519
   8 C :    0.647517
   9 H :   -0.317257
  10 H :   -0.317257
Sum of atomic charges:   -0.0000000

LOEWDIN ATOMIC CHARGES
----------------------
   0 O :    0.052999
   1 O :    0.052998
   2 N :   -0.057951
   3 N :    0.342791
   4 C :   -0.102546
   5 C :   -0.267798
   6 C :   -0.267798
   7 C :    0.110752
   8 C :    0.110752
   9 H :    0.012901
  10 H :    0.012900

  Mayer bond orders larger than 0.100000
B(  0-O ,  4-C ) :   0.1919 B(  0-O ,  5-C ) :   1.1038 B(  1-O ,  4-C ) :   0.1919
B(  1-O ,  6-C ) :   1.1038 B(  2-N ,  3-N ) :   1.8513 B(  2-N ,  4-C ) :   1.1474
B(  2-N ,  5-C ) :  -0.1781 B(  2-N ,  6-C ) :  -0.1781 B(  3-N ,  4-C ) :  -0.3069
B(  4-C ,  5-C ) :   0.5330 B(  4-C ,  6-C ) :   0.5330 B(  5-C ,  6-C ) :   0.3753
B(  5-C ,  7-C ) :   1.1999 B(  5-C ,  9-H ) :   0.1207 B(  6-C ,  8-C ) :   1.1999
B(  6-C , 10-H ) :   0.1207 B(  7-C ,  8-C ) :   2.0895 B(  7-C ,  9-H ) :   0.6496
B(  7-C , 10-H ) :   0.1141 B(  8-C ,  9-H ) :   0.1141 B(  8-C , 10-H ) :   0.6496

MP2 TOTAL ENERGY:     -450.474773476 Eh
FINAL SINGLE POINT ENERGY      -450.474773476356

DIPOLE MOMENT
-------------
                                X             Y             Z
Electronic contribution:     -0.00000       4.43671       0.00000
Nuclear contribution   :     -0.00000      -5.10366       0.00000
                        -----------------------------------------
Total Dipole Moment    :     -0.00000      -0.66695       0.00000
                        -----------------------------------------
Magnitude (a.u.)       :      0.66695
Magnitude (Debye)      :      1.69525

Rotational constants in cm-1:     0.073843     0.065926     0.034830
Rotational constants in MHz :  2213.743772  1976.419538  1044.180410

                             ****ORCA TERMINATED NORMALLY****
TOTAL RUN TIME: 0 days 0 hours 0 minutes 51 seconds 479 msec
