                         Program Version 5.0.3 -  RELEASE  -
|  1> !ri-mp2 aug-cc-pvdz aug-cc-pvdz/c tightscf
|  2> %pal nprocs 16 end
|  3>
|  4> * xyz 0 1
|  5> C      2.353096    0.002148    0.005068
|  6> C      1.834314   -1.289002    0.004046
|  7> C      1.509217    1.100037   -0.001011
|  8> C      0.457168   -1.465035    0.000236
|  9> C      0.115237    0.948254   -0.007408
| 10> C     -0.381938   -0.362325   -0.004647
| 11> N     -0.722435    2.046777   -0.068656
| 12> Cl    -2.123824   -0.611727    0.002158
| 13> H      3.423493    0.156593    0.009813
| 14> H      2.488997   -2.148477    0.007665
| 15> H      1.921615    2.101235   -0.007590
| 16> H      0.024888   -2.455106    0.003520
| 17> H     -0.338871    2.918571    0.253707
| 18> H     -1.680635    1.894648    0.199077
| 19> *
| 20>
| 21>                          ****END OF INPUT****

CARTESIAN COORDINATES (ANGSTROEM)
---------------------------------
  C      2.353096    0.002148    0.005068
  C      1.834314   -1.289002    0.004046
  C      1.509217    1.100037   -0.001011
  C      0.457168   -1.465035    0.000236
  C      0.115237    0.948254   -0.007408
  C     -0.381938   -0.362325   -0.004647
  N     -0.722435    2.046777   -0.068656
  Cl    -2.123824   -0.611727    0.002158
  H      3.423493    0.156593    0.009813
  H      2.488997   -2.148477    0.007665
  H      1.921615    2.101235   -0.007590
  H      0.024888   -2.455106    0.003520
  H     -0.338871    2.918571    0.253707
  H     -1.680635    1.894648    0.199077

 Total Charge           Charge          ....    0
 Multiplicity           Mult            ....    1
 Number of Electrons    NEL             ....   66
 Basis Dimension        Dim             ....  242

ORBITAL ENERGIES
----------------

  NO   OCC          E(Eh)            E(eV)
   0   2.0000    -104.839336     -2852.8234
   1   2.0000     -15.581936      -424.0060
   2   2.0000     -11.302778      -307.5642
   3   2.0000     -11.297156      -307.4112
   4   2.0000     -11.255572      -306.2797
   5   2.0000     -11.251015      -306.1557
   6   2.0000     -11.242455      -305.9228
   7   2.0000     -11.237666      -305.7924
   8   2.0000     -10.565255      -287.4952
   9   2.0000      -8.033010      -218.5893
  10   2.0000      -8.029921      -218.5053
  11   2.0000      -8.029637      -218.4975
  12   2.0000      -1.248576       -33.9755
  13   2.0000      -1.162873       -31.6434
  14   2.0000      -1.118378       -30.4326
  15   2.0000      -1.015619       -27.6364
  16   2.0000      -0.989012       -26.9124
  17   2.0000      -0.847026       -23.0487
  18   2.0000      -0.821373       -22.3507
  19   2.0000      -0.716615       -19.5001
  20   2.0000      -0.707512       -19.2524
  21   2.0000      -0.660991       -17.9865
  22   2.0000      -0.616674       -16.7805
  23   2.0000      -0.612597       -16.6696
  24   2.0000      -0.586510       -15.9597
  25   2.0000      -0.565079       -15.3766
  26   2.0000      -0.529772       -14.4158
  27   2.0000      -0.504477       -13.7275
  28   2.0000      -0.480673       -13.0798
  29   2.0000      -0.458027       -12.4636
  30   2.0000      -0.456690       -12.4272
  31   2.0000      -0.342043        -9.3075
  32   2.0000      -0.302959        -8.2439
  33   0.0000       0.032197         0.8761
  34   0.0000       0.039344         1.0706
  35   0.0000       0.044402         1.2082
  36   0.0000       0.057994         1.5781
  37   0.0000       0.061739         1.6800

MULLIKEN ATOMIC CHARGES
-----------------------
   0 C :    0.146947
   1 C :    0.854755
   2 C :    1.257562
   3 C :    0.419996
   4 C :    0.069126
   5 C :    0.051135
   6 N :   -0.384207
   7 Cl:   -0.482062
   8 H :   -0.438430
   9 H :   -0.445058
  10 H :   -0.599164
  11 H :   -0.389372
  12 H :   -0.050974
  13 H :   -0.010255
Sum of atomic charges:    0.0000000

LOEWDIN ATOMIC CHARGES
----------------------
   0 C :    0.006290
   1 C :   -0.004763
   2 C :    0.047431
   3 C :   -0.021256
   4 C :   -0.264148
   5 C :   -0.482531
   6 N :    0.237121
   7 Cl:    0.575818
   8 H :    0.003439
   9 H :   -0.005078
  10 H :    0.002533
  11 H :    0.000107
  12 H :   -0.025898
  13 H :   -0.069065

  Mayer bond orders larger than 0.100000
B(  0-C ,  1-C ) :   1.7556 B(  0-C ,  2-C ) :   1.7431 B(  0-C ,  5-C ) :   0.1531
B(  0-C ,  8-H ) :   0.3710 B(  0-C ,  9-H ) :   0.2456 B(  0-C , 10-H ) :   0.3169
B(  1-C ,  3-C ) :   1.6358 B(  1-C ,  4-C ) :   0.1604 B(  1-C ,  5-C ) :  -0.1506
B(  1-C ,  8-H ) :   0.1422 B(  1-C ,  9-H ) :   0.1990 B(  1-C , 10-H ) :  -0.1356
B(  2-C ,  3-C ) :   0.3131 B(  2-C ,  4-C ) :   1.7382 B(  2-C ,  5-C ) :  -0.2672
B(  2-C ,  6-N ) :  -0.1258 B(  2-C ,  8-H ) :   0.2499 B(  2-C , 10-H ) :  -0.4639
B(  3-C ,  4-C ) :  -0.1674 B(  3-C ,  5-C ) :   1.5165 B(  3-C ,  7-Cl) :  -0.3707
B(  3-C ,  9-H ) :   0.3257 B(  3-C , 10-H ) :   0.1508 B(  3-C , 11-H ) :   0.2515
B(  4-C ,  5-C ) :   1.6471 B(  4-C ,  6-N ) :   0.8054 B(  4-C ,  7-Cl) :  -0.3268
B(  4-C , 10-H ) :   0.9713 B(  5-C ,  7-Cl) :   1.0838 B(  5-C , 10-H ) :  -0.1807
B(  5-C , 11-H ) :   0.5381 B(  6-N , 10-H ) :  -0.1091 B(  6-N , 12-H ) :   1.1412
B(  6-N , 13-H ) :   1.0930

MP2 TOTAL ENERGY:     -745.830432611 Eh
FINAL SINGLE POINT ENERGY      -745.830432611334

DIPOLE MOMENT
-------------
                                X             Y             Z
Electronic contribution:     -8.12778      -2.75581      -0.12092
Nuclear contribution   :      8.62183       3.25943       0.44957
                        -----------------------------------------
Total Dipole Moment    :      0.49405       0.50361       0.32865
                        -----------------------------------------
Magnitude (a.u.)       :      0.77828
Magnitude (Debye)      :      1.97824

Rotational constants in cm-1:     0.098118     0.051007     0.033582
Rotational constants in MHz :  2941.490712  1529.142418  1006.768459

                             ****ORCA TERMINATED NORMALLY****
TOTAL RUN TIME: 0 days 0 hours 0 minutes 59 seconds 226 msec
