                         Program Version 5.0.3 -  RELEASE  -
|  1> !ri-mp2 aug-cc-pvdz aug-cc-pvdz/c tightscf
|  2> %pal nprocs 16 end
|  3>
|  4> * xyz 0 1
|  5> H      1.261590   -2.270226    0.000000
|  6> C      0.638250   -1.394165    0.000000
|  7> N      1.115640   -0.158335    0.000000
|  8> N     -0.709343   -1.427292    0.000000
|  9> N     -1.101004   -0.179300    0.000000
| 10> N      0.000000    0.555258    0.000000
| 11> H      0.482613    2.378013    0.888585
| 12> H     -1.062032    2.314158    0.000000
| 13> H      0.482613    2.378013   -0.888585
| 14> C     -0.021889    2.005452    0.000000
| 15> *
| 16>
| 17>                          ****END OF INPUT****

CARTESIAN COORDINATES (ANGSTROEM)
---------------------------------
  H      1.261590   -2.270226    0.000000
  C      0.638250   -1.394165    0.000000
  N      1.115640   -0.158335    0.000000
  N     -0.709343   -1.427292    0.000000
  N     -1.101004   -0.179300    0.000000
  N      0.000000    0.555258    0.000000
  H      0.482613    2.378013    0.888585
  H     -1.062032    2.314158    0.000000
  H      0.482613    2.378013   -0.888585
  C     -0.021889    2.005452    0.000000

 Total Charge           Charge          ....    0
 Multiplicity           Mult            ....    1
 Number of Electrons    NEL             ....   44
 Basis Dimension        Dim             ....  174

ORBITAL ENERGIES
----------------

  NO   OCC          E(Eh)            E(eV)
   0   2.0000     -15.712218      -427.5512
   1   2.0000     -15.673308      -426.4924
   2   2.0000     -15.632044      -425.3695
   3   2.0000     -15.614725      -424.8983
   4   2.0000     -11.307188      -307.6842
   5   2.0000     -11.304550      -307.6124
   6   2.0000      -1.509222       -41.0680
   7   2.0000      -1.271268       -34.5930
   8   2.0000      -1.198374       -32.6094
   9   2.0000      -1.022898       -27.8345
  10   2.0000      -0.884771       -24.0758
  11   2.0000      -0.853067       -23.2131
  12   2.0000      -0.738135       -20.0857
  13   2.0000      -0.706301       -19.2194
  14   2.0000      -0.641990       -17.4694
  15   2.0000      -0.601742       -16.3742
  16   2.0000      -0.598270       -16.2798
  17   2.0000      -0.562709       -15.3121
  18   2.0000      -0.497566       -13.5395
  19   2.0000      -0.470116       -12.7925
  20   2.0000      -0.435320       -11.8457
  21   2.0000      -0.402233       -10.9453
  22   0.0000       0.030994         0.8434
  23   0.0000       0.044674         1.2156
  24   0.0000       0.051821         1.4101
  25   0.0000       0.056931         1.5492
  26   0.0000       0.090635         2.4663

MULLIKEN ATOMIC CHARGES
-----------------------
   0 H :   -0.135893
   1 C :    1.038351
   2 N :   -0.437194
   3 N :   -0.461021
   4 N :   -0.369858
   5 N :   -0.336656
   6 H :   -0.047393
   7 H :   -0.151122
   8 H :   -0.047393
   9 C :    0.948180
Sum of atomic charges:    0.0000000

LOEWDIN ATOMIC CHARGES
----------------------
   0 H :   -0.005581
   1 C :   -0.077104
   2 N :    0.077230
   3 N :   -0.018650
   4 N :    0.055752
   5 N :   -0.261365
   6 H :   -0.003053
   7 H :   -0.006103
   8 H :   -0.003053
   9 C :    0.241926

  Mayer bond orders larger than 0.100000
B(  0-H ,  1-C ) :   0.9785 B(  0-H ,  2-N ) :  -0.1257 B(  1-C ,  2-N ) :   1.2642
B(  1-C ,  3-N ) :   1.1272 B(  2-N ,  5-N ) :   1.0226 B(  3-N ,  4-N ) :   1.1000
B(  3-N ,  5-N ) :   0.1275 B(  4-N ,  5-N ) :   1.2776 B(  5-N ,  9-C ) :   0.9023
B(  6-H ,  9-C ) :   0.9073 B(  7-H ,  9-C ) :   0.9358 B(  8-H ,  9-C ) :   0.9073

MP2 TOTAL ENERGY:     -296.808240022 Eh
FINAL SINGLE POINT ENERGY      -296.808240022327

DIPOLE MOMENT
-------------
                                X             Y             Z
Electronic contribution:     -0.59921      -3.71425      -0.00000
Nuclear contribution   :      1.14073       4.71039       0.00000
                        -----------------------------------------
Total Dipole Moment    :      0.54152       0.99614      -0.00000
                        -----------------------------------------
Magnitude (a.u.)       :      1.13381
Magnitude (Debye)      :      2.88192

Rotational constants in cm-1:     0.329597     0.131063     0.095465
Rotational constants in MHz :  9881.059717  3929.170116  2861.959413

                             ****ORCA TERMINATED NORMALLY****
TOTAL RUN TIME: 0 days 0 hours 0 minutes 34 seconds 570 msec
