                         Program Version 5.0.3 -  RELEASE  -
|  1> !ri-mp2 aug-cc-pvdz aug-cc-pvdz/c tightscf
|  2> %pal nprocs 16 end
|  3>
|  4> * xyz 0 1
|  5> S      1.989323   -0.009549   -0.145290
|  6> O      0.854042   -1.274861    0.212013
|  7> O      0.929171    1.296398    0.203214
|  8> O     -1.541919   -1.139480   -0.026054
|  9> C     -0.315704   -0.615131   -0.021948
| 10> C     -0.319252    0.726214   -0.022953
| 11> C     -1.682955    1.131606   -0.022667
| 12> C     -2.386914   -0.036529   -0.038427
| 13> H     -2.098136    2.123419   -0.033853
| 14> H     -3.432428   -0.264049   -0.118917
| 15> *
| 16>
| 17>                          ****END OF INPUT****

CARTESIAN COORDINATES (ANGSTROEM)
---------------------------------
  S      1.989323   -0.009549   -0.145290
  O      0.854042   -1.274861    0.212013
  O      0.929171    1.296398    0.203214
  O     -1.541919   -1.139480   -0.026054
  C     -0.315704   -0.615131   -0.021948
  C     -0.319252    0.726214   -0.022953
  C     -1.682955    1.131606   -0.022667
  C     -2.386914   -0.036529   -0.038427
  H     -2.098136    2.123419   -0.033853
  H     -3.432428   -0.264049   -0.118917

 Total Charge           Charge          ....    0
 Multiplicity           Mult            ....    1
 Number of Electrons    NEL             ....   66
 Basis Dimension        Dim             ....  206

ORBITAL ENERGIES
----------------

  NO   OCC          E(Eh)            E(eV)
   0   2.0000     -92.090502     -2505.9100
   1   2.0000     -20.663277      -562.2764
   2   2.0000     -20.655702      -562.0702
   3   2.0000     -20.645940      -561.8046
   4   2.0000     -11.366792      -309.3061
   5   2.0000     -11.316683      -307.9426
   6   2.0000     -11.304346      -307.6069
   7   2.0000     -11.270472      -306.6851
   8   2.0000      -9.079146      -247.0561
   9   2.0000      -6.760513      -183.9629
  10   2.0000      -6.759189      -183.9269
  11   2.0000      -6.755066      -183.8147
  12   2.0000      -1.512354       -41.1532
  13   2.0000      -1.457930       -39.6723
  14   2.0000      -1.398760       -38.0622
  15   2.0000      -1.114671       -30.3317
  16   2.0000      -1.023512       -27.8512
  17   2.0000      -0.941210       -25.6116
  18   2.0000      -0.852508       -23.1979
  19   2.0000      -0.811944       -22.0941
  20   2.0000      -0.747981       -20.3536
  21   2.0000      -0.704475       -19.1697
  22   2.0000      -0.681568       -18.5464
  23   2.0000      -0.640653       -17.4330
  24   2.0000      -0.632892       -17.2219
  25   2.0000      -0.611694       -16.6450
  26   2.0000      -0.599960       -16.3258
  27   2.0000      -0.584227       -15.8976
  28   2.0000      -0.569689       -15.5020
  29   2.0000      -0.527954       -14.3664
  30   2.0000      -0.419714       -11.4210
  31   2.0000      -0.384657       -10.4671
  32   2.0000      -0.308775        -8.4022
  33   0.0000       0.033366         0.9079
  34   0.0000       0.043875         1.1939
  35   0.0000       0.058969         1.6046
  36   0.0000       0.061721         1.6795
  37   0.0000       0.079232         2.1560

MULLIKEN ATOMIC CHARGES
-----------------------
   0 S :    0.977247
   1 O :   -1.063865
   2 O :   -1.148492
   3 O :   -0.779820
   4 C :    1.044222
   5 C :    0.253622
   6 C :    0.764987
   7 C :    0.497319
   8 H :   -0.261672
   9 H :   -0.283547
Sum of atomic charges:   -0.0000000

LOEWDIN ATOMIC CHARGES
----------------------
   0 S :    0.905039
   1 O :   -0.205737
   2 O :   -0.239960
   3 O :    0.117291
   4 C :   -0.341277
   5 C :   -0.308516
   6 C :    0.054831
   7 C :    0.035309
   8 H :   -0.002797
   9 H :   -0.014182

  Mayer bond orders larger than 0.100000
B(  0-S ,  1-O ) :   0.6303 B(  0-S ,  2-O ) :   0.6302 B(  1-O ,  4-C ) :   0.2240
B(  1-O ,  5-C ) :   0.2905 B(  2-O ,  4-C ) :   0.4432 B(  3-O ,  4-C ) :   0.7926
B(  3-O ,  6-C ) :   0.1006 B(  3-O ,  7-C ) :   0.5634 B(  3-O ,  9-H ) :  -0.1070
B(  4-C ,  5-C ) :   1.7072 B(  4-C ,  6-C ) :   0.1708 B(  5-C ,  6-C ) :   1.3343
B(  5-C ,  7-C ) :   0.1650 B(  5-C ,  8-H ) :   0.1884 B(  6-C ,  7-C ) :   1.5817
B(  6-C ,  8-H ) :   0.6015 B(  6-C ,  9-H ) :  -0.1598 B(  7-C ,  9-H ) :   1.0472

MP2 TOTAL ENERGY:     -775.905335688 Eh
FINAL SINGLE POINT ENERGY      -775.905335688209

DIPOLE MOMENT
-------------
                                X             Y             Z
Electronic contribution:      4.87089      -1.35869      -0.03785
Nuclear contribution   :     -5.32341       1.75478      -0.13542
                        -----------------------------------------
Total Dipole Moment    :     -0.45252       0.39609      -0.17327
                        -----------------------------------------
Magnitude (a.u.)       :      0.62585
Magnitude (Debye)      :      1.59079

Rotational constants in cm-1:     0.158156     0.053768     0.040535
Rotational constants in MHz :  4741.383214  1611.938591  1215.216762

                             ****ORCA TERMINATED NORMALLY****
TOTAL RUN TIME: 0 days 0 hours 0 minutes 53 seconds 533 msec
