                         Program Version 5.0.3 -  RELEASE  -
|  1> !ri-mp2 aug-cc-pvdz aug-cc-pvdz/c tightscf
|  2> %pal nprocs 16 end
|  3>
|  4> * xyz 0 1
|  5> C      2.315360   -0.488363    0.000127
|  6> C      1.228339    0.539082    0.000162
|  7> C     -0.105961    0.377961    0.000037
|  8> C     -1.055394    1.543354    0.000099
|  9> C     -0.727198   -0.958438   -0.000171
| 10> O     -1.927501   -1.139157   -0.000289
| 11> H      2.957003   -0.350602    0.874410
| 12> H      1.962408   -1.515125   -0.000023
| 13> H      2.957142   -0.350395   -0.874021
| 14> H      1.592453    1.563287    0.000311
| 15> H     -1.709375    1.509936    0.872664
| 16> H     -1.709240    1.510139   -0.872576
| 17> H     -0.516479    2.489320    0.000251
| 18> H     -0.044780   -1.824879   -0.000220
| 19> *
| 20>
| 21>                          ****END OF INPUT****

CARTESIAN COORDINATES (ANGSTROEM)
---------------------------------
  C      2.315360   -0.488363    0.000127
  C      1.228339    0.539082    0.000162
  C     -0.105961    0.377961    0.000037
  C     -1.055394    1.543354    0.000099
  C     -0.727198   -0.958438   -0.000171
  O     -1.927501   -1.139157   -0.000289
  H      2.957003   -0.350602    0.874410
  H      1.962408   -1.515125   -0.000023
  H      2.957142   -0.350395   -0.874021
  H      1.592453    1.563287    0.000311
  H     -1.709375    1.509936    0.872664
  H     -1.709240    1.510139   -0.872576
  H     -0.516479    2.489320    0.000251
  H     -0.044780   -1.824879   -0.000220

 Total Charge           Charge          ....    0
 Multiplicity           Mult            ....    1
 Number of Electrons    NEL             ....   46
 Basis Dimension        Dim             ....  210

ORBITAL ENERGIES
----------------

  NO   OCC          E(Eh)            E(eV)
   0   2.0000     -20.560979      -559.4927
   1   2.0000     -11.334075      -308.4159
   2   2.0000     -11.270123      -306.6756
   3   2.0000     -11.251572      -306.1708
   4   2.0000     -11.250212      -306.1338
   5   2.0000     -11.228584      -305.5453
   6   2.0000      -1.390075       -37.8259
   7   2.0000      -1.117036       -30.3961
   8   2.0000      -1.010804       -27.5054
   9   2.0000      -0.916552       -24.9406
  10   2.0000      -0.862307       -23.4646
  11   2.0000      -0.732968       -19.9451
  12   2.0000      -0.679349       -18.4860
  13   2.0000      -0.635894       -17.3036
  14   2.0000      -0.603357       -16.4182
  15   2.0000      -0.595348       -16.2003
  16   2.0000      -0.571043       -15.5389
  17   2.0000      -0.546295       -14.8654
  18   2.0000      -0.540099       -14.6968
  19   2.0000      -0.520044       -14.1511
  20   2.0000      -0.519002       -14.1228
  21   2.0000      -0.418030       -11.3752
  22   2.0000      -0.364823        -9.9273
  23   0.0000       0.029897         0.8135
  24   0.0000       0.041921         1.1407
  25   0.0000       0.047578         1.2947
  26   0.0000       0.050378         1.3709
  27   0.0000       0.061944         1.6856

MULLIKEN ATOMIC CHARGES
-----------------------
   0 C :    0.181145
   1 C :    0.301148
   2 C :   -0.125972
   3 C :    0.349544
   4 C :    0.813523
   5 O :   -0.826620
   6 H :    0.116841
   7 H :   -0.171556
   8 H :    0.116840
   9 H :   -0.524569
  10 H :    0.081522
  11 H :    0.081523
  12 H :   -0.179536
  13 H :   -0.213834
Sum of atomic charges:    0.0000000

LOEWDIN ATOMIC CHARGES
----------------------
   0 C :    0.153423
   1 C :    0.021333
   2 C :   -0.227556
   3 C :    0.163751
   4 C :   -0.063067
   5 O :    0.023521
   6 H :   -0.008040
   7 H :   -0.034180
   8 H :   -0.008040
   9 H :    0.007774
  10 H :   -0.006266
  11 H :   -0.006265
  12 H :   -0.016849
  13 H :    0.000461

  Mayer bond orders larger than 0.100000
B(  0-C ,  1-C ) :   1.0870 B(  0-C ,  6-H ) :   0.8726 B(  0-C ,  7-H ) :   0.9325
B(  0-C ,  8-H ) :   0.8726 B(  1-C ,  2-C ) :   1.8697 B(  1-C ,  3-C ) :  -0.1182
B(  1-C ,  4-C ) :  -0.2557 B(  1-C ,  6-H ) :   0.1177 B(  1-C ,  8-H ) :   0.1177
B(  1-C ,  9-H ) :   0.5199 B(  1-C , 12-H ) :  -0.1199 B(  2-C ,  3-C ) :   1.4821
B(  2-C ,  4-C ) :   1.0131 B(  2-C ,  9-H ) :   0.2468 B(  2-C , 10-H ) :   0.1519
B(  2-C , 11-H ) :   0.1519 B(  2-C , 12-H ) :   0.2670 B(  2-C , 13-H ) :   0.2491
B(  3-C ,  4-C ) :  -0.1552 B(  3-C , 10-H ) :   0.8296 B(  3-C , 11-H ) :   0.8296
B(  3-C , 12-H ) :   0.7489 B(  4-C ,  5-O ) :   1.4678 B(  4-C , 13-H ) :   0.6694

MP2 TOTAL ENERGY:     -269.771432901 Eh
FINAL SINGLE POINT ENERGY      -269.771432901387

DIPOLE MOMENT
-------------
                                X             Y             Z
Electronic contribution:     -4.08664      -2.63815      -0.00064
Nuclear contribution   :      5.60627       3.09517       0.00081
                        -----------------------------------------
Total Dipole Moment    :      1.51963       0.45702       0.00018
                        -----------------------------------------
Magnitude (a.u.)       :      1.58686
Magnitude (Debye)      :      4.03349

Rotational constants in cm-1:     0.187396     0.086236     0.060359
Rotational constants in MHz :  5617.989285  2585.281038  1809.521321

                             ****ORCA TERMINATED NORMALLY****
TOTAL RUN TIME: 0 days 0 hours 0 minutes 47 seconds 325 msec
