                         Program Version 5.0.3 -  RELEASE  -
|  1> !ri-mp2 aug-cc-pvdz aug-cc-pvdz/c tightscf
|  2> %pal nprocs 16 end
|  3>
|  4> * xyz 0 1
|  5> C      1.261707   -1.038161        0.000000
|  6> C      1.243130    0.321689        0.000000
|  7> C      0.059615   -1.797793        0.000000
|  8> C     -1.119466   -1.125244        0.000000
|  9> C      0.000000    1.062865        0.000000
| 10> N     -1.136850    0.234049        0.000000
| 11> O     -0.131026    2.279065        0.000000
| 12> H      2.211330   -1.558148        0.000000
| 13> H      2.150199    0.907306        0.000000
| 14> H      0.072270   -2.875784        0.000000
| 15> H     -2.082206   -1.615153        0.000000
| 16> H     -2.015349    0.730776        0.000000
| 17> *
| 18>
| 19>                          ****END OF INPUT****

CARTESIAN COORDINATES (ANGSTROEM)
---------------------------------
  C      1.261707   -1.038161    0.000000
  C      1.243130    0.321689    0.000000
  C      0.059615   -1.797793    0.000000
  C     -1.119466   -1.125244    0.000000
  C      0.000000    1.062865    0.000000
  N     -1.136850    0.234049    0.000000
  O     -0.131026    2.279065    0.000000
  H      2.211330   -1.558148    0.000000
  H      2.150199    0.907306    0.000000
  H      0.072270   -2.875784    0.000000
  H     -2.082206   -1.615153    0.000000
  H     -2.015349    0.730776    0.000000

 Total Charge           Charge          ....    0
 Multiplicity           Mult            ....    1
 Number of Electrons    NEL             ....   50
 Basis Dimension        Dim             ....  206

ORBITAL ENERGIES
----------------

  NO   OCC          E(Eh)            E(eV)
   0   2.0000     -20.522676      -558.4504
   1   2.0000     -15.632760      -425.3890
   2   2.0000     -11.362430      -309.1875
   3   2.0000     -11.319390      -308.0163
   4   2.0000     -11.279085      -306.9195
   5   2.0000     -11.247832      -306.0691
   6   2.0000     -11.245915      -306.0169
   7   2.0000      -1.384542       -37.6753
   8   2.0000      -1.281380       -34.8681
   9   2.0000      -1.113839       -30.3091
  10   2.0000      -1.035834       -28.1865
  11   2.0000      -0.891478       -24.2584
  12   2.0000      -0.865753       -23.5583
  13   2.0000      -0.760193       -20.6859
  14   2.0000      -0.699216       -19.0266
  15   2.0000      -0.681127       -18.5344
  16   2.0000      -0.642205       -17.4753
  17   2.0000      -0.616680       -16.7807
  18   2.0000      -0.607674       -16.5357
  19   2.0000      -0.562557       -15.3080
  20   2.0000      -0.540608       -14.7107
  21   2.0000      -0.489066       -13.3082
  22   2.0000      -0.426751       -11.6125
  23   2.0000      -0.426375       -11.6023
  24   2.0000      -0.315500        -8.5852
  25   0.0000       0.025742         0.7005
  26   0.0000       0.035033         0.9533
  27   0.0000       0.044949         1.2231
  28   0.0000       0.060154         1.6369
  29   0.0000       0.066732         1.8159

MULLIKEN ATOMIC CHARGES
-----------------------
   0 C :    0.042770
   1 C :    0.931882
   2 C :    0.839415
   3 C :    0.639238
   4 C :    0.553826
   5 N :   -0.465355
   6 O :   -0.838360
   7 H :   -0.392029
   8 H :   -0.457436
   9 H :   -0.430025
  10 H :   -0.362239
  11 H :   -0.061688
Sum of atomic charges:   -0.0000000

LOEWDIN ATOMIC CHARGES
----------------------
   0 C :    0.021049
   1 C :    0.073240
   2 C :   -0.001763
   3 C :    0.040791
   4 C :   -0.326254
   5 N :    0.136837
   6 O :   -0.006276
   7 H :    0.011719
   8 H :    0.004579
   9 H :   -0.007574
  10 H :    0.019949
  11 H :    0.033703

  Mayer bond orders larger than 0.100000
B(  0-C ,  1-C ) :   1.8314 B(  0-C ,  2-C ) :   1.3228 B(  0-C ,  3-C ) :   0.2080
B(  0-C ,  4-C ) :   0.1556 B(  0-C ,  7-H ) :   0.6197 B(  0-C ,  8-H ) :   0.2005
B(  0-C ,  9-H ) :   0.2241 B(  1-C ,  4-C ) :   0.7542 B(  1-C ,  6-O ) :  -0.1012
B(  1-C ,  8-H ) :   0.4101 B(  2-C ,  3-C ) :   1.4392 B(  2-C ,  4-C ) :  -0.1102
B(  2-C ,  9-H ) :   0.4284 B(  3-C ,  4-C ) :   0.1792 B(  3-C ,  5-N ) :   0.9086
B(  3-C , 10-H ) :   0.7757 B(  3-C , 11-H ) :  -0.1229 B(  4-C ,  5-N ) :   0.8954
B(  4-C ,  6-O ) :   1.2335 B(  4-C ,  8-H ) :   0.1665 B(  5-N , 11-H ) :   1.1657

MP2 TOTAL ENERGY:     -322.642668775 Eh
FINAL SINGLE POINT ENERGY      -322.642668775479

DIPOLE MOMENT
-------------
                                X             Y             Z
Electronic contribution:     -0.76122       2.47430      -0.00000
Nuclear contribution   :      0.32338      -4.31864       0.00000
                        -----------------------------------------
Total Dipole Moment    :     -0.43784      -1.84434      -0.00000
                        -----------------------------------------
Magnitude (a.u.)       :      1.89560
Magnitude (Debye)      :      4.81822

Rotational constants in cm-1:     0.189636     0.093366     0.062564
Rotational constants in MHz :  5685.146571  2799.055001  1875.608189

                             ****ORCA TERMINATED NORMALLY****
TOTAL RUN TIME: 0 days 0 hours 0 minutes 44 seconds 538 msec
