                         Program Version 5.0.3 -  RELEASE  -
|  1> !ri-mp2 aug-cc-pvdz aug-cc-pvdz/c tightscf
|  2> %pal nprocs 16 end
|  3>
|  4> * xyz 0 1
|  5> C      0.903475    0.760982   -0.089733
|  6> C     -0.418912    0.014271    0.005675
|  7> O      2.010756   -0.082096    0.112517
|  8> F     -0.478794   -0.982705   -0.908971
|  9> F     -1.449314    0.849658   -0.237742
| 10> F     -0.616843   -0.540066    1.211194
| 11> H      0.924062    1.263938   -1.060758
| 12> H      0.919466    1.514977    0.695005
| 13> H      2.067608   -0.715645   -0.610367
| 14> *
| 15>
| 16>                          ****END OF INPUT****

CARTESIAN COORDINATES (ANGSTROEM)
---------------------------------
  C      0.903475    0.760982   -0.089733
  C     -0.418912    0.014271    0.005675
  O      2.010756   -0.082096    0.112517
  F     -0.478794   -0.982705   -0.908971
  F     -1.449314    0.849658   -0.237742
  F     -0.616843   -0.540066    1.211194
  H      0.924062    1.263938   -1.060758
  H      0.919466    1.514977    0.695005
  H      2.067608   -0.715645   -0.610367

 Total Charge           Charge          ....    0
 Multiplicity           Mult            ....    1
 Number of Electrons    NEL             ....   50
 Basis Dimension        Dim             ....  165

ORBITAL ENERGIES
----------------

  NO   OCC          E(Eh)            E(eV)
   0   2.0000     -26.358556      -717.2528
   1   2.0000     -26.357752      -717.2309
   2   2.0000     -26.354615      -717.1455
   3   2.0000     -20.604925      -560.6885
   4   2.0000     -11.520215      -313.4810
   5   2.0000     -11.330451      -308.3172
   6   2.0000      -1.736984       -47.2657
   7   2.0000      -1.644249       -44.7423
   8   2.0000      -1.642368       -44.6911
   9   2.0000      -1.404536       -38.2194
  10   2.0000      -1.055541       -28.7227
  11   2.0000      -0.927895       -25.2493
  12   2.0000      -0.830690       -22.6042
  13   2.0000      -0.828789       -22.5525
  14   2.0000      -0.804956       -21.9040
  15   2.0000      -0.729457       -19.8495
  16   2.0000      -0.717156       -19.5148
  17   2.0000      -0.701492       -19.0886
  18   2.0000      -0.671205       -18.2644
  19   2.0000      -0.666994       -18.1498
  20   2.0000      -0.653466       -17.7817
  21   2.0000      -0.632445       -17.2097
  22   2.0000      -0.622738       -16.9456
  23   2.0000      -0.541226       -14.7275
  24   2.0000      -0.491971       -13.3872
  25   0.0000       0.033099         0.9007
  26   0.0000       0.048336         1.3153
  27   0.0000       0.055878         1.5205
  28   0.0000       0.079673         2.1680
  29   0.0000       0.111233         3.0268

MULLIKEN ATOMIC CHARGES
-----------------------
   0 C :    0.671955
   1 C :    1.856252
   2 O :   -0.647346
   3 F :   -0.649754
   4 F :   -0.626924
   5 F :   -0.608957
   6 H :   -0.035815
   7 H :   -0.098162
   8 H :    0.138752
Sum of atomic charges:   -0.0000000

LOEWDIN ATOMIC CHARGES
----------------------
   0 C :    0.001555
   1 C :   -0.364066
   2 O :    0.136208
   3 F :    0.070315
   4 F :    0.077248
   5 F :    0.086746
   6 H :    0.021611
   7 H :    0.020310
   8 H :   -0.049927

  Mayer bond orders larger than 0.100000
B(  0-C ,  1-C ) :   1.2186 B(  0-C ,  2-O ) :   0.5957 B(  0-C ,  3-F ) :   0.1229
B(  0-C ,  4-F ) :   0.1220 B(  0-C ,  6-H ) :   0.8906 B(  0-C ,  7-H ) :   0.9290
B(  1-C ,  3-F ) :   0.2871 B(  1-C ,  4-F ) :   0.2936 B(  1-C ,  5-F ) :   0.3280
B(  2-O ,  8-H ) :   1.0531

MP2 TOTAL ENERGY:     -451.816740109 Eh
FINAL SINGLE POINT ENERGY      -451.816740109388

DIPOLE MOMENT
-------------
                                X             Y             Z
Electronic contribution:     -5.63128      -2.16496       0.42373
Nuclear contribution   :      6.06025       2.55951      -0.97437
                        -----------------------------------------
Total Dipole Moment    :      0.42896       0.39454      -0.55063
                        -----------------------------------------
Magnitude (a.u.)       :      0.80179
Magnitude (Debye)      :      2.03800

Rotational constants in cm-1:     0.175792     0.093314     0.092236
Rotational constants in MHz :  5270.103005  2797.474434  2765.152956

                             ****ORCA TERMINATED NORMALLY****
TOTAL RUN TIME: 0 days 0 hours 0 minutes 33 seconds 316 msec
