                         Program Version 5.0.3 -  RELEASE  -
|  1> !ri-mp2 aug-cc-pvdz aug-cc-pvdz/c tightscf
|  2> %pal nprocs 16 end
|  3>
|  4> * xyz 0 1
|  5> C     -2.236267   -0.829238   -0.168845
|  6> C     -0.460692    1.802331   -0.023240
|  7> C     -0.836105   -0.683283    0.427209
|  8> C      1.500792    0.264459    0.201369
|  9> C      0.043139    0.374428   -0.255318
| 10> O      2.109917   -0.991421   -0.095886
| 11> H     -2.822588    0.085548   -0.074475
| 12> H     -2.186814   -1.082790   -1.230252
| 13> H     -2.790772   -1.623663    0.332395
| 14> H     -0.462102    2.045466    1.042320
| 15> H     -1.476626    1.936066   -0.392815
| 16> H      0.171194    2.533818   -0.530269
| 17> H     -0.321864   -1.644079    0.373767
| 18> H     -0.914617   -0.436619    1.491531
| 19> H      1.558959    0.362361    1.287435
| 20> H      2.087287    1.082323   -0.232344
| 21> H      0.027882    0.181040   -1.336643
| 22> H      2.185520   -1.080283   -1.050612
| 23> *
| 24>
| 25>                          ****END OF INPUT****

CARTESIAN COORDINATES (ANGSTROEM)
---------------------------------
  C     -2.236267   -0.829238   -0.168845
  C     -0.460692    1.802331   -0.023240
  C     -0.836105   -0.683283    0.427209
  C      1.500792    0.264459    0.201369
  C      0.043139    0.374428   -0.255318
  O      2.109917   -0.991421   -0.095886
  H     -2.822588    0.085548   -0.074475
  H     -2.186814   -1.082790   -1.230252
  H     -2.790772   -1.623663    0.332395
  H     -0.462102    2.045466    1.042320
  H     -1.476626    1.936066   -0.392815
  H      0.171194    2.533818   -0.530269
  H     -0.321864   -1.644079    0.373767
  H     -0.914617   -0.436619    1.491531
  H      1.558959    0.362361    1.287435
  H      2.087287    1.082323   -0.232344
  H      0.027882    0.181040   -1.336643
  H      2.185520   -1.080283   -1.050612

 Total Charge           Charge          ....    0
 Multiplicity           Mult            ....    1
 Number of Electrons    NEL             ....   50
 Basis Dimension        Dim             ....  246

ORBITAL ENERGIES
----------------

  NO   OCC          E(Eh)            E(eV)
   0   2.0000     -20.564311      -559.5834
   1   2.0000     -11.276621      -306.8524
   2   2.0000     -11.231540      -305.6257
   3   2.0000     -11.222075      -305.3682
   4   2.0000     -11.218794      -305.2789
   5   2.0000     -11.217016      -305.2305
   6   2.0000      -1.357898       -36.9503
   7   2.0000      -1.089723       -29.6529
   8   2.0000      -0.993179       -27.0258
   9   2.0000      -0.918836       -25.0028
  10   2.0000      -0.857509       -23.3340
  11   2.0000      -0.776110       -21.1190
  12   2.0000      -0.680562       -18.5190
  13   2.0000      -0.638451       -17.3731
  14   2.0000      -0.621096       -16.9009
  15   2.0000      -0.590299       -16.0629
  16   2.0000      -0.581638       -15.8272
  17   2.0000      -0.548702       -14.9310
  18   2.0000      -0.536398       -14.5961
  19   2.0000      -0.504558       -13.7297
  20   2.0000      -0.501084       -13.6352
  21   2.0000      -0.487640       -13.2693
  22   2.0000      -0.461906       -12.5691
  23   2.0000      -0.449523       -12.2321
  24   2.0000      -0.426595       -11.6082
  25   0.0000       0.035301         0.9606
  26   0.0000       0.042854         1.1661
  27   0.0000       0.044305         1.2056
  28   0.0000       0.049095         1.3359
  29   0.0000       0.064585         1.7575

MULLIKEN ATOMIC CHARGES
-----------------------
   0 C :    0.431622
   1 C :    0.737309
   2 C :    0.673376
   3 C :    1.469935
   4 C :   -1.454369
   5 O :   -0.717365
   6 H :   -0.117678
   7 H :   -0.076656
   8 H :   -0.072261
   9 H :   -0.025007
  10 H :   -0.105326
  11 H :   -0.071561
  12 H :   -0.153225
  13 H :   -0.146258
  14 H :   -0.140838
  15 H :   -0.120367
  16 H :   -0.244705
  17 H :    0.133376
Sum of atomic charges:    0.0000000

LOEWDIN ATOMIC CHARGES
----------------------
   0 C :    0.137687
   1 C :    0.162226
   2 C :   -0.040759
   3 C :   -0.025270
   4 C :   -0.257819
   5 O :    0.116178
   6 H :   -0.029116
   7 H :   -0.017347
   8 H :   -0.020054
   9 H :   -0.007911
  10 H :   -0.022792
  11 H :   -0.015555
  12 H :    0.009694
  13 H :    0.017405
  14 H :    0.012138
  15 H :    0.006327
  16 H :    0.037177
  17 H :   -0.062208

  Mayer bond orders larger than 0.100000
B(  0-C ,  2-C ) :   1.1157 B(  0-C ,  6-H ) :   0.9380 B(  0-C ,  7-H ) :   0.9408
B(  0-C ,  8-H ) :   0.8922 B(  1-C ,  2-C ) :  -0.1579 B(  1-C ,  3-C ) :  -0.1412
B(  1-C ,  4-C ) :   1.3687 B(  1-C ,  9-H ) :   0.8881 B(  1-C , 10-H ) :   0.8506
B(  1-C , 11-H ) :   0.8231 B(  2-C ,  4-C ) :   1.1009 B(  2-C ,  9-H ) :  -0.1085
B(  2-C , 12-H ) :   0.7125 B(  2-C , 13-H ) :   0.7518 B(  3-C ,  4-C ) :   1.1589
B(  3-C ,  5-O ) :   0.3704 B(  3-C , 14-H ) :   0.8430 B(  3-C , 15-H ) :   0.7880
B(  4-C ,  5-O ) :   0.3001 B(  4-C ,  9-H ) :   0.1949 B(  4-C , 10-H ) :   0.1116
B(  4-C , 12-H ) :   0.1702 B(  4-C , 13-H ) :   0.1699 B(  4-C , 14-H ) :   0.1364
B(  4-C , 15-H ) :   0.2184 B(  4-C , 16-H ) :   0.6944 B(  5-O , 17-H ) :   1.0861
B( 12-H , 13-H ) :  -0.1189 B( 14-H , 15-H ) :  -0.1448

MP2 TOTAL ENERGY:     -272.177980964 Eh
FINAL SINGLE POINT ENERGY      -272.177980963816

DIPOLE MOMENT
-------------
                                X             Y             Z
Electronic contribution:      4.97273      -2.06013      -0.10622
Nuclear contribution   :     -5.23184       2.49653      -0.34246
                        -----------------------------------------
Total Dipole Moment    :     -0.25911       0.43639      -0.44868
                        -----------------------------------------
Magnitude (a.u.)       :      0.67742
Magnitude (Debye)      :      1.72185

Rotational constants in cm-1:     0.154947     0.076932     0.056264
Rotational constants in MHz :  4645.187819  2306.369820  1686.737339

                             ****ORCA TERMINATED NORMALLY****
TOTAL RUN TIME: 0 days 0 hours 0 minutes 49 seconds 855 msec
