                         Program Version 5.0.3 -  RELEASE  -
|  1> !ri-mp2 aug-cc-pvdz aug-cc-pvdz/c tightscf
|  2> %pal nprocs 16 end
|  3>
|  4> * xyz 0 1
|  5> C      0.033256    1.911012   -0.006826
|  6> H     -0.986044    2.108323   -0.337943
|  7> H      0.093132    2.170909    1.052977
|  8> H      0.697112    2.582639   -0.552731
|  9> S     -2.221681   -0.406315   -0.170182
| 10> H     -2.696542   -1.507291    0.437978
| 11> C     -0.500845   -0.518317    0.493893
| 12> H     -0.520646   -0.291581    1.560399
| 13> H     -0.169368   -1.544432    0.361547
| 14> C      0.437737    0.451031   -0.231891
| 15> H      0.370711    0.237349   -1.303989
| 16> C      2.508461   -1.112816   -0.216529
| 17> H      3.564281   -1.156476    0.053666
| 18> H      2.018303   -1.959968    0.264207
| 19> H      2.437887   -1.258057   -1.296481
| 20> C      1.899038    0.226212    0.199414
| 21> H      2.499117    1.032331   -0.230492
| 22> H      1.973065    0.344573    1.285406
| 23> *
| 24>
| 25>                          ****END OF INPUT****

CARTESIAN COORDINATES (ANGSTROEM)
---------------------------------
  C      0.033256    1.911012   -0.006826
  H     -0.986044    2.108323   -0.337943
  H      0.093132    2.170909    1.052977
  H      0.697112    2.582639   -0.552731
  S     -2.221681   -0.406315   -0.170182
  H     -2.696542   -1.507291    0.437978
  C     -0.500845   -0.518317    0.493893
  H     -0.520646   -0.291581    1.560399
  H     -0.169368   -1.544432    0.361547
  C      0.437737    0.451031   -0.231891
  H      0.370711    0.237349   -1.303989
  C      2.508461   -1.112816   -0.216529
  H      3.564281   -1.156476    0.053666
  H      2.018303   -1.959968    0.264207
  H      2.437887   -1.258057   -1.296481
  C      1.899038    0.226212    0.199414
  H      2.499117    1.032331   -0.230492
  H      1.973065    0.344573    1.285406

 Total Charge           Charge          ....    0
 Multiplicity           Mult            ....    1
 Number of Electrons    NEL             ....   58
 Basis Dimension        Dim             ....  250

ORBITAL ENERGIES
----------------

  NO   OCC          E(Eh)            E(eV)
   0   2.0000     -91.949783     -2502.0808
   1   2.0000     -11.263500      -306.4954
   2   2.0000     -11.240620      -305.8728
   3   2.0000     -11.230184      -305.5888
   4   2.0000     -11.223731      -305.4133
   5   2.0000     -11.219960      -305.3106
   6   2.0000      -8.951270      -243.5764
   7   2.0000      -6.633384      -180.5036
   8   2.0000      -6.632029      -180.4667
   9   2.0000      -6.629937      -180.4098
  10   2.0000      -1.110240       -30.2112
  11   2.0000      -1.021491       -27.7962
  12   2.0000      -0.978555       -26.6278
  13   2.0000      -0.889935       -24.2164
  14   2.0000      -0.847056       -23.0496
  15   2.0000      -0.768803       -20.9202
  16   2.0000      -0.640252       -17.4221
  17   2.0000      -0.620383       -16.8815
  18   2.0000      -0.607975       -16.5438
  19   2.0000      -0.574927       -15.6446
  20   2.0000      -0.555610       -15.1189
  21   2.0000      -0.538590       -14.6558
  22   2.0000      -0.516451       -14.0533
  23   2.0000      -0.502911       -13.6849
  24   2.0000      -0.475619       -12.9423
  25   2.0000      -0.468940       -12.7605
  26   2.0000      -0.459583       -12.5059
  27   2.0000      -0.434459       -11.8222
  28   2.0000      -0.351403        -9.5622
  29   0.0000       0.035530         0.9668
  30   0.0000       0.041761         1.1364
  31   0.0000       0.046416         1.2630
  32   0.0000       0.047520         1.2931
  33   0.0000       0.063129         1.7178

MULLIKEN ATOMIC CHARGES
-----------------------
   0 C :    0.714557
   1 H :   -0.090540
   2 H :   -0.019253
   3 H :   -0.077480
   4 S :    0.242262
   5 H :    0.055670
   6 C :    0.322539
   7 H :   -0.135506
   8 H :   -0.200063
   9 C :   -0.999348
  10 H :   -0.258904
  11 C :    0.479017
  12 H :   -0.074714
  13 H :   -0.099757
  14 H :   -0.073118
  15 C :    0.523369
  16 H :   -0.162851
  17 H :   -0.145880
Sum of atomic charges:   -0.0000000

LOEWDIN ATOMIC CHARGES
----------------------
   0 C :    0.143322
   1 H :   -0.037060
   2 H :   -0.009066
   3 H :   -0.014953
   4 S :    0.723788
   5 H :   -0.233926
   6 C :   -0.276817
   7 H :   -0.025722
   8 H :   -0.042699
   9 C :   -0.318472
  10 H :    0.031030
  11 C :    0.139841
  12 H :   -0.019148
  13 H :   -0.029792
  14 H :   -0.014771
  15 C :   -0.045673
  16 H :    0.012705
  17 H :    0.017411

  Mayer bond orders larger than 0.100000
B(  0-C ,  1-H ) :   0.8317 B(  0-C ,  2-H ) :   0.9259 B(  0-C ,  3-H ) :   0.7882
B(  0-C ,  6-C ) :  -0.1177 B(  0-C ,  9-C ) :   1.3842 B(  0-C , 15-C ) :  -0.1468
B(  1-H ,  3-H ) :  -0.1002 B(  1-H ,  9-C ) :   0.1255 B(  2-H ,  9-C ) :   0.1514
B(  3-H ,  9-C ) :   0.1401 B(  4-S ,  5-H ) :   0.9630 B(  4-S ,  6-C ) :   1.2507
B(  4-S ,  7-H ) :  -0.1118 B(  4-S ,  8-H ) :  -0.1069 B(  4-S ,  9-C ) :  -0.2000
B(  6-C ,  7-H ) :   0.8874 B(  6-C ,  8-H ) :   0.8222 B(  6-C ,  9-C ) :   1.0786
B(  7-H ,  9-C ) :   0.1189 B(  8-H ,  9-C ) :   0.1877 B(  9-C , 10-H ) :   0.6783
B(  9-C , 15-C ) :   1.1687 B(  9-C , 16-H ) :   0.1970 B( 11-C , 12-H ) :   0.8799
B( 11-C , 13-H ) :   0.9403 B( 11-C , 14-H ) :   0.9413 B( 11-C , 15-C ) :   1.1737
B( 15-C , 16-H ) :   0.6760 B( 15-C , 17-H ) :   0.8496 B( 16-H , 17-H ) :  -0.1200

MP2 TOTAL ENERGY:     -594.787082696 Eh
FINAL SINGLE POINT ENERGY      -594.787082696308

DIPOLE MOMENT
-------------
                                X             Y             Z
Electronic contribution:     -9.15323      -1.03365      -1.03275
Nuclear contribution   :      9.77278       0.80575       1.35863
                        -----------------------------------------
Total Dipole Moment    :      0.61955      -0.22790       0.32588
                        -----------------------------------------
Magnitude (a.u.)       :      0.73619
Magnitude (Debye)      :      1.87125

Rotational constants in cm-1:     0.147763     0.049712     0.039839
Rotational constants in MHz :  4429.837584  1490.336753  1194.331828

                             ****ORCA TERMINATED NORMALLY****
TOTAL RUN TIME: 0 days 0 hours 0 minutes 48 seconds 541 msec
