                         Program Version 5.0.3 -  RELEASE  -
|  1> !ri-mp2 aug-cc-pvdz aug-cc-pvdz/c tightscf
|  2> %pal nprocs 16 end
|  3>
|  4> * xyz 0 1
|  5> O     3.181131   -0.527751   -0.000030
|  6> N    -0.504861   -0.979797    0.000012
|  7> N    -1.316186    1.134512    0.000007
|  8> N    -1.860177   -0.974625    0.000024
|  9> C    -0.220224    0.316198    0.000000
| 10> C    -2.321692    0.286099    0.000022
| 11> C     1.127446    0.850818   -0.000016
| 12> C     2.212545    0.104559   -0.000024
| 13> H    -2.366760   -1.842693    0.000036
| 14> H    -3.369334    0.536264    0.000030
| 15> H     1.267161    1.921766   -0.000023
| 16> *
| 17>
| 18>                          ****END OF INPUT****

CARTESIAN COORDINATES (ANGSTROEM)
---------------------------------
  O      3.181131   -0.527751   -0.000030
  N     -0.504861   -0.979797    0.000012
  N     -1.316186    1.134512    0.000007
  N     -1.860177   -0.974625    0.000024
  C     -0.220224    0.316198    0.000000
  C     -2.321692    0.286099    0.000022
  C      1.127446    0.850818   -0.000016
  C      2.212545    0.104559   -0.000024
  H     -2.366760   -1.842693    0.000036
  H     -3.369334    0.536264    0.000030
  H      1.267161    1.921766   -0.000023

 Total Charge           Charge          ....    0
 Multiplicity           Mult            ....    1
 Number of Electrons    NEL             ....   56
 Basis Dimension        Dim             ....  211

ORBITAL ENERGIES
----------------

  NO   OCC          E(Eh)            E(eV)
   0   2.0000     -20.651305      -561.9506
   1   2.0000     -15.665801      -426.2881
   2   2.0000     -15.603224      -424.5853
   3   2.0000     -15.573223      -423.7689
   4   2.0000     -11.404259      -310.3257
   5   2.0000     -11.336028      -308.4690
   6   2.0000     -11.322152      -308.0914
   7   2.0000     -11.257364      -306.3284
   8   2.0000      -1.491950       -40.5980
   9   2.0000      -1.425495       -38.7897
  10   2.0000      -1.211722       -32.9726
  11   2.0000      -1.147110       -31.2145
  12   2.0000      -1.061127       -28.8747
  13   2.0000      -0.883566       -24.0431
  14   2.0000      -0.844313       -22.9749
  15   2.0000      -0.780234       -21.2312
  16   2.0000      -0.756232       -20.5781
  17   2.0000      -0.697202       -18.9718
  18   2.0000      -0.658004       -17.9052
  19   2.0000      -0.646257       -17.5855
  20   2.0000      -0.641623       -17.4594
  21   2.0000      -0.619324       -16.8527
  22   2.0000      -0.570944       -15.5362
  23   2.0000      -0.516115       -14.0442
  24   2.0000      -0.455801       -12.4030
  25   2.0000      -0.452556       -12.3147
  26   2.0000      -0.410788       -11.1781
  27   2.0000      -0.326709        -8.8902
  28   0.0000       0.025195         0.6856
  29   0.0000       0.040735         1.1084
  30   0.0000       0.046558         1.2669
  31   0.0000       0.078911         2.1473
  32   0.0000       0.084986         2.3126

MULLIKEN ATOMIC CHARGES
-----------------------
   0 O :   -0.429224
   1 N :   -0.664325
   2 N :   -0.728263
   3 N :   -0.238408
   4 C :    0.201678
   5 C :    0.926333
   6 C :    1.690638
   7 C :   -0.239047
   8 H :    0.007526
   9 H :   -0.138115
  10 H :   -0.388793
Sum of atomic charges:    0.0000000

LOEWDIN ATOMIC CHARGES
----------------------
   0 O :    0.136989
   1 N :    0.067866
   2 N :    0.056274
   3 N :    0.029505
   4 C :   -0.330770
   5 C :    0.005301
   6 C :    0.032436
   7 C :   -0.046470
   8 H :    0.030624
   9 H :    0.015246
  10 H :    0.003000

  Mayer bond orders larger than 0.100000
B(  0-O ,  6-C ) :  -0.1959 B(  0-O ,  7-C ) :   2.1565 B(  1-N ,  3-N ) :   1.0207
B(  1-N ,  4-C ) :   1.3177 B(  1-N ,  8-H ) :  -0.1530 B(  2-N ,  4-C ) :   0.9906
B(  2-N ,  5-C ) :   1.4791 B(  3-N ,  4-C ) :  -0.1982 B(  3-N ,  5-C ) :   1.0465
B(  3-N ,  8-H ) :   1.1797 B(  4-C ,  6-C ) :   0.7709 B(  4-C ,  7-C ) :   0.3573
B(  4-C ,  9-H ) :   0.1342 B(  4-C , 10-H ) :   0.2652 B(  5-C ,  8-H ) :  -0.1134
B(  5-C ,  9-H ) :   0.8946 B(  6-C ,  7-C ) :   0.5370 B(  6-C , 10-H ) :   0.4525

MP2 TOTAL ENERGY:     -392.657769665 Eh
FINAL SINGLE POINT ENERGY      -392.657769665148

DIPOLE MOMENT
-------------
                                X             Y             Z
Electronic contribution:      2.94770      -0.76162      -0.00003
Nuclear contribution   :     -4.28100       0.58059       0.00004
                        -----------------------------------------
Total Dipole Moment    :     -1.33330      -0.18103       0.00001
                        -----------------------------------------
Magnitude (a.u.)       :      1.34553
Magnitude (Debye)      :      3.42007

Rotational constants in cm-1:     0.249354     0.042548     0.036346
Rotational constants in MHz :  7475.459801  1275.566514  1089.637473

                             ****ORCA TERMINATED NORMALLY****
TOTAL RUN TIME: 0 days 0 hours 0 minutes 46 seconds 275 msec
