                         Program Version 5.0.3 -  RELEASE  -
|  1> !ri-mp2 aug-cc-pvdz aug-cc-pvdz/c tightscf
|  2> %pal nprocs 16 end
|  3>
|  4> * xyz 0 1
|  5> C     -1.668271    0.461239   -0.765783
|  6> C     -0.367440    1.210024   -0.479394
|  7> C      0.689515    0.089265   -0.593294
|  8> C     -1.400343   -0.953458   -0.265482
|  9> C      1.856173    0.212999    0.364984
| 10> O     -0.004904   -1.155032   -0.396645
| 11> O     -0.459865    1.805275    0.814836
| 12> O     -1.823763   -1.057773    1.077424
| 13> O      2.879640   -0.684977   -0.054645
| 14> H     -2.518456    0.921796   -0.270321
| 15> H     -1.851125    0.435667   -1.839895
| 16> H     -0.178406    1.985616   -1.225571
| 17> H      1.093392    0.077484   -1.611423
| 18> H     -1.886026   -1.728437   -0.864473
| 19> H      1.515337   -0.010936    1.377193
| 20> H      2.231369    1.245733    0.342390
| 21> H      0.267278    2.422971    0.931773
| 22> H     -1.567425   -1.926770    1.403733
| 23> H      3.507392   -0.803481    0.662654
| 24> *
| 25>
| 26>                          ****END OF INPUT****

CARTESIAN COORDINATES (ANGSTROEM)
---------------------------------
  C     -1.668271    0.461239   -0.765783
  C     -0.367440    1.210024   -0.479394
  C      0.689515    0.089265   -0.593294
  C     -1.400343   -0.953458   -0.265482
  C      1.856173    0.212999    0.364984
  O     -0.004904   -1.155032   -0.396645
  O     -0.459865    1.805275    0.814836
  O     -1.823763   -1.057773    1.077424
  O      2.879640   -0.684977   -0.054645
  H     -2.518456    0.921796   -0.270321
  H     -1.851125    0.435667   -1.839895
  H     -0.178406    1.985616   -1.225571
  H      1.093392    0.077484   -1.611423
  H     -1.886026   -1.728437   -0.864473
  H      1.515337   -0.010936    1.377193
  H      2.231369    1.245733    0.342390
  H      0.267278    2.422971    0.931773
  H     -1.567425   -1.926770    1.403733
  H      3.507392   -0.803481    0.662654

 Total Charge           Charge          ....    0
 Multiplicity           Mult            ....    1
 Number of Electrons    NEL             ....   72
 Basis Dimension        Dim             ....  297

ORBITAL ENERGIES
----------------

  NO   OCC          E(Eh)            E(eV)
   0   2.0000     -20.574460      -559.8595
   1   2.0000     -20.570051      -559.7396
   2   2.0000     -20.565826      -559.6246
   3   2.0000     -20.565005      -559.6022
   4   2.0000     -11.336587      -308.4842
   5   2.0000     -11.298552      -307.4492
   6   2.0000     -11.288571      -307.1776
   7   2.0000     -11.287474      -307.1478
   8   2.0000     -11.233040      -305.6665
   9   2.0000      -1.414377       -38.4871
  10   2.0000      -1.370438       -37.2915
  11   2.0000      -1.365045       -37.1448
  12   2.0000      -1.336084       -36.3567
  13   2.0000      -1.058699       -28.8087
  14   2.0000      -1.027049       -27.9474
  15   2.0000      -0.908425       -24.7195
  16   2.0000      -0.813672       -22.1411
  17   2.0000      -0.799049       -21.7432
  18   2.0000      -0.742156       -20.1951
  19   2.0000      -0.717526       -19.5249
  20   2.0000      -0.685774       -18.6609
  21   2.0000      -0.676949       -18.4207
  22   2.0000      -0.642900       -17.4942
  23   2.0000      -0.631055       -17.1719
  24   2.0000      -0.601782       -16.3753
  25   2.0000      -0.575617       -15.6633
  26   2.0000      -0.560350       -15.2479
  27   2.0000      -0.550518       -14.9804
  28   2.0000      -0.540714       -14.7136
  29   2.0000      -0.515957       -14.0399
  30   2.0000      -0.497323       -13.5329
  31   2.0000      -0.483872       -13.1668
  32   2.0000      -0.461143       -12.5483
  33   2.0000      -0.450408       -12.2562
  34   2.0000      -0.439368       -11.9558
  35   2.0000      -0.424280       -11.5453
  36   0.0000       0.030915         0.8412
  37   0.0000       0.039529         1.0756
  38   0.0000       0.042476         1.1558
  39   0.0000       0.049687         1.3521
  40   0.0000       0.059073         1.6075

MULLIKEN ATOMIC CHARGES
-----------------------
   0 C :    0.260927
   1 C :    0.638983
   2 C :    0.223795
   3 C :    1.698659
   4 C :    1.250944
   5 O :   -1.129362
   6 O :   -0.805964
   7 O :   -0.731372
   8 O :   -0.731300
   9 H :   -0.079967
  10 H :   -0.096625
  11 H :   -0.103822
  12 H :   -0.237092
  13 H :   -0.316196
  14 H :   -0.073958
  15 H :   -0.141966
  16 H :    0.126314
  17 H :    0.106764
  18 H :    0.141237
Sum of atomic charges:    0.0000000

LOEWDIN ATOMIC CHARGES
----------------------
   0 C :    0.058631
   1 C :   -0.166698
   2 C :   -0.149017
   3 C :   -0.208270
   4 C :   -0.018692
   5 O :    0.048980
   6 O :    0.151564
   7 O :    0.146761
   8 O :    0.123886
   9 H :    0.026931
  10 H :    0.025885
  11 H :    0.037488
  12 H :    0.039813
  13 H :    0.027451
  14 H :    0.018259
  15 H :    0.007711
  16 H :   -0.060788
  17 H :   -0.049343
  18 H :   -0.060553

  Mayer bond orders larger than 0.100000
B(  0-C ,  1-C ) :   1.2985 B(  0-C ,  3-C ) :   1.1574 B(  0-C ,  9-H ) :   0.7792
B(  0-C , 10-H ) :   0.7253 B(  0-C , 13-H ) :   0.1160 B(  1-C ,  2-C ) :   1.2648
B(  1-C ,  4-C ) :  -0.1014 B(  1-C ,  5-O ) :   0.1006 B(  1-C ,  6-O ) :   0.3161
B(  1-C ,  9-H ) :   0.1249 B(  1-C , 10-H ) :   0.1166 B(  1-C , 11-H ) :   0.5713
B(  1-C , 12-H ) :   0.1128 B(  2-C ,  4-C ) :   1.2133 B(  2-C ,  5-O ) :   0.2718
B(  2-C , 11-H ) :   0.2177 B(  2-C , 12-H ) :   0.7512 B(  2-C , 14-H ) :   0.1169
B(  3-C ,  5-O ) :   0.6487 B(  3-C ,  7-O ) :   0.2952 B(  3-C , 13-H ) :   0.6304
B(  4-C ,  8-O ) :   0.4699 B(  4-C , 14-H ) :   0.8565 B(  4-C , 15-H ) :   0.8425
B(  6-O , 16-H ) :   1.0847 B(  7-O , 17-H ) :   1.1058 B(  8-O , 18-H ) :   1.1182
B(  9-H , 10-H ) :  -0.1112

MP2 TOTAL ENERGY:     -496.182245080 Eh
FINAL SINGLE POINT ENERGY      -496.182245080144

DIPOLE MOMENT
-------------
                                X             Y             Z
Electronic contribution:     -0.19474      -2.05631       0.91662
Nuclear contribution   :      0.62771       2.62357      -1.07993
                        -----------------------------------------
Total Dipole Moment    :      0.43297       0.56726      -0.16332
                        -----------------------------------------
Magnitude (a.u.)       :      0.73207
Magnitude (Debye)      :      1.86077

Rotational constants in cm-1:     0.079470     0.042803     0.034928
Rotational constants in MHz :  2382.439851  1283.209840  1047.107365

                             ****ORCA TERMINATED NORMALLY****
TOTAL RUN TIME: 0 days 0 hours 1 minutes 19 seconds 757 msec
