                         Program Version 5.0.3 -  RELEASE  -
|  1> !ri-mp2 aug-cc-pvdz aug-cc-pvdz/c tightscf
|  2> %pal nprocs 16 end
|  3>
|  4> * xyz 0 1
|  5> S     -1.176502    1.188742    0.000000
|  6> S      3.433639    0.144524    0.000000
|  7> N     -1.439432   -1.384848    0.000000
|  8> N      0.798861   -0.695105    0.000000
|  9> C     -0.535866   -0.452056    0.000000
| 10> C     -2.765808    0.515362    0.000000
| 11> C     -2.694196   -0.843269    0.000000
| 12> C      1.922253   -0.288941    0.000000
| 13> H     -3.639896    1.143256    0.000000
| 14> H     -3.548597   -1.502417    0.000000
| 15> *
| 16>
| 17>                          ****END OF INPUT****

CARTESIAN COORDINATES (ANGSTROEM)
---------------------------------
  S     -1.176502    1.188742    0.000000
  S      3.433639    0.144524    0.000000
  N     -1.439432   -1.384848    0.000000
  N      0.798861   -0.695105    0.000000
  C     -0.535866   -0.452056    0.000000
  C     -2.765808    0.515362    0.000000
  C     -2.694196   -0.843269    0.000000
  C      1.922253   -0.288941    0.000000
  H     -3.639896    1.143256    0.000000
  H     -3.548597   -1.502417    0.000000

 Total Charge           Charge          ....    0
 Multiplicity           Mult            ....    1
 Number of Electrons    NEL             ....   72
 Basis Dimension        Dim             ....  210

ORBITAL ENERGIES
----------------

  NO   OCC          E(Eh)            E(eV)
   0   2.0000     -92.019451     -2503.9765
   1   2.0000     -91.978216     -2502.8545
   2   2.0000     -15.645811      -425.7442
   3   2.0000     -15.599144      -424.4743
   4   2.0000     -11.414906      -310.6154
   5   2.0000     -11.391928      -309.9901
   6   2.0000     -11.294261      -307.3325
   7   2.0000     -11.289782      -307.2106
   8   2.0000      -9.021770      -245.4948
   9   2.0000      -8.981366      -244.3954
  10   2.0000      -6.703233      -182.4042
  11   2.0000      -6.702413      -182.3819
  12   2.0000      -6.700437      -182.3282
  13   2.0000      -6.663934      -181.3349
  14   2.0000      -6.660143      -181.2317
  15   2.0000      -6.659933      -181.2260
  16   2.0000      -1.356022       -36.8992
  17   2.0000      -1.290428       -35.1143
  18   2.0000      -1.093073       -29.7440
  19   2.0000      -1.083635       -29.4872
  20   2.0000      -1.022988       -27.8369
  21   2.0000      -0.905536       -24.6409
  22   2.0000      -0.819010       -22.2864
  23   2.0000      -0.729814       -19.8592
  24   2.0000      -0.660162       -17.9639
  25   2.0000      -0.639688       -17.4068
  26   2.0000      -0.639591       -17.4042
  27   2.0000      -0.616473       -16.7751
  28   2.0000      -0.557288       -15.1646
  29   2.0000      -0.555978       -15.1289
  30   2.0000      -0.524143       -14.2627
  31   2.0000      -0.459576       -12.5057
  32   2.0000      -0.422468       -11.4959
  33   2.0000      -0.400481       -10.8977
  34   2.0000      -0.388959       -10.5841
  35   2.0000      -0.331449        -9.0192
  36   0.0000       0.029880         0.8131
  37   0.0000       0.045257         1.2315
  38   0.0000       0.051120         1.3911
  39   0.0000       0.056302         1.5321
  40   0.0000       0.072584         1.9751

MULLIKEN ATOMIC CHARGES
-----------------------
   0 S :    0.523351
   1 S :    0.189356
   2 N :   -0.519297
   3 N :   -0.480552
   4 C :    0.217567
   5 C :    0.270219
   6 C :    0.785072
   7 C :   -0.382381
   8 H :   -0.372823
   9 H :   -0.230512
Sum of atomic charges:    0.0000000

LOEWDIN ATOMIC CHARGES
----------------------
   0 S :    0.995639
   1 S :    0.646874
   2 N :    0.006238
   3 N :   -0.031722
   4 C :   -0.527322
   5 C :   -0.280509
   6 C :   -0.135155
   7 C :   -0.610550
   8 H :   -0.056143
   9 H :   -0.007350

  Mayer bond orders larger than 0.100000
B(  0-S ,  4-C ) :   1.2363 B(  0-S ,  5-C ) :   0.9427 B(  0-S ,  8-H ) :  -0.1225
B(  1-S ,  7-C ) :   1.8570 B(  2-N ,  4-C ) :   1.5749 B(  2-N ,  6-C ) :   0.8513
B(  3-N ,  4-C ) :   0.5777 B(  3-N ,  7-C ) :   2.0908 B(  4-C ,  7-C ) :  -0.2611
B(  5-C ,  6-C ) :   1.8272 B(  5-C ,  8-H ) :   0.8993 B(  6-C ,  9-H ) :   0.9118

MP2 TOTAL ENERGY:    -1057.741796214 Eh
FINAL SINGLE POINT ENERGY     -1057.741796214249

DIPOLE MOMENT
-------------
                                X             Y             Z
Electronic contribution:      5.93005       1.04408       0.00000
Nuclear contribution   :     -6.90580      -0.39228       0.00000
                        -----------------------------------------
Total Dipole Moment    :     -0.97575       0.65180       0.00000
                        -----------------------------------------
Magnitude (a.u.)       :      1.17343
Magnitude (Debye)      :      2.98262

Rotational constants in cm-1:     0.171349     0.023647     0.020779
Rotational constants in MHz :  5136.912881   708.906885   622.939648

                             ****ORCA TERMINATED NORMALLY****
TOTAL RUN TIME: 0 days 0 hours 0 minutes 40 seconds 294 msec
