                         Program Version 5.0.3 -  RELEASE  -
|  1> !ri-mp2 aug-cc-pvdz aug-cc-pvdz/c tightscf
|  2> %pal nprocs 16 end
|  3>
|  4> * xyz 0 1
|  5> C      1.231266   -1.050200        0.000000
|  6> C      1.247252    0.302719        0.000000
|  7> C     -0.014010   -1.744866        0.000000
|  8> C      0.000000    1.044703        0.000000
|  9> N     -1.158816   -1.129309        0.000000
| 10> N     -1.120005    0.204852        0.000000
| 11> O     -0.133213    2.257718        0.000000
| 12> H      2.151945   -1.618873        0.000000
| 13> H      2.161023    0.878599        0.000000
| 14> H     -0.060616   -2.824365        0.000000
| 15> H     -2.021955    0.659959        0.000000
| 16> *
| 17>
| 18>                          ****END OF INPUT****

CARTESIAN COORDINATES (ANGSTROEM)
---------------------------------
  C      1.231266   -1.050200    0.000000
  C      1.247252    0.302719    0.000000
  C     -0.014010   -1.744866    0.000000
  C      0.000000    1.044703    0.000000
  N     -1.158816   -1.129309    0.000000
  N     -1.120005    0.204852    0.000000
  O     -0.133213    2.257718    0.000000
  H      2.151945   -1.618873    0.000000
  H      2.161023    0.878599    0.000000
  H     -0.060616   -2.824365    0.000000
  H     -2.021955    0.659959    0.000000

 Total Charge           Charge          ....    0
 Multiplicity           Mult            ....    1
 Number of Electrons    NEL             ....   50
 Basis Dimension        Dim             ....  197

ORBITAL ENERGIES
----------------

  NO   OCC          E(Eh)            E(eV)
   0   2.0000     -20.536113      -558.8160
   1   2.0000     -15.657611      -426.0653
   2   2.0000     -15.654827      -425.9895
   3   2.0000     -11.375585      -309.5454
   4   2.0000     -11.300109      -307.4916
   5   2.0000     -11.293163      -307.3026
   6   2.0000     -11.277793      -306.8843
   7   2.0000      -1.414122       -38.4802
   8   2.0000      -1.359083       -36.9825
   9   2.0000      -1.150021       -31.2937
  10   2.0000      -1.112937       -30.2845
  11   2.0000      -0.926538       -25.2124
  12   2.0000      -0.896267       -24.3887
  13   2.0000      -0.777645       -21.1608
  14   2.0000      -0.732018       -19.9192
  15   2.0000      -0.682611       -18.5748
  16   2.0000      -0.645759       -17.5720
  17   2.0000      -0.637391       -17.3443
  18   2.0000      -0.609818       -16.5940
  19   2.0000      -0.587620       -15.9899
  20   2.0000      -0.522244       -14.2110
  21   2.0000      -0.501478       -13.6459
  22   2.0000      -0.442514       -12.0414
  23   2.0000      -0.428001       -11.6465
  24   2.0000      -0.348786        -9.4910
  25   0.0000       0.026703         0.7266
  26   0.0000       0.040725         1.1082
  27   0.0000       0.046930         1.2770
  28   0.0000       0.052360         1.4248
  29   0.0000       0.059428         1.6171

MULLIKEN ATOMIC CHARGES
-----------------------
   0 C :    0.715783
   1 C :    0.631463
   2 C :    0.464358
   3 C :    0.811543
   4 N :   -0.312837
   5 N :   -0.479316
   6 O :   -0.814368
   7 H :   -0.387662
   8 H :   -0.405749
   9 H :   -0.271761
  10 H :    0.048545
Sum of atomic charges:   -0.0000000

LOEWDIN ATOMIC CHARGES
----------------------
   0 C :    0.040941
   1 C :    0.095949
   2 C :   -0.026933
   3 C :   -0.321978
   4 N :    0.066324
   5 N :    0.086396
   6 O :    0.003851
   7 H :    0.011493
   8 H :    0.014116
   9 H :    0.000206
  10 H :    0.029635

  Mayer bond orders larger than 0.100000
B(  0-C ,  1-C ) :   1.8390 B(  0-C ,  2-C ) :   1.1477 B(  0-C ,  7-H ) :   0.5743
B(  1-C ,  3-C ) :   0.9042 B(  1-C ,  7-H ) :   0.1117 B(  1-C ,  8-H ) :   0.5946
B(  2-C ,  4-N ) :   1.6879 B(  2-C ,  7-H ) :   0.1207 B(  2-C ,  9-H ) :   0.8126
B(  3-C ,  4-N ) :  -0.1107 B(  3-C ,  5-N ) :   0.9083 B(  3-C ,  6-O ) :   1.2948
B(  3-C ,  8-H ) :   0.1466 B(  4-N ,  5-N ) :   1.1338 B(  4-N , 10-H ) :  -0.1396
B(  5-N , 10-H ) :   1.1018

MP2 TOTAL ENERGY:     -338.644341226 Eh
FINAL SINGLE POINT ENERGY      -338.644341226078

DIPOLE MOMENT
-------------
                                X             Y             Z
Electronic contribution:     -1.54812       1.32315      -0.00000
Nuclear contribution   :      2.16455      -2.80914       0.00000
                        -----------------------------------------
Total Dipole Moment    :      0.61643      -1.48600      -0.00000
                        -----------------------------------------
Magnitude (a.u.)       :      1.60878
Magnitude (Debye)      :      4.08919

Rotational constants in cm-1:     0.193986     0.095809     0.064134
Rotational constants in MHz :  5815.566481  2872.275672  1922.676520

                             ****ORCA TERMINATED NORMALLY****
TOTAL RUN TIME: 0 days 0 hours 0 minutes 38 seconds 146 msec
