                         Program Version 5.0.3 -  RELEASE  -
|  1> !ri-mp2 aug-cc-pvdz aug-cc-pvdz/c tightscf
|  2> %pal nprocs 16 end
|  3>
|  4> * xyz 0 1
|  5> S     0.000000     0.000000    1.252467
|  6> C     0.000000     1.350899   -0.004471
|  7> C     0.000000    -1.350899   -0.004471
|  8> C     0.000000     0.662535   -1.335066
|  9> C     0.000000    -0.662535   -1.335066
| 10> H    -0.881617     1.980110    0.130213
| 11> H     0.881617     1.980110    0.130213
| 12> H     0.881617    -1.980110    0.130213
| 13> H    -0.881617    -1.980110    0.130213
| 14> H     0.000000     1.252912   -2.242943
| 15> H     0.000000    -1.252912   -2.242943
| 16> *
| 17>
| 18>                          ****END OF INPUT****

CARTESIAN COORDINATES (ANGSTROEM)
---------------------------------
  S      0.000000    0.000000    1.252467
  C      0.000000    1.350899   -0.004471
  C      0.000000   -1.350899   -0.004471
  C      0.000000    0.662535   -1.335066
  C      0.000000   -0.662535   -1.335066
  H     -0.881617    1.980110    0.130213
  H      0.881617    1.980110    0.130213
  H      0.881617   -1.980110    0.130213
  H     -0.881617   -1.980110    0.130213
  H      0.000000    1.252912   -2.242943
  H      0.000000   -1.252912   -2.242943

 Total Charge           Charge          ....    0
 Multiplicity           Mult            ....    1
 Number of Electrons    NEL             ....   46
 Basis Dimension        Dim             ....  173

ORBITAL ENERGIES
----------------

  NO   OCC          E(Eh)            E(eV)
   0   2.0000     -91.943214     -2501.9020
   1   2.0000     -11.268063      -306.6196
   2   2.0000     -11.268047      -306.6192
   3   2.0000     -11.248262      -306.0808
   4   2.0000     -11.246498      -306.0328
   5   2.0000      -8.944857      -243.4019
   6   2.0000      -6.626666      -180.3208
   7   2.0000      -6.625557      -180.2906
   8   2.0000      -6.623366      -180.2310
   9   2.0000      -1.138381       -30.9769
  10   2.0000      -0.987113       -26.8607
  11   2.0000      -0.975167       -26.5356
  12   2.0000      -0.802608       -21.8401
  13   2.0000      -0.742248       -20.1976
  14   2.0000      -0.672528       -18.3004
  15   2.0000      -0.619274       -16.8513
  16   2.0000      -0.579456       -15.7678
  17   2.0000      -0.559985       -15.2380
  18   2.0000      -0.519097       -14.1253
  19   2.0000      -0.486411       -13.2359
  20   2.0000      -0.431719       -11.7477
  21   2.0000      -0.370500       -10.0818
  22   2.0000      -0.331683        -9.0256
  23   0.0000       0.034099         0.9279
  24   0.0000       0.043291         1.1780
  25   0.0000       0.052794         1.4366
  26   0.0000       0.054050         1.4708
  27   0.0000       0.062541         1.7018

MULLIKEN ATOMIC CHARGES
-----------------------
   0 S :    0.665538
   1 C :   -0.186662
   2 C :   -0.186662
   3 C :    0.095375
   4 C :    0.095375
   5 H :    0.038084
   6 H :    0.038084
   7 H :    0.038084
   8 H :    0.038084
   9 H :   -0.317649
  10 H :   -0.317649
Sum of atomic charges:    0.0000000

LOEWDIN ATOMIC CHARGES
----------------------
   0 S :    0.818483
   1 C :   -0.263758
   2 C :   -0.263758
   3 C :   -0.070962
   4 C :   -0.070962
   5 H :   -0.035406
   6 H :   -0.035406
   7 H :   -0.035406
   8 H :   -0.035406
   9 H :   -0.003710
  10 H :   -0.003710

  Mayer bond orders larger than 0.100000
B(  0-S ,  1-C ) :   1.0240 B(  0-S ,  2-C ) :   1.0240 B(  0-S ,  3-C ) :  -0.1208
B(  0-S ,  4-C ) :  -0.1208 B(  1-C ,  2-C ) :   0.2418 B(  1-C ,  3-C ) :   1.2580
B(  1-C ,  4-C ) :  -0.1019 B(  1-C ,  5-H ) :   0.8300 B(  1-C ,  6-H ) :   0.8300
B(  2-C ,  3-C ) :  -0.1019 B(  2-C ,  4-C ) :   1.2580 B(  2-C ,  7-H ) :   0.8300
B(  2-C ,  8-H ) :   0.8300 B(  3-C ,  4-C ) :   2.3320 B(  3-C ,  5-H ) :   0.1444
B(  3-C ,  6-H ) :   0.1444 B(  3-C ,  9-H ) :   0.6927 B(  3-C , 10-H ) :   0.1091
B(  4-C ,  7-H ) :   0.1444 B(  4-C ,  8-H ) :   0.1444 B(  4-C ,  9-H ) :   0.1091
B(  4-C , 10-H ) :   0.6927

MP2 TOTAL ENERGY:     -553.195339655 Eh
FINAL SINGLE POINT ENERGY      -553.195339654511

DIPOLE MOMENT
-------------
                                X             Y             Z
Electronic contribution:     -0.00000       0.00000       3.23173
Nuclear contribution   :      0.00000       0.00000      -4.01480
                        -----------------------------------------
Total Dipole Moment    :     -0.00000       0.00000      -0.78307
                        -----------------------------------------
Magnitude (a.u.)       :      0.78307
Magnitude (Debye)      :      1.99040

Rotational constants in cm-1:     0.220389     0.158631     0.095515
Rotational constants in MHz :  6607.104448  4755.638350  2863.467745

                             ****ORCA TERMINATED NORMALLY****
TOTAL RUN TIME: 0 days 0 hours 0 minutes 37 seconds 452 msec
