                         Program Version 5.0.3 -  RELEASE  -
|  1> !ri-mp2 aug-cc-pvdz aug-cc-pvdz/c tightscf
|  2> %pal nprocs 16 end
|  3>
|  4> * xyz 0 1
|  5> C     -0.376341    0.220360    0.000000
|  6> H      1.502631    0.816125    0.875477
|  7> H      1.502631    0.816125   -0.875477
|  8> N      1.913976   -1.014914    0.000000
|  9> H      1.709887   -1.574258    0.817358
| 10> H      1.709887   -1.574258   -0.817358
| 11> N     -0.906035    1.595947    0.000000
| 12> H     -0.583445    2.106254   -0.814987
| 13> H     -0.583445    2.106254    0.814987
| 14> C      1.179166    0.245313    0.000000
| 15> C     -0.906035   -0.473601   -1.257115
| 16> C     -0.906035   -0.473601    1.257115
| 17> H     -0.558883    0.037001   -2.158942
| 18> H     -0.558883    0.037001    2.158942
| 19> H     -0.574785   -1.511227    1.310395
| 20> H     -0.574785   -1.511227   -1.310395
| 21> H     -1.995459   -0.462925   -1.263115
| 22> H     -1.995459   -0.462925    1.263115
| 23> *
| 24>
| 25>                          ****END OF INPUT****

CARTESIAN COORDINATES (ANGSTROEM)
---------------------------------
  C     -0.376341    0.220360    0.000000
  H      1.502631    0.816125    0.875477
  H      1.502631    0.816125   -0.875477
  N      1.913976   -1.014914    0.000000
  H      1.709887   -1.574258    0.817358
  H      1.709887   -1.574258   -0.817358
  N     -0.906035    1.595947    0.000000
  H     -0.583445    2.106254   -0.814987
  H     -0.583445    2.106254    0.814987
  C      1.179166    0.245313    0.000000
  C     -0.906035   -0.473601   -1.257115
  C     -0.906035   -0.473601    1.257115
  H     -0.558883    0.037001   -2.158942
  H     -0.558883    0.037001    2.158942
  H     -0.574785   -1.511227    1.310395
  H     -0.574785   -1.511227   -1.310395
  H     -1.995459   -0.462925   -1.263115
  H     -1.995459   -0.462925    1.263115

 Total Charge           Charge          ....    0
 Multiplicity           Mult            ....    1
 Number of Electrons    NEL             ....   50
 Basis Dimension        Dim             ....  246

ORBITAL ENERGIES
----------------

  NO   OCC          E(Eh)            E(eV)
   0   2.0000     -15.548049      -423.0839
   1   2.0000     -15.546286      -423.0360
   2   2.0000     -11.263997      -306.5089
   3   2.0000     -11.251277      -306.1628
   4   2.0000     -11.218739      -305.2774
   5   2.0000     -11.218722      -305.2769
   6   2.0000      -1.204531       -32.7769
   7   2.0000      -1.165126       -31.7047
   8   2.0000      -1.018984       -27.7280
   9   2.0000      -0.939176       -25.5563
  10   2.0000      -0.904987       -24.6259
  11   2.0000      -0.754392       -20.5281
  12   2.0000      -0.676487       -18.4082
  13   2.0000      -0.653728       -17.7889
  14   2.0000      -0.643848       -17.5200
  15   2.0000      -0.612020       -16.6539
  16   2.0000      -0.566122       -15.4050
  17   2.0000      -0.556101       -15.1323
  18   2.0000      -0.531224       -14.4554
  19   2.0000      -0.508936       -13.8488
  20   2.0000      -0.507764       -13.8169
  21   2.0000      -0.487884       -13.2760
  22   2.0000      -0.464025       -12.6268
  23   2.0000      -0.429038       -11.6747
  24   2.0000      -0.360341        -9.8054
  25   0.0000       0.034955         0.9512
  26   0.0000       0.043176         1.1749
  27   0.0000       0.045539         1.2392
  28   0.0000       0.051021         1.3884
  29   0.0000       0.065444         1.7808

MULLIKEN ATOMIC CHARGES
-----------------------
   0 C :   -3.423877
   1 H :   -0.078017
   2 H :   -0.078017
   3 N :   -0.451150
   4 H :    0.013319
   5 H :    0.013319
   6 N :   -0.041485
   7 H :   -0.027084
   8 H :   -0.027084
   9 C :    1.599875
  10 C :    1.299471
  11 C :    1.299471
  12 H :   -0.042207
  13 H :   -0.042207
  14 H :   -0.010495
  15 H :   -0.010495
  16 H :    0.003332
  17 H :    0.003332
Sum of atomic charges:    0.0000000

LOEWDIN ATOMIC CHARGES
----------------------
   0 C :   -0.507078
   1 H :    0.015678
   2 H :    0.015678
   3 N :    0.186375
   4 H :   -0.056972
   5 H :   -0.056972
   6 N :    0.214516
   7 H :   -0.043824
   8 H :   -0.043824
   9 C :   -0.027613
  10 C :    0.178975
  11 C :    0.178975
  12 H :   -0.007725
  13 H :   -0.007725
  14 H :   -0.014321
  15 H :   -0.014321
  16 H :   -0.004911
  17 H :   -0.004911

  Mayer bond orders larger than 0.100000
B(  0-C ,  1-H ) :   0.1911 B(  0-C ,  2-H ) :   0.1911 B(  0-C ,  3-N ) :   0.2004
B(  0-C ,  7-H ) :   0.1299 B(  0-C ,  8-H ) :   0.1299 B(  0-C ,  9-C ) :   0.5863
B(  0-C , 10-C ) :   1.2418 B(  0-C , 11-C ) :   1.2418 B(  0-C , 12-H ) :   0.2797
B(  0-C , 13-H ) :   0.2797 B(  0-C , 14-H ) :   0.1542 B(  0-C , 15-H ) :   0.1542
B(  0-C , 16-H ) :   0.2835 B(  0-C , 17-H ) :   0.2835 B(  1-H ,  2-H ) :  -0.1679
B(  1-H ,  9-C ) :   0.7327 B(  2-H ,  9-C ) :   0.7327 B(  3-N ,  4-H ) :   1.0649
B(  3-N ,  5-H ) :   1.0649 B(  3-N ,  9-C ) :   0.6827 B(  6-N ,  7-H ) :   1.0104
B(  6-N ,  8-H ) :   1.0104 B( 10-C , 11-C ) :  -0.1340 B( 10-C , 12-H ) :   0.6934
B( 10-C , 15-H ) :   0.7296 B( 10-C , 16-H ) :   0.7093 B( 11-C , 13-H ) :   0.6934
B( 11-C , 14-H ) :   0.7296 B( 11-C , 17-H ) :   0.7093 B( 12-H , 16-H ) :  -0.1054
B( 13-H , 17-H ) :  -0.1054

MP2 TOTAL ENERGY:     -268.362037060 Eh
FINAL SINGLE POINT ENERGY      -268.362037059924

DIPOLE MOMENT
-------------
                                X             Y             Z
Electronic contribution:      1.02845       1.12899      -0.00000
Nuclear contribution   :     -1.05904      -1.25126       0.00000
                        -----------------------------------------
Total Dipole Moment    :     -0.03058      -0.12227      -0.00000
                        -----------------------------------------
Magnitude (a.u.)       :      0.12604
Magnitude (Debye)      :      0.32037

Rotational constants in cm-1:     0.146871     0.084933     0.084187
Rotational constants in MHz :  4403.075168  2546.241081  2523.876475

                             ****ORCA TERMINATED NORMALLY****
TOTAL RUN TIME: 0 days 0 hours 0 minutes 49 seconds 134 msec
