                         Program Version 5.0.3 -  RELEASE  -
|  1> !ri-mp2 aug-cc-pvdz aug-cc-pvdz/c tightscf
|  2> %pal nprocs 16 end
|  3>
|  4> * xyz 0 1
|  5> C      0.287231   -0.610477    1.268740
|  6> C      0.287231   -0.610477   -1.268740
|  7> C      0.287231    0.234800    0.000000
|  8> O     -0.802494    1.166277    0.000000
|  9> H      1.168231   -1.253175    1.311423
| 10> H      0.281273    0.027361    2.152009
| 11> H     -0.596203   -1.253979    1.303814
| 12> H      1.168231   -1.253175   -1.311423
| 13> H      0.281273    0.027361   -2.152009
| 14> H     -0.596203   -1.253979   -1.303814
| 15> H      1.172769    0.873582    0.000000
| 16> H     -1.629582    0.672719    0.000000
| 17> *
| 18>
| 19>                          ****END OF INPUT****

CARTESIAN COORDINATES (ANGSTROEM)
---------------------------------
  C      0.287231   -0.610477    1.268740
  C      0.287231   -0.610477   -1.268740
  C      0.287231    0.234800    0.000000
  O     -0.802494    1.166277    0.000000
  H      1.168231   -1.253175    1.311423
  H      0.281273    0.027361    2.152009
  H     -0.596203   -1.253979    1.303814
  H      1.168231   -1.253175   -1.311423
  H      0.281273    0.027361   -2.152009
  H     -0.596203   -1.253979   -1.303814
  H      1.172769    0.873582    0.000000
  H     -1.629582    0.672719    0.000000

 Total Charge           Charge          ....    0
 Multiplicity           Mult            ....    1
 Number of Electrons    NEL             ....   34
 Basis Dimension        Dim             ....  164

ORBITAL ENERGIES
----------------

  NO   OCC          E(Eh)            E(eV)
   0   2.0000     -20.561539      -559.5079
   1   2.0000     -11.285191      -307.0856
   2   2.0000     -11.223186      -305.3984
   3   2.0000     -11.223167      -305.3979
   4   2.0000      -1.356813       -36.9207
   5   2.0000      -1.044040       -28.4098
   6   2.0000      -0.941655       -25.6237
   7   2.0000      -0.815923       -22.2024
   8   2.0000      -0.660907       -17.9842
   9   2.0000      -0.639300       -17.3962
  10   2.0000      -0.599329       -16.3086
  11   2.0000      -0.576855       -15.6970
  12   2.0000      -0.543654       -14.7936
  13   2.0000      -0.514364       -13.9966
  14   2.0000      -0.509529       -13.8650
  15   2.0000      -0.468974       -12.7614
  16   2.0000      -0.437321       -11.9001
  17   0.0000       0.035882         0.9764
  18   0.0000       0.045853         1.2477
  19   0.0000       0.048570         1.3217
  20   0.0000       0.052947         1.4408
  21   0.0000       0.072150         1.9633

MULLIKEN ATOMIC CHARGES
-----------------------
   0 C :    0.545260
   1 C :    0.545260
   2 C :    0.071493
   3 O :   -0.744935
   4 H :   -0.033963
   5 H :   -0.039036
   6 H :   -0.084409
   7 H :   -0.033963
   8 H :   -0.039036
   9 H :   -0.084409
  10 H :   -0.237390
  11 H :    0.135126
Sum of atomic charges:    0.0000000

LOEWDIN ATOMIC CHARGES
----------------------
   0 C :    0.153584
   1 C :    0.153584
   2 C :   -0.306512
   3 O :    0.121878
   4 H :   -0.014228
   5 H :   -0.012614
   6 H :   -0.016037
   7 H :   -0.014228
   8 H :   -0.012614
   9 H :   -0.016037
  10 H :    0.026045
  11 H :   -0.062820

  Mayer bond orders larger than 0.100000
B(  0-C ,  1-C ) :  -0.1135 B(  0-C ,  2-C ) :   1.3749 B(  0-C ,  4-H ) :   0.8695
B(  0-C ,  5-H ) :   0.8616 B(  0-C ,  6-H ) :   0.8793 B(  1-C ,  2-C ) :   1.3749
B(  1-C ,  7-H ) :   0.8695 B(  1-C ,  8-H ) :   0.8616 B(  1-C ,  9-H ) :   0.8793
B(  2-C ,  3-O ) :   0.2959 B(  2-C ,  5-H ) :   0.1234 B(  2-C ,  6-H ) :   0.1173
B(  2-C ,  8-H ) :   0.1234 B(  2-C ,  9-H ) :   0.1173 B(  2-C , 10-H ) :   0.7632
B(  3-O , 11-H ) :   1.0803

MP2 TOTAL ENERGY:     -193.806252737 Eh
FINAL SINGLE POINT ENERGY      -193.806252736576

DIPOLE MOMENT
-------------
                                X             Y             Z
Electronic contribution:     -1.27695       2.90101      -0.00000
Nuclear contribution   :      1.31451      -3.60722       0.00000
                        -----------------------------------------
Total Dipole Moment    :      0.03756      -0.70622      -0.00000
                        -----------------------------------------
Magnitude (a.u.)       :      0.70721
Magnitude (Debye)      :      1.79760

Rotational constants in cm-1:     0.282411     0.267466     0.158344
Rotational constants in MHz :  8466.481008  8018.420023  4747.031513

                             ****ORCA TERMINATED NORMALLY****
TOTAL RUN TIME: 0 days 0 hours 0 minutes 27 seconds 97 msec
