                         Program Version 5.0.3 -  RELEASE  -
|  1> !ri-mp2 aug-cc-pvdz aug-cc-pvdz/c tightscf
|  2> %pal nprocs 16 end
|  3>
|  4> * xyz 0 1
|  5> C      2.063464   -1.503763        0.000000
|  6> C      2.365819   -0.135580        0.000000
|  7> C      0.760060   -1.938693        0.000000
|  8> C      1.333452    0.772214        0.000000
|  9> C     -0.327896   -1.035393        0.000000
| 10> C      0.000000    0.344759        0.000000
| 11> N     -1.591077   -1.520223        0.000000
| 12> N     -1.021402    1.372732        0.000000
| 13> O     -0.674531    2.546284        0.000000
| 14> O     -2.211698    1.027891        0.000000
| 15> H      2.862699   -2.232880        0.000000
| 16> H      3.391203    0.202815        0.000000
| 17> H      0.541477   -2.998734        0.000000
| 18> H      1.518872    1.834417        0.000000
| 19> H     -1.742811   -2.511061        0.000000
| 20> H     -2.363649   -0.876785        0.000000
| 21> *
| 22>
| 23>                          ****END OF INPUT****

CARTESIAN COORDINATES (ANGSTROEM)
---------------------------------
  C      2.063464   -1.503763    0.000000
  C      2.365819   -0.135580    0.000000
  C      0.760060   -1.938693    0.000000
  C      1.333452    0.772214    0.000000
  C     -0.327896   -1.035393    0.000000
  C      0.000000    0.344759    0.000000
  N     -1.591077   -1.520223    0.000000
  N     -1.021402    1.372732    0.000000
  O     -0.674531    2.546284    0.000000
  O     -2.211698    1.027891    0.000000
  H      2.862699   -2.232880    0.000000
  H      3.391203    0.202815    0.000000
  H      0.541477   -2.998734    0.000000
  H      1.518872    1.834417    0.000000
  H     -1.742811   -2.511061    0.000000
  H     -2.363649   -0.876785    0.000000

 Total Charge           Charge          ....    0
 Multiplicity           Mult            ....    1
 Number of Electrons    NEL             ....   72
 Basis Dimension        Dim             ....  284

ORBITAL ENERGIES
----------------

  NO   OCC          E(Eh)            E(eV)
   0   2.0000     -20.606891      -560.7420
   1   2.0000     -20.604614      -560.6801
   2   2.0000     -15.858980      -431.5448
   3   2.0000     -15.596644      -424.4063
   4   2.0000     -11.337949      -308.5213
   5   2.0000     -11.300351      -307.4982
   6   2.0000     -11.277069      -306.8646
   7   2.0000     -11.274872      -306.8049
   8   2.0000     -11.255741      -306.2843
   9   2.0000     -11.247429      -306.0581
  10   2.0000      -1.603968       -43.6462
  11   2.0000      -1.395122       -37.9632
  12   2.0000      -1.267565       -34.4922
  13   2.0000      -1.172336       -31.9009
  14   2.0000      -1.096036       -29.8246
  15   2.0000      -1.028608       -27.9899
  16   2.0000      -0.954287       -25.9675
  17   2.0000      -0.861696       -23.4479
  18   2.0000      -0.843863       -22.9627
  19   2.0000      -0.772566       -21.0226
  20   2.0000      -0.730186       -19.8694
  21   2.0000      -0.728692       -19.8287
  22   2.0000      -0.721503       -19.6331
  23   2.0000      -0.715973       -19.4826
  24   2.0000      -0.661764       -18.0075
  25   2.0000      -0.625988       -17.0340
  26   2.0000      -0.624566       -16.9953
  27   2.0000      -0.563190       -15.3252
  28   2.0000      -0.561914       -15.2905
  29   2.0000      -0.530102       -14.4248
  30   2.0000      -0.493178       -13.4201
  31   2.0000      -0.486455       -13.2371
  32   2.0000      -0.476172       -12.9573
  33   2.0000      -0.451272       -12.2797
  34   2.0000      -0.376706       -10.2507
  35   2.0000      -0.315899        -8.5961
  36   0.0000       0.026130         0.7110
  37   0.0000       0.034866         0.9488
  38   0.0000       0.041628         1.1328
  39   0.0000       0.043266         1.1773
  40   0.0000       0.057599         1.5673

MULLIKEN ATOMIC CHARGES
-----------------------
   0 C :    0.313823
   1 C :    0.387460
   2 C :    1.147469
   3 C :    0.354885
   4 C :   -0.126821
   5 C :    1.607580
   6 N :   -0.307946
   7 N :    0.360724
   8 O :   -0.800559
   9 O :   -0.899216
  10 H :   -0.443512
  11 H :   -0.435223
  12 H :   -0.610306
  13 H :   -0.516784
  14 H :   -0.083393
  15 H :    0.051819
Sum of atomic charges:   -0.0000000

LOEWDIN ATOMIC CHARGES
----------------------
   0 C :    0.028578
   1 C :    0.009249
   2 C :    0.058240
   3 C :    0.065138
   4 C :   -0.158268
   5 C :   -0.062129
   6 N :    0.281245
   7 N :   -0.321057
   8 O :    0.090920
   9 O :    0.081393
  10 H :    0.012750
  11 H :   -0.002957
  12 H :    0.003736
  13 H :    0.003955
  14 H :   -0.011662
  15 H :   -0.079132

  Mayer bond orders larger than 0.100000
B(  0-C ,  1-C ) :   1.6955 B(  0-C ,  2-C ) :   1.7824 B(  0-C ,  4-C ) :   0.1546
B(  0-C , 10-H ) :   0.2865 B(  0-C , 11-H ) :   0.1108 B(  0-C , 12-H ) :   0.3066
B(  1-C ,  3-C ) :   2.2123 B(  1-C ,  4-C ) :   0.1385 B(  1-C ,  5-C ) :  -0.1021
B(  1-C , 10-H ) :   0.1699 B(  1-C , 11-H ) :   0.1776 B(  1-C , 12-H ) :  -0.1182
B(  1-C , 13-H ) :   0.3318 B(  2-C ,  3-C ) :   0.2952 B(  2-C ,  4-C ) :   1.4128
B(  2-C ,  6-N ) :  -0.1407 B(  2-C , 10-H ) :   0.3206 B(  2-C , 12-H ) :  -0.4493
B(  3-C ,  5-C ) :   1.1436 B(  3-C , 11-H ) :   0.4415 B(  4-C ,  5-C ) :   1.0706
B(  4-C ,  6-N ) :   1.0536 B(  4-C , 12-H ) :   0.9441 B(  4-C , 13-H ) :  -0.1203
B(  4-C , 15-H ) :  -0.1167 B(  5-C ,  7-N ) :   0.2396 B(  5-C ,  8-O ) :  -0.1809
B(  5-C , 12-H ) :  -0.1123 B(  5-C , 13-H ) :   0.6097 B(  6-N , 12-H ) :  -0.1051
B(  6-N , 14-H ) :   1.1124 B(  6-N , 15-H ) :   1.0722 B(  7-N ,  8-O ) :   1.1683
B(  7-N ,  9-O ) :   1.1224 B(  8-O ,  9-O ) :   0.1656 B( 14-H , 15-H ) :  -0.1051

MP2 TOTAL ENERGY:     -490.841082476 Eh
FINAL SINGLE POINT ENERGY      -490.841082475763

DIPOLE MOMENT
-------------
                                X             Y             Z
Electronic contribution:     -3.20065       4.55924      -0.00000
Nuclear contribution   :      4.05975      -6.38949       0.00000
                        -----------------------------------------
Total Dipole Moment    :      0.85910      -1.83026      -0.00000
                        -----------------------------------------
Magnitude (a.u.)       :      2.02185
Magnitude (Debye)      :      5.13914

Rotational constants in cm-1:     0.078077     0.042522     0.027529
Rotational constants in MHz :  2340.678108  1274.791330   825.308085

                             ****ORCA TERMINATED NORMALLY****
TOTAL RUN TIME: 0 days 0 hours 1 minutes 25 seconds 300 msec
