                         Program Version 5.0.3 -  RELEASE  -
|  1> !ri-mp2 aug-cc-pvdz aug-cc-pvdz/c tightscf
|  2> %pal nprocs 16 end
|  3>
|  4> * xyz 0 1
|  5> C      0.585236   -1.371153    0.000000
|  6> C      0.000000    0.803622    0.000000
|  7> N     -0.706083   -1.394643    0.000000
|  8> N      1.075996   -0.090990    0.000000
|  9> N     -1.065835   -0.067566    0.000000
| 10> O      0.019362    2.016386    0.000000
| 11> H      1.203231   -2.252103    0.000000
| 12> H      2.035972    0.202774    0.000000
| 13> H     -2.034065    0.195812    0.000000
| 14> *
| 15>
| 16>                          ****END OF INPUT****

CARTESIAN COORDINATES (ANGSTROEM)
---------------------------------
  C      0.585236   -1.371153    0.000000
  C      0.000000    0.803622    0.000000
  N     -0.706083   -1.394643    0.000000
  N      1.075996   -0.090990    0.000000
  N     -1.065835   -0.067566    0.000000
  O      0.019362    2.016386    0.000000
  H      1.203231   -2.252103    0.000000
  H      2.035972    0.202774    0.000000
  H     -2.034065    0.195812    0.000000

 Total Charge           Charge          ....    0
 Multiplicity           Mult            ....    1
 Number of Electrons    NEL             ....   44
 Basis Dimension        Dim             ....  165

ORBITAL ENERGIES
----------------

  NO   OCC          E(Eh)            E(eV)
   0   2.0000     -20.536580      -558.8288
   1   2.0000     -15.641208      -425.6189
   2   2.0000     -15.639734      -425.5788
   3   2.0000     -15.625159      -425.1822
   4   2.0000     -11.404069      -310.3205
   5   2.0000     -11.341866      -308.6279
   6   2.0000      -1.445650       -39.3381
   7   2.0000      -1.368077       -37.2273
   8   2.0000      -1.243393       -33.8344
   9   2.0000      -1.126100       -30.6428
  10   2.0000      -0.893652       -24.3175
  11   2.0000      -0.878361       -23.9014
  12   2.0000      -0.763896       -20.7867
  13   2.0000      -0.698059       -18.9952
  14   2.0000      -0.672221       -18.2921
  15   2.0000      -0.654157       -17.8005
  16   2.0000      -0.634371       -17.2621
  17   2.0000      -0.523795       -14.2532
  18   2.0000      -0.521681       -14.1957
  19   2.0000      -0.482542       -13.1306
  20   2.0000      -0.442251       -12.0343
  21   2.0000      -0.353077        -9.6077
  22   0.0000       0.024661         0.6711
  23   0.0000       0.044933         1.2227
  24   0.0000       0.048152         1.3103
  25   0.0000       0.079729         2.1695
  26   0.0000       0.092768         2.5243

MULLIKEN ATOMIC CHARGES
-----------------------
   0 C :    1.002121
   1 C :    1.091212
   2 N :   -0.437228
   3 N :   -0.452947
   4 N :   -0.316220
   5 O :   -0.681045
   6 H :   -0.099722
   7 H :   -0.089694
   8 H :   -0.016478
Sum of atomic charges:    0.0000000

LOEWDIN ATOMIC CHARGES
----------------------
   0 C :   -0.013741
   1 C :   -0.339592
   2 N :    0.044244
   3 N :    0.144921
   4 N :    0.084955
   5 O :    0.005602
   6 H :    0.012506
   7 H :    0.035625
   8 H :    0.025480

  Mayer bond orders larger than 0.100000
B(  0-C ,  2-N ) :   1.5888 B(  0-C ,  3-N ) :   0.8181 B(  0-C ,  6-H ) :   1.0352
B(  0-C ,  7-H ) :  -0.1145 B(  1-C ,  3-N ) :   0.9818 B(  1-C ,  4-N ) :   1.0399
B(  1-C ,  5-O ) :   1.5362 B(  2-N ,  4-N ) :   1.0239 B(  3-N ,  6-H ) :  -0.1070
B(  3-N ,  7-H ) :   1.2115 B(  4-N ,  8-H ) :   1.1389

MP2 TOTAL ENERGY:     -316.702014278 Eh
FINAL SINGLE POINT ENERGY      -316.702014277825

DIPOLE MOMENT
-------------
                                X             Y             Z
Electronic contribution:     -0.37461       0.64707       0.00000
Nuclear contribution   :      1.16703      -1.77853       0.00000
                        -----------------------------------------
Total Dipole Moment    :      0.79242      -1.13146       0.00000
                        -----------------------------------------
Magnitude (a.u.)       :      1.38135
Magnitude (Debye)      :      3.51112

Rotational constants in cm-1:     0.318167     0.131696     0.093142
Rotational constants in MHz :  9538.411490  3948.137981  2792.335042

                             ****ORCA TERMINATED NORMALLY****
TOTAL RUN TIME: 0 days 0 hours 0 minutes 38 seconds 214 msec
