                         Program Version 5.0.3 -  RELEASE  -
|  1> !ri-mp2 aug-cc-pvdz aug-cc-pvdz/c tightscf
|  2> %pal nprocs 16 end
|  3>
|  4> * xyz 0 1
|  5> O     0.662791    2.150274   -1.440821
|  6> O    -0.662791   -2.150274   -1.440821
|  7> N    -1.126502    1.290107    1.322386
|  8> N     1.126502   -1.290107    1.322386
|  9> C    -0.235728    0.702221    0.369706
| 10> C     0.235728   -0.702221    0.369706
| 11> C     0.235728    1.488873   -0.589450
| 12> C    -0.235728   -1.488873   -0.589450
| 13> H    -0.752204    1.293584    2.261984
| 14> H    -2.038657    0.851873    1.326339
| 15> H     0.752204   -1.293584    2.261984
| 16> H     2.038657   -0.851873    1.326339
| 17> *
| 18>
| 19>                          ****END OF INPUT****

CARTESIAN COORDINATES (ANGSTROEM)
---------------------------------
  O      0.662791    2.150274   -1.440821
  O     -0.662791   -2.150274   -1.440821
  N     -1.126502    1.290107    1.322386
  N      1.126502   -1.290107    1.322386
  C     -0.235728    0.702221    0.369706
  C      0.235728   -0.702221    0.369706
  C      0.235728    1.488873   -0.589450
  C     -0.235728   -1.488873   -0.589450
  H     -0.752204    1.293584    2.261984
  H     -2.038657    0.851873    1.326339
  H      0.752204   -1.293584    2.261984
  H      2.038657   -0.851873    1.326339

 Total Charge           Charge          ....    0
 Multiplicity           Mult            ....    1
 Number of Electrons    NEL             ....   58
 Basis Dimension        Dim             ....  220

ORBITAL ENERGIES
----------------

  NO   OCC          E(Eh)            E(eV)
   0   2.0000     -20.645755      -561.7995
   1   2.0000     -20.645754      -561.7995
   2   2.0000     -15.585576      -424.1051
   3   2.0000     -15.585574      -424.1050
   4   2.0000     -11.397456      -310.1405
   5   2.0000     -11.397455      -310.1405
   6   2.0000     -11.294185      -307.3304
   7   2.0000     -11.293493      -307.3116
   8   2.0000      -1.486577       -40.4518
   9   2.0000      -1.485877       -40.4328
  10   2.0000      -1.240906       -33.7668
  11   2.0000      -1.203226       -32.7414
  12   2.0000      -1.062368       -28.9085
  13   2.0000      -0.980490       -26.6805
  14   2.0000      -0.780175       -21.2296
  15   2.0000      -0.750855       -20.4318
  16   2.0000      -0.714445       -19.4410
  17   2.0000      -0.700305       -19.0563
  18   2.0000      -0.697422       -18.9778
  19   2.0000      -0.677211       -18.4279
  20   2.0000      -0.664963       -18.0946
  21   2.0000      -0.642178       -17.4746
  22   2.0000      -0.639776       -17.4092
  23   2.0000      -0.602292       -16.3892
  24   2.0000      -0.584562       -15.9067
  25   2.0000      -0.461111       -12.5475
  26   2.0000      -0.423362       -11.5203
  27   2.0000      -0.381032       -10.3684
  28   2.0000      -0.340253        -9.2587
  29   0.0000       0.022584         0.6145
  30   0.0000       0.040728         1.1083
  31   0.0000       0.053521         1.4564
  32   0.0000       0.054219         1.4754
  33   0.0000       0.076431         2.0798

MULLIKEN ATOMIC CHARGES
-----------------------
   0 O :   -0.409394
   1 O :   -0.409394
   2 N :   -0.413613
   3 N :   -0.413613
   4 C :    1.039924
   5 C :    1.039924
   6 C :   -0.173446
   7 C :   -0.173446
   8 H :   -0.026986
   9 H :   -0.016485
  10 H :   -0.026986
  11 H :   -0.016485
Sum of atomic charges:    0.0000000

LOEWDIN ATOMIC CHARGES
----------------------
   0 O :    0.127812
   1 O :    0.127812
   2 N :    0.211732
   3 N :    0.211732
   4 C :   -0.265538
   5 C :   -0.265538
   6 C :    0.004472
   7 C :    0.004472
   8 H :   -0.042533
   9 H :   -0.035945
  10 H :   -0.042533
  11 H :   -0.035945

  Mayer bond orders larger than 0.100000
B(  0-O ,  4-C ) :  -0.1040 B(  0-O ,  6-C ) :   2.0246 B(  1-O ,  5-C ) :  -0.1040
B(  1-O ,  7-C ) :   2.0246 B(  2-N ,  4-C ) :   0.6458 B(  2-N ,  8-H ) :   1.1042
B(  2-N ,  9-H ) :   1.1227 B(  3-N ,  5-C ) :   0.6458 B(  3-N , 10-H ) :   1.1042
B(  3-N , 11-H ) :   1.1227 B(  4-C ,  5-C ) :   1.0797 B(  4-C ,  6-C ) :   0.8180
B(  4-C ,  7-C ) :   0.1346 B(  4-C ,  9-H ) :  -0.1144 B(  5-C ,  6-C ) :   0.1346
B(  5-C ,  7-C ) :   0.8180 B(  5-C , 11-H ) :  -0.1144 B(  6-C ,  7-C ) :   0.1309

MP2 TOTAL ENERGY:     -413.652374199 Eh
FINAL SINGLE POINT ENERGY      -413.652374198925

DIPOLE MOMENT
-------------
                                X             Y             Z
Electronic contribution:     -0.00000      -0.00000      -5.52928
Nuclear contribution   :      0.00000       0.00000       6.94528
                        -----------------------------------------
Total Dipole Moment    :     -0.00000      -0.00000       1.41600
                        -----------------------------------------
Magnitude (a.u.)       :      1.41600
Magnitude (Debye)      :      3.59919

Rotational constants in cm-1:     0.083380     0.051663     0.041620
Rotational constants in MHz :  2499.682586  1548.806713  1247.735039

                             ****ORCA TERMINATED NORMALLY****
TOTAL RUN TIME: 0 days 0 hours 0 minutes 54 seconds 823 msec
