                         Program Version 5.0.3 -  RELEASE  -
|  1> !ri-mp2 aug-cc-pvdz aug-cc-pvdz/c tightscf
|  2> %pal nprocs 16 end
|  3>
|  4> * xyz 0 1
|  5> O      1.238707   -1.255661    0.004628
|  6> S      0.503569   -0.000001    0.014979
|  7> O      1.238698    1.255665    0.004692
|  8> C     -0.961544    0.000030   -1.129930
|  9> C     -1.794509   -0.000009    0.132105
| 10> C     -0.911283   -0.000031    1.127195
| 11> H     -1.013806   -0.899488   -1.740062
| 12> H     -1.013804    0.899596   -1.739990
| 13> H     -2.873692   -0.000011    0.186098
| 14> H     -0.971028   -0.000045    2.203515
| 15> *
| 16>
| 17>                          ****END OF INPUT****

CARTESIAN COORDINATES (ANGSTROEM)
---------------------------------
  O      1.238707   -1.255661    0.004628
  S      0.503569   -0.000001    0.014979
  O      1.238698    1.255665    0.004692
  C     -0.961544    0.000030   -1.129930
  C     -1.794509   -0.000009    0.132105
  C     -0.911283   -0.000031    1.127195
  H     -1.013806   -0.899488   -1.740062
  H     -1.013804    0.899596   -1.739990
  H     -2.873692   -0.000011    0.186098
  H     -0.971028   -0.000045    2.203515

 Total Charge           Charge          ....    0
 Multiplicity           Mult            ....    1
 Number of Electrons    NEL             ....   54
 Basis Dimension        Dim             ....  178

ORBITAL ENERGIES
----------------

  NO   OCC          E(Eh)            E(eV)
   0   2.0000     -92.207461     -2509.0926
   1   2.0000     -20.562374      -559.5306
   2   2.0000     -20.562356      -559.5302
   3   2.0000     -11.310716      -307.7802
   4   2.0000     -11.305379      -307.6350
   5   2.0000     -11.301474      -307.5287
   6   2.0000      -9.179326      -249.7822
   7   2.0000      -6.864434      -186.7907
   8   2.0000      -6.863352      -186.7613
   9   2.0000      -6.862643      -186.7420
  10   2.0000      -1.458345       -39.6836
  11   2.0000      -1.343354       -36.5545
  12   2.0000      -1.191872       -32.4325
  13   2.0000      -0.976281       -26.5660
  14   2.0000      -0.902137       -24.5484
  15   2.0000      -0.770464       -20.9654
  16   2.0000      -0.726069       -19.7573
  17   2.0000      -0.679427       -18.4881
  18   2.0000      -0.669976       -18.2310
  19   2.0000      -0.628064       -17.0905
  20   2.0000      -0.616880       -16.7862
  21   2.0000      -0.584177       -15.8963
  22   2.0000      -0.504290       -13.7224
  23   2.0000      -0.481712       -13.1080
  24   2.0000      -0.478678       -13.0255
  25   2.0000      -0.436534       -11.8787
  26   2.0000      -0.421567       -11.4714
  27   0.0000       0.023288         0.6337
  28   0.0000       0.038727         1.0538
  29   0.0000       0.046501         1.2654
  30   0.0000       0.049745         1.3536
  31   0.0000       0.080222         2.1829

MULLIKEN ATOMIC CHARGES
-----------------------
   0 O :   -1.200248
   1 S :    2.817382
   2 O :   -1.200247
   3 C :   -0.045156
   4 C :    0.425920
   5 C :   -0.218283
   6 H :   -0.091550
   7 H :   -0.091535
   8 H :   -0.179711
   9 H :   -0.216571
Sum of atomic charges:   -0.0000000

LOEWDIN ATOMIC CHARGES
----------------------
   0 O :   -0.405077
   1 S :    0.955694
   2 O :   -0.405077
   3 C :   -0.013633
   4 C :   -0.052917
   5 C :   -0.022072
   6 H :   -0.009898
   7 H :   -0.009899
   8 H :   -0.004147
   9 H :   -0.032974

  Mayer bond orders larger than 0.100000
B(  0-O ,  1-S ) :   0.7008 B(  0-O ,  2-O ) :   0.2178 B(  0-O ,  3-C ) :   0.1400
B(  0-O ,  5-C ) :   0.2186 B(  1-S ,  2-O ) :   0.7008 B(  1-S ,  3-C ) :   0.8992
B(  1-S ,  4-C ) :  -0.1565 B(  1-S ,  5-C ) :   0.6935 B(  1-S ,  9-H ) :  -0.1233
B(  2-O ,  3-C ) :   0.1400 B(  2-O ,  5-C ) :   0.2186 B(  3-C ,  4-C ) :   1.0611
B(  3-C ,  5-C ) :   0.1324 B(  3-C ,  6-H ) :   0.8726 B(  3-C ,  7-H ) :   0.8726
B(  4-C ,  5-C ) :   2.1854 B(  4-C ,  8-H ) :   0.7957 B(  4-C ,  9-H ) :   0.1725
B(  5-C ,  9-H ) :   0.8512

MP2 TOTAL ENERGY:     -664.043434943 Eh
FINAL SINGLE POINT ENERGY      -664.043434942609

DIPOLE MOMENT
-------------
                                X             Y             Z
Electronic contribution:      3.36860      -0.00005       0.97512
Nuclear contribution   :     -5.69675       0.00005      -1.06240
                        -----------------------------------------
Total Dipole Moment    :     -2.32815       0.00000      -0.08727
                        -----------------------------------------
Magnitude (a.u.)       :      2.32979
Magnitude (Debye)      :      5.92185

Rotational constants in cm-1:     0.179513     0.099255     0.093602
Rotational constants in MHz :  5381.665071  2975.583609  2806.121697

                             ****ORCA TERMINATED NORMALLY****
TOTAL RUN TIME: 0 days 0 hours 0 minutes 36 seconds 58 msec
