                         Program Version 5.0.3 -  RELEASE  -
|  1> !ri-mp2 aug-cc-pvdz aug-cc-pvdz/c tightscf
|  2> %pal nprocs 16 end
|  3>
|  4> * xyz 0 1
|  5> C      0.054241    1.100477    1.268813
|  6> C      0.054241    1.100477   -1.268813
|  7> C     -0.409424    0.392082    0.000000
|  8> S      0.054241   -1.399668    0.000000
|  9> H     -0.309019    2.131146    1.280502
| 10> H     -0.310858    0.595967    2.161592
| 11> H      1.144294    1.131346    1.319556
| 12> H     -0.309019    2.131146   -1.280502
| 13> H     -0.310858    0.595967   -2.161592
| 14> H      1.144294    1.131346   -1.319556
| 15> H     -1.500071    0.339611    0.000000
| 16> H      1.389046   -1.220063    0.000000
| 17> *
| 18>
| 19>                          ****END OF INPUT****

CARTESIAN COORDINATES (ANGSTROEM)
---------------------------------
  C      0.054241    1.100477    1.268813
  C      0.054241    1.100477   -1.268813
  C     -0.409424    0.392082    0.000000
  S      0.054241   -1.399668    0.000000
  H     -0.309019    2.131146    1.280502
  H     -0.310858    0.595967    2.161592
  H      1.144294    1.131346    1.319556
  H     -0.309019    2.131146   -1.280502
  H     -0.310858    0.595967   -2.161592
  H      1.144294    1.131346   -1.319556
  H     -1.500071    0.339611    0.000000
  H      1.389046   -1.220063    0.000000

 Total Charge           Charge          ....    0
 Multiplicity           Mult            ....    1
 Number of Electrons    NEL             ....   42
 Basis Dimension        Dim             ....  168

ORBITAL ENERGIES
----------------

  NO   OCC          E(Eh)            E(eV)
   0   2.0000     -91.948941     -2502.0579
   1   2.0000     -11.275991      -306.8353
   2   2.0000     -11.230882      -305.6078
   3   2.0000     -11.230862      -305.6073
   4   2.0000      -8.950585      -243.5578
   5   2.0000      -6.632660      -180.4838
   6   2.0000      -6.631232      -180.4450
   7   2.0000      -6.629240      -180.3908
   8   2.0000      -1.095601       -29.8128
   9   2.0000      -0.944455       -25.6999
  10   2.0000      -0.941967       -25.6322
  11   2.0000      -0.788297       -21.4506
  12   2.0000      -0.632538       -17.2122
  13   2.0000      -0.603841       -16.4313
  14   2.0000      -0.575547       -15.6614
  15   2.0000      -0.546348       -14.8669
  16   2.0000      -0.530906       -14.4467
  17   2.0000      -0.498341       -13.5605
  18   2.0000      -0.482052       -13.1173
  19   2.0000      -0.433920       -11.8076
  20   2.0000      -0.353305        -9.6139
  21   0.0000       0.035581         0.9682
  22   0.0000       0.046239         1.2582
  23   0.0000       0.049207         1.3390
  24   0.0000       0.053219         1.4481
  25   0.0000       0.072361         1.9690

MULLIKEN ATOMIC CHARGES
-----------------------
   0 C :    0.636119
   1 C :    0.636119
   2 C :   -1.082162
   3 S :    0.174868
   4 H :   -0.062364
   5 H :   -0.070176
   6 H :   -0.069364
   7 H :   -0.062364
   8 H :   -0.070176
   9 H :   -0.069364
  10 H :   -0.094449
  11 H :    0.133309
Sum of atomic charges:    0.0000000

LOEWDIN ATOMIC CHARGES
----------------------
   0 C :    0.089796
   1 C :    0.089796
   2 C :   -0.566349
   3 S :    0.739099
   4 H :   -0.016217
   5 H :   -0.021909
   6 H :   -0.019490
   7 H :   -0.016217
   8 H :   -0.021909
   9 H :   -0.019490
  10 H :   -0.012622
  11 H :   -0.224487

  Mayer bond orders larger than 0.100000
B(  0-C ,  2-C ) :   1.3841 B(  0-C ,  4-H ) :   0.8541 B(  0-C ,  5-H ) :   0.8813
B(  0-C ,  6-H ) :   0.9108 B(  1-C ,  2-C ) :   1.3841 B(  1-C ,  7-H ) :   0.8541
B(  1-C ,  8-H ) :   0.8813 B(  1-C ,  9-H ) :   0.9108 B(  2-C ,  3-S ) :   1.2084
B(  2-C , 10-H ) :   0.7697 B(  3-S , 11-H ) :   0.9158

MP2 TOTAL ENERGY:     -516.413897088 Eh
FINAL SINGLE POINT ENERGY      -516.413897087760

DIPOLE MOMENT
-------------
                                X             Y             Z
Electronic contribution:     -0.86315      -6.38427       0.00000
Nuclear contribution   :      0.96959       7.12555       0.00000
                        -----------------------------------------
Total Dipole Moment    :      0.10644       0.74128       0.00000
                        -----------------------------------------
Magnitude (a.u.)       :      0.74889
Magnitude (Debye)      :      1.90352

Rotational constants in cm-1:     0.262889     0.144566     0.103867
Rotational constants in MHz :  7881.203601  4333.974024  3113.844635

                             ****ORCA TERMINATED NORMALLY****
TOTAL RUN TIME: 0 days 0 hours 0 minutes 27 seconds 610 msec
