                         Program Version 5.0.3 -  RELEASE  -
|  1> !ri-mp2 aug-cc-pvdz aug-cc-pvdz/c tightscf
|  2> %pal nprocs 16 end
|  3>
|  4> * xyz 0 1
|  5> Cl    -0.526261    1.700246   -0.274259
|  6> Cl    -1.582683   -1.029630    0.088524
|  7> N      2.158124    0.361415    0.398415
|  8> N      1.210052   -1.612358   -0.532489
|  9> C     -0.238755    0.057016    0.456190
| 10> C      1.125544   -0.473565    0.016892
| 11> H     -0.244149    0.225219    1.527203
| 12> H      1.958781    1.347469    0.456439
| 13> H      3.066064    0.149391    0.018031
| 14> H      2.173371   -1.866660   -0.744155
| 15> *
| 16>
| 17>                          ****END OF INPUT****

CARTESIAN COORDINATES (ANGSTROEM)
---------------------------------
  Cl    -0.526261    1.700246   -0.274259
  Cl    -1.582683   -1.029630    0.088524
  N      2.158124    0.361415    0.398415
  N      1.210052   -1.612358   -0.532489
  C     -0.238755    0.057016    0.456190
  C      1.125544   -0.473565    0.016892
  H     -0.244149    0.225219    1.527203
  H      1.958781    1.347469    0.456439
  H      3.066064    0.149391    0.018031
  H      2.173371   -1.866660   -0.744155

 Total Charge           Charge          ....    0
 Multiplicity           Mult            ....    1
 Number of Electrons    NEL             ....   64
 Basis Dimension        Dim             ....  182

ORBITAL ENERGIES
----------------

  NO   OCC          E(Eh)            E(eV)
   0   2.0000    -104.853985     -2853.2220
   1   2.0000    -104.843988     -2852.9500
   2   2.0000     -15.605261      -424.6408
   3   2.0000     -15.559856      -423.4052
   4   2.0000     -11.387073      -309.8580
   5   2.0000     -11.356091      -309.0150
   6   2.0000     -10.579930      -287.8945
   7   2.0000     -10.570050      -287.6257
   8   2.0000      -8.047493      -218.9834
   9   2.0000      -8.044268      -218.8957
  10   2.0000      -8.044082      -218.8906
  11   2.0000      -8.037829      -218.7204
  12   2.0000      -8.034232      -218.6226
  13   2.0000      -8.034118      -218.6195
  14   2.0000      -1.298042       -35.3215
  15   2.0000      -1.188898       -32.3515
  16   2.0000      -1.170746       -31.8576
  17   2.0000      -1.095913       -29.8213
  18   2.0000      -0.945484       -25.7279
  19   2.0000      -0.794194       -21.6111
  20   2.0000      -0.735176       -20.0052
  21   2.0000      -0.721732       -19.6393
  22   2.0000      -0.648463       -17.6456
  23   2.0000      -0.606057       -16.4916
  24   2.0000      -0.584012       -15.8918
  25   2.0000      -0.541096       -14.7240
  26   2.0000      -0.479200       -13.0397
  27   2.0000      -0.476374       -12.9628
  28   2.0000      -0.452265       -12.3068
  29   2.0000      -0.448548       -12.2056
  30   2.0000      -0.437361       -11.9012
  31   2.0000      -0.395598       -10.7648
  32   0.0000       0.026473         0.7204
  33   0.0000       0.045642         1.2420
  34   0.0000       0.050309         1.3690
  35   0.0000       0.067563         1.8385
  36   0.0000       0.084264         2.2929

MULLIKEN ATOMIC CHARGES
-----------------------
   0 Cl:   -0.005068
   1 Cl:    0.054609
   2 N :   -0.321589
   3 N :   -0.475435
   4 C :   -0.608828
   5 C :    1.106270
   6 H :    0.261595
   7 H :    0.028234
   8 H :   -0.028415
   9 H :   -0.011374
Sum of atomic charges:    0.0000000

LOEWDIN ATOMIC CHARGES
----------------------
   0 Cl:    0.486784
   1 Cl:    0.543050
   2 N :    0.240646
   3 N :    0.152020
   4 C :   -0.765961
   5 C :   -0.452399
   6 H :   -0.046605
   7 H :   -0.057930
   8 H :   -0.017688
   9 H :   -0.081916

  Mayer bond orders larger than 0.100000
B(  0-Cl,  4-C ) :   1.1475 B(  1-Cl,  4-C ) :   1.3255 B(  1-Cl,  5-C ) :  -0.1176
B(  1-Cl,  6-H ) :  -0.1176 B(  2-N ,  5-C ) :   0.8567 B(  2-N ,  7-H ) :   1.0887
B(  2-N ,  8-H ) :   1.1128 B(  3-N ,  5-C ) :   1.5636 B(  3-N ,  9-H ) :   1.0311
B(  4-C ,  5-C ) :   0.8303 B(  4-C ,  6-H ) :   0.8721

MP2 TOTAL ENERGY:    -1106.913293237 Eh
FINAL SINGLE POINT ENERGY     -1106.913293237484

DIPOLE MOMENT
-------------
                                X             Y             Z
Electronic contribution:     -8.16321       1.76492      -1.02421
Nuclear contribution   :      9.45773      -1.05203       1.44119
                        -----------------------------------------
Total Dipole Moment    :      1.29452       0.71290       0.41698
                        -----------------------------------------
Magnitude (a.u.)       :      1.53554
Magnitude (Debye)      :      3.90303

Rotational constants in cm-1:     0.083847     0.072508     0.041708
Rotational constants in MHz :  2513.683530  2173.742324  1250.386620

                             ****ORCA TERMINATED NORMALLY****
TOTAL RUN TIME: 0 days 0 hours 0 minutes 36 seconds 494 msec
