                         Program Version 5.0.3 -  RELEASE  -
|  1> !ri-mp2 aug-cc-pvdz aug-cc-pvdz/c tightscf
|  2> %pal nprocs 16 end
|  3>
|  4> * xyz 0 1
|  5> Cl    -2.515817   -0.128816    0.000007
|  6> S      0.326747   -1.096199   -0.000007
|  7> F      2.880120   -0.361130   -0.000011
|  8> C     -0.231182    1.433389    0.000009
|  9> C      1.195500    1.353571    0.000004
| 10> C     -0.825108    0.213609    0.000004
| 11> C      1.617947    0.069156   -0.000005
| 12> H     -0.784651    2.359095    0.000016
| 13> H      1.861563    2.201781    0.000006
| 14> *
| 15>
| 16>                          ****END OF INPUT****

CARTESIAN COORDINATES (ANGSTROEM)
---------------------------------
  Cl    -2.515817   -0.128816    0.000007
  S      0.326747   -1.096199   -0.000007
  F      2.880120   -0.361130   -0.000011
  C     -0.231182    1.433389    0.000009
  C      1.195500    1.353571    0.000004
  C     -0.825108    0.213609    0.000004
  C      1.617947    0.069156   -0.000005
  H     -0.784651    2.359095    0.000016
  H      1.861563    2.201781    0.000006

 Total Charge           Charge          ....    0
 Multiplicity           Mult            ....    1
 Number of Electrons    NEL             ....   68
 Basis Dimension        Dim             ....  187

ORBITAL ENERGIES
----------------

  NO   OCC          E(Eh)            E(eV)
   0   2.0000    -104.863906     -2853.4920
   1   2.0000     -92.017137     -2503.9136
   2   2.0000     -26.355474      -717.1689
   3   2.0000     -11.376917      -309.5816
   4   2.0000     -11.339384      -308.5603
   5   2.0000     -11.272669      -306.7449
   6   2.0000     -11.265264      -306.5434
   7   2.0000     -10.589513      -288.1553
   8   2.0000      -9.019344      -245.4288
   9   2.0000      -8.057457      -219.2545
  10   2.0000      -8.053876      -219.1571
  11   2.0000      -8.053685      -219.1519
  12   2.0000      -6.700825      -182.3387
  13   2.0000      -6.700097      -182.3189
  14   2.0000      -6.697813      -182.2568
  15   2.0000      -1.665698       -45.3260
  16   2.0000      -1.221680       -33.2436
  17   2.0000      -1.142162       -31.0798
  18   2.0000      -1.021522       -27.7970
  19   2.0000      -0.986968       -26.8568
  20   2.0000      -0.827696       -22.5227
  21   2.0000      -0.787013       -21.4157
  22   2.0000      -0.733383       -19.9564
  23   2.0000      -0.725206       -19.7339
  24   2.0000      -0.693205       -18.8631
  25   2.0000      -0.642389       -17.4803
  26   2.0000      -0.595866       -16.2143
  27   2.0000      -0.568760       -15.4768
  28   2.0000      -0.550991       -14.9932
  29   2.0000      -0.512414       -13.9435
  30   2.0000      -0.487408       -13.2630
  31   2.0000      -0.469695       -12.7811
  32   2.0000      -0.378058       -10.2875
  33   2.0000      -0.334523        -9.1028
  34   0.0000       0.033950         0.9238
  35   0.0000       0.048409         1.3173
  36   0.0000       0.068269         1.8577
  37   0.0000       0.079675         2.1681
  38   0.0000       0.080677         2.1953

MULLIKEN ATOMIC CHARGES
-----------------------
   0 Cl:   -0.306124
   1 S :    0.564440
   2 F :   -0.713857
   3 C :    0.738802
   4 C :    0.105658
   5 C :   -0.343555
   6 C :    0.496747
   7 H :   -0.261820
   8 H :   -0.280291
Sum of atomic charges:    0.0000000

LOEWDIN ATOMIC CHARGES
----------------------
   0 Cl:    0.535373
   1 S :    0.975068
   2 F :    0.036492
   3 C :   -0.113179
   4 C :   -0.054306
   5 C :   -0.892760
   6 C :   -0.480329
   7 H :   -0.005386
   8 H :   -0.000973

  Mayer bond orders larger than 0.100000
B(  0-Cl,  3-C ) :  -0.1459 B(  0-Cl,  5-C ) :   0.7490 B(  1-S ,  3-C ) :   0.1647
B(  1-S ,  5-C ) :   0.8995 B(  1-S ,  6-C ) :   1.0286 B(  2-F ,  4-C ) :   0.3211
B(  3-C ,  4-C ) :   1.5034 B(  3-C ,  5-C ) :   1.8790 B(  3-C ,  7-H ) :   0.7409
B(  4-C ,  6-C ) :   1.8426 B(  4-C ,  8-H ) :   0.8089

MP2 TOTAL ENERGY:    -1110.121655585 Eh
FINAL SINGLE POINT ENERGY     -1110.121655584629

DIPOLE MOMENT
-------------
                                X             Y             Z
Electronic contribution:     -1.69102      -4.20436      -0.00002
Nuclear contribution   :      1.70351       4.80239       0.00002
                        -----------------------------------------
Total Dipole Moment    :      0.01249       0.59803       0.00000
                        -----------------------------------------
Magnitude (a.u.)       :      0.59816
Magnitude (Debye)      :      1.52041

Rotational constants in cm-1:     0.170001     0.037717     0.030869
Rotational constants in MHz :  5096.491608  1130.735367   925.417257

                             ****ORCA TERMINATED NORMALLY****
TOTAL RUN TIME: 0 days 0 hours 0 minutes 48 seconds 973 msec
