                         Program Version 5.0.3 -  RELEASE  -
|  1> !ri-mp2 aug-cc-pvdz aug-cc-pvdz/c tightscf
|  2> %pal nprocs 16 end
|  3>
|  4> * xyz 0 1
|  5> C     -0.574621   -0.905235    1.270480
|  6> C     -0.574621   -0.905235   -1.270480
|  7> C     -0.574621   -0.076502    0.000000
|  8> Cl     0.896612    1.024877    0.000000
|  9> H     -0.565593   -0.272482    2.155996
| 10> H     -1.473445   -1.525794    1.299465
| 11> H      0.295393   -1.561000    1.305554
| 12> H     -0.565593   -0.272482   -2.155996
| 13> H     -1.473445   -1.525794   -1.299465
| 14> H      0.295393   -1.561000   -1.305554
| 15> H     -1.411924    0.617470    0.000000
| 16> *
| 17>
| 18>                          ****END OF INPUT****

CARTESIAN COORDINATES (ANGSTROEM)
---------------------------------
  C     -0.574621   -0.905235    1.270480
  C     -0.574621   -0.905235   -1.270480
  C     -0.574621   -0.076502    0.000000
  Cl     0.896612    1.024877    0.000000
  H     -0.565593   -0.272482    2.155996
  H     -1.473445   -1.525794    1.299465
  H      0.295393   -1.561000    1.305554
  H     -0.565593   -0.272482   -2.155996
  H     -1.473445   -1.525794   -1.299465
  H      0.295393   -1.561000   -1.305554
  H     -1.411924    0.617470    0.000000

 Total Charge           Charge          ....    0
 Multiplicity           Mult            ....    1
 Number of Electrons    NEL             ....   42
 Basis Dimension        Dim             ....  159

ORBITAL ENERGIES
----------------

  NO   OCC          E(Eh)            E(eV)
   0   2.0000    -104.811001     -2852.0523
   1   2.0000     -11.307717      -307.6986
   2   2.0000     -11.238566      -305.8169
   3   2.0000     -11.238547      -305.8164
   4   2.0000     -10.537070      -286.7282
   5   2.0000      -8.004554      -217.8150
   6   2.0000      -8.001654      -217.7361
   7   2.0000      -8.001618      -217.7351
   8   2.0000      -1.141238       -31.0547
   9   2.0000      -1.017867       -27.6976
  10   2.0000      -0.955728       -26.0067
  11   2.0000      -0.801413       -21.8076
  12   2.0000      -0.648807       -17.6549
  13   2.0000      -0.614594       -16.7239
  14   2.0000      -0.590405       -16.0657
  15   2.0000      -0.555827       -15.1248
  16   2.0000      -0.517943       -14.0940
  17   2.0000      -0.513371       -13.9695
  18   2.0000      -0.485028       -13.1983
  19   2.0000      -0.427111       -11.6223
  20   2.0000      -0.426733       -11.6120
  21   0.0000       0.034337         0.9344
  22   0.0000       0.047512         1.2929
  23   0.0000       0.047894         1.3032
  24   0.0000       0.056499         1.5374
  25   0.0000       0.073141         1.9903

MULLIKEN ATOMIC CHARGES
-----------------------
   0 C :    0.642203
   1 C :    0.642203
   2 C :   -0.824656
   3 Cl:   -0.206115
   4 H :   -0.059708
   5 H :   -0.027579
   6 H :   -0.011749
   7 H :   -0.059708
   8 H :   -0.027579
   9 H :   -0.011749
  10 H :   -0.055564
Sum of atomic charges:   -0.0000000

LOEWDIN ATOMIC CHARGES
----------------------
   0 C :    0.097489
   1 C :    0.097489
   2 C :   -0.554305
   3 Cl:    0.455863
   4 H :   -0.018178
   5 H :   -0.011608
   6 H :   -0.013714
   7 H :   -0.018178
   8 H :   -0.011608
   9 H :   -0.013714
  10 H :   -0.009538

  Mayer bond orders larger than 0.100000
B(  0-C ,  2-C ) :   1.2562 B(  0-C ,  4-H ) :   0.8978 B(  0-C ,  5-H ) :   0.8551
B(  0-C ,  6-H ) :   0.9406 B(  1-C ,  2-C ) :   1.2562 B(  1-C ,  7-H ) :   0.8978
B(  1-C ,  8-H ) :   0.8551 B(  1-C ,  9-H ) :   0.9406 B(  2-C ,  3-Cl) :   1.0194
B(  2-C , 10-H ) :   0.8348

MP2 TOTAL ENERGY:     -577.809978511 Eh
FINAL SINGLE POINT ENERGY      -577.809978510883

DIPOLE MOMENT
-------------
                                X             Y             Z
Electronic contribution:      5.42227       6.94556       0.00000
Nuclear contribution   :     -6.20849      -7.59980       0.00000
                        -----------------------------------------
Total Dipole Moment    :     -0.78622      -0.65425       0.00000
                        -----------------------------------------
Magnitude (a.u.)       :      1.02283
Magnitude (Debye)      :      2.59983

Rotational constants in cm-1:     0.268653     0.148474     0.104861
Rotational constants in MHz :  8054.000563  4451.152908  3143.653891

                             ****ORCA TERMINATED NORMALLY****
TOTAL RUN TIME: 0 days 0 hours 0 minutes 35 seconds 615 msec
