                         Program Version 5.0.3 -  RELEASE  -
|  1> !ri-mp2 aug-cc-pvdz aug-cc-pvdz/c tightscf
|  2> %pal nprocs 16 end
|  3>
|  4> * xyz 0 1
|  5> C     -0.019580    1.273801    1.273937
|  6> C     -0.019580    1.273801   -1.273937
|  7> C      0.466570    0.597774    0.000000
|  8> N     -0.019580   -0.850943    0.000000
|  9> O      0.828786   -1.727382    0.000000
| 10> O     -1.224451   -1.038289    0.000000
| 11> H      0.370883    2.290811    1.305811
| 12> H     -1.106994    1.317390    1.296364
| 13> H      0.330843    0.747565    2.161338
| 14> H      0.330843    0.747565   -2.161338
| 15> H      0.370883    2.290811   -1.305811
| 16> H     -1.106994    1.317390   -1.296364
| 17> H      1.548465    0.498180    0.000000
| 18> *
| 19>
| 20>                          ****END OF INPUT****

CARTESIAN COORDINATES (ANGSTROEM)
---------------------------------
  C     -0.019580    1.273801    1.273937
  C     -0.019580    1.273801   -1.273937
  C      0.466570    0.597774    0.000000
  N     -0.019580   -0.850943    0.000000
  O      0.828786   -1.727382    0.000000
  O     -1.224451   -1.038289    0.000000
  H      0.370883    2.290811    1.305811
  H     -1.106994    1.317390    1.296364
  H      0.330843    0.747565    2.161338
  H      0.330843    0.747565   -2.161338
  H      0.370883    2.290811   -1.305811
  H     -1.106994    1.317390   -1.296364
  H      1.548465    0.498180    0.000000

 Total Charge           Charge          ....    0
 Multiplicity           Mult            ....    1
 Number of Electrons    NEL             ....   48
 Basis Dimension        Dim             ....  201

ORBITAL ENERGIES
----------------

  NO   OCC          E(Eh)            E(eV)
   0   2.0000     -20.611732      -560.8737
   1   2.0000     -20.609102      -560.8022
   2   2.0000     -15.846469      -431.2044
   3   2.0000     -11.318722      -307.9981
   4   2.0000     -11.255285      -306.2719
   5   2.0000     -11.255267      -306.2714
   6   2.0000      -1.607830       -43.7513
   7   2.0000      -1.402984       -38.1771
   8   2.0000      -1.140844       -31.0439
   9   2.0000      -0.974290       -26.5118
  10   2.0000      -0.958317       -26.0771
  11   2.0000      -0.819914       -22.3110
  12   2.0000      -0.746367       -20.3097
  13   2.0000      -0.722232       -19.6529
  14   2.0000      -0.715137       -19.4599
  15   2.0000      -0.650397       -17.6982
  16   2.0000      -0.593970       -16.1628
  17   2.0000      -0.587865       -15.9966
  18   2.0000      -0.568829       -15.4786
  19   2.0000      -0.528416       -14.3789
  20   2.0000      -0.524428       -14.2704
  21   2.0000      -0.489199       -13.3118
  22   2.0000      -0.472858       -12.8671
  23   2.0000      -0.451389       -12.2829
  24   0.0000       0.029106         0.7920
  25   0.0000       0.043356         1.1798
  26   0.0000       0.045791         1.2460
  27   0.0000       0.053073         1.4442
  28   0.0000       0.068035         1.8513

MULLIKEN ATOMIC CHARGES
-----------------------
   0 C :    0.727036
   1 C :    0.727036
   2 C :   -0.354448
   3 N :    0.738724
   4 O :   -0.782309
   5 O :   -0.798001
   6 H :   -0.005001
   7 H :    0.046081
   8 H :   -0.057424
   9 H :   -0.057424
  10 H :   -0.005001
  11 H :    0.046081
  12 H :   -0.225352
Sum of atomic charges:    0.0000000

LOEWDIN ATOMIC CHARGES
----------------------
   0 C :    0.182272
   1 C :    0.182272
   2 C :   -0.184145
   3 N :   -0.349263
   4 O :    0.079384
   5 O :    0.083670
   6 H :   -0.004423
   7 H :   -0.006819
   8 H :   -0.004064
   9 H :   -0.004064
  10 H :   -0.004423
  11 H :   -0.006819
  12 H :    0.036421

  Mayer bond orders larger than 0.100000
B(  0-C ,  1-C ) :  -0.1680 B(  0-C ,  2-C ) :   1.3634 B(  0-C ,  6-H ) :   0.8245
B(  0-C ,  7-H ) :   0.8797 B(  0-C ,  8-H ) :   0.8673 B(  1-C ,  2-C ) :   1.3634
B(  1-C ,  9-H ) :   0.8673 B(  1-C , 10-H ) :   0.8245 B(  1-C , 11-H ) :   0.8797
B(  2-C ,  3-N ) :   0.4772 B(  2-C ,  4-O ) :  -0.1157 B(  2-C ,  5-O ) :  -0.1330
B(  2-C ,  7-H ) :   0.1386 B(  2-C , 11-H ) :   0.1386 B(  2-C , 12-H ) :   0.6005
B(  3-N ,  4-O ) :   1.2617 B(  3-N ,  5-O ) :   1.1620 B(  3-N , 12-H ) :   0.1177
B(  4-O ,  5-O ) :   0.1715

MP2 TOTAL ENERGY:     -322.821380236 Eh
FINAL SINGLE POINT ENERGY      -322.821380236147

DIPOLE MOMENT
-------------
                                X             Y             Z
Electronic contribution:     -0.30645      -7.56772       0.00000
Nuclear contribution   :      0.74023       9.26945      -0.00000
                        -----------------------------------------
Total Dipole Moment    :      0.43377       1.70173       0.00000
                        -----------------------------------------
Magnitude (a.u.)       :      1.75615
Magnitude (Debye)      :      4.46377

Rotational constants in cm-1:     0.171645     0.095832     0.089595
Rotational constants in MHz :  5145.792480  2872.976410  2685.998231

                             ****ORCA TERMINATED NORMALLY****
TOTAL RUN TIME: 0 days 0 hours 0 minutes 41 seconds 403 msec
