                         Program Version 5.0.3 -  RELEASE  -
|  1> !ri-mp2 aug-cc-pvdz aug-cc-pvdz/c tightscf
|  2> %pal nprocs 16 end
|  3>
|  4> * xyz 0 1
|  5> C      0.350820   -1.850666    0.000000
|  6> C      0.350820    1.050444    1.263414
|  7> C      0.350820    1.050444   -1.263414
|  8> C     -0.805408   -0.847966    0.000000
|  9> C     -0.414139    0.642850    0.000000
| 10> H     -0.031506   -2.872394    0.000000
| 11> H      0.984723   -1.741982    0.880927
| 12> H      0.984723   -1.741982   -0.880927
| 13> H      1.332012    0.574521    1.311117
| 14> H     -0.197555    0.775240    2.166524
| 15> H      0.512150    2.129575    1.288536
| 16> H      1.332012    0.574521   -1.311117
| 17> H      0.512150    2.129575   -1.288536
| 18> H     -0.197555    0.775240   -2.166524
| 19> H     -1.436172   -1.037018   -0.873465
| 20> H     -1.436172   -1.037018    0.873465
| 21> H     -1.356290    1.201080    0.000000
| 22> *
| 23>
| 24>                          ****END OF INPUT****

CARTESIAN COORDINATES (ANGSTROEM)
---------------------------------
  C      0.350820   -1.850666    0.000000
  C      0.350820    1.050444    1.263414
  C      0.350820    1.050444   -1.263414
  C     -0.805408   -0.847966    0.000000
  C     -0.414139    0.642850    0.000000
  H     -0.031506   -2.872394    0.000000
  H      0.984723   -1.741982    0.880927
  H      0.984723   -1.741982   -0.880927
  H      1.332012    0.574521    1.311117
  H     -0.197555    0.775240    2.166524
  H      0.512150    2.129575    1.288536
  H      1.332012    0.574521   -1.311117
  H      0.512150    2.129575   -1.288536
  H     -0.197555    0.775240   -2.166524
  H     -1.436172   -1.037018   -0.873465
  H     -1.436172   -1.037018    0.873465
  H     -1.356290    1.201080    0.000000

 Total Charge           Charge          ....    0
 Multiplicity           Mult            ....    1
 Number of Electrons    NEL             ....   42
 Basis Dimension        Dim             ....  223

ORBITAL ENERGIES
----------------

  NO   OCC          E(Eh)            E(eV)
   0   2.0000     -11.226565      -305.4904
   1   2.0000     -11.219308      -305.2929
   2   2.0000     -11.214298      -305.1566
   3   2.0000     -11.213266      -305.1285
   4   2.0000     -11.213239      -305.1277
   5   2.0000      -1.087756       -29.5993
   6   2.0000      -0.988838       -26.9076
   7   2.0000      -0.926655       -25.2156
   8   2.0000      -0.862747       -23.4766
   9   2.0000      -0.745779       -20.2937
  10   2.0000      -0.633632       -17.2420
  11   2.0000      -0.612674       -16.6717
  12   2.0000      -0.590618       -16.0715
  13   2.0000      -0.549829       -14.9616
  14   2.0000      -0.534967       -14.5572
  15   2.0000      -0.522187       -14.2094
  16   2.0000      -0.517525       -14.0826
  17   2.0000      -0.487625       -13.2689
  18   2.0000      -0.452883       -12.3236
  19   2.0000      -0.447465       -12.1761
  20   2.0000      -0.444145       -12.0858
  21   0.0000       0.036870         1.0033
  22   0.0000       0.045311         1.2330
  23   0.0000       0.047554         1.2940
  24   0.0000       0.048373         1.3163
  25   0.0000       0.065948         1.7945

MULLIKEN ATOMIC CHARGES
-----------------------
   0 C :    0.487985
   1 C :    0.800966
   2 C :    0.800966
   3 C :    0.448843
   4 C :   -1.325062
   5 H :   -0.082991
   6 H :   -0.102035
   7 H :   -0.102035
   8 H :   -0.063990
   9 H :   -0.083796
  10 H :   -0.100123
  11 H :   -0.063990
  12 H :   -0.100123
  13 H :   -0.083796
  14 H :   -0.160655
  15 H :   -0.160655
  16 H :   -0.109508
Sum of atomic charges:   -0.0000000

LOEWDIN ATOMIC CHARGES
----------------------
   0 C :    0.135370
   1 C :    0.152495
   2 C :    0.152495
   3 C :   -0.046774
   4 C :   -0.288306
   5 H :   -0.019976
   6 H :   -0.024288
   7 H :   -0.024288
   8 H :   -0.019431
   9 H :   -0.012800
  10 H :   -0.015649
  11 H :   -0.019431
  12 H :   -0.015649
  13 H :   -0.012800
  14 H :    0.012135
  15 H :    0.012135
  16 H :    0.034763

  Mayer bond orders larger than 0.100000
B(  0-C ,  3-C ) :   1.1484 B(  0-C ,  5-H ) :   0.8824 B(  0-C ,  6-H ) :   0.9427
B(  0-C ,  7-H ) :   0.9427 B(  1-C ,  2-C ) :  -0.1692 B(  1-C ,  4-C ) :   1.3846
B(  1-C ,  8-H ) :   0.8921 B(  1-C ,  9-H ) :   0.8135 B(  1-C , 10-H ) :   0.7920
B(  2-C ,  4-C ) :   1.3846 B(  2-C , 11-H ) :   0.8921 B(  2-C , 12-H ) :   0.7920
B(  2-C , 13-H ) :   0.8135 B(  3-C ,  4-C ) :   1.2328 B(  3-C , 14-H ) :   0.7418
B(  3-C , 15-H ) :   0.7418 B(  4-C ,  8-H ) :   0.1324 B(  4-C ,  9-H ) :   0.1122
B(  4-C , 10-H ) :   0.1554 B(  4-C , 11-H ) :   0.1324 B(  4-C , 12-H ) :   0.1554
B(  4-C , 13-H ) :   0.1122 B(  4-C , 14-H ) :   0.1492 B(  4-C , 15-H ) :   0.1492
B(  4-C , 16-H ) :   0.6901 B(  9-H , 10-H ) :  -0.1031 B( 12-H , 13-H ) :  -0.1031
B( 14-H , 15-H ) :  -0.1467

MP2 TOTAL ENERGY:     -197.114299828 Eh
FINAL SINGLE POINT ENERGY      -197.114299828085

DIPOLE MOMENT
-------------
                                X             Y             Z
Electronic contribution:     -1.15120       0.30725      -0.00000
Nuclear contribution   :      1.09601      -0.29588       0.00000
                        -----------------------------------------
Total Dipole Moment    :     -0.05519       0.01138      -0.00000
                        -----------------------------------------
Magnitude (a.u.)       :      0.05635
Magnitude (Debye)      :      0.14323

Rotational constants in cm-1:     0.201927     0.123279     0.099924
Rotational constants in MHz :  6053.610988  3695.803851  2995.641824

                             ****ORCA TERMINATED NORMALLY****
TOTAL RUN TIME: 0 days 0 hours 0 minutes 42 seconds 528 msec
