                         Program Version 5.0.3 -  RELEASE  -
|  1> !ri-mp2 aug-cc-pvdz aug-cc-pvdz/c tightscf
|  2> %pal nprocs 16 end
|  3>
|  4> * xyz 0 1
|  5> S     -0.392972   -1.265072    0.210669
|  6> C      0.940796    0.017803    0.413655
|  7> C      0.214759    1.365119    0.480256
|  8> C     -1.100528    1.217508   -0.232047
|  9> C     -1.506870   -0.035217   -0.406130
| 10> O      1.821436    0.051740   -0.690597
| 11> H      1.477232   -0.222620    1.331943
| 12> H      0.856678    2.126104    0.033990
| 13> H     -1.678395    2.075102   -0.546595
| 14> H     -2.430535   -0.355577   -0.862849
| 15> H      0.048224    1.648671    1.524486
| 16> H      2.153911   -0.835724   -0.861306
| 17> *
| 18>
| 19>                          ****END OF INPUT****

CARTESIAN COORDINATES (ANGSTROEM)
---------------------------------
  S     -0.392972   -1.265072    0.210669
  C      0.940796    0.017803    0.413655
  C      0.214759    1.365119    0.480256
  C     -1.100528    1.217508   -0.232047
  C     -1.506870   -0.035217   -0.406130
  O      1.821436    0.051740   -0.690597
  H      1.477232   -0.222620    1.331943
  H      0.856678    2.126104    0.033990
  H     -1.678395    2.075102   -0.546595
  H     -2.430535   -0.355577   -0.862849
  H      0.048224    1.648671    1.524486
  H      2.153911   -0.835724   -0.861306

 Total Charge           Charge          ....    0
 Multiplicity           Mult            ....    1
 Number of Electrons    NEL             ....   54
 Basis Dimension        Dim             ....  196

ORBITAL ENERGIES
----------------

  NO   OCC          E(Eh)            E(eV)
   0   2.0000     -91.957314     -2502.2857
   1   2.0000     -20.582058      -560.0663
   2   2.0000     -11.331587      -308.3481
   3   2.0000     -11.266664      -306.5815
   4   2.0000     -11.247724      -306.0661
   5   2.0000     -11.243442      -305.9496
   6   2.0000      -8.960080      -243.8162
   7   2.0000      -6.641814      -180.7329
   8   2.0000      -6.640678      -180.7020
   9   2.0000      -6.638634      -180.6464
  10   2.0000      -1.383723       -37.6530
  11   2.0000      -1.137444       -30.9514
  12   2.0000      -0.989271       -26.9194
  13   2.0000      -0.970951       -26.4209
  14   2.0000      -0.807531       -21.9740
  15   2.0000      -0.754996       -20.5445
  16   2.0000      -0.713117       -19.4049
  17   2.0000      -0.676647       -18.4125
  18   2.0000      -0.603043       -16.4096
  19   2.0000      -0.576996       -15.7009
  20   2.0000      -0.567320       -15.4376
  21   2.0000      -0.544621       -14.8199
  22   2.0000      -0.492479       -13.4010
  23   2.0000      -0.470898       -12.8138
  24   2.0000      -0.435392       -11.8476
  25   2.0000      -0.428102       -11.6492
  26   2.0000      -0.314156        -8.5486
  27   0.0000       0.036200         0.9851
  28   0.0000       0.042478         1.1559
  29   0.0000       0.048407         1.3172
  30   0.0000       0.052446         1.4271
  31   0.0000       0.064767         1.7624

MULLIKEN ATOMIC CHARGES
-----------------------
   0 S :    0.396647
   1 C :    0.627805
   2 C :    0.047952
   3 C :    0.353816
   4 C :   -0.025059
   5 O :   -0.747965
   6 H :   -0.106982
   7 H :   -0.020313
   8 H :   -0.287955
   9 H :   -0.363567
  10 H :   -0.018731
  11 H :    0.144352
Sum of atomic charges:    0.0000000

LOEWDIN ATOMIC CHARGES
----------------------
   0 S :    0.844128
   1 C :   -0.419042
   2 C :   -0.050179
   3 C :   -0.078098
   4 C :   -0.298582
   5 O :    0.101874
   6 H :   -0.014382
   7 H :    0.016732
   8 H :   -0.009741
   9 H :   -0.051918
  10 H :    0.019905
  11 H :   -0.060698

  Mayer bond orders larger than 0.100000
B(  0-S ,  1-C ) :   1.0221 B(  0-S ,  4-C ) :   0.8776 B(  0-S ,  9-H ) :  -0.1389
B(  1-C ,  2-C ) :   1.2395 B(  1-C ,  5-O ) :   0.4572 B(  1-C ,  6-H ) :   0.8342
B(  2-C ,  3-C ) :   1.3077 B(  2-C ,  7-H ) :   0.7904 B(  2-C , 10-H ) :   0.8120
B(  3-C ,  4-C ) :   2.2079 B(  3-C ,  8-H ) :   0.7969 B(  3-C ,  9-H ) :   0.1366
B(  4-C ,  9-H ) :   0.8503 B(  5-O , 11-H ) :   1.0731

MP2 TOTAL ENERGY:     -628.266012939 Eh
FINAL SINGLE POINT ENERGY      -628.266012938544

DIPOLE MOMENT
-------------
                                X             Y             Z
Electronic contribution:     -0.45137      -4.20866      -0.34611
Nuclear contribution   :      0.46459       4.44360       0.59795
                        -----------------------------------------
Total Dipole Moment    :      0.01322       0.23494       0.25184
                        -----------------------------------------
Magnitude (a.u.)       :      0.34466
Magnitude (Debye)      :      0.87606

Rotational constants in cm-1:     0.133927     0.112255     0.072826
Rotational constants in MHz :  4015.034863  3365.319562  2183.257452

                             ****ORCA TERMINATED NORMALLY****
TOTAL RUN TIME: 0 days 0 hours 0 minutes 49 seconds 455 msec
