                         Program Version 5.0.3 -  RELEASE  -
|  1> !ri-mp2 aug-cc-pvdz aug-cc-pvdz/c tightscf
|  2> %pal nprocs 16 end
|  3>
|  4> * xyz 0 1
|  5> C     -2.743598    0.279380    0.263321
|  6> C      1.527637    1.583398    0.042847
|  7> C      2.226050   -0.822775    0.228502
|  8> C     -1.371578    0.649289   -0.298578
|  9> C      1.159473    0.137171   -0.308936
| 10> C     -0.242383   -0.258067    0.197134
| 11> O     -0.529559   -1.629626   -0.112600
| 12> H     -3.515575    0.944672   -0.125339
| 13> H     -2.752787    0.361074    1.352137
| 14> H     -3.015995   -0.743733    0.008715
| 15> H      0.893332    2.312783   -0.458542
| 16> H      1.450647    1.753470    1.119924
| 17> H      2.558304    1.792091   -0.246918
| 18> H      3.203847   -0.588092   -0.194843
| 19> H      1.989120   -1.858593   -0.004759
| 20> H      2.306790   -0.736724    1.315244
| 21> H     -1.393282    0.611750   -1.394424
| 22> H     -1.144600    1.683054   -0.034580
| 23> H      1.140378    0.049342   -1.403355
| 24> H     -0.228904   -0.235027    1.291831
| 25> H     -0.588412   -1.719433   -1.070029
| 26> *
| 27>
| 28>                          ****END OF INPUT****

CARTESIAN COORDINATES (ANGSTROEM)
---------------------------------
  C     -2.743598    0.279380    0.263321
  C      1.527637    1.583398    0.042847
  C      2.226050   -0.822775    0.228502
  C     -1.371578    0.649289   -0.298578
  C      1.159473    0.137171   -0.308936
  C     -0.242383   -0.258067    0.197134
  O     -0.529559   -1.629626   -0.112600
  H     -3.515575    0.944672   -0.125339
  H     -2.752787    0.361074    1.352137
  H     -3.015995   -0.743733    0.008715
  H      0.893332    2.312783   -0.458542
  H      1.450647    1.753470    1.119924
  H      2.558304    1.792091   -0.246918
  H      3.203847   -0.588092   -0.194843
  H      1.989120   -1.858593   -0.004759
  H      2.306790   -0.736724    1.315244
  H     -1.393282    0.611750   -1.394424
  H     -1.144600    1.683054   -0.034580
  H      1.140378    0.049342   -1.403355
  H     -0.228904   -0.235027    1.291831
  H     -0.588412   -1.719433   -1.070029

 Total Charge           Charge          ....    0
 Multiplicity           Mult            ....    1
 Number of Electrons    NEL             ....   58
 Basis Dimension        Dim             ....  287

ORBITAL ENERGIES
----------------

  NO   OCC          E(Eh)            E(eV)
   0   2.0000     -20.560416      -559.4773
   1   2.0000     -11.279095      -306.9198
   2   2.0000     -11.232520      -305.6524
   3   2.0000     -11.225791      -305.4693
   4   2.0000     -11.221048      -305.3402
   5   2.0000     -11.215438      -305.1876
   6   2.0000     -11.211954      -305.0928
   7   2.0000      -1.356734       -36.9186
   8   2.0000      -1.086629       -29.5687
   9   2.0000      -1.033203       -28.1149
  10   2.0000      -0.929200       -25.2848
  11   2.0000      -0.914887       -24.8953
  12   2.0000      -0.819782       -22.3074
  13   2.0000      -0.783615       -21.3233
  14   2.0000      -0.655787       -17.8449
  15   2.0000      -0.642089       -17.4721
  16   2.0000      -0.625646       -17.0247
  17   2.0000      -0.608959       -16.5706
  18   2.0000      -0.571118       -15.5409
  19   2.0000      -0.553152       -15.0520
  20   2.0000      -0.543359       -14.7856
  21   2.0000      -0.532753       -14.4969
  22   2.0000      -0.515351       -14.0234
  23   2.0000      -0.501999       -13.6601
  24   2.0000      -0.485938       -13.2231
  25   2.0000      -0.477331       -12.9888
  26   2.0000      -0.470498       -12.8029
  27   2.0000      -0.447176       -12.1683
  28   2.0000      -0.420249       -11.4355
  29   0.0000       0.034907         0.9499
  30   0.0000       0.041505         1.1294
  31   0.0000       0.043051         1.1715
  32   0.0000       0.047456         1.2913
  33   0.0000       0.061201         1.6654

MULLIKEN ATOMIC CHARGES
-----------------------
   0 C :    0.540528
   1 C :    0.865043
   2 C :    0.929755
   3 C :    0.311373
   4 C :   -1.268663
   5 C :    0.737470
   6 O :   -0.817844
   7 H :   -0.054990
   8 H :   -0.071433
   9 H :   -0.051441
  10 H :   -0.073285
  11 H :   -0.028620
  12 H :   -0.110438
  13 H :   -0.050709
  14 H :   -0.064375
  15 H :   -0.018620
  16 H :   -0.178674
  17 H :   -0.183119
  18 H :   -0.208382
  19 H :   -0.330116
  20 H :    0.126538
Sum of atomic charges:   -0.0000000

LOEWDIN ATOMIC CHARGES
----------------------
   0 C :    0.143119
   1 C :    0.160820
   2 C :    0.161557
   3 C :   -0.041092
   4 C :   -0.251857
   5 C :   -0.204781
   6 O :    0.138707
   7 H :   -0.020899
   8 H :   -0.016382
   9 H :   -0.022940
  10 H :   -0.024557
  11 H :   -0.005821
  12 H :   -0.014686
  13 H :   -0.016463
  14 H :   -0.021328
  15 H :   -0.008772
  16 H :    0.019313
  17 H :    0.002384
  18 H :    0.038514
  19 H :    0.038990
  20 H :   -0.053826

  Mayer bond orders larger than 0.100000
B(  0-C ,  3-C ) :   1.1898 B(  0-C ,  7-H ) :   0.8898 B(  0-C ,  8-H ) :   0.9275
B(  0-C ,  9-H ) :   0.9022 B(  1-C ,  2-C ) :  -0.1767 B(  1-C ,  4-C ) :   1.2758
B(  1-C ,  5-C ) :  -0.1226 B(  1-C , 10-H ) :   0.8187 B(  1-C , 11-H ) :   0.8559
B(  1-C , 12-H ) :   0.8224 B(  2-C ,  4-C ) :   1.3101 B(  2-C ,  5-C ) :  -0.1097
B(  2-C , 13-H ) :   0.7866 B(  2-C , 14-H ) :   0.8161 B(  2-C , 15-H ) :   0.8920
B(  3-C ,  5-C ) :   1.1663 B(  3-C ,  7-H ) :   0.1087 B(  3-C , 16-H ) :   0.7292
B(  3-C , 17-H ) :   0.6945 B(  4-C ,  5-C ) :   1.1338 B(  4-C ,  6-O ) :   0.1238
B(  4-C , 11-H ) :   0.2270 B(  4-C , 12-H ) :   0.1222 B(  4-C , 13-H ) :   0.1696
B(  4-C , 14-H ) :   0.1026 B(  4-C , 15-H ) :   0.1460 B(  4-C , 18-H ) :   0.5969
B(  4-C , 19-H ) :   0.1379 B(  5-C ,  6-O ) :   0.4019 B(  5-C , 11-H ) :  -0.1134
B(  5-C , 16-H ) :   0.2462 B(  5-C , 17-H ) :   0.1454 B(  5-C , 18-H ) :   0.1895
B(  5-C , 19-H ) :   0.5160 B(  6-O , 20-H ) :   1.1116

MP2 TOTAL ENERGY:     -311.371187749 Eh
FINAL SINGLE POINT ENERGY      -311.371187749159

DIPOLE MOMENT
-------------
                                X             Y             Z
Electronic contribution:     -0.86661      -3.31489      -0.59785
Nuclear contribution   :      0.95362       3.83887       0.16341
                        -----------------------------------------
Total Dipole Moment    :      0.08701       0.52398      -0.43443
                        -----------------------------------------
Magnitude (a.u.)       :      0.68619
Magnitude (Debye)      :      1.74415

Rotational constants in cm-1:     0.131792     0.055874     0.042466
Rotational constants in MHz :  3951.032334  1675.063165  1273.103875

                             ****ORCA TERMINATED NORMALLY****
TOTAL RUN TIME: 0 days 0 hours 1 minutes 21 seconds 760 msec
