                         Program Version 5.0.3 -  RELEASE  -
|  1> !ri-mp2 aug-cc-pvdz aug-cc-pvdz/c tightscf
|  2> %pal nprocs 16 end
|  3>
|  4> * xyz 0 1
|  5> C     -1.178683   -0.742088    0.000000
|  6> C      0.047290   -1.388143    0.000000
|  7> C      0.000000    1.309459    0.000000
|  8> C     -1.228041    0.649909    0.000000
|  9> C      1.221409   -0.633508    0.000000
| 10> C     -2.528268    1.405525    0.000000
| 11> C      2.580459   -1.275923    0.000000
| 12> N      1.185094    0.702648    0.000000
| 13> H     -2.095720   -1.319232    0.000000
| 14> H      0.097475   -2.468673    0.000000
| 15> H      0.024650    2.395020    0.000000
| 16> H     -3.128947    1.163181    0.878919
| 17> H     -2.357997    2.481564    0.000000
| 18> H     -3.128947    1.163181   -0.878919
| 19> H      3.147907   -0.961093   -0.876888
| 20> H      3.147907   -0.961093    0.876888
| 21> H      2.513018   -2.362770    0.000000
| 22> *
| 23>
| 24>                          ****END OF INPUT****

CARTESIAN COORDINATES (ANGSTROEM)
---------------------------------
  C     -1.178683   -0.742088    0.000000
  C      0.047290   -1.388143    0.000000
  C      0.000000    1.309459    0.000000
  C     -1.228041    0.649909    0.000000
  C      1.221409   -0.633508    0.000000
  C     -2.528268    1.405525    0.000000
  C      2.580459   -1.275923    0.000000
  N      1.185094    0.702648    0.000000
  H     -2.095720   -1.319232    0.000000
  H      0.097475   -2.468673    0.000000
  H      0.024650    2.395020    0.000000
  H     -3.128947    1.163181    0.878919
  H     -2.357997    2.481564    0.000000
  H     -3.128947    1.163181   -0.878919
  H      3.147907   -0.961093   -0.876888
  H      3.147907   -0.961093    0.876888
  H      2.513018   -2.362770    0.000000

 Total Charge           Charge          ....    0
 Multiplicity           Mult            ....    1
 Number of Electrons    NEL             ....   58
 Basis Dimension        Dim             ....  265

ORBITAL ENERGIES
----------------

  NO   OCC          E(Eh)            E(eV)
   0   2.0000     -15.562031      -423.4644
   1   2.0000     -11.278470      -306.9028
   2   2.0000     -11.270477      -306.6853
   3   2.0000     -11.254524      -306.2512
   4   2.0000     -11.244554      -305.9799
   5   2.0000     -11.237853      -305.7975
   6   2.0000     -11.235815      -305.7421
   7   2.0000     -11.225862      -305.4712
   8   2.0000      -1.257999       -34.2319
   9   2.0000      -1.100128       -29.9360
  10   2.0000      -1.061358       -28.8810
  11   2.0000      -0.987327       -26.8665
  12   2.0000      -0.913537       -24.8586
  13   2.0000      -0.856584       -23.3088
  14   2.0000      -0.808290       -21.9947
  15   2.0000      -0.685158       -18.6441
  16   2.0000      -0.671304       -18.2671
  17   2.0000      -0.627230       -17.0678
  18   2.0000      -0.589771       -16.0485
  19   2.0000      -0.575325       -15.6554
  20   2.0000      -0.573033       -15.5930
  21   2.0000      -0.559770       -15.2321
  22   2.0000      -0.545693       -14.8491
  23   2.0000      -0.533760       -14.5244
  24   2.0000      -0.504504       -13.7282
  25   2.0000      -0.502321       -13.6689
  26   2.0000      -0.405832       -11.0433
  27   2.0000      -0.373647       -10.1675
  28   2.0000      -0.324927        -8.8417
  29   0.0000       0.033364         0.9079
  30   0.0000       0.037968         1.0331
  31   0.0000       0.044381         1.2077
  32   0.0000       0.054460         1.4819
  33   0.0000       0.055570         1.5121

MULLIKEN ATOMIC CHARGES
-----------------------
   0 C :   -0.320779
   1 C :    0.709656
   2 C :    0.719528
   3 C :    0.282697
   4 C :   -0.277360
   5 C :    0.616100
   6 C :    0.544341
   7 N :   -0.791826
   8 H :   -0.562327
   9 H :   -0.538289
  10 H :   -0.430468
  11 H :    0.079928
  12 H :   -0.163446
  13 H :    0.079928
  14 H :    0.081504
  15 H :    0.081504
  16 H :   -0.110692
Sum of atomic charges:    0.0000000

LOEWDIN ATOMIC CHARGES
----------------------
   0 C :    0.055026
   1 C :    0.050581
   2 C :    0.003537
   3 C :   -0.213644
   4 C :   -0.261151
   5 C :    0.170691
   6 C :    0.182541
   7 N :    0.061812
   8 H :    0.014782
   9 H :    0.000890
  10 H :    0.004562
  11 H :   -0.010042
  12 H :   -0.016063
  13 H :   -0.010042
  14 H :   -0.007960
  15 H :   -0.007960
  16 H :   -0.017562

  Mayer bond orders larger than 0.100000
B(  0-C ,  1-C ) :   2.4367 B(  0-C ,  2-C ) :  -0.1860 B(  0-C ,  3-C ) :   0.8507
B(  0-C ,  5-C ) :  -0.2607 B(  0-C ,  6-C ) :   0.1671 B(  0-C ,  7-N ) :   0.1074
B(  0-C ,  8-H ) :   0.1127 B(  0-C ,  9-H ) :   0.5610 B(  0-C , 10-H ) :   0.1303
B(  1-C ,  2-C ) :  -0.1533 B(  1-C ,  4-C ) :   1.1493 B(  1-C ,  6-C ) :  -0.1575
B(  1-C ,  8-H ) :   0.3307 B(  1-C , 16-H ) :  -0.1934 B(  2-C ,  3-C ) :   1.3906
B(  2-C ,  4-C ) :   0.1030 B(  2-C ,  5-C ) :  -0.2180 B(  2-C ,  7-N ) :   1.3659
B(  2-C , 10-H ) :   0.6612 B(  2-C , 12-H ) :  -0.1175 B(  3-C ,  4-C ) :   0.1923
B(  3-C ,  5-C ) :   1.4961 B(  3-C ,  7-N ) :  -0.1704 B(  3-C ,  8-H ) :   0.2259
B(  3-C ,  9-H ) :  -0.1058 B(  3-C , 11-H ) :   0.2083 B(  3-C , 12-H ) :   0.4461
B(  3-C , 13-H ) :   0.2083 B(  4-C ,  5-C ) :  -0.1170 B(  4-C ,  6-C ) :   1.3113
B(  4-C ,  7-N ) :   1.2476 B(  4-C , 14-H ) :   0.1345 B(  4-C , 15-H ) :   0.1345
B(  4-C , 16-H ) :   0.4613 B(  5-C , 11-H ) :   0.8770 B(  5-C , 12-H ) :   0.5667
B(  5-C , 13-H ) :   0.8770 B(  6-C , 14-H ) :   0.8684 B(  6-C , 15-H ) :   0.8684
B(  6-C , 16-H ) :   0.6888

MP2 TOTAL ENERGY:     -325.949706386 Eh
FINAL SINGLE POINT ENERGY      -325.949706386222

DIPOLE MOMENT
-------------
                                X             Y             Z
Electronic contribution:      1.08781       0.44070       0.00000
Nuclear contribution   :     -1.80303      -0.88011       0.00000
                        -----------------------------------------
Total Dipole Moment    :     -0.71522      -0.43941       0.00000
                        -----------------------------------------
Magnitude (a.u.)       :      0.83942
Magnitude (Debye)      :      2.13362

Rotational constants in cm-1:     0.186114     0.049371     0.039590
Rotational constants in MHz :  5579.542584  1480.120305  1186.874410

                             ****ORCA TERMINATED NORMALLY****
TOTAL RUN TIME: 0 days 0 hours 1 minutes 29 seconds 892 msec
