                         Program Version 5.0.3 -  RELEASE  -
|  1> !ri-mp2 aug-cc-pvdz aug-cc-pvdz/c tightscf
|  2> %pal nprocs 16 end
|  3>
|  4> * xyz 0 1
|  5> S    -0.810277   -1.201087   -0.200139
|  6> S     1.913381   -0.044710    0.323269
|  7> N     0.443660   -0.088164   -0.739013
|  8> N    -0.252291    1.168391   -0.769326
|  9> C    -1.623704    0.083578    0.709655
| 10> C    -1.186766    1.266178    0.270196
| 11> H     1.326453    0.217777    1.515056
| 12> H     0.406206    1.926467   -0.878431
| 13> H    -2.353808   -0.114528    1.473493
| 14> H    -1.505287    2.242921    0.599065
| 15> *
| 16>
| 17>                          ****END OF INPUT****

CARTESIAN COORDINATES (ANGSTROEM)
---------------------------------
  S     -0.810277   -1.201087   -0.200139
  S      1.913381   -0.044710    0.323269
  N      0.443660   -0.088164   -0.739013
  N     -0.252291    1.168391   -0.769326
  C     -1.623704    0.083578    0.709655
  C     -1.186766    1.266178    0.270196
  H      1.326453    0.217777    1.515056
  H      0.406206    1.926467   -0.878431
  H     -2.353808   -0.114528    1.473493
  H     -1.505287    2.242921    0.599065

 Total Charge           Charge          ....    0
 Multiplicity           Mult            ....    1
 Number of Electrons    NEL             ....   62
 Basis Dimension        Dim             ....  182

ORBITAL ENERGIES
----------------

  NO   OCC          E(Eh)            E(eV)
   0   2.0000     -91.999601     -2503.4364
   1   2.0000     -91.991432     -2503.2141
   2   2.0000     -15.668411      -426.3591
   3   2.0000     -15.627069      -425.2342
   4   2.0000     -11.297463      -307.4196
   5   2.0000     -11.269149      -306.6491
   6   2.0000      -8.998264      -244.8552
   7   2.0000      -8.989781      -244.6244
   8   2.0000      -6.680022      -181.7726
   9   2.0000      -6.678620      -181.7345
  10   2.0000      -6.675975      -181.6625
  11   2.0000      -6.671605      -181.5436
  12   2.0000      -6.669965      -181.4990
  13   2.0000      -6.667806      -181.4402
  14   2.0000      -1.345456       -36.6117
  15   2.0000      -1.117850       -30.4183
  16   2.0000      -1.076681       -29.2980
  17   2.0000      -0.961089       -26.1526
  18   2.0000      -0.842741       -22.9321
  19   2.0000      -0.803065       -21.8525
  20   2.0000      -0.737372       -20.0649
  21   2.0000      -0.628454       -17.1011
  22   2.0000      -0.621055       -16.8998
  23   2.0000      -0.601757       -16.3746
  24   2.0000      -0.574853       -15.6426
  25   2.0000      -0.492749       -13.4084
  26   2.0000      -0.473963       -12.8972
  27   2.0000      -0.435345       -11.8464
  28   2.0000      -0.426917       -11.6170
  29   2.0000      -0.372467       -10.1353
  30   2.0000      -0.300374        -8.1736
  31   0.0000       0.029772         0.8101
  32   0.0000       0.042290         1.1508
  33   0.0000       0.051084         1.3901
  34   0.0000       0.059649         1.6231
  35   0.0000       0.081179         2.2090

MULLIKEN ATOMIC CHARGES
-----------------------
   0 S :    0.575375
   1 S :    0.235761
   2 N :   -0.975016
   3 N :   -0.326878
   4 C :   -0.037721
   5 C :    0.945750
   6 H :    0.140176
   7 H :    0.043415
   8 H :   -0.345991
   9 H :   -0.254872
Sum of atomic charges:    0.0000000

LOEWDIN ATOMIC CHARGES
----------------------
   0 S :    0.831562
   1 S :    0.666416
   2 N :   -0.654806
   3 N :   -0.077478
   4 C :   -0.309648
   5 C :   -0.126366
   6 H :   -0.241951
   7 H :   -0.025568
   8 H :   -0.062254
   9 H :    0.000092

  Mayer bond orders larger than 0.100000
B(  0-S ,  2-N ) :   0.7691 B(  0-S ,  4-C ) :   0.8759 B(  1-S ,  2-N ) :   0.7565
B(  1-S ,  6-H ) :   0.9198 B(  2-N ,  3-N ) :   1.0684 B(  2-N ,  4-C ) :   0.1375
B(  2-N ,  5-C ) :  -0.2241 B(  3-N ,  5-C ) :   0.8077 B(  3-N ,  7-H ) :   1.0265
B(  4-C ,  5-C ) :   1.9534 B(  4-C ,  8-H ) :   0.8925 B(  5-C ,  8-H ) :   0.1133
B(  5-C ,  9-H ) :   0.8150

MP2 TOTAL ENERGY:     -982.848577234 Eh
FINAL SINGLE POINT ENERGY      -982.848577234365

DIPOLE MOMENT
-------------
                                X             Y             Z
Electronic contribution:      1.69099      -3.24326      -1.75923
Nuclear contribution   :     -2.09202       4.18280       2.61245
                        -----------------------------------------
Total Dipole Moment    :     -0.40103       0.93954       0.85322
                        -----------------------------------------
Magnitude (a.u.)       :      1.33100
Magnitude (Debye)      :      3.38313

Rotational constants in cm-1:     0.133159     0.072181     0.057325
Rotational constants in MHz :  3991.992227  2163.925039  1718.550331

                             ****ORCA TERMINATED NORMALLY****
TOTAL RUN TIME: 0 days 0 hours 0 minutes 36 seconds 474 msec
