                         Program Version 5.0.3 -  RELEASE  -
|  1> !ri-mp2 aug-cc-pvdz aug-cc-pvdz/c tightscf
|  2> %pal nprocs 16 end
|  3>
|  4> * xyz 0 1
|  5> O      2.347421   -0.187082   -0.656389
|  6> C      1.620033    0.221901    0.509756
|  7> C      0.166572    0.196034    0.229739
|  8> C     -0.747500    1.169251   -0.020672
|  9> C     -2.002371    0.514222   -0.220304
| 10> C     -1.758701   -0.811172   -0.075955
| 11> O     -0.446384   -1.026217    0.202246
| 12> H      3.264764   -0.337168   -0.408291
| 13> H      1.894901    1.240412    0.798884
| 14> H      1.842877   -0.446236    1.347719
| 15> H     -0.548601    2.226247   -0.064386
| 16> H     -2.952138    0.969176   -0.441152
| 17> H     -2.378300   -1.687460   -0.135014
| 18> *
| 19>
| 20>                          ****END OF INPUT****

CARTESIAN COORDINATES (ANGSTROEM)
---------------------------------
  O      2.347421   -0.187082   -0.656389
  C      1.620033    0.221901    0.509756
  C      0.166572    0.196034    0.229739
  C     -0.747500    1.169251   -0.020672
  C     -2.002371    0.514222   -0.220304
  C     -1.758701   -0.811172   -0.075955
  O     -0.446384   -1.026217    0.202246
  H      3.264764   -0.337168   -0.408291
  H      1.894901    1.240412    0.798884
  H      1.842877   -0.446236    1.347719
  H     -0.548601    2.226247   -0.064386
  H     -2.952138    0.969176   -0.441152
  H     -2.378300   -1.687460   -0.135014

 Total Charge           Charge          ....    0
 Multiplicity           Mult            ....    1
 Number of Electrons    NEL             ....   52
 Basis Dimension        Dim             ....  215

ORBITAL ENERGIES
----------------

  NO   OCC          E(Eh)            E(eV)
   0   2.0000     -20.628445      -561.3285
   1   2.0000     -20.573703      -559.8389
   2   2.0000     -11.301089      -307.5183
   3   2.0000     -11.293558      -307.3133
   4   2.0000     -11.293178      -307.3030
   5   2.0000     -11.235116      -305.7230
   6   2.0000     -11.233622      -305.6824
   7   2.0000      -1.461082       -39.7581
   8   2.0000      -1.365273       -37.1510
   9   2.0000      -1.088392       -29.6167
  10   2.0000      -1.042444       -28.3663
  11   2.0000      -0.923544       -25.1309
  12   2.0000      -0.811123       -22.0718
  13   2.0000      -0.765128       -20.8202
  14   2.0000      -0.720049       -19.5935
  15   2.0000      -0.701840       -19.0980
  16   2.0000      -0.639195       -17.3934
  17   2.0000      -0.626371       -17.0444
  18   2.0000      -0.599199       -16.3050
  19   2.0000      -0.574403       -15.6303
  20   2.0000      -0.562901       -15.3173
  21   2.0000      -0.543615       -14.7925
  22   2.0000      -0.513423       -13.9709
  23   2.0000      -0.458470       -12.4756
  24   2.0000      -0.396085       -10.7780
  25   2.0000      -0.316337        -8.6080
  26   0.0000       0.033717         0.9175
  27   0.0000       0.038390         1.0446
  28   0.0000       0.044731         1.2172
  29   0.0000       0.055106         1.4995
  30   0.0000       0.058618         1.5951

MULLIKEN ATOMIC CHARGES
-----------------------
   0 O :   -0.652930
   1 C :    0.920567
   2 C :    0.179257
   3 C :    0.482179
   4 C :    0.332997
   5 C :    0.751593
   6 O :   -0.931162
   7 H :    0.117988
   8 H :   -0.087253
   9 H :   -0.112693
  10 H :   -0.374970
  11 H :   -0.307646
  12 H :   -0.317927
Sum of atomic charges:    0.0000000

LOEWDIN ATOMIC CHARGES
----------------------
   0 O :    0.119038
   1 C :   -0.006240
   2 C :   -0.203044
   3 C :    0.038602
   4 C :   -0.001370
   5 C :    0.014782
   6 O :    0.098010
   7 H :   -0.062132
   8 H :    0.011419
   9 H :    0.013222
  10 H :   -0.002063
  11 H :   -0.010975
  12 H :   -0.009249

  Mayer bond orders larger than 0.100000
B(  0-O ,  1-C ) :   0.6304 B(  0-O ,  7-H ) :   1.1040 B(  1-C ,  2-C ) :   1.1024
B(  1-C ,  4-C ) :   0.1767 B(  1-C ,  6-O ) :   0.1462 B(  1-C ,  8-H ) :   0.8186
B(  1-C ,  9-H ) :   0.7799 B(  1-C , 10-H ) :   0.1062 B(  2-C ,  3-C ) :   1.6246
B(  2-C ,  5-C ) :   0.1977 B(  2-C ,  6-O ) :   0.4910 B(  2-C ,  8-H ) :   0.2438
B(  2-C ,  9-H ) :   0.1364 B(  2-C , 10-H ) :   0.2467 B(  2-C , 12-H ) :   0.1491
B(  3-C ,  4-C ) :   1.3929 B(  3-C ,  5-C ) :  -0.1039 B(  3-C , 10-H ) :   0.4066
B(  4-C ,  5-C ) :   1.7072 B(  4-C , 10-H ) :   0.1062 B(  4-C , 11-H ) :   0.6847
B(  5-C ,  6-O ) :   0.6789 B(  5-C , 12-H ) :   0.9108 B(  6-O , 12-H ) :  -0.1015

MP2 TOTAL ENERGY:     -343.644076320 Eh
FINAL SINGLE POINT ENERGY      -343.644076319682

DIPOLE MOMENT
-------------
                                X             Y             Z
Electronic contribution:     -0.97852      -1.59930      -0.51260
Nuclear contribution   :      1.14828       1.93709       1.08570
                        -----------------------------------------
Total Dipole Moment    :      0.16976       0.33780       0.57310
                        -----------------------------------------
Magnitude (a.u.)       :      0.68656
Magnitude (Debye)      :      1.74511

Rotational constants in cm-1:     0.236325     0.064196     0.055367
Rotational constants in MHz :  7084.853970  1924.551138  1659.865156

                             ****ORCA TERMINATED NORMALLY****
TOTAL RUN TIME: 0 days 0 hours 0 minutes 41 seconds 245 msec
