                         Program Version 5.0.3 -  RELEASE  -
|  1> !ri-mp2 aug-cc-pvdz aug-cc-pvdz/c tightscf
|  2> %pal nprocs 16 end
|  3>
|  4> * xyz 0 1
|  5> O    -2.841359   -1.632448   -0.003270
|  6> N     1.285402   -0.975322   -0.019771
|  7> N     2.484031   -0.680505   -0.010863
|  8> N     3.605627   -0.567935   -0.006143
|  9> C     0.339502    0.047766    0.013908
| 10> C    -0.993794   -0.172117    0.008810
| 11> C     0.682021    1.512322    0.110918
| 12> C    -1.750128    1.127746    0.107057
| 13> C    -0.671031    2.199116   -0.176680
| 14> C    -1.636105   -1.476759   -0.036351
| 15> H     1.467801    1.806010   -0.588127
| 16> H     1.055913    1.737532    1.115662
| 17> H    -2.583844    1.169965   -0.593065
| 18> H    -2.183781    1.237766    1.105376
| 19> H    -0.710080    2.486415   -1.227487
| 20> H    -0.808422    3.103763    0.412368
| 21> H    -0.954916   -2.343981   -0.107093
| 22> *
| 23>
| 24>                          ****END OF INPUT****

CARTESIAN COORDINATES (ANGSTROEM)
---------------------------------
  O     -2.841359   -1.632448   -0.003270
  N      1.285402   -0.975322   -0.019771
  N      2.484031   -0.680505   -0.010863
  N      3.605627   -0.567935   -0.006143
  C      0.339502    0.047766    0.013908
  C     -0.993794   -0.172117    0.008810
  C      0.682021    1.512322    0.110918
  C     -1.750128    1.127746    0.107057
  C     -0.671031    2.199116   -0.176680
  C     -1.636105   -1.476759   -0.036351
  H      1.467801    1.806010   -0.588127
  H      1.055913    1.737532    1.115662
  H     -2.583844    1.169965   -0.593065
  H     -2.183781    1.237766    1.105376
  H     -0.710080    2.486415   -1.227487
  H     -0.808422    3.103763    0.412368
  H     -0.954916   -2.343981   -0.107093

 Total Charge           Charge          ....    0
 Multiplicity           Mult            ....    1
 Number of Electrons    NEL             ....   72
 Basis Dimension        Dim             ....  293

ORBITAL ENERGIES
----------------

  NO   OCC          E(Eh)            E(eV)
   0   2.0000     -20.555265      -559.3372
   1   2.0000     -15.824695      -430.6118
   2   2.0000     -15.714821      -427.6220
   3   2.0000     -15.650119      -425.8614
   4   2.0000     -11.331378      -308.3425
   5   2.0000     -11.322990      -308.1142
   6   2.0000     -11.264564      -306.5244
   7   2.0000     -11.248010      -306.0739
   8   2.0000     -11.243971      -305.9640
   9   2.0000     -11.240565      -305.8713
  10   2.0000      -1.546556       -42.0839
  11   2.0000      -1.383537       -37.6479
  12   2.0000      -1.340196       -36.4686
  13   2.0000      -1.167668       -31.7739
  14   2.0000      -1.029601       -28.0169
  15   2.0000      -1.000704       -27.2305
  16   2.0000      -0.886438       -24.1212
  17   2.0000      -0.852775       -23.2052
  18   2.0000      -0.798887       -21.7388
  19   2.0000      -0.738244       -20.0886
  20   2.0000      -0.735888       -20.0245
  21   2.0000      -0.711718       -19.3668
  22   2.0000      -0.700398       -19.0588
  23   2.0000      -0.662037       -18.0150
  24   2.0000      -0.642402       -17.4806
  25   2.0000      -0.593665       -16.1545
  26   2.0000      -0.579845       -15.7784
  27   2.0000      -0.576623       -15.6907
  28   2.0000      -0.543482       -14.7889
  29   2.0000      -0.521793       -14.1987
  30   2.0000      -0.502501       -13.6737
  31   2.0000      -0.499911       -13.6033
  32   2.0000      -0.469150       -12.7662
  33   2.0000      -0.465288       -12.6611
  34   2.0000      -0.416252       -11.3268
  35   2.0000      -0.331063        -9.0087
  36   0.0000       0.030735         0.8363
  37   0.0000       0.042277         1.1504
  38   0.0000       0.044337         1.2065
  39   0.0000       0.045569         1.2400
  40   0.0000       0.062567         1.7025

MULLIKEN ATOMIC CHARGES
-----------------------
   0 O :   -0.832693
   1 N :   -0.760854
   2 N :    0.387933
   3 N :   -0.321502
   4 C :   -0.309025
   5 C :   -0.171259
   6 C :    0.488347
   7 C :    0.030933
   8 C :    0.590763
   9 C :    1.342020
  10 H :   -0.019287
  11 H :    0.006157
  12 H :   -0.009283
  13 H :    0.043170
  14 H :   -0.133910
  15 H :   -0.116955
  16 H :   -0.214556
Sum of atomic charges:   -0.0000000

LOEWDIN ATOMIC CHARGES
----------------------
   0 O :    0.016141
   1 N :    0.091457
   2 N :   -0.234333
   3 N :    0.293799
   4 C :   -0.179114
   5 C :   -0.147293
   6 C :    0.037271
   7 C :    0.030585
   8 C :    0.029075
   9 C :   -0.063033
  10 H :    0.016929
  11 H :    0.027403
  12 H :    0.019553
  13 H :    0.023487
  14 H :    0.014703
  15 H :    0.010436
  16 H :    0.012934

  Mayer bond orders larger than 0.100000
B(  0-O ,  5-C ) :   0.1046 B(  0-O ,  9-C ) :   1.3193 B(  1-N ,  2-N ) :   1.1412
B(  1-N ,  3-N ) :   0.1917 B(  1-N ,  4-C ) :   0.5741 B(  1-N ,  5-C ) :   0.1218
B(  2-N ,  3-N ) :   1.8577 B(  2-N ,  4-C ) :  -0.1135 B(  3-N ,  4-C ) :   0.1108
B(  4-C ,  5-C ) :   1.3497 B(  4-C ,  6-C ) :   0.8828 B(  4-C ,  7-C ) :  -0.4067
B(  4-C ,  9-C ) :   0.2021 B(  4-C , 10-H ) :   0.1488 B(  4-C , 11-H ) :   0.1938
B(  5-C ,  7-C ) :   1.4885 B(  5-C ,  8-C ) :   0.1244 B(  5-C ,  9-C ) :   0.6728
B(  5-C , 12-H ) :   0.2864 B(  5-C , 13-H ) :   0.2132 B(  5-C , 16-H ) :   0.3667
B(  6-C ,  8-C ) :   1.2332 B(  6-C , 10-H ) :   0.5941 B(  6-C , 11-H ) :   0.6883
B(  7-C ,  8-C ) :   1.1453 B(  7-C ,  9-C ) :   0.1399 B(  7-C , 12-H ) :   0.5742
B(  7-C , 13-H ) :   0.7206 B(  7-C , 16-H ) :   0.1001 B(  8-C , 14-H ) :   0.8094
B(  8-C , 15-H ) :   0.7258 B(  9-C , 16-H ) :   0.4773 B( 10-H , 11-H ) :  -0.1063
B( 12-H , 13-H ) :  -0.1478 B( 14-H , 15-H ) :  -0.1383

MP2 TOTAL ENERGY:     -470.993217509 Eh
FINAL SINGLE POINT ENERGY      -470.993217508661

DIPOLE MOMENT
-------------
                                X             Y             Z
Electronic contribution:      6.03885      -7.84356      -0.09007
Nuclear contribution   :     -4.65274       9.03041       0.11572
                        -----------------------------------------
Total Dipole Moment    :      1.38610       1.18686       0.02565
                        -----------------------------------------
Magnitude (a.u.)       :      1.82498
Magnitude (Debye)      :      4.63874

Rotational constants in cm-1:     0.073280     0.031428     0.022320
Rotational constants in MHz :  2196.890287   942.176846   669.127050

                             ****ORCA TERMINATED NORMALLY****
TOTAL RUN TIME: 0 days 0 hours 1 minutes 50 seconds 271 msec
