                         Program Version 5.0.3 -  RELEASE  -
|  1> !ri-mp2 aug-cc-pvdz aug-cc-pvdz/c tightscf
|  2> %pal nprocs 16 end
|  3>
|  4> * xyz 0 1
|  5> O      0.000000    0.687878    0.000070
|  6> N     -0.688992   -1.412640   -0.000142
|  7> N      0.688992   -1.412640   -0.000140
|  8> C     -1.060811   -0.167259   -0.000017
|  9> C      1.060811   -0.167259   -0.000015
| 10> C     -2.366481    0.358061    0.000033
| 11> C      2.366481    0.358061    0.000038
| 12> C     -3.480741    0.800640    0.000075
| 13> C      3.480741    0.800640    0.000084
| 14> H     -4.469667    1.188310    0.000112
| 15> H      4.469667    1.188310    0.000122
| 16> *
| 17>
| 18>                          ****END OF INPUT****

CARTESIAN COORDINATES (ANGSTROEM)
---------------------------------
  O      0.000000    0.687878    0.000070
  N     -0.688992   -1.412640   -0.000142
  N      0.688992   -1.412640   -0.000140
  C     -1.060811   -0.167259   -0.000017
  C      1.060811   -0.167259   -0.000015
  C     -2.366481    0.358061    0.000033
  C      2.366481    0.358061    0.000038
  C     -3.480741    0.800640    0.000075
  C      3.480741    0.800640    0.000084
  H     -4.469667    1.188310    0.000112
  H      4.469667    1.188310    0.000122

 Total Charge           Charge          ....    0
 Multiplicity           Mult            ....    1
 Number of Electrons    NEL             ....   60
 Basis Dimension        Dim             ....  225

ORBITAL ENERGIES
----------------

  NO   OCC          E(Eh)            E(eV)
   0   2.0000     -20.689703      -562.9954
   1   2.0000     -15.633632      -425.4128
   2   2.0000     -15.632983      -425.3951
   3   2.0000     -11.390895      -309.9620
   4   2.0000     -11.390853      -309.9609
   5   2.0000     -11.287137      -307.1386
   6   2.0000     -11.287136      -307.1386
   7   2.0000     -11.281792      -306.9932
   8   2.0000     -11.281792      -306.9932
   9   2.0000      -1.548618       -42.1400
  10   2.0000      -1.335890       -36.3514
  11   2.0000      -1.179652       -32.1000
  12   2.0000      -1.085950       -29.5502
  13   2.0000      -1.059458       -28.8293
  14   2.0000      -0.929803       -25.3012
  15   2.0000      -0.920893       -25.0588
  16   2.0000      -0.811998       -22.0956
  17   2.0000      -0.775279       -21.0964
  18   2.0000      -0.740365       -20.1463
  19   2.0000      -0.713799       -19.4235
  20   2.0000      -0.709755       -19.3134
  21   2.0000      -0.660606       -17.9760
  22   2.0000      -0.528397       -14.3784
  23   2.0000      -0.511733       -13.9250
  24   2.0000      -0.505432       -13.7535
  25   2.0000      -0.483538       -13.1577
  26   2.0000      -0.445847       -12.1321
  27   2.0000      -0.444339       -12.0911
  28   2.0000      -0.437348       -11.9008
  29   2.0000      -0.359051        -9.7703
  30   0.0000       0.029925         0.8143
  31   0.0000       0.030274         0.8238
  32   0.0000       0.051818         1.4100
  33   0.0000       0.073141         1.9903
  34   0.0000       0.085584         2.3289

MULLIKEN ATOMIC CHARGES
-----------------------
   0 O :   -0.818524
   1 N :   -0.591855
   2 N :   -0.591855
   3 C :    0.704503
   4 C :    0.704503
   5 C :    0.196522
   6 C :    0.196522
   7 C :    0.660318
   8 C :    0.660318
   9 H :   -0.560227
  10 H :   -0.560227
Sum of atomic charges:    0.0000000

LOEWDIN ATOMIC CHARGES
----------------------
   0 O :    0.158854
   1 N :    0.051007
   2 N :    0.051007
   3 C :   -0.288423
   4 C :   -0.288423
   5 C :   -0.024874
   6 C :   -0.024874
   7 C :    0.268526
   8 C :    0.268526
   9 H :   -0.085663
  10 H :   -0.085663

  Mayer bond orders larger than 0.100000
B(  0-O ,  1-N ) :   0.1069 B(  0-O ,  2-N ) :   0.1069 B(  0-O ,  3-C ) :   0.5471
B(  0-O ,  4-C ) :   0.5471 B(  0-O ,  5-C ) :   0.1434 B(  0-O ,  6-C ) :   0.1434
B(  1-N ,  2-N ) :   0.7709 B(  1-N ,  3-C ) :   1.5004 B(  1-N ,  5-C ) :  -0.1226
B(  2-N ,  4-C ) :   1.5004 B(  2-N ,  6-C ) :  -0.1226 B(  3-C ,  5-C ) :   1.4081
B(  3-C ,  7-C ) :   0.2055 B(  3-C ,  9-H ) :   0.1126 B(  4-C ,  6-C ) :   1.4081
B(  4-C ,  8-C ) :   0.2055 B(  4-C , 10-H ) :   0.1126 B(  5-C ,  7-C ) :   2.4207
B(  5-C ,  9-H ) :   0.5919 B(  6-C ,  8-C ) :   2.4207 B(  6-C , 10-H ) :   0.5919
B(  7-C ,  8-C ) :   0.1534 B(  7-C ,  9-H ) :  -0.2161 B(  8-C , 10-H ) :  -0.2161

MP2 TOTAL ENERGY:     -413.292141652 Eh
FINAL SINGLE POINT ENERGY      -413.292141652387

DIPOLE MOMENT
-------------
                                X             Y             Z
Electronic contribution:      0.00000      -0.88296      -0.00009
Nuclear contribution   :      0.00000       2.26226       0.00022
                        -----------------------------------------
Total Dipole Moment    :      0.00000       1.37930       0.00014
                        -----------------------------------------
Magnitude (a.u.)       :      1.37930
Magnitude (Debye)      :      3.50590

Rotational constants in cm-1:     0.197341     0.033304     0.028495
Rotational constants in MHz :  5916.130120   998.428038   854.259962

                             ****ORCA TERMINATED NORMALLY****
TOTAL RUN TIME: 0 days 0 hours 0 minutes 51 seconds 684 msec
