                         Program Version 5.0.3 -  RELEASE  -
|  1> !ri-mp2 aug-cc-pvdz aug-cc-pvdz/c tightscf
|  2> %pal nprocs 16 end
|  3>
|  4> * xyz 0 1
|  5> H     0.310543     2.728828    0.000000
|  6> C    -0.313196     1.840812    0.000000
|  7> H     1.396218     0.676680    0.000000
|  8> C     0.313196     0.654900    0.000000
|  9> H    -1.396218    -0.676680    0.000000
| 10> C    -0.313196    -0.654900    0.000000
| 11> H    -0.310543    -2.728828    0.000000
| 12> C     0.313196    -1.840812    0.000000
| 13> H     2.383856    -1.194467    0.000000
| 14> H     2.072264    -2.692860    0.875470
| 15> H     2.072264    -2.692860   -0.875470
| 16> C     1.786306    -2.103254    0.000000
| 17> H    -2.383856     1.194467    0.000000
| 18> H    -2.072264     2.692860    0.875470
| 19> H    -2.072264     2.692860   -0.875470
| 20> C    -1.786306     2.103254    0.000000
| 21> *
| 22>
| 23>                          ****END OF INPUT****

CARTESIAN COORDINATES (ANGSTROEM)
---------------------------------
  H      0.310543    2.728828    0.000000
  C     -0.313196    1.840812    0.000000
  H      1.396218    0.676680    0.000000
  C      0.313196    0.654900    0.000000
  H     -1.396218   -0.676680    0.000000
  C     -0.313196   -0.654900    0.000000
  H     -0.310543   -2.728828    0.000000
  C      0.313196   -1.840812    0.000000
  H      2.383856   -1.194467    0.000000
  H      2.072264   -2.692860    0.875470
  H      2.072264   -2.692860   -0.875470
  C      1.786306   -2.103254    0.000000
  H     -2.383856    1.194467    0.000000
  H     -2.072264    2.692860    0.875470
  H     -2.072264    2.692860   -0.875470
  C     -1.786306    2.103254    0.000000

 Total Charge           Charge          ....    0
 Multiplicity           Mult            ....    1
 Number of Electrons    NEL             ....   46
 Basis Dimension        Dim             ....  228

ORBITAL ENERGIES
----------------

  NO   OCC          E(Eh)            E(eV)
   0   2.0000     -11.236883      -305.7711
   1   2.0000     -11.236879      -305.7710
   2   2.0000     -11.229831      -305.5792
   3   2.0000     -11.228991      -305.5564
   4   2.0000     -11.227726      -305.5219
   5   2.0000     -11.227725      -305.5219
   6   2.0000      -1.101352       -29.9693
   7   2.0000      -1.047258       -28.4973
   8   2.0000      -0.962981       -26.2040
   9   2.0000      -0.912817       -24.8390
  10   2.0000      -0.789574       -21.4854
  11   2.0000      -0.704698       -19.1758
  12   2.0000      -0.666280       -18.1304
  13   2.0000      -0.605619       -16.4797
  14   2.0000      -0.585720       -15.9383
  15   2.0000      -0.567855       -15.4521
  16   2.0000      -0.563733       -15.3400
  17   2.0000      -0.523441       -14.2436
  18   2.0000      -0.520891       -14.1742
  19   2.0000      -0.519973       -14.1492
  20   2.0000      -0.463236       -12.6053
  21   2.0000      -0.421531       -11.4704
  22   2.0000      -0.301191        -8.1958
  23   0.0000       0.036441         0.9916
  24   0.0000       0.041196         1.1210
  25   0.0000       0.044549         1.2122
  26   0.0000       0.056909         1.5486
  27   0.0000       0.058962         1.6044

MULLIKEN ATOMIC CHARGES
-----------------------
   0 H :   -0.481373
   1 C :   -0.188499
   2 H :   -0.613002
   3 C :    0.953563
   4 H :   -0.613002
   5 C :    0.953563
   6 H :   -0.481373
   7 C :   -0.188499
   8 H :   -0.173735
   9 H :    0.096274
  10 H :    0.096274
  11 C :    0.310499
  12 H :   -0.173735
  13 H :    0.096274
  14 H :    0.096274
  15 C :    0.310499
Sum of atomic charges:    0.0000000

LOEWDIN ATOMIC CHARGES
----------------------
   0 H :   -0.006904
   1 C :   -0.034153
   2 H :   -0.014201
   3 C :   -0.023048
   4 H :   -0.014201
   5 C :   -0.023048
   6 H :   -0.006904
   7 C :   -0.034153
   8 H :   -0.031973
   9 H :   -0.013891
  10 H :   -0.013891
  11 C :    0.138062
  12 H :   -0.031973
  13 H :   -0.013891
  14 H :   -0.013891
  15 C :    0.138062

  Mayer bond orders larger than 0.100000
B(  0-H ,  1-C ) :   0.6024 B(  0-H ,  3-C ) :   0.2837 B(  0-H , 15-C ) :  -0.1316
B(  1-C ,  2-H ) :   0.2118 B(  1-C ,  3-C ) :   1.6601 B(  1-C ,  5-C ) :  -0.2321
B(  1-C ,  7-C ) :   0.3656 B(  1-C , 11-C ) :   0.1604 B(  1-C , 15-C ) :   1.2603
B(  2-H ,  5-C ) :   0.2675 B(  3-C ,  4-H ) :   0.2675 B(  3-C ,  5-C ) :   1.4675
B(  3-C ,  7-C ) :  -0.2321 B(  3-C , 15-C ) :  -0.1990 B(  4-H ,  7-C ) :   0.2118
B(  5-C ,  6-H ) :   0.2837 B(  5-C ,  7-C ) :   1.6601 B(  5-C , 11-C ) :  -0.1990
B(  6-H ,  7-C ) :   0.6024 B(  6-H , 11-C ) :  -0.1316 B(  7-C , 11-C ) :   1.2603
B(  7-C , 15-C ) :   0.1604 B(  8-H , 11-C ) :   0.9939 B(  9-H , 11-C ) :   0.8619
B( 10-H , 11-C ) :   0.8619 B( 12-H , 15-C ) :   0.9939 B( 13-H , 15-C ) :   0.8619
B( 14-H , 15-C ) :   0.8619

MP2 TOTAL ENERGY:     -233.872999297 Eh
FINAL SINGLE POINT ENERGY      -233.872999297421

DIPOLE MOMENT
-------------
                                X             Y             Z
Electronic contribution:      0.00000      -0.00000      -0.00000
Nuclear contribution   :     -0.00000      -0.00000       0.00000
                        -----------------------------------------
Total Dipole Moment    :      0.00000      -0.00000      -0.00000
                        -----------------------------------------
Magnitude (a.u.)       :      0.00000
Magnitude (Debye)      :      0.00000

Rotational constants in cm-1:     0.392122     0.052115     0.046791
Rotational constants in MHz : 11755.534844  1562.376910  1402.746773

                             ****ORCA TERMINATED NORMALLY****
TOTAL RUN TIME: 0 days 0 hours 0 minutes 41 seconds 340 msec
