                         Program Version 5.0.3 -  RELEASE  -
|  1> !ri-mp2 aug-cc-pvdz aug-cc-pvdz/c tightscf
|  2> %pal nprocs 16 end
|  3> %maxcore 3800
|  4>
|  5> * xyz 0 1
|  6> C      0.031636    2.129960    0.000000
|  7> C      0.022160    1.426629    1.197036
|  8> C      0.022160    1.426629   -1.197036
|  9> C      0.000741    0.035768    1.220838
| 10> C      0.000741    0.035768   -1.220838
| 11> C     -0.014016   -0.663674    0.000000
| 12> C      0.000741   -0.713836    2.525634
| 13> C      0.000741   -0.713836   -2.525634
| 14> N      0.019170   -2.060830    0.000000
| 15> H      0.048473    3.210934    0.000000
| 16> H      0.033219    1.964237    2.137086
| 17> H      0.033219    1.964237   -2.137086
| 18> H     -0.899053   -1.326444    2.647724
| 19> H      0.860065   -1.385263    2.606507
| 20> H      0.037075   -0.025129    3.367762
| 21> H      0.860065   -1.385263   -2.606507
| 22> H     -0.899053   -1.326444   -2.647724
| 23> H      0.037075   -0.025129   -3.367762
| 24> H     -0.317355   -2.510195   -0.834773
| 25> H     -0.317355   -2.510195    0.834773
| 26> *
| 27>
| 28>                          ****END OF INPUT****

CARTESIAN COORDINATES (ANGSTROEM)
---------------------------------
  C      0.031636    2.129960    0.000000
  C      0.022160    1.426629    1.197036
  C      0.022160    1.426629   -1.197036
  C      0.000741    0.035768    1.220838
  C      0.000741    0.035768   -1.220838
  C     -0.014016   -0.663674    0.000000
  C      0.000741   -0.713836    2.525634
  C      0.000741   -0.713836   -2.525634
  N      0.019170   -2.060830    0.000000
  H      0.048473    3.210934    0.000000
  H      0.033219    1.964237    2.137086
  H      0.033219    1.964237   -2.137086
  H     -0.899053   -1.326444    2.647724
  H      0.860065   -1.385263    2.606507
  H      0.037075   -0.025129    3.367762
  H      0.860065   -1.385263   -2.606507
  H     -0.899053   -1.326444   -2.647724
  H      0.037075   -0.025129   -3.367762
  H     -0.317355   -2.510195   -0.834773
  H     -0.317355   -2.510195    0.834773

 Total Charge           Charge          ....    0
 Multiplicity           Mult            ....    1
 Number of Electrons    NEL             ....   66
 Basis Dimension        Dim             ....  306

ORBITAL ENERGIES
----------------

  NO   OCC          E(Eh)            E(eV)
   0   2.0000     -15.570299      -423.6894
   1   2.0000     -11.272582      -306.7425
   2   2.0000     -11.231683      -305.6296
   3   2.0000     -11.231656      -305.6289
   4   2.0000     -11.229987      -305.5835
   5   2.0000     -11.229985      -305.5834
   6   2.0000     -11.227457      -305.5146
   7   2.0000     -11.227381      -305.5126
   8   2.0000     -11.218426      -305.2689
   9   2.0000      -1.227677       -33.4068
  10   2.0000      -1.129175       -30.7264
  11   2.0000      -1.058061       -28.7913
  12   2.0000      -1.008331       -27.4381
  13   2.0000      -0.934230       -25.4217
  14   2.0000      -0.925171       -25.1752
  15   2.0000      -0.801885       -21.8204
  16   2.0000      -0.792196       -21.5567
  17   2.0000      -0.696244       -18.9458
  18   2.0000      -0.692375       -18.8405
  19   2.0000      -0.627933       -17.0869
  20   2.0000      -0.605135       -16.4666
  21   2.0000      -0.589433       -16.0393
  22   2.0000      -0.577563       -15.7163
  23   2.0000      -0.567867       -15.4524
  24   2.0000      -0.559543       -15.2259
  25   2.0000      -0.556124       -15.1329
  26   2.0000      -0.524982       -14.2855
  27   2.0000      -0.500262       -13.6128
  28   2.0000      -0.485207       -13.2031
  29   2.0000      -0.475516       -12.9395
  30   2.0000      -0.443137       -12.0584
  31   2.0000      -0.318263        -8.6604
  32   2.0000      -0.284019        -7.7286
  33   0.0000       0.032889         0.8950
  34   0.0000       0.039092         1.0637
  35   0.0000       0.041310         1.1241
  36   0.0000       0.054126         1.4728
  37   0.0000       0.054593         1.4855

MULLIKEN ATOMIC CHARGES
-----------------------
   0 C :   -0.246219
   1 C :    0.896964
   2 C :    0.896964
   3 C :    0.210938
   4 C :    0.210938
   5 C :   -0.491023
   6 C :    0.400975
   7 C :    0.400975
   8 N :   -0.506660
   9 H :   -0.472599
  10 H :   -0.597551
  11 H :   -0.597551
  12 H :    0.138087
  13 H :    0.143796
  14 H :   -0.276981
  15 H :    0.143796
  16 H :    0.138087
  17 H :   -0.276981
  18 H :   -0.057977
  19 H :   -0.057977
Sum of atomic charges:    0.0000000

LOEWDIN ATOMIC CHARGES
----------------------
   0 C :   -0.002415
   1 C :    0.031006
   2 C :    0.031006
   3 C :   -0.169489
   4 C :   -0.169489
   5 C :   -0.158924
   6 C :    0.166374
   7 C :    0.166374
   8 N :    0.259091
   9 H :   -0.007095
  10 H :    0.002661
  11 H :    0.002661
  12 H :   -0.008869
  13 H :   -0.003903
  14 H :   -0.016301
  15 H :   -0.003903
  16 H :   -0.008869
  17 H :   -0.016301
  18 H :   -0.046808
  19 H :   -0.046808

  Mayer bond orders larger than 0.100000
B(  0-C ,  1-C ) :   1.3549 B(  0-C ,  2-C ) :   1.3549 B(  0-C ,  5-C ) :   0.2278
B(  0-C ,  6-C ) :   0.4437 B(  0-C ,  7-C ) :   0.4437 B(  0-C ,  9-H ) :   0.1993
B(  0-C , 10-H ) :   0.2201 B(  0-C , 11-H ) :   0.2201 B(  1-C ,  2-C ) :   0.3209
B(  1-C ,  3-C ) :   1.5541 B(  1-C ,  5-C ) :  -0.6052 B(  1-C ,  6-C ) :  -0.2906
B(  1-C ,  9-H ) :   0.2219 B(  1-C , 10-H ) :  -0.4091 B(  1-C , 14-H ) :  -0.1294
B(  2-C ,  4-C ) :   1.5541 B(  2-C ,  5-C ) :  -0.6052 B(  2-C ,  7-C ) :  -0.2906
B(  2-C ,  9-H ) :   0.2219 B(  2-C , 11-H ) :  -0.4091 B(  2-C , 17-H ) :  -0.1294
B(  3-C ,  4-C ) :   0.3118 B(  3-C ,  5-C ) :   1.0811 B(  3-C ,  6-C ) :   1.1896
B(  3-C ,  8-N ) :  -0.1122 B(  3-C , 10-H ) :   0.6699 B(  3-C , 12-H ) :   0.2307
B(  3-C , 13-H ) :   0.2057 B(  3-C , 14-H ) :   0.4946 B(  4-C ,  5-C ) :   1.0811
B(  4-C ,  7-C ) :   1.1896 B(  4-C ,  8-N ) :  -0.1122 B(  4-C , 11-H ) :   0.6699
B(  4-C , 15-H ) :   0.2057 B(  4-C , 16-H ) :   0.2307 B(  4-C , 17-H ) :   0.4946
B(  5-C ,  6-C ) :  -0.3566 B(  5-C ,  7-C ) :  -0.3566 B(  5-C ,  8-N ) :   0.8927
B(  5-C , 12-H ) :  -0.1130 B(  5-C , 13-H ) :  -0.1232 B(  5-C , 15-H ) :  -0.1232
B(  5-C , 16-H ) :  -0.1130 B(  6-C , 10-H ) :   0.1119 B(  6-C , 12-H ) :   0.8189
B(  6-C , 13-H ) :   0.8404 B(  6-C , 14-H ) :   0.5880 B(  7-C , 11-H ) :   0.1119
B(  7-C , 15-H ) :   0.8404 B(  7-C , 16-H ) :   0.8189 B(  7-C , 17-H ) :   0.5880
B(  8-N , 18-H ) :   1.0920 B(  8-N , 19-H ) :   1.0920 B( 12-H , 13-H ) :  -0.1081
B( 15-H , 16-H ) :  -0.1081

MP2 TOTAL ENERGY:     -365.148778892 Eh
FINAL SINGLE POINT ENERGY      -365.148778891941

DIPOLE MOMENT
-------------
                                X             Y             Z
Electronic contribution:      0.19041       2.93291       0.00000
Nuclear contribution   :     -0.53548      -3.44370      -0.00000
                        -----------------------------------------
Total Dipole Moment    :     -0.34507      -0.51079       0.00000
                        -----------------------------------------
Magnitude (a.u.)       :      0.61642
Magnitude (Debye)      :      1.56682

Rotational constants in cm-1:     0.075939     0.058517     0.033485
Rotational constants in MHz :  2276.582921  1754.289680  1003.861983

                             ****ORCA TERMINATED NORMALLY****
TOTAL RUN TIME: 0 days 0 hours 1 minutes 41 seconds 477 msec
