                         Program Version 5.0.3 -  RELEASE  -
|  1> !ri-mp2 aug-cc-pvdz aug-cc-pvdz/c tightscf
|  2> %pal nprocs 16 end
|  3>
|  4> * xyz 0 1
|  5> C      1.757085   -1.091084   -0.817160
|  6> C      1.865711    1.150795    0.344263
|  7> C     -2.561944   -0.479494    0.222334
|  8> C     -0.108652   -0.438664    0.811498
|  9> C      1.383699   -0.300756    0.441026
| 10> C     -1.155311   -0.134494   -0.257223
| 11> O     -1.063482    1.259171   -0.592699
| 12> H      1.319591   -0.646459   -1.712763
| 13> H      1.420349   -2.128425   -0.757181
| 14> H      2.839293   -1.101666   -0.956361
| 15> H      1.631351    1.705127    1.254703
| 16> H      2.948329    1.182645    0.204223
| 17> H      1.395373    1.671994   -0.487552
| 18> H     -2.805836    0.079162    1.127243
| 19> H     -3.304011   -0.233062   -0.540810
| 20> H     -2.651586   -1.545510    0.436884
| 21> H     -0.321008    0.193554    1.678818
| 22> H     -0.280510   -1.470795    1.130737
| 23> H      1.924875   -0.758063    1.276660
| 24> H     -0.937758   -0.728497   -1.152861
| 25> H     -1.754119    1.468806   -1.228574
| 26> *
| 27>
| 28>                          ****END OF INPUT****

CARTESIAN COORDINATES (ANGSTROEM)
---------------------------------
  C      1.757085   -1.091084   -0.817160
  C      1.865711    1.150795    0.344263
  C     -2.561944   -0.479494    0.222334
  C     -0.108652   -0.438664    0.811498
  C      1.383699   -0.300756    0.441026
  C     -1.155311   -0.134494   -0.257223
  O     -1.063482    1.259171   -0.592699
  H      1.319591   -0.646459   -1.712763
  H      1.420349   -2.128425   -0.757181
  H      2.839293   -1.101666   -0.956361
  H      1.631351    1.705127    1.254703
  H      2.948329    1.182645    0.204223
  H      1.395373    1.671994   -0.487552
  H     -2.805836    0.079162    1.127243
  H     -3.304011   -0.233062   -0.540810
  H     -2.651586   -1.545510    0.436884
  H     -0.321008    0.193554    1.678818
  H     -0.280510   -1.470795    1.130737
  H      1.924875   -0.758063    1.276660
  H     -0.937758   -0.728497   -1.152861
  H     -1.754119    1.468806   -1.228574

 Total Charge           Charge          ....    0
 Multiplicity           Mult            ....    1
 Number of Electrons    NEL             ....   58
 Basis Dimension        Dim             ....  287

ORBITAL ENERGIES
----------------

  NO   OCC          E(Eh)            E(eV)
   0   2.0000     -20.561605      -559.5097
   1   2.0000     -11.282704      -307.0180
   2   2.0000     -11.224886      -305.4447
   3   2.0000     -11.223749      -305.4137
   4   2.0000     -11.219061      -305.2862
   5   2.0000     -11.211847      -305.0899
   6   2.0000     -11.200766      -304.7883
   7   2.0000      -1.357082       -36.9281
   8   2.0000      -1.085377       -29.5346
   9   2.0000      -1.023336       -27.8464
  10   2.0000      -0.928430       -25.2639
  11   2.0000      -0.919982       -25.0340
  12   2.0000      -0.822315       -22.3763
  13   2.0000      -0.746634       -20.3169
  14   2.0000      -0.693735       -18.8775
  15   2.0000      -0.638434       -17.3727
  16   2.0000      -0.604349       -16.4452
  17   2.0000      -0.598455       -16.2848
  18   2.0000      -0.572832       -15.5875
  19   2.0000      -0.560936       -15.2639
  20   2.0000      -0.540563       -14.7095
  21   2.0000      -0.523589       -14.2476
  22   2.0000      -0.517319       -14.0770
  23   2.0000      -0.507561       -13.8114
  24   2.0000      -0.493766       -13.4361
  25   2.0000      -0.458032       -12.4637
  26   2.0000      -0.453778       -12.3479
  27   2.0000      -0.434588       -11.8257
  28   2.0000      -0.428200       -11.6519
  29   0.0000       0.034404         0.9362
  30   0.0000       0.041318         1.1243
  31   0.0000       0.045713         1.2439
  32   0.0000       0.047772         1.2999
  33   0.0000       0.060879         1.6566

MULLIKEN ATOMIC CHARGES
-----------------------
   0 C :    0.873367
   1 C :    0.777720
   2 C :    0.582864
   3 C :    0.353672
   4 C :   -1.099321
   5 C :    0.368331
   6 O :   -0.815562
   7 H :   -0.038174
   8 H :   -0.080920
   9 H :   -0.144844
  10 H :   -0.088722
  11 H :   -0.075633
  12 H :    0.017828
  13 H :   -0.004584
  14 H :   -0.091787
  15 H :   -0.046269
  16 H :   -0.141656
  17 H :   -0.162710
  18 H :   -0.090812
  19 H :   -0.219413
  20 H :    0.126623
Sum of atomic charges:    0.0000000

LOEWDIN ATOMIC CHARGES
----------------------
   0 C :    0.152988
   1 C :    0.156830
   2 C :    0.163458
   3 C :    0.011297
   4 C :   -0.270213
   5 C :   -0.263058
   6 O :    0.138077
   7 H :   -0.015476
   8 H :   -0.012360
   9 H :   -0.015410
  10 H :   -0.012896
  11 H :   -0.017429
  12 H :   -0.024629
  13 H :   -0.007516
  14 H :   -0.017793
  15 H :   -0.012140
  16 H :    0.025854
  17 H :    0.021494
  18 H :    0.034346
  19 H :    0.024061
  20 H :   -0.059484

  Mayer bond orders larger than 0.100000
B(  0-C ,  1-C ) :  -0.1950 B(  0-C ,  3-C ) :  -0.1026 B(  0-C ,  4-C ) :   1.3174
B(  0-C ,  7-H ) :   0.8801 B(  0-C ,  8-H ) :   0.8026 B(  0-C ,  9-H ) :   0.7981
B(  1-C ,  4-C ) :   1.4097 B(  1-C , 10-H ) :   0.8223 B(  1-C , 11-H ) :   0.7782
B(  1-C , 12-H ) :   0.8970 B(  2-C ,  3-C ) :  -0.1127 B(  2-C ,  5-C ) :   1.3318
B(  2-C , 13-H ) :   0.8764 B(  2-C , 14-H ) :   0.8394 B(  2-C , 15-H ) :   0.8425
B(  3-C ,  4-C ) :   1.3010 B(  3-C ,  5-C ) :   1.2822 B(  3-C , 16-H ) :   0.6979
B(  3-C , 17-H ) :   0.7464 B(  3-C , 18-H ) :   0.1122 B(  4-C ,  5-C ) :  -0.1263
B(  4-C ,  7-H ) :   0.1263 B(  4-C ,  9-H ) :   0.1335 B(  4-C , 11-H ) :   0.1683
B(  4-C , 12-H ) :   0.1649 B(  4-C , 17-H ) :   0.1642 B(  4-C , 18-H ) :   0.6357
B(  4-C , 19-H ) :  -0.1187 B(  5-C ,  6-O ) :   0.1823 B(  5-C , 14-H ) :   0.2008
B(  5-C , 16-H ) :   0.1074 B(  5-C , 19-H ) :   0.5929 B(  6-O , 20-H ) :   1.1029
B(  8-H ,  9-H ) :  -0.1092 B( 13-H , 14-H ) :  -0.1067 B( 16-H , 17-H ) :  -0.1418

MP2 TOTAL ENERGY:     -311.369681831 Eh
FINAL SINGLE POINT ENERGY      -311.369681831309

DIPOLE MOMENT
-------------
                                X             Y             Z
Electronic contribution:     -1.96817       1.99754      -0.47435
Nuclear contribution   :      1.50057      -2.44274       0.28125
                        -----------------------------------------
Total Dipole Moment    :     -0.46760      -0.44519      -0.19310
                        -----------------------------------------
Magnitude (a.u.)       :      0.67390
Magnitude (Debye)      :      1.71291

Rotational constants in cm-1:     0.133155     0.053071     0.047149
Rotational constants in MHz :  3991.885975  1591.027165  1413.477433

                             ****ORCA TERMINATED NORMALLY****
TOTAL RUN TIME: 0 days 0 hours 1 minutes 5 seconds 700 msec
