                         Program Version 5.0.3 -  RELEASE  -
|  1> !ri-mp2 aug-cc-pvdz aug-cc-pvdz/c tightscf
|  2> %pal nprocs 16 end
|  3>
|  4> * xyz 0 1
|  5> S      2.003409    0.770859    0.144997
|  6> S      0.824434   -1.874911   -0.296043
|  7> N     -2.788831   -1.286739    0.056249
|  8> N     -1.196262    2.646561   -0.557680
|  9> C     -0.747144    0.287249    0.481702
| 10> C      0.630661   -0.307408    0.072187
| 11> C     -1.869388   -0.620646    0.224187
| 12> C     -1.016190    1.603166   -0.112117
| 13> H     -0.695773    0.434643    1.567730
| 14> H      1.358300    1.937262    0.363284
| 15> *
| 16>
| 17>                          ****END OF INPUT****

CARTESIAN COORDINATES (ANGSTROEM)
---------------------------------
  S      2.003409    0.770859    0.144997
  S      0.824434   -1.874911   -0.296043
  N     -2.788831   -1.286739    0.056249
  N     -1.196262    2.646561   -0.557680
  C     -0.747144    0.287249    0.481702
  C      0.630661   -0.307408    0.072187
  C     -1.869388   -0.620646    0.224187
  C     -1.016190    1.603166   -0.112117
  H     -0.695773    0.434643    1.567730
  H      1.358300    1.937262    0.363284

 Total Charge           Charge          ....    0
 Multiplicity           Mult            ....    1
 Number of Electrons    NEL             ....   72
 Basis Dimension        Dim             ....  210

ORBITAL ENERGIES
----------------

  NO   OCC          E(Eh)            E(eV)
   0   2.0000     -92.032420     -2504.3295
   1   2.0000     -91.982736     -2502.9775
   2   2.0000     -15.635973      -425.4765
   3   2.0000     -15.621406      -425.0801
   4   2.0000     -11.411682      -310.5277
   5   2.0000     -11.396731      -310.1208
   6   2.0000     -11.336431      -308.4800
   7   2.0000     -11.322349      -308.0968
   8   2.0000      -9.034487      -245.8409
   9   2.0000      -8.985693      -244.5131
  10   2.0000      -6.716268      -182.7589
  11   2.0000      -6.714768      -182.7181
  12   2.0000      -6.712804      -182.6647
  13   2.0000      -6.667394      -181.4290
  14   2.0000      -6.665608      -181.3804
  15   2.0000      -6.663495      -181.3229
  16   2.0000      -1.286886       -35.0180
  17   2.0000      -1.263338       -34.3772
  18   2.0000      -1.196837       -32.5676
  19   2.0000      -1.092174       -29.7196
  20   2.0000      -1.016432       -27.6585
  21   2.0000      -0.816484       -22.2177
  22   2.0000      -0.807538       -21.9742
  23   2.0000      -0.740943       -20.1621
  24   2.0000      -0.694124       -18.8881
  25   2.0000      -0.609494       -16.5852
  26   2.0000      -0.596179       -16.2228
  27   2.0000      -0.570982       -15.5372
  28   2.0000      -0.545588       -14.8462
  29   2.0000      -0.530776       -14.4431
  30   2.0000      -0.522003       -14.2044
  31   2.0000      -0.504345       -13.7239
  32   2.0000      -0.498940       -13.5769
  33   2.0000      -0.491829       -13.3834
  34   2.0000      -0.389463       -10.5978
  35   2.0000      -0.384299       -10.4573
  36   0.0000       0.006591         0.1793
  37   0.0000       0.025977         0.7069
  38   0.0000       0.044014         1.1977
  39   0.0000       0.066260         1.8030
  40   0.0000       0.069932         1.9029

MULLIKEN ATOMIC CHARGES
-----------------------
   0 S :    0.328608
   1 S :    0.110604
   2 N :   -0.257267
   3 N :   -0.327997
   4 C :    0.358889
   5 C :   -0.289890
   6 C :   -0.177726
   7 C :   -0.115605
   8 H :    0.250980
   9 H :    0.119403
Sum of atomic charges:    0.0000000

LOEWDIN ATOMIC CHARGES
----------------------
   0 S :    0.844784
   1 S :    0.674534
   2 N :    0.118786
   3 N :    0.122765
   4 C :   -0.307318
   5 C :   -1.021187
   6 C :   -0.151981
   7 C :   -0.142960
   8 H :    0.062900
   9 H :   -0.200324

  Mayer bond orders larger than 0.100000
B(  0-S ,  4-C ) :   0.2603 B(  0-S ,  5-C ) :   1.0588 B(  0-S ,  7-C ) :  -0.1324
B(  0-S ,  9-H ) :   0.9112 B(  1-S ,  4-C ) :  -0.2261 B(  1-S ,  5-C ) :   1.9235
B(  1-S ,  6-C ) :   0.1474 B(  2-N ,  4-C ) :  -0.1250 B(  2-N ,  6-C ) :   2.7612
B(  3-N ,  4-C ) :  -0.1103 B(  3-N ,  7-C ) :   2.7357 B(  4-C ,  5-C ) :   1.2712
B(  4-C ,  7-C ) :   0.2283 B(  4-C ,  8-H ) :   0.9077 B(  5-C ,  7-C ) :   0.1761
B(  6-C ,  7-C ) :   0.5425 B(  6-C ,  8-H ) :  -0.1319

MP2 TOTAL ENERGY:    -1057.706566465 Eh
FINAL SINGLE POINT ENERGY     -1057.706566464688

DIPOLE MOMENT
-------------
                                X             Y             Z
Electronic contribution:      0.56496      -1.73394      -0.86126
Nuclear contribution   :      0.52482       2.29558       1.83796
                        -----------------------------------------
Total Dipole Moment    :      1.08977       0.56164       0.97670
                        -----------------------------------------
Magnitude (a.u.)       :      1.56748
Magnitude (Debye)      :      3.98421

Rotational constants in cm-1:     0.054630     0.046590     0.026247
Rotational constants in MHz :  1637.773291  1396.745289   786.860970

                             ****ORCA TERMINATED NORMALLY****
TOTAL RUN TIME: 0 days 0 hours 0 minutes 52 seconds 572 msec
