                         Program Version 5.0.3 -  RELEASE  -
|  1> !ri-mp2 aug-cc-pvdz aug-cc-pvdz/c tightscf
|  2> %pal nprocs 16 end
|  3>
|  4> * xyz 0 1
|  5> C     -2.091969    0.010752   -0.180597
|  6> H     -2.635094   -0.893942    0.090351
|  7> H     -2.624543    0.872125    0.220077
|  8> H     -2.045431    0.092193   -1.265498
|  9> C     -0.698672   -0.035879    0.388299
| 10> H     -0.716959   -0.130269    1.485995
| 11> O      0.030683    1.138373    0.045279
| 12> O      0.034322   -1.115337   -0.154500
| 13> C      1.399093   -0.761458    0.034643
| 14> H      1.998042   -1.291310   -0.702163
| 15> H      1.730930   -1.043846    1.039807
| 16> C      1.397982    0.765704   -0.146745
| 17> H      1.700345    1.065105   -1.151226
| 18> H      2.034073    1.270939    0.582825
| 19> *
| 20>
| 21>                          ****END OF INPUT****

CARTESIAN COORDINATES (ANGSTROEM)
---------------------------------
  C     -2.091969    0.010752   -0.180597
  H     -2.635094   -0.893942    0.090351
  H     -2.624543    0.872125    0.220077
  H     -2.045431    0.092193   -1.265498
  C     -0.698672   -0.035879    0.388299
  H     -0.716959   -0.130269    1.485995
  O      0.030683    1.138373    0.045279
  O      0.034322   -1.115337   -0.154500
  C      1.399093   -0.761458    0.034643
  H      1.998042   -1.291310   -0.702163
  H      1.730930   -1.043846    1.039807
  C      1.397982    0.765704   -0.146745
  H      1.700345    1.065105   -1.151226
  H      2.034073    1.270939    0.582825

 Total Charge           Charge          ....    0
 Multiplicity           Mult            ....    1
 Number of Electrons    NEL             ....   48
 Basis Dimension        Dim             ....  210

ORBITAL ENERGIES
----------------

  NO   OCC          E(Eh)            E(eV)
   0   2.0000     -20.576053      -559.9029
   1   2.0000     -20.569093      -559.7135
   2   2.0000     -11.337391      -308.5061
   3   2.0000     -11.290518      -307.2306
   4   2.0000     -11.287646      -307.1525
   5   2.0000     -11.222143      -305.3700
   6   2.0000      -1.439804       -39.1791
   7   2.0000      -1.331983       -36.2451
   8   2.0000      -1.056504       -28.7489
   9   2.0000      -0.960980       -26.1496
  10   2.0000      -0.855427       -23.2774
  11   2.0000      -0.824385       -22.4327
  12   2.0000      -0.712126       -19.3779
  13   2.0000      -0.683032       -18.5863
  14   2.0000      -0.644979       -17.5508
  15   2.0000      -0.623493       -16.9661
  16   2.0000      -0.588684       -16.0189
  17   2.0000      -0.543010       -14.7760
  18   2.0000      -0.533585       -14.5196
  19   2.0000      -0.531227       -14.4554
  20   2.0000      -0.510420       -13.8892
  21   2.0000      -0.491162       -13.3652
  22   2.0000      -0.441723       -12.0199
  23   2.0000      -0.421518       -11.4701
  24   0.0000       0.036535         0.9942
  25   0.0000       0.046067         1.2535
  26   0.0000       0.047088         1.2813
  27   0.0000       0.051195         1.3931
  28   0.0000       0.065403         1.7797

MULLIKEN ATOMIC CHARGES
-----------------------
   0 C :    0.340393
   1 H :    0.007370
   2 H :   -0.000485
   3 H :    0.010101
   4 C :    1.191060
   5 H :   -0.289697
   6 O :   -1.021271
   7 O :   -1.025489
   8 C :    0.738201
   9 H :   -0.217775
  10 H :   -0.184678
  11 C :    0.877356
  12 H :   -0.234001
  13 H :   -0.191084
Sum of atomic charges:    0.0000000

LOEWDIN ATOMIC CHARGES
----------------------
   0 C :    0.176599
   1 H :   -0.009523
   2 H :   -0.009532
   3 H :   -0.005404
   4 C :   -0.255982
   5 H :    0.032510
   6 O :    0.017586
   7 O :    0.024474
   8 C :    0.000150
   9 H :    0.005189
  10 H :    0.007233
  11 C :    0.012503
  12 H :    0.001616
  13 H :    0.002582

  Mayer bond orders larger than 0.100000
B(  0-C ,  1-H ) :   0.8894 B(  0-C ,  2-H ) :   0.8930 B(  0-C ,  3-H ) :   0.9067
B(  0-C ,  4-C ) :   1.2778 B(  3-H ,  4-C ) :   0.1160 B(  4-C ,  5-H ) :   0.7774
B(  4-C ,  6-O ) :   0.3703 B(  4-C ,  7-O ) :   0.3726 B(  6-O ,  8-C ) :   0.1601
B(  6-O , 11-C ) :   0.6350 B(  7-O ,  8-C ) :   0.6896 B(  7-O , 11-C ) :   0.1028
B(  8-C ,  9-H ) :   0.9649 B(  8-C , 10-H ) :   0.8543 B(  8-C , 11-C ) :   1.2722
B(  9-H , 10-H ) :  -0.1353 B( 11-C , 12-H ) :   0.9015 B( 11-C , 13-H ) :   0.8856
B( 12-H , 13-H ) :  -0.1039

MP2 TOTAL ENERGY:     -306.848524122 Eh
FINAL SINGLE POINT ENERGY      -306.848524121981

DIPOLE MOMENT
-------------
                                X             Y             Z
Electronic contribution:      1.04524      -0.02008      -0.06065
Nuclear contribution   :     -0.57053      -0.06000       0.30536
                        -----------------------------------------
Total Dipole Moment    :      0.47470      -0.08008       0.24471
                        -----------------------------------------
Magnitude (a.u.)       :      0.54004
Magnitude (Debye)      :      1.37267

Rotational constants in cm-1:     0.234596     0.113682     0.084258
Rotational constants in MHz :  7033.009160  3408.111806  2525.991787

                             ****ORCA TERMINATED NORMALLY****
TOTAL RUN TIME: 0 days 0 hours 0 minutes 43 seconds 39 msec
