                         Program Version 5.0.3 -  RELEASE  -
|  1> !ri-mp2 aug-cc-pvdz aug-cc-pvdz/c tightscf
|  2> %pal nprocs 16 end
|  3>
|  4> * xyz 0 1
|  5> C      0.046940    0.737664    0.000000
|  6> C     -0.046940   -0.737664    0.000000
|  7> C      1.229298   -1.540526    0.000000
|  8> C     -1.229298   -1.365802   -0.000001
|  9> C     -1.229298    1.540526    0.000000
| 10> C      1.229298    1.365802   -0.000001
| 11> H      1.011005   -2.606697    0.000002
| 12> H      1.839074   -1.319891   -0.878346
| 13> H      1.839074   -1.319889    0.878347
| 14> H     -1.285187   -2.445953   -0.000001
| 15> H     -2.170393   -0.836461   -0.000001
| 16> H     -1.839074    1.319889    0.878347
| 17> H     -1.011005    2.606697    0.000002
| 18> H     -1.839074    1.319891   -0.878346
| 19> H      2.170393    0.836461   -0.000001
| 20> H      1.285187    2.445953   -0.000001
| 21> *
| 22>
| 23>                          ****END OF INPUT****

CARTESIAN COORDINATES (ANGSTROEM)
---------------------------------
  C      0.046940    0.737664    0.000000
  C     -0.046940   -0.737664    0.000000
  C      1.229298   -1.540526    0.000000
  C     -1.229298   -1.365802   -0.000001
  C     -1.229298    1.540526    0.000000
  C      1.229298    1.365802   -0.000001
  H      1.011005   -2.606697    0.000002
  H      1.839074   -1.319891   -0.878346
  H      1.839074   -1.319889    0.878347
  H     -1.285187   -2.445953   -0.000001
  H     -2.170393   -0.836461   -0.000001
  H     -1.839074    1.319889    0.878347
  H     -1.011005    2.606697    0.000002
  H     -1.839074    1.319891   -0.878346
  H      2.170393    0.836461   -0.000001
  H      1.285187    2.445953   -0.000001

 Total Charge           Charge          ....    0
 Multiplicity           Mult            ....    1
 Number of Electrons    NEL             ....   46
 Basis Dimension        Dim             ....  228

ORBITAL ENERGIES
----------------

  NO   OCC          E(Eh)            E(eV)
   0   2.0000     -11.247607      -306.0629
   1   2.0000     -11.246848      -306.0423
   2   2.0000     -11.225592      -305.4639
   3   2.0000     -11.225587      -305.4638
   4   2.0000     -11.225422      -305.4593
   5   2.0000     -11.225419      -305.4592
   6   2.0000      -1.121912       -30.5288
   7   2.0000      -1.029282       -28.0082
   8   2.0000      -0.953399       -25.9433
   9   2.0000      -0.916170       -24.9303
  10   2.0000      -0.809500       -22.0276
  11   2.0000      -0.690105       -18.7787
  12   2.0000      -0.658562       -17.9204
  13   2.0000      -0.618680       -16.8351
  14   2.0000      -0.580429       -15.7943
  15   2.0000      -0.560098       -15.2410
  16   2.0000      -0.559405       -15.2222
  17   2.0000      -0.546236       -14.8638
  18   2.0000      -0.531579       -14.4650
  19   2.0000      -0.506430       -13.7807
  20   2.0000      -0.471234       -12.8229
  21   2.0000      -0.403474       -10.9791
  22   2.0000      -0.320181        -8.7126
  23   0.0000       0.037087         1.0092
  24   0.0000       0.042434         1.1547
  25   0.0000       0.044457         1.2097
  26   0.0000       0.054885         1.4935
  27   0.0000       0.055926         1.5218

MULLIKEN ATOMIC CHARGES
-----------------------
   0 C :   -0.538429
   1 C :   -0.538429
   2 C :    0.131883
   3 C :    1.277164
   4 C :    0.131883
   5 C :    1.277164
   6 H :   -0.275729
   7 H :    0.179852
   8 H :    0.179855
   9 H :   -0.429385
  10 H :   -0.525212
  11 H :    0.179855
  12 H :   -0.275729
  13 H :    0.179852
  14 H :   -0.525212
  15 H :   -0.429385
Sum of atomic charges:    0.0000000

LOEWDIN ATOMIC CHARGES
----------------------
   0 C :   -0.254050
   1 C :   -0.254050
   2 C :    0.157455
   3 C :    0.213771
   4 C :    0.157455
   5 C :    0.213771
   6 H :   -0.017737
   7 H :   -0.007048
   8 H :   -0.007047
   9 H :   -0.037313
  10 H :   -0.048030
  11 H :   -0.007047
  12 H :   -0.017737
  13 H :   -0.007048
  14 H :   -0.048030
  15 H :   -0.037313

  Mayer bond orders larger than 0.100000
B(  0-C ,  1-C ) :   2.0409 B(  0-C ,  3-C ) :  -0.2065 B(  0-C ,  4-C ) :   1.1812
B(  0-C ,  5-C ) :   1.7595 B(  0-C , 10-H ) :  -0.3998 B(  0-C , 11-H ) :   0.1480
B(  0-C , 12-H ) :   0.2059 B(  0-C , 13-H ) :   0.1480 B(  0-C , 14-H ) :   0.7193
B(  0-C , 15-H ) :   0.2825 B(  1-C ,  2-C ) :   1.1812 B(  1-C ,  3-C ) :   1.7595
B(  1-C ,  5-C ) :  -0.2065 B(  1-C ,  6-H ) :   0.2059 B(  1-C ,  7-H ) :   0.1480
B(  1-C ,  8-H ) :   0.1480 B(  1-C ,  9-H ) :   0.2825 B(  1-C , 10-H ) :   0.7193
B(  1-C , 14-H ) :  -0.3998 B(  2-C ,  3-C ) :  -0.2801 B(  2-C ,  4-C ) :   0.1534
B(  2-C ,  5-C ) :  -0.1153 B(  2-C ,  6-H ) :   0.7175 B(  2-C ,  7-H ) :   0.7952
B(  2-C ,  8-H ) :   0.7952 B(  2-C , 10-H ) :   0.1265 B(  2-C , 14-H ) :   0.3229
B(  3-C ,  4-C ) :  -0.1153 B(  3-C ,  5-C ) :   0.2591 B(  3-C ,  9-H ) :   0.4441
B(  4-C ,  5-C ) :  -0.2801 B(  4-C , 10-H ) :   0.3229 B(  4-C , 11-H ) :   0.7952
B(  4-C , 12-H ) :   0.7175 B(  4-C , 13-H ) :   0.7952 B(  4-C , 14-H ) :   0.1265
B(  5-C , 15-H ) :   0.4441 B(  7-H ,  8-H ) :  -0.1002 B(  9-H , 10-H ) :  -0.1936
B( 11-H , 13-H ) :  -0.1002 B( 14-H , 15-H ) :  -0.1936

MP2 TOTAL ENERGY:     -233.878793463 Eh
FINAL SINGLE POINT ENERGY      -233.878793462585

DIPOLE MOMENT
-------------
                                X             Y             Z
Electronic contribution:     -0.00000      -0.00000      -0.00000
Nuclear contribution   :      0.00000      -0.00000       0.00000
                        -----------------------------------------
Total Dipole Moment    :     -0.00000      -0.00000      -0.00000
                        -----------------------------------------
Magnitude (a.u.)       :      0.00000
Magnitude (Debye)      :      0.00000

Rotational constants in cm-1:     0.164464     0.109475     0.067359
Rotational constants in MHz :  4930.492570  3281.970664  2019.368616

                             ****ORCA TERMINATED NORMALLY****
TOTAL RUN TIME: 0 days 0 hours 0 minutes 46 seconds 621 msec
