                         Program Version 5.0.3 -  RELEASE  -
|  1> !ri-mp2 aug-cc-pvdz aug-cc-pvdz/c tightscf
|  2> %pal nprocs 16 end
|  3>
|  4> * xyz 0 1
|  5> Cl     2.782522   -0.268531    0.000000
|  6> S     -0.110760   -1.024111   -0.000001
|  7> N     -3.828995   -0.415531   -0.000002
|  8> C     -0.790124    1.468188    0.000000
|  9> C      0.622911    1.455790    0.000000
| 10> C     -1.342826    0.212106    0.000000
| 11> C      1.123743    0.185775    0.000000
| 12> C     -2.711030   -0.129258   -0.000001
| 13> H     -1.387679    2.366653    0.000000
| 14> H      1.243873    2.337262    0.000002
| 15> *
| 16>
| 17>                          ****END OF INPUT****

CARTESIAN COORDINATES (ANGSTROEM)
---------------------------------
  Cl     2.782522   -0.268531    0.000000
  S     -0.110760   -1.024111   -0.000001
  N     -3.828995   -0.415531   -0.000002
  C     -0.790124    1.468188    0.000000
  C      0.622911    1.455790    0.000000
  C     -1.342826    0.212106    0.000000
  C      1.123743    0.185775    0.000000
  C     -2.711030   -0.129258   -0.000001
  H     -1.387679    2.366653    0.000000
  H      1.243873    2.337262    0.000002

 Total Charge           Charge          ....    0
 Multiplicity           Mult            ....    1
 Number of Electrons    NEL             ....   72
 Basis Dimension        Dim             ....  210

ORBITAL ENERGIES
----------------

  NO   OCC          E(Eh)            E(eV)
   0   2.0000    -104.881286     -2853.9649
   1   2.0000     -92.034139     -2504.3762
   2   2.0000     -15.598959      -424.4693
   3   2.0000     -11.366167      -309.2891
   4   2.0000     -11.328034      -308.2515
   5   2.0000     -11.302816      -307.5653
   6   2.0000     -11.299687      -307.4801
   7   2.0000     -11.284489      -307.0665
   8   2.0000     -10.606987      -288.6308
   9   2.0000      -9.035819      -245.8771
  10   2.0000      -8.074934      -219.7301
  11   2.0000      -8.071245      -219.6297
  12   2.0000      -8.071133      -219.6267
  13   2.0000      -6.717269      -182.7862
  14   2.0000      -6.716387      -182.7622
  15   2.0000      -6.714302      -182.7055
  16   2.0000      -1.252819       -34.0909
  17   2.0000      -1.232488       -33.5377
  18   2.0000      -1.164015       -31.6745
  19   2.0000      -1.045223       -28.4420
  20   2.0000      -1.021566       -27.7982
  21   2.0000      -0.869081       -23.6489
  22   2.0000      -0.782581       -21.2951
  23   2.0000      -0.745541       -20.2872
  24   2.0000      -0.652480       -17.7549
  25   2.0000      -0.612257       -16.6604
  26   2.0000      -0.598685       -16.2911
  27   2.0000      -0.597552       -16.2602
  28   2.0000      -0.572270       -15.5722
  29   2.0000      -0.536201       -14.5908
  30   2.0000      -0.531105       -14.4521
  31   2.0000      -0.488126       -13.2826
  32   2.0000      -0.480783       -13.0828
  33   2.0000      -0.474039       -12.8993
  34   2.0000      -0.391537       -10.6543
  35   2.0000      -0.350383        -9.5344
  36   0.0000       0.027930         0.7600
  37   0.0000       0.041772         1.1367
  38   0.0000       0.046092         1.2542
  39   0.0000       0.062726         1.7069
  40   0.0000       0.075486         2.0541

MULLIKEN ATOMIC CHARGES
-----------------------
   0 Cl:   -0.280067
   1 S :    0.516834
   2 N :   -0.223603
   3 C :    0.074116
   4 C :    0.894173
   5 C :    1.320171
   6 C :   -0.651787
   7 C :   -0.967377
   8 H :   -0.408878
   9 H :   -0.273583
Sum of atomic charges:    0.0000000

LOEWDIN ATOMIC CHARGES
----------------------
   0 Cl:    0.563151
   1 S :    1.030294
   2 N :    0.088748
   3 C :   -0.018451
   4 C :   -0.095784
   5 C :   -0.498733
   6 C :   -0.878258
   7 C :   -0.202820
   8 H :    0.013872
   9 H :   -0.002018

  Mayer bond orders larger than 0.100000
B(  0-Cl,  3-C ) :   0.1197 B(  0-Cl,  4-C ) :  -0.2365 B(  0-Cl,  6-C ) :   0.8444
B(  1-S ,  5-C ) :   0.6935 B(  1-S ,  6-C ) :   1.0517 B(  2-N ,  7-C ) :   2.4653
B(  3-C ,  4-C ) :   1.8140 B(  3-C ,  5-C ) :   1.8824 B(  3-C ,  7-C ) :   0.1004
B(  3-C ,  8-H ) :   0.4480 B(  4-C ,  6-C ) :   1.4706 B(  4-C ,  7-C ) :  -0.1590
B(  4-C ,  8-H ) :   0.1359 B(  4-C ,  9-H ) :   0.5085 B(  5-C ,  6-C ) :  -0.1267
B(  5-C ,  7-C ) :  -0.3206 B(  5-C ,  8-H ) :   0.1642 B(  6-C ,  7-C ) :   0.3005
B(  6-C ,  9-H ) :   0.1770

MP2 TOTAL ENERGY:    -1103.094953837 Eh
FINAL SINGLE POINT ENERGY     -1103.094953837228

DIPOLE MOMENT
-------------
                                X             Y             Z
Electronic contribution:      5.25334      -3.92901      -0.00000
Nuclear contribution   :     -3.90216       4.81897       0.00000
                        -----------------------------------------
Total Dipole Moment    :      1.35117       0.88996       0.00000
                        -----------------------------------------
Magnitude (a.u.)       :      1.61793
Magnitude (Debye)      :      4.11246

Rotational constants in cm-1:     0.165153     0.027151     0.023317
Rotational constants in MHz :  4951.172425   813.960207   699.039829

                             ****ORCA TERMINATED NORMALLY****
TOTAL RUN TIME: 0 days 0 hours 1 minutes 0 seconds 743 msec
