                         Program Version 5.0.3 -  RELEASE  -
|  1> !ri-mp2 aug-cc-pvdz aug-cc-pvdz/c tightscf
|  2> %pal nprocs 16 end
|  3>
|  4> * xyz 0 1
|  5> S     -0.180530   -1.510125    0.096697
|  6> S     -0.180530    1.510125   -0.096698
|  7> F      1.690299   -0.019073   -1.077617
|  8> F      1.690298    0.019073    1.077618
|  9> C      0.856748    0.000000    0.000000
| 10> C     -1.750263   -0.681445   -0.334640
| 11> C     -1.750262    0.681445    0.334641
| 12> H     -2.551770   -1.315256    0.043945
| 13> H     -1.841107   -0.594140   -1.415457
| 14> H     -2.551770    1.315257   -0.043944
| 15> H     -1.841105    0.594141    1.415458
| 16> *
| 17>
| 18>                          ****END OF INPUT****

CARTESIAN COORDINATES (ANGSTROEM)
---------------------------------
  S     -0.180530   -1.510125    0.096697
  S     -0.180530    1.510125   -0.096698
  F      1.690299   -0.019073   -1.077617
  F      1.690298    0.019073    1.077618
  C      0.856748    0.000000    0.000000
  C     -1.750263   -0.681445   -0.334640
  C     -1.750262    0.681445    0.334641
  H     -2.551770   -1.315256    0.043945
  H     -1.841107   -0.594140   -1.415457
  H     -2.551770    1.315257   -0.043944
  H     -1.841105    0.594141    1.415458

 Total Charge           Charge          ....    0
 Multiplicity           Mult            ....    1
 Number of Electrons    NEL             ....   72
 Basis Dimension        Dim             ....  205

ORBITAL ENERGIES
----------------

  NO   OCC          E(Eh)            E(eV)
   0   2.0000     -91.985236     -2503.0455
   1   2.0000     -91.985236     -2503.0455
   2   2.0000     -26.335811      -716.6339
   3   2.0000     -26.335791      -716.6333
   4   2.0000     -11.479858      -312.3828
   5   2.0000     -11.300943      -307.5143
   6   2.0000     -11.300320      -307.4973
   7   2.0000      -8.987613      -244.5654
   8   2.0000      -8.987602      -244.5651
   9   2.0000      -6.669265      -181.4799
  10   2.0000      -6.669263      -181.4799
  11   2.0000      -6.668017      -181.4460
  12   2.0000      -6.668016      -181.4459
  13   2.0000      -6.665788      -181.3853
  14   2.0000      -6.665787      -181.3853
  15   2.0000      -1.682206       -45.7751
  16   2.0000      -1.614746       -43.9395
  17   2.0000      -1.153541       -31.3894
  18   2.0000      -1.015108       -27.6225
  19   2.0000      -1.013271       -27.5725
  20   2.0000      -0.860248       -23.4085
  21   2.0000      -0.848790       -23.0967
  22   2.0000      -0.771815       -21.0022
  23   2.0000      -0.736626       -20.0446
  24   2.0000      -0.730288       -19.8721
  25   2.0000      -0.676411       -18.4061
  26   2.0000      -0.662688       -18.0327
  27   2.0000      -0.645916       -17.5763
  28   2.0000      -0.637352       -17.3432
  29   2.0000      -0.581498       -15.8234
  30   2.0000      -0.569919       -15.5083
  31   2.0000      -0.498194       -13.5565
  32   2.0000      -0.497890       -13.5483
  33   2.0000      -0.446488       -12.1495
  34   2.0000      -0.394127       -10.7247
  35   2.0000      -0.374882       -10.2010
  36   0.0000       0.028239         0.7684
  37   0.0000       0.046101         1.2545
  38   0.0000       0.046985         1.2785
  39   0.0000       0.062393         1.6978
  40   0.0000       0.074414         2.0249

MULLIKEN ATOMIC CHARGES
-----------------------
   0 S :    0.443431
   1 S :    0.443431
   2 F :   -0.630975
   3 F :   -0.630975
   4 C :    0.753504
   5 C :   -0.098820
   6 C :   -0.098824
   7 H :   -0.022517
   8 H :   -0.067870
   9 H :   -0.022514
  10 H :   -0.067872
Sum of atomic charges:    0.0000000

LOEWDIN ATOMIC CHARGES
----------------------
   0 S :    0.849263
   1 S :    0.849263
   2 F :   -0.028630
   3 F :   -0.028630
   4 C :   -0.845325
   5 C :   -0.337495
   6 C :   -0.337496
   7 H :   -0.028654
   8 H :   -0.031822
   9 H :   -0.028653
  10 H :   -0.031822

  Mayer bond orders larger than 0.100000
B(  0-S ,  4-C ) :   1.0594 B(  0-S ,  5-C ) :   1.1052 B(  1-S ,  4-C ) :   1.0594
B(  1-S ,  6-C ) :   1.1052 B(  2-F ,  4-C ) :   0.3928 B(  3-F ,  4-C ) :   0.3928
B(  5-C ,  6-C ) :   1.2907 B(  5-C ,  7-H ) :   0.8695 B(  5-C ,  8-H ) :   0.9547
B(  6-C ,  9-H ) :   0.8695 B(  6-C , 10-H ) :   0.9547

MP2 TOTAL ENERGY:    -1111.015569326 Eh
FINAL SINGLE POINT ENERGY     -1111.015569326471

DIPOLE MOMENT
-------------
                                X             Y             Z
Electronic contribution:      9.83282      -0.00000      -0.00000
Nuclear contribution   :    -11.52031       0.00000       0.00000
                        -----------------------------------------
Total Dipole Moment    :     -1.68749       0.00000       0.00000
                        -----------------------------------------
Magnitude (a.u.)       :      1.68749
Magnitude (Debye)      :      4.28925

Rotational constants in cm-1:     0.079126     0.063993     0.045121
Rotational constants in MHz :  2372.138585  1918.455364  1352.696157

                             ****ORCA TERMINATED NORMALLY****
TOTAL RUN TIME: 0 days 0 hours 0 minutes 55 seconds 68 msec
