                         Program Version 5.0.3 -  RELEASE  -
|  1> !ri-mp2 aug-cc-pvdz aug-cc-pvdz/c tightscf
|  2> %pal nprocs 16 end
|  3>
|  4> * xyz 0 1
|  5> C     -1.368345   -0.812936    0.080163
|  6> H     -1.906003   -1.388570   -0.670058
|  7> H     -1.661689   -1.161174    1.072427
|  8> O      0.046311   -1.092004   -0.079668
|  9> C     -1.532303    0.714437   -0.061297
| 10> H     -2.174500    1.121723    0.721203
| 11> H     -1.979486    0.993680   -1.020378
| 12> C     -0.096949    1.168984    0.041568
| 13> H      0.227483    2.195282    0.084198
| 14> C      2.190006    0.000476    0.008583
| 15> H      2.539202   -0.503258   -0.895119
| 16> H      2.646994    0.986271    0.059826
| 17> H      2.528636   -0.591735    0.860936
| 18> C      0.709071    0.109674    0.001700
| 19> *
| 20>
| 21>                          ****END OF INPUT****

CARTESIAN COORDINATES (ANGSTROEM)
---------------------------------
  C     -1.368345   -0.812936    0.080163
  H     -1.906003   -1.388570   -0.670058
  H     -1.661689   -1.161174    1.072427
  O      0.046311   -1.092004   -0.079668
  C     -1.532303    0.714437   -0.061297
  H     -2.174500    1.121723    0.721203
  H     -1.979486    0.993680   -1.020378
  C     -0.096949    1.168984    0.041568
  H      0.227483    2.195282    0.084198
  C      2.190006    0.000476    0.008583
  H      2.539202   -0.503258   -0.895119
  H      2.646994    0.986271    0.059826
  H      2.528636   -0.591735    0.860936
  C      0.709071    0.109674    0.001700

 Total Charge           Charge          ....    0
 Multiplicity           Mult            ....    1
 Number of Electrons    NEL             ....   46
 Basis Dimension        Dim             ....  210

ORBITAL ENERGIES
----------------

  NO   OCC          E(Eh)            E(eV)
   0   2.0000     -20.577236      -559.9350
   1   2.0000     -11.291566      -307.2591
   2   2.0000     -11.284407      -307.0643
   3   2.0000     -11.234824      -305.7151
   4   2.0000     -11.232681      -305.6568
   5   2.0000     -11.211646      -305.0844
   6   2.0000      -1.400046       -38.0972
   7   2.0000      -1.065834       -29.0028
   8   2.0000      -1.037291       -28.2261
   9   2.0000      -0.930586       -25.3225
  10   2.0000      -0.826969       -22.5030
  11   2.0000      -0.739294       -20.1172
  12   2.0000      -0.674194       -18.3457
  13   2.0000      -0.665358       -18.1053
  14   2.0000      -0.601151       -16.3581
  15   2.0000      -0.577816       -15.7232
  16   2.0000      -0.545747       -14.8505
  17   2.0000      -0.539935       -14.6924
  18   2.0000      -0.526922       -14.3383
  19   2.0000      -0.511245       -13.9117
  20   2.0000      -0.485699       -13.2165
  21   2.0000      -0.479247       -13.0410
  22   2.0000      -0.315755        -8.5921
  23   0.0000       0.036691         0.9984
  24   0.0000       0.042926         1.1681
  25   0.0000       0.047555         1.2941
  26   0.0000       0.050598         1.3768
  27   0.0000       0.063840         1.7372

MULLIKEN ATOMIC CHARGES
-----------------------
   0 C :    0.991113
   1 H :   -0.223402
   2 H :   -0.195675
   3 O :   -1.080175
   4 C :    0.099734
   5 H :   -0.040221
   6 H :   -0.067078
   7 C :    0.237179
   8 H :   -0.369801
   9 C :    0.394585
  10 H :    0.040057
  11 H :   -0.045745
  12 H :    0.051290
  13 C :    0.208139
Sum of atomic charges:   -0.0000000

LOEWDIN ATOMIC CHARGES
----------------------
   0 C :    0.044925
   1 H :    0.001323
   2 H :    0.005532
   3 O :    0.041394
   4 C :   -0.012660
   5 H :    0.005157
   6 H :    0.005854
   7 C :    0.034631
   8 H :   -0.013965
   9 C :    0.186044
  10 H :   -0.005088
  11 H :   -0.009365
  12 H :   -0.005522
  13 C :   -0.278259

  Mayer bond orders larger than 0.100000
B(  0-C ,  1-H ) :   0.8873 B(  0-C ,  2-H ) :   0.8586 B(  0-C ,  3-O ) :   0.8157
B(  0-C ,  4-C ) :   1.2321 B(  0-C , 13-C ) :  -0.1092 B(  1-H ,  2-H ) :  -0.1253
B(  3-O , 13-C ) :   0.3711 B(  4-C ,  5-H ) :   0.7630 B(  4-C ,  6-H ) :   0.7671
B(  4-C ,  7-C ) :   1.3231 B(  4-C ,  9-C ) :   0.1135 B(  4-C , 13-C ) :  -0.3215
B(  5-H ,  6-H ) :  -0.1078 B(  6-H ,  7-C ) :   0.1020 B(  7-C ,  8-H ) :   0.5338
B(  7-C ,  9-C ) :   0.1287 B(  7-C , 13-C ) :   1.7885 B(  8-H , 13-C ) :   0.2033
B(  9-C , 10-H ) :   0.8431 B(  9-C , 11-H ) :   0.8154 B(  9-C , 12-H ) :   0.8405
B(  9-C , 13-C ) :   1.2416 B( 10-H , 13-C ) :   0.1638 B( 11-H , 13-C ) :   0.2284
B( 12-H , 13-C ) :   0.1639

MP2 TOTAL ENERGY:     -269.769551411 Eh
FINAL SINGLE POINT ENERGY      -269.769551410915

DIPOLE MOMENT
-------------
                                X             Y             Z
Electronic contribution:     -0.40925      -1.35517      -0.17315
Nuclear contribution   :      0.22735       1.67919       0.21750
                        -----------------------------------------
Total Dipole Moment    :     -0.18191       0.32402       0.04436
                        -----------------------------------------
Magnitude (a.u.)       :      0.37423
Magnitude (Debye)      :      0.95122

Rotational constants in cm-1:     0.252817     0.108970     0.079747
Rotational constants in MHz :  7579.262614  3266.844335  2390.742277

                             ****ORCA TERMINATED NORMALLY****
TOTAL RUN TIME: 0 days 0 hours 0 minutes 46 seconds 120 msec
