                         Program Version 5.0.3 -  RELEASE  -
|  1> !ri-mp2 aug-cc-pvdz aug-cc-pvdz/c tightscf
|  2> %pal nprocs 16 end
|  3> %maxcore 3800
|  4>
|  5> * xyz 0 1
|  6> C     -1.643780   -0.744140    1.267860
|  7> C     -2.416221    0.092866   -0.979081
|  8> C      1.568432   -1.626417   -0.343229
|  9> C      2.566669    0.643816   -0.042519
| 10> C     -0.183821    1.829717    0.314524
| 11> C     -1.228311   -0.457857   -0.180043
| 12> C      1.328673   -0.222989    0.228474
| 13> C      0.031928    0.441798   -0.307623
| 14> H     -2.484667   -1.439569    1.291217
| 15> H     -0.835389   -1.189503    1.848803
| 16> H     -1.961332    0.164639    1.782113
| 17> H     -2.136078    0.303073   -2.013245
| 18> H     -2.813834    1.012725   -0.547434
| 19> H     -3.231892   -0.632223   -0.997675
| 20> H      2.532205   -2.012895   -0.007877
| 21> H      0.808890   -2.343326   -0.035097
| 22> H      1.585518   -1.607030   -1.436276
| 23> H      2.520811    1.609052    0.458909
| 24> H      2.684972    0.828086   -1.113860
| 25> H      3.469540    0.139486    0.305210
| 26> H     -1.127132    2.269864   -0.006227
| 27> H      0.602929    2.524328    0.025850
| 28> H     -0.194597    1.779952    1.405178
| 29> H     -0.977247   -1.415409   -0.640316
| 30> H      1.230226   -0.318172    1.315434
| 31> H      0.185662    0.586165   -1.384882
| 32> *
| 33>
| 34>                          ****END OF INPUT****

CARTESIAN COORDINATES (ANGSTROEM)
---------------------------------
  C     -1.643780   -0.744140    1.267860
  C     -2.416221    0.092866   -0.979081
  C      1.568432   -1.626417   -0.343229
  C      2.566669    0.643816   -0.042519
  C     -0.183821    1.829717    0.314524
  C     -1.228311   -0.457857   -0.180043
  C      1.328673   -0.222989    0.228474
  C      0.031928    0.441798   -0.307623
  H     -2.484667   -1.439569    1.291217
  H     -0.835389   -1.189503    1.848803
  H     -1.961332    0.164639    1.782113
  H     -2.136078    0.303073   -2.013245
  H     -2.813834    1.012725   -0.547434
  H     -3.231892   -0.632223   -0.997675
  H      2.532205   -2.012895   -0.007877
  H      0.808890   -2.343326   -0.035097
  H      1.585518   -1.607030   -1.436276
  H      2.520811    1.609052    0.458909
  H      2.684972    0.828086   -1.113860
  H      3.469540    0.139486    0.305210
  H     -1.127132    2.269864   -0.006227
  H      0.602929    2.524328    0.025850
  H     -0.194597    1.779952    1.405178
  H     -0.977247   -1.415409   -0.640316
  H      1.230226   -0.318172    1.315434
  H      0.185662    0.586165   -1.384882

 Total Charge           Charge          ....    0
 Multiplicity           Mult            ....    1
 Number of Electrons    NEL             ....   66
 Basis Dimension        Dim             ....  346

ORBITAL ENERGIES
----------------

  NO   OCC          E(Eh)            E(eV)
   0   2.0000     -11.226057      -305.4765
   1   2.0000     -11.224327      -305.4295
   2   2.0000     -11.223769      -305.4143
   3   2.0000     -11.213061      -305.1229
   4   2.0000     -11.212669      -305.1122
   5   2.0000     -11.212638      -305.1114
   6   2.0000     -11.212579      -305.1098
   7   2.0000     -11.210737      -305.0597
   8   2.0000      -1.110980       -30.2313
   9   2.0000      -1.046730       -28.4830
  10   2.0000      -0.978829       -26.6353
  11   2.0000      -0.926799       -25.2195
  12   2.0000      -0.923898       -25.1406
  13   2.0000      -0.865041       -23.5390
  14   2.0000      -0.790991       -21.5240
  15   2.0000      -0.729089       -19.8395
  16   2.0000      -0.645093       -17.5539
  17   2.0000      -0.618223       -16.8227
  18   2.0000      -0.600769       -16.3478
  19   2.0000      -0.589819       -16.0498
  20   2.0000      -0.563118       -15.3232
  21   2.0000      -0.553132       -15.0515
  22   2.0000      -0.542668       -14.7667
  23   2.0000      -0.531362       -14.4591
  24   2.0000      -0.525272       -14.2934
  25   2.0000      -0.514110       -13.9897
  26   2.0000      -0.499623       -13.5954
  27   2.0000      -0.485576       -13.2132
  28   2.0000      -0.476893       -12.9769
  29   2.0000      -0.465166       -12.6578
  30   2.0000      -0.441194       -12.0055
  31   2.0000      -0.428698       -11.6655
  32   2.0000      -0.423547       -11.5253
  33   0.0000       0.036495         0.9931
  34   0.0000       0.042304         1.1512
  35   0.0000       0.043128         1.1736
  36   0.0000       0.045639         1.2419
  37   0.0000       0.059631         1.6227

MULLIKEN ATOMIC CHARGES
-----------------------
   0 C :    0.946979
   1 C :    0.942463
   2 C :    0.974152
   3 C :    0.896865
   4 C :    0.937396
   5 C :   -1.134417
   6 C :   -1.216270
   7 C :   -0.113151
   8 H :   -0.098013
   9 H :   -0.134581
  10 H :   -0.033505
  11 H :   -0.092294
  12 H :   -0.079310
  13 H :   -0.086737
  14 H :   -0.147668
  15 H :   -0.042810
  16 H :   -0.030385
  17 H :   -0.105645
  18 H :   -0.028778
  19 H :   -0.071043
  20 H :   -0.142939
  21 H :   -0.122674
  22 H :   -0.075378
  23 H :   -0.247974
  24 H :   -0.340379
  25 H :   -0.353901
Sum of atomic charges:   -0.0000000

LOEWDIN ATOMIC CHARGES
----------------------
   0 C :    0.165654
   1 C :    0.162205
   2 C :    0.159863
   3 C :    0.160757
   4 C :    0.170312
   5 C :   -0.245102
   6 C :   -0.240906
   7 C :   -0.180429
   8 H :   -0.012453
   9 H :   -0.018741
  10 H :   -0.014317
  11 H :   -0.010677
  12 H :   -0.023090
  13 H :   -0.013885
  14 H :   -0.016087
  15 H :   -0.023898
  16 H :   -0.003620
  17 H :   -0.026470
  18 H :   -0.005786
  19 H :   -0.016433
  20 H :   -0.023859
  21 H :   -0.024100
  22 H :   -0.008588
  23 H :    0.018387
  24 H :    0.031024
  25 H :    0.040239

  Mayer bond orders larger than 0.100000
B(  0-C ,  1-C ) :  -0.2152 B(  0-C ,  5-C ) :   1.3627 B(  0-C ,  8-H ) :   0.7628
B(  0-C ,  9-H ) :   0.7848 B(  0-C , 10-H ) :   0.8100 B(  1-C ,  5-C ) :   1.3658
B(  1-C , 11-H ) :   0.7534 B(  1-C , 12-H ) :   0.8551 B(  1-C , 13-H ) :   0.7623
B(  2-C ,  3-C ) :  -0.1964 B(  2-C ,  6-C ) :   1.2813 B(  2-C , 14-H ) :   0.8049
B(  2-C , 15-H ) :   0.7788 B(  2-C , 16-H ) :   0.7913 B(  2-C , 18-H ) :  -0.1085
B(  3-C ,  6-C ) :   1.3643 B(  3-C ,  7-C ) :  -0.1549 B(  3-C , 17-H ) :   0.7878
B(  3-C , 18-H ) :   0.8427 B(  3-C , 19-H ) :   0.7808 B(  4-C ,  6-C ) :  -0.1532
B(  4-C ,  7-C ) :   1.4023 B(  4-C , 20-H ) :   0.7777 B(  4-C , 21-H ) :   0.7482
B(  4-C , 22-H ) :   0.8127 B(  5-C ,  7-C ) :   0.9650 B(  5-C ,  8-H ) :   0.1641
B(  5-C ,  9-H ) :   0.1234 B(  5-C , 10-H ) :   0.2356 B(  5-C , 11-H ) :   0.1802
B(  5-C , 12-H ) :   0.1111 B(  5-C , 13-H ) :   0.2505 B(  5-C , 23-H ) :   0.5156
B(  5-C , 25-H ) :   0.1070 B(  6-C ,  7-C ) :   0.8393 B(  6-C , 16-H ) :   0.3132
B(  6-C , 17-H ) :   0.1390 B(  6-C , 18-H ) :   0.2965 B(  6-C , 19-H ) :   0.1681
B(  6-C , 22-H ) :  -0.1512 B(  6-C , 24-H ) :   0.4312 B(  6-C , 25-H ) :   0.1799
B(  7-C , 16-H ) :  -0.1558 B(  7-C , 18-H ) :  -0.1544 B(  7-C , 21-H ) :   0.1518
B(  7-C , 22-H ) :   0.3465 B(  7-C , 23-H ) :   0.1763 B(  7-C , 24-H ) :   0.1428
B(  7-C , 25-H ) :   0.3359 B(  8-H , 10-H ) :  -0.1078 B( 11-H , 13-H ) :  -0.1137
B( 12-H , 13-H ) :  -0.1014 B( 14-H , 16-H ) :  -0.1067 B( 15-H , 16-H ) :  -0.1025
B( 17-H , 19-H ) :  -0.1023 B( 20-H , 21-H ) :  -0.1014 B( 20-H , 22-H ) :  -0.1050
B( 21-H , 22-H ) :  -0.1194

MP2 TOTAL ENERGY:     -314.681804695 Eh
FINAL SINGLE POINT ENERGY      -314.681804694749

DIPOLE MOMENT
-------------
                                X             Y             Z
Electronic contribution:      0.16404      -0.31639      -0.27122
Nuclear contribution   :     -0.15345       0.28130       0.27108
                        -----------------------------------------
Total Dipole Moment    :      0.01060      -0.03509      -0.00013
                        -----------------------------------------
Magnitude (a.u.)       :      0.03665
Magnitude (Debye)      :      0.09316

Rotational constants in cm-1:     0.090583     0.043945     0.037325
Rotational constants in MHz :  2715.596917  1317.425097  1118.973464

                             ****ORCA TERMINATED NORMALLY****
TOTAL RUN TIME: 0 days 0 hours 2 minutes 32 seconds 537 msec
