                         Program Version 5.0.3 -  RELEASE  -
|  1> !ri-mp2 aug-cc-pvdz aug-cc-pvdz/c tightscf
|  2> %pal nprocs 16 end
|  3>
|  4> * xyz 0 1
|  5> C    -0.340935     2.925198       0.000000
|  6> C     0.340935    -2.925198       0.000000
|  7> C    -0.990750     1.654854       0.000000
|  8> C     0.990750    -1.654854       0.000000
|  9> C     0.990750     2.673861       0.000000
| 10> C    -0.990750    -2.673861       0.000000
| 11> C     0.001025     0.717171       0.000000
| 12> C    -0.001025    -0.717171       0.000000
| 13> O     1.221122     1.331017       0.000000
| 14> O    -1.221122    -1.331017       0.000000
| 15> H    -0.806983     3.895142       0.000000
| 16> H     0.806983    -3.895142       0.000000
| 17> H    -2.047458     1.455961       0.000000
| 18> H     2.047458    -1.455961       0.000000
| 19> H     1.864288     3.299524       0.000000
| 20> H    -1.864288    -3.299524       0.000000
| 21> *
| 22>
| 23>                          ****END OF INPUT****

CARTESIAN COORDINATES (ANGSTROEM)
---------------------------------
  C     -0.340935    2.925198    0.000000
  C      0.340935   -2.925198    0.000000
  C     -0.990750    1.654854    0.000000
  C      0.990750   -1.654854    0.000000
  C      0.990750    2.673861    0.000000
  C     -0.990750   -2.673861    0.000000
  C      0.001025    0.717171    0.000000
  C     -0.001025   -0.717171    0.000000
  O      1.221122    1.331017    0.000000
  O     -1.221122   -1.331017    0.000000
  H     -0.806983    3.895142    0.000000
  H      0.806983   -3.895142    0.000000
  H     -2.047458    1.455961    0.000000
  H      2.047458   -1.455961    0.000000
  H      1.864288    3.299524    0.000000
  H     -1.864288   -3.299524    0.000000

 Total Charge           Charge          ....    0
 Multiplicity           Mult            ....    1
 Number of Electrons    NEL             ....   70
 Basis Dimension        Dim             ....  284

ORBITAL ENERGIES
----------------

  NO   OCC          E(Eh)            E(eV)
   0   2.0000     -20.636432      -561.5459
   1   2.0000     -20.636432      -561.5459
   2   2.0000     -11.307924      -307.7043
   3   2.0000     -11.307016      -307.6795
   4   2.0000     -11.299107      -307.4643
   5   2.0000     -11.299107      -307.4643
   6   2.0000     -11.240643      -305.8735
   7   2.0000     -11.240641      -305.8734
   8   2.0000     -11.239637      -305.8461
   9   2.0000     -11.239637      -305.8461
  10   2.0000      -1.472771       -40.0761
  11   2.0000      -1.464196       -39.8428
  12   2.0000      -1.096501       -29.8373
  13   2.0000      -1.094987       -29.7961
  14   2.0000      -1.064440       -28.9649
  15   2.0000      -0.976941       -26.5839
  16   2.0000      -0.832949       -22.6657
  17   2.0000      -0.830954       -22.6114
  18   2.0000      -0.792580       -21.5672
  19   2.0000      -0.764006       -20.7897
  20   2.0000      -0.755057       -20.5462
  21   2.0000      -0.685541       -18.6545
  22   2.0000      -0.656226       -17.8568
  23   2.0000      -0.628159       -17.0931
  24   2.0000      -0.609227       -16.5779
  25   2.0000      -0.599626       -16.3167
  26   2.0000      -0.577190       -15.7061
  27   2.0000      -0.575800       -15.6683
  28   2.0000      -0.563946       -15.3458
  29   2.0000      -0.554966       -15.1014
  30   2.0000      -0.536492       -14.5987
  31   2.0000      -0.409291       -11.1374
  32   2.0000      -0.403032       -10.9671
  33   2.0000      -0.372751       -10.1431
  34   2.0000      -0.275411        -7.4943
  35   0.0000       0.034906         0.9498
  36   0.0000       0.036871         1.0033
  37   0.0000       0.041252         1.1225
  38   0.0000       0.050108         1.3635
  39   0.0000       0.054547         1.4843

MULLIKEN ATOMIC CHARGES
-----------------------
   0 C :    0.500212
   1 C :    0.500212
   2 C :    0.353418
   3 C :    0.353418
   4 C :    0.540906
   5 C :    0.540906
   6 C :    0.658659
   7 C :    0.658659
   8 O :   -0.945486
   9 O :   -0.945486
  10 H :   -0.327338
  11 H :   -0.327338
  12 H :   -0.422843
  13 H :   -0.422843
  14 H :   -0.357527
  15 H :   -0.357527
Sum of atomic charges:    0.0000000

LOEWDIN ATOMIC CHARGES
----------------------
   0 C :    0.002818
   1 C :    0.002818
   2 C :    0.060873
   3 C :    0.060873
   4 C :    0.020975
   5 C :    0.020975
   6 C :   -0.173210
   7 C :   -0.173210
   8 O :    0.102756
   9 O :    0.102756
  10 H :   -0.007646
  11 H :   -0.007646
  12 H :    0.002420
  13 H :    0.002420
  14 H :   -0.008986
  15 H :   -0.008986

  Mayer bond orders larger than 0.100000
B(  0-C ,  2-C ) :   1.5264 B(  0-C ,  4-C ) :   1.6940 B(  0-C ,  6-C ) :  -0.1317
B(  0-C ,  8-O ) :   0.1025 B(  0-C , 10-H ) :   0.5889 B(  0-C , 14-H ) :  -0.1636
B(  1-C ,  3-C ) :   1.5264 B(  1-C ,  5-C ) :   1.6940 B(  1-C ,  7-C ) :  -0.1317
B(  1-C ,  9-O ) :   0.1025 B(  1-C , 11-H ) :   0.5889 B(  1-C , 15-H ) :  -0.1636
B(  2-C ,  3-C ) :   0.2195 B(  2-C ,  4-C ) :   0.1330 B(  2-C ,  6-C ) :   1.5403
B(  2-C ,  7-C ) :  -0.1742 B(  2-C , 12-H ) :   0.2419 B(  3-C ,  5-C ) :   0.1330
B(  3-C ,  6-C ) :  -0.1742 B(  3-C ,  7-C ) :   1.5403 B(  3-C , 13-H ) :   0.2419
B(  4-C ,  7-C ) :   0.1125 B(  4-C ,  8-O ) :   0.7546 B(  4-C , 14-H ) :   0.9538
B(  5-C ,  6-C ) :   0.1125 B(  5-C ,  9-O ) :   0.7546 B(  5-C , 15-H ) :   0.9538
B(  6-C ,  7-C ) :   0.9201 B(  6-C ,  8-O ) :   0.2531 B(  6-C ,  9-O ) :   0.2073
B(  6-C , 10-H ) :   0.1041 B(  6-C , 12-H ) :   0.5153 B(  6-C , 14-H ) :   0.1831
B(  7-C ,  8-O ) :   0.2073 B(  7-C ,  9-O ) :   0.2531 B(  7-C , 11-H ) :   0.1041
B(  7-C , 13-H ) :   0.5153 B(  7-C , 15-H ) :   0.1831 B(  8-O , 14-H ) :  -0.1580
B(  9-O , 15-H ) :  -0.1580

MP2 TOTAL ENERGY:     -457.622987891 Eh
FINAL SINGLE POINT ENERGY      -457.622987890846

DIPOLE MOMENT
-------------
                                X             Y             Z
Electronic contribution:      0.00000      -0.00000      -0.00000
Nuclear contribution   :      0.00000       0.00000       0.00000
                        -----------------------------------------
Total Dipole Moment    :      0.00000      -0.00000      -0.00000
                        -----------------------------------------
Magnitude (a.u.)       :      0.00000
Magnitude (Debye)      :      0.00000

Rotational constants in cm-1:     0.155401     0.029323     0.024668
Rotational constants in MHz :  4658.795427   879.086935   739.540121

                             ****ORCA TERMINATED NORMALLY****
TOTAL RUN TIME: 0 days 0 hours 1 minutes 20 seconds 773 msec
