                         Program Version 5.0.3 -  RELEASE  -
|  1> !ri-mp2 aug-cc-pvdz aug-cc-pvdz/c tightscf
|  2> %pal nprocs 16 end
|  3>
|  4> * xyz 0 1
|  5> C     -1.835597   -1.471168    0.106759
|  6> C     -2.531726   -0.267314    0.040621
|  7> C     -0.452973   -1.452868    0.080538
|  8> C     -1.850063    0.934346   -0.048731
|  9> C      0.235671   -0.246214    0.013147
| 10> C     -0.453434    0.973310   -0.060215
| 11> N      1.703827   -0.306080    0.022093
| 12> O      2.221476   -1.316606   -0.438893
| 13> O      2.315378    0.632295    0.504570
| 14> O      0.220545    2.138083   -0.177817
| 15> H     -2.364482   -2.410267    0.175643
| 16> H     -3.612989   -0.262929    0.054068
| 17> H      0.123142   -2.364653    0.116206
| 18> H     -2.397052    1.867174   -0.114478
| 19> H     -0.405869    2.862503   -0.281682
| 20> *
| 21>
| 22>                          ****END OF INPUT****

CARTESIAN COORDINATES (ANGSTROEM)
---------------------------------
  C     -1.835597   -1.471168    0.106759
  C     -2.531726   -0.267314    0.040621
  C     -0.452973   -1.452868    0.080538
  C     -1.850063    0.934346   -0.048731
  C      0.235671   -0.246214    0.013147
  C     -0.453434    0.973310   -0.060215
  N      1.703827   -0.306080    0.022093
  O      2.221476   -1.316606   -0.438893
  O      2.315378    0.632295    0.504570
  O      0.220545    2.138083   -0.177817
  H     -2.364482   -2.410267    0.175643
  H     -3.612989   -0.262929    0.054068
  H      0.123142   -2.364653    0.116206
  H     -2.397052    1.867174   -0.114478
  H     -0.405869    2.862503   -0.281682

 Total Charge           Charge          ....    0
 Multiplicity           Mult            ....    1
 Number of Electrons    NEL             ....   72
 Basis Dimension        Dim             ....  275

ORBITAL ENERGIES
----------------

  NO   OCC          E(Eh)            E(eV)
   0   2.0000     -20.629929      -561.3689
   1   2.0000     -20.608185      -560.7772
   2   2.0000     -20.603736      -560.6562
   3   2.0000     -15.857174      -431.4956
   4   2.0000     -11.358522      -309.0811
   5   2.0000     -11.313588      -307.8584
   6   2.0000     -11.284211      -307.0590
   7   2.0000     -11.283899      -307.0505
   8   2.0000     -11.270192      -306.6775
   9   2.0000     -11.262478      -306.4676
  10   2.0000      -1.607628       -43.7458
  11   2.0000      -1.446331       -39.3567
  12   2.0000      -1.399215       -38.0746
  13   2.0000      -1.199263       -32.6336
  14   2.0000      -1.099742       -29.9255
  15   2.0000      -1.048890       -28.5417
  16   2.0000      -0.962164       -26.1818
  17   2.0000      -0.886713       -24.1287
  18   2.0000      -0.837525       -22.7902
  19   2.0000      -0.782280       -21.2869
  20   2.0000      -0.760856       -20.7039
  21   2.0000      -0.727145       -19.7866
  22   2.0000      -0.720496       -19.6057
  23   2.0000      -0.690979       -18.8025
  24   2.0000      -0.672027       -18.2868
  25   2.0000      -0.639650       -17.4058
  26   2.0000      -0.621760       -16.9190
  27   2.0000      -0.606638       -16.5074
  28   2.0000      -0.561909       -15.2903
  29   2.0000      -0.544446       -14.8151
  30   2.0000      -0.518313       -14.1040
  31   2.0000      -0.490310       -13.3420
  32   2.0000      -0.484961       -13.1965
  33   2.0000      -0.446601       -12.1526
  34   2.0000      -0.381632       -10.3847
  35   2.0000      -0.349941        -9.5224
  36   0.0000       0.022605         0.6151
  37   0.0000       0.032223         0.8768
  38   0.0000       0.042217         1.1488
  39   0.0000       0.047347         1.2884
  40   0.0000       0.058662         1.5963

MULLIKEN ATOMIC CHARGES
-----------------------
   0 C :    0.452448
   1 C :    0.367372
   2 C :    0.626233
   3 C :    0.721137
   4 C :    0.767367
   5 C :    0.880321
   6 N :    0.374944
   7 O :   -0.795964
   8 O :   -0.744000
   9 O :   -0.902211
  10 H :   -0.417729
  11 H :   -0.423835
  12 H :   -0.497186
  13 H :   -0.611186
  14 H :    0.202290
Sum of atomic charges:    0.0000000

LOEWDIN ATOMIC CHARGES
----------------------
   0 C :    0.019492
   1 C :    0.030892
   2 C :    0.071754
   3 C :    0.054874
   4 C :   -0.069519
   5 C :   -0.169115
   6 N :   -0.339761
   7 O :    0.079584
   8 O :    0.105875
   9 O :    0.212863
  10 H :    0.002032
  11 H :    0.011584
  12 H :    0.011283
  13 H :    0.006137
  14 H :   -0.027974

  Mayer bond orders larger than 0.100000
B(  0-C ,  1-C ) :   1.7796 B(  0-C ,  2-C ) :   1.9262 B(  0-C ,  3-C ) :  -0.1168
B(  0-C ,  5-C ) :   0.1723 B(  0-C , 10-H ) :   0.2875 B(  0-C , 11-H ) :   0.1815
B(  0-C , 12-H ) :   0.2194 B(  0-C , 13-H ) :  -0.1227 B(  1-C ,  3-C ) :   1.8723
B(  1-C , 10-H ) :   0.1520 B(  1-C , 11-H ) :   0.3397 B(  1-C , 13-H ) :   0.2728
B(  2-C ,  3-C ) :   0.3940 B(  2-C ,  4-C ) :   1.4269 B(  2-C , 10-H ) :   0.3259
B(  3-C ,  5-C ) :   1.6160 B(  3-C ,  9-O ) :   0.1623 B(  3-C , 11-H ) :   0.2394
B(  3-C , 13-H ) :  -0.1590 B(  4-C ,  5-C ) :   1.5185 B(  4-C ,  6-N ) :   0.2132
B(  4-C ,  7-O ) :  -0.1682 B(  4-C ,  8-O ) :  -0.1853 B(  4-C ,  9-O ) :   0.3433
B(  4-C , 12-H ) :   0.6694 B(  4-C , 13-H ) :  -0.1253 B(  5-C ,  9-O ) :  -0.2902
B(  5-C , 12-H ) :  -0.1033 B(  5-C , 13-H ) :   0.7030 B(  5-C , 14-H ) :  -0.1539
B(  6-N ,  7-O ) :   1.1982 B(  6-N ,  8-O ) :   1.2415 B(  7-O ,  8-O ) :   0.1923
B(  9-O , 14-H ) :   1.0413

MP2 TOTAL ENERGY:     -510.677095456 Eh
FINAL SINGLE POINT ENERGY      -510.677095455594

DIPOLE MOMENT
-------------
                                X             Y             Z
Electronic contribution:      5.84212       0.67416       0.00525
Nuclear contribution   :     -8.33262      -0.27903      -0.05043
                        -----------------------------------------
Total Dipole Moment    :     -2.49050       0.39514      -0.04518
                        -----------------------------------------
Magnitude (a.u.)       :      2.52206
Magnitude (Debye)      :      6.41056

Rotational constants in cm-1:     0.078470     0.041863     0.028035
Rotational constants in MHz :  2352.475536  1255.029034   840.467767

                             ****ORCA TERMINATED NORMALLY****
TOTAL RUN TIME: 0 days 0 hours 1 minutes 17 seconds 299 msec
