                         Program Version 5.0.3 -  RELEASE  -
|  1> !ri-mp2 aug-cc-pvdz aug-cc-pvdz/c tightscf
|  2> %pal nprocs 16 end
|  3>
|  4> * xyz 0 1
|  5> C     -0.657272   -0.503422    0.000000
|  6> C      0.000000    0.795889    0.000000
|  7> C      0.514208    1.878089    0.000000
|  8> O      0.326252   -1.539360    0.000000
|  9> H     -1.299934   -0.577228    0.884602
| 10> H     -1.299934   -0.577228   -0.884602
| 11> H      0.977878    2.832712    0.000000
| 12> H     -0.129644   -2.386711    0.000000
| 13> *
| 14>
| 15>                          ****END OF INPUT****

CARTESIAN COORDINATES (ANGSTROEM)
---------------------------------
  C     -0.657272   -0.503422    0.000000
  C      0.000000    0.795889    0.000000
  C      0.514208    1.878089    0.000000
  O      0.326252   -1.539360    0.000000
  H     -1.299934   -0.577228    0.884602
  H     -1.299934   -0.577228   -0.884602
  H      0.977878    2.832712    0.000000
  H     -0.129644   -2.386711    0.000000

 Total Charge           Charge          ....    0
 Multiplicity           Mult            ....    1
 Number of Electrons    NEL             ....   30
 Basis Dimension        Dim             ....  128

ORBITAL ENERGIES
----------------

  NO   OCC          E(Eh)            E(eV)
   0   2.0000     -20.583438      -560.1038
   1   2.0000     -11.320299      -308.0410
   2   2.0000     -11.244913      -305.9896
   3   2.0000     -11.237617      -305.7911
   4   2.0000      -1.377467       -37.4828
   5   2.0000      -1.057285       -28.7702
   6   2.0000      -0.951376       -25.8883
   7   2.0000      -0.731426       -19.9031
   8   2.0000      -0.711888       -19.3715
   9   2.0000      -0.653330       -17.7780
  10   2.0000      -0.643584       -17.5128
  11   2.0000      -0.539763       -14.6877
  12   2.0000      -0.477392       -12.9905
  13   2.0000      -0.401486       -10.9250
  14   2.0000      -0.390033       -10.6133
  15   0.0000       0.031034         0.8445
  16   0.0000       0.040767         1.1093
  17   0.0000       0.054712         1.4888
  18   0.0000       0.055767         1.5175
  19   0.0000       0.091714         2.4957

MULLIKEN ATOMIC CHARGES
-----------------------
   0 C :    0.760545
   1 C :   -0.791521
   2 C :    1.145511
   3 O :   -0.666264
   4 H :   -0.041344
   5 H :   -0.041344
   6 H :   -0.515137
   7 H :    0.149554
Sum of atomic charges:    0.0000000

LOEWDIN ATOMIC CHARGES
----------------------
   0 C :   -0.082920
   1 C :   -0.098599
   2 C :    0.208856
   3 O :    0.117385
   4 H :    0.009305
   5 H :    0.009305
   6 H :   -0.104493
   7 H :   -0.058839

  Mayer bond orders larger than 0.100000
B(  0-C ,  1-C ) :   1.2968 B(  0-C ,  2-C ) :   0.2066 B(  0-C ,  3-O ) :   0.6293
B(  0-C ,  4-H ) :   0.8372 B(  0-C ,  5-H ) :   0.8372 B(  0-C ,  6-H ) :   0.1414
B(  1-C ,  2-C ) :   2.6078 B(  1-C ,  4-H ) :   0.1234 B(  1-C ,  5-H ) :   0.1234
B(  1-C ,  6-H ) :   0.5127 B(  2-C ,  6-H ) :  -0.1996 B(  3-O ,  7-H ) :   1.0753

MP2 TOTAL ENERGY:     -191.340835304 Eh
FINAL SINGLE POINT ENERGY      -191.340835304350

DIPOLE MOMENT
-------------
                                X             Y             Z
Electronic contribution:      0.99886       0.49804       0.00000
Nuclear contribution   :     -1.75516      -0.73636       0.00000
                        -----------------------------------------
Total Dipole Moment    :     -0.75629      -0.23832       0.00000
                        -----------------------------------------
Magnitude (a.u.)       :      0.79296
Magnitude (Debye)      :      2.01553

Rotational constants in cm-1:     1.171531     0.155242     0.140687
Rotational constants in MHz : 35121.614027  4654.052796  4217.702446

                             ****ORCA TERMINATED NORMALLY****
TOTAL RUN TIME: 0 days 0 hours 0 minutes 31 seconds 68 msec
