                         Program Version 5.0.3 -  RELEASE  -
|  1> !ri-mp2 aug-cc-pvdz aug-cc-pvdz/c tightscf
|  2> %pal nprocs 16 end
|  3>
|  4> * xyz 0 1
|  5> S      1.786816   -0.999206   -0.026846
|  6> S     -2.245223   -0.148491   -0.179660
|  7> O     -1.005016   -1.270226    0.235149
|  8> O     -1.330231    1.236629    0.220211
|  9> C      0.134146   -0.525701    0.028191
| 10> C     -0.017500    0.819744    0.026189
| 11> C      1.196636    1.540976   -0.022378
| 12> C      2.258331    0.681032   -0.056911
| 13> H      1.283391    2.615343   -0.042028
| 14> H      3.303414    0.920280   -0.147308
| 15> *
| 16>
| 17>                          ****END OF INPUT****

CARTESIAN COORDINATES (ANGSTROEM)
---------------------------------
  S      1.786816   -0.999206   -0.026846
  S     -2.245223   -0.148491   -0.179660
  O     -1.005016   -1.270226    0.235149
  O     -1.330231    1.236629    0.220211
  C      0.134146   -0.525701    0.028191
  C     -0.017500    0.819744    0.026189
  C      1.196636    1.540976   -0.022378
  C      2.258331    0.681032   -0.056911
  H      1.283391    2.615343   -0.042028
  H      3.303414    0.920280   -0.147308

 Total Charge           Charge          ....    0
 Multiplicity           Mult            ....    1
 Number of Electrons    NEL             ....   74
 Basis Dimension        Dim             ....  210

ORBITAL ENERGIES
----------------

  NO   OCC          E(Eh)            E(eV)
   0   2.0000     -92.085421     -2505.7717
   1   2.0000     -92.011657     -2503.7645
   2   2.0000     -20.649404      -561.8988
   3   2.0000     -20.643413      -561.7358
   4   2.0000     -11.336249      -308.4750
   5   2.0000     -11.313580      -307.8582
   6   2.0000     -11.288726      -307.1819
   7   2.0000     -11.271001      -306.6995
   8   2.0000      -9.074322      -246.9249
   9   2.0000      -9.013058      -245.2578
  10   2.0000      -6.755783      -183.8342
  11   2.0000      -6.754395      -183.7964
  12   2.0000      -6.750330      -183.6858
  13   2.0000      -6.694696      -182.1719
  14   2.0000      -6.693900      -182.1503
  15   2.0000      -6.691764      -182.0922
  16   2.0000      -1.474740       -40.1297
  17   2.0000      -1.395460       -37.9724
  18   2.0000      -1.190803       -32.4034
  19   2.0000      -1.009290       -27.4642
  20   2.0000      -1.008741       -27.4492
  21   2.0000      -0.931128       -25.3373
  22   2.0000      -0.814361       -22.1599
  23   2.0000      -0.787029       -21.4162
  24   2.0000      -0.709421       -19.3043
  25   2.0000      -0.676497       -18.4084
  26   2.0000      -0.631156       -17.1746
  27   2.0000      -0.622855       -16.9488
  28   2.0000      -0.607259       -16.5244
  29   2.0000      -0.597446       -16.2573
  30   2.0000      -0.562527       -15.3071
  31   2.0000      -0.529108       -14.3978
  32   2.0000      -0.514500       -14.0003
  33   2.0000      -0.497331       -13.5331
  34   2.0000      -0.386331       -10.5126
  35   2.0000      -0.363457        -9.8902
  36   2.0000      -0.312867        -8.5135
  37   0.0000       0.034186         0.9303
  38   0.0000       0.044614         1.2140
  39   0.0000       0.059256         1.6124
  40   0.0000       0.064271         1.7489
  41   0.0000       0.073661         2.0044

MULLIKEN ATOMIC CHARGES
-----------------------
   0 S :    0.778858
   1 S :    0.998951
   2 O :   -1.182944
   3 O :   -1.178146
   4 C :    0.442541
   5 C :    0.297521
   6 C :    0.499473
   7 C :   -0.034925
   8 H :   -0.269858
   9 H :   -0.351471
Sum of atomic charges:   -0.0000000

LOEWDIN ATOMIC CHARGES
----------------------
   0 S :    0.994738
   1 S :    0.891175
   2 O :   -0.275230
   3 O :   -0.248677
   4 C :   -0.596210
   5 C :   -0.398817
   6 C :   -0.040922
   7 C :   -0.264710
   8 H :   -0.001884
   9 H :   -0.059463

  Mayer bond orders larger than 0.100000
B(  0-S ,  4-C ) :   1.0159 B(  0-S ,  6-C ) :   0.1113 B(  0-S ,  7-C ) :   0.8745
B(  0-S ,  9-H ) :  -0.1599 B(  1-S ,  2-O ) :   0.6016 B(  1-S ,  3-O ) :   0.6189
B(  2-O ,  5-C ) :   0.5134 B(  3-O ,  4-C ) :   0.3787 B(  4-C ,  5-C ) :   1.8351
B(  4-C ,  6-C ) :   0.2514 B(  4-C ,  7-C ) :   0.1382 B(  5-C ,  6-C ) :   1.4956
B(  5-C ,  8-H ) :   0.1338 B(  6-C ,  7-C ) :   2.0407 B(  6-C ,  8-H ) :   0.6843
B(  6-C ,  9-H ) :   0.1215 B(  7-C ,  8-H ) :  -0.1181 B(  7-C ,  9-H ) :   0.9283

MP2 TOTAL ENERGY:    -1098.541753443 Eh
FINAL SINGLE POINT ENERGY     -1098.541753442734

DIPOLE MOMENT
-------------
                                X             Y             Z
Electronic contribution:     -3.85368      -3.02206      -0.02672
Nuclear contribution   :      4.33931       3.39463      -0.16713
                        -----------------------------------------
Total Dipole Moment    :      0.48563       0.37257      -0.19385
                        -----------------------------------------
Magnitude (a.u.)       :      0.64205
Magnitude (Debye)      :      1.63195

Rotational constants in cm-1:     0.121466     0.041872     0.031464
Rotational constants in MHz :  3641.463245  1255.278151   943.256234

                             ****ORCA TERMINATED NORMALLY****
TOTAL RUN TIME: 0 days 0 hours 1 minutes 10 seconds 444 msec
