                         Program Version 5.0.3 -  RELEASE  -
|  1> !ri-mp2 aug-cc-pvdz aug-cc-pvdz/c tightscf
|  2> %pal nprocs 16 end
|  3>
|  4> * xyz 0 1
|  5> C      1.798671    0.026140   -0.256881
|  6> C      0.665074   -0.290241    0.357148
|  7> C     -0.599255    0.505881    0.255208
|  8> O     -1.694874   -0.274273   -0.232077
|  9> H      2.690246   -0.577939   -0.155580
| 10> H      1.876485    0.910633   -0.878456
| 11> H      0.608435   -1.184136    0.970445
| 12> H     -0.440048    1.391472   -0.369265
| 13> H     -0.916428    0.847380    1.242042
| 14> H     -1.446641   -0.643903   -1.085425
| 15> *
| 16>
| 17>                          ****END OF INPUT****

CARTESIAN COORDINATES (ANGSTROEM)
---------------------------------
  C      1.798671    0.026140   -0.256881
  C      0.665074   -0.290241    0.357148
  C     -0.599255    0.505881    0.255208
  O     -1.694874   -0.274273   -0.232077
  H      2.690246   -0.577939   -0.155580
  H      1.876485    0.910633   -0.878456
  H      0.608435   -1.184136    0.970445
  H     -0.440048    1.391472   -0.369265
  H     -0.916428    0.847380    1.242042
  H     -1.446641   -0.643903   -1.085425

 Total Charge           Charge          ....    0
 Multiplicity           Mult            ....    1
 Number of Electrons    NEL             ....   32
 Basis Dimension        Dim             ....  146

ORBITAL ENERGIES
----------------

  NO   OCC          E(Eh)            E(eV)
   0   2.0000     -20.569824      -559.7334
   1   2.0000     -11.289116      -307.1925
   2   2.0000     -11.245701      -306.0111
   3   2.0000     -11.241350      -305.8927
   4   2.0000      -1.362643       -37.0794
   5   2.0000      -1.070663       -29.1342
   6   2.0000      -0.925387       -25.1811
   7   2.0000      -0.779061       -21.1993
   8   2.0000      -0.702038       -19.1034
   9   2.0000      -0.625042       -17.0083
  10   2.0000      -0.617093       -16.7920
  11   2.0000      -0.604157       -16.4399
  12   2.0000      -0.532510       -14.4903
  13   2.0000      -0.495938       -13.4952
  14   2.0000      -0.453187       -12.3319
  15   2.0000      -0.378539       -10.3006
  16   0.0000       0.035688         0.9711
  17   0.0000       0.047189         1.2841
  18   0.0000       0.049881         1.3573
  19   0.0000       0.053776         1.4633
  20   0.0000       0.069451         1.8899

MULLIKEN ATOMIC CHARGES
-----------------------
   0 C :    0.537254
   1 C :    0.343827
   2 C :    0.858836
   3 O :   -0.677665
   4 H :   -0.268927
   5 H :   -0.280193
   6 H :   -0.361369
   7 H :   -0.186128
   8 H :   -0.111833
   9 H :    0.146197
Sum of atomic charges:    0.0000000

LOEWDIN ATOMIC CHARGES
----------------------
   0 C :    0.162999
   1 C :   -0.069534
   2 C :   -0.056781
   3 O :    0.105088
   4 H :   -0.042129
   5 H :   -0.039309
   6 H :   -0.001025
   7 H :    0.002342
   8 H :    0.002831
   9 H :   -0.064481

  Mayer bond orders larger than 0.100000
B(  0-C ,  1-C ) :   1.9112 B(  0-C ,  4-H ) :   0.7985 B(  0-C ,  5-H ) :   0.9270
B(  1-C ,  2-C ) :   1.1226 B(  1-C ,  3-O ) :   0.1111 B(  1-C ,  4-H ) :   0.1006
B(  1-C ,  6-H ) :   0.8545 B(  2-C ,  3-O ) :   0.5156 B(  2-C ,  6-H ) :  -0.1183
B(  2-C ,  7-H ) :   0.9508 B(  2-C ,  8-H ) :   0.9282 B(  3-O ,  9-H ) :   1.0455
B(  4-H ,  5-H ) :  -0.1775

MP2 TOTAL ENERGY:     -192.580505306 Eh
FINAL SINGLE POINT ENERGY      -192.580505306065

DIPOLE MOMENT
-------------
                                X             Y             Z
Electronic contribution:     -1.81007      -0.66784       0.01735
Nuclear contribution   :      2.42683       0.76487      -0.28962
                        -----------------------------------------
Total Dipole Moment    :      0.61676       0.09703      -0.27227
                        -----------------------------------------
Magnitude (a.u.)       :      0.68113
Magnitude (Debye)      :      1.73131

Rotational constants in cm-1:     0.862345     0.143863     0.140665
Rotational constants in MHz : 25852.454598  4312.901533  4217.035789

                             ****ORCA TERMINATED NORMALLY****
TOTAL RUN TIME: 0 days 0 hours 0 minutes 28 seconds 629 msec
