                         Program Version 5.0.3 -  RELEASE  -
|  1> !ri-mp2 aug-cc-pvdz aug-cc-pvdz/c tightscf
|  2> %pal nprocs 16 end
|  3>
|  4> * xyz 0 1
|  5> C      0.937510   -0.611839   -0.203807
|  6> C     -1.492937   -0.871125    0.255516
|  7> C     -0.484063    1.465272    0.040969
|  8> C     -0.424750    0.011005   -0.411659
|  9> O      1.895644   -0.059648    0.273304
| 10> H      1.010074   -1.671441   -0.531638
| 11> H     -1.421772   -1.909325   -0.072827
| 12> H     -2.490925   -0.510468    0.007755
| 13> H     -1.387988   -0.851504    1.341538
| 14> H     -1.458920    1.896200   -0.188710
| 15> H      0.282990    2.063378   -0.448681
| 16> H     -0.321324    1.543319    1.116354
| 17> H     -0.591848   -0.042855   -1.496335
| 18> *
| 19>
| 20>                          ****END OF INPUT****

CARTESIAN COORDINATES (ANGSTROEM)
---------------------------------
  C      0.937510   -0.611839   -0.203807
  C     -1.492937   -0.871125    0.255516
  C     -0.484063    1.465272    0.040969
  C     -0.424750    0.011005   -0.411659
  O      1.895644   -0.059648    0.273304
  H      1.010074   -1.671441   -0.531638
  H     -1.421772   -1.909325   -0.072827
  H     -2.490925   -0.510468    0.007755
  H     -1.387988   -0.851504    1.341538
  H     -1.458920    1.896200   -0.188710
  H      0.282990    2.063378   -0.448681
  H     -0.321324    1.543319    1.116354
  H     -0.591848   -0.042855   -1.496335

 Total Charge           Charge          ....    0
 Multiplicity           Mult            ....    1
 Number of Electrons    NEL             ....   40
 Basis Dimension        Dim             ....  187

ORBITAL ENERGIES
----------------

  NO   OCC          E(Eh)            E(eV)
   0   2.0000     -20.567883      -559.6806
   1   2.0000     -11.337164      -308.4999
   2   2.0000     -11.254049      -306.2382
   3   2.0000     -11.240923      -305.8811
   4   2.0000     -11.225795      -305.4694
   5   2.0000      -1.400292       -38.1039
   6   2.0000      -1.093883       -29.7661
   7   2.0000      -0.947564       -25.7845
   8   2.0000      -0.889539       -24.2056
   9   2.0000      -0.761434       -20.7197
  10   2.0000      -0.681534       -18.5455
  11   2.0000      -0.643881       -17.5209
  12   2.0000      -0.625032       -17.0080
  13   2.0000      -0.567390       -15.4395
  14   2.0000      -0.551131       -14.9970
  15   2.0000      -0.535016       -14.5585
  16   2.0000      -0.525005       -14.2861
  17   2.0000      -0.494872       -13.4662
  18   2.0000      -0.481991       -13.1156
  19   2.0000      -0.414206       -11.2711
  20   0.0000       0.031950         0.8694
  21   0.0000       0.044081         1.1995
  22   0.0000       0.045647         1.2421
  23   0.0000       0.052710         1.4343
  24   0.0000       0.068134         1.8540

MULLIKEN ATOMIC CHARGES
-----------------------
   0 C :    0.997823
   1 C :    0.610971
   2 C :    0.805176
   3 C :   -1.239363
   4 O :   -0.688962
   5 H :   -0.119483
   6 H :   -0.110740
   7 H :   -0.080825
   8 H :   -0.011683
   9 H :   -0.053389
  10 H :   -0.084977
  11 H :   -0.018101
  12 H :   -0.006446
Sum of atomic charges:    0.0000000

LOEWDIN ATOMIC CHARGES
----------------------
   0 C :   -0.069186
   1 C :    0.160666
   2 C :    0.160052
   3 C :   -0.280352
   4 O :    0.034744
   5 H :    0.019770
   6 H :   -0.016928
   7 H :   -0.012024
   8 H :   -0.008460
   9 H :   -0.013364
  10 H :   -0.010498
  11 H :   -0.007071
  12 H :    0.042651

  Mayer bond orders larger than 0.100000
B(  0-C ,  3-C ) :   1.0933 B(  0-C ,  4-O ) :   1.5301 B(  0-C ,  5-H ) :   0.7862
B(  1-C ,  2-C ) :  -0.1036 B(  1-C ,  3-C ) :   1.3192 B(  1-C ,  6-H ) :   0.8440
B(  1-C ,  7-H ) :   0.8623 B(  1-C ,  8-H ) :   0.9266 B(  2-C ,  3-C ) :   1.2688
B(  2-C ,  9-H ) :   0.8251 B(  2-C , 10-H ) :   0.8408 B(  2-C , 11-H ) :   0.9044
B(  3-C ,  4-O ) :   0.1501 B(  3-C ,  5-H ) :   0.1515 B(  3-C ,  6-H ) :   0.1023
B(  3-C ,  7-H ) :   0.1055 B(  3-C , 10-H ) :   0.1185 B(  3-C , 12-H ) :   0.8353

MP2 TOTAL ENERGY:     -231.794783478 Eh
FINAL SINGLE POINT ENERGY      -231.794783478201

DIPOLE MOMENT
-------------
                                X             Y             Z
Electronic contribution:      5.49510      -0.91121      -0.16521
Nuclear contribution   :     -6.61542       0.53796      -0.27946
                        -----------------------------------------
Total Dipole Moment    :     -1.12031      -0.37325      -0.44466
                        -----------------------------------------
Magnitude (a.u.)       :      1.26180
Magnitude (Debye)      :      3.20725

Rotational constants in cm-1:     0.249337     0.136398     0.098884
Rotational constants in MHz :  7474.935487  4089.119496  2964.478915

                             ****ORCA TERMINATED NORMALLY****
TOTAL RUN TIME: 0 days 0 hours 0 minutes 37 seconds 796 msec
