                         Program Version 5.0.3 -  RELEASE  -
|  1> !ri-mp2 aug-cc-pvdz aug-cc-pvdz/c tightscf
|  2> %pal nprocs 16 end
|  3>
|  4> * xyz 0 1
|  5> O     -0.000005    1.187716    0.000000
|  6> C      0.000009    0.367981    1.174300
|  7> C      0.000009   -1.040764    0.662346
|  8> C      0.000009   -1.040764   -0.662346
|  9> C      0.000009    0.367981   -1.174300
| 10> H     -0.884524    0.596428    1.780702
| 11> H      0.884421    0.596465    1.780810
| 12> H      0.884421    0.596465   -1.780810
| 13> H     -0.884524    0.596428   -1.780702
| 14> H      0.000016   -1.907063    1.307178
| 15> H      0.000016   -1.907063   -1.307178
| 16> *
| 17>
| 18>                          ****END OF INPUT****

CARTESIAN COORDINATES (ANGSTROEM)
---------------------------------
  O     -0.000005    1.187716    0.000000
  C      0.000009    0.367981    1.174300
  C      0.000009   -1.040764    0.662346
  C      0.000009   -1.040764   -0.662346
  C      0.000009    0.367981   -1.174300
  H     -0.884524    0.596428    1.780702
  H      0.884421    0.596465    1.780810
  H      0.884421    0.596465   -1.780810
  H     -0.884524    0.596428   -1.780702
  H      0.000016   -1.907063    1.307178
  H      0.000016   -1.907063   -1.307178

 Total Charge           Charge          ....    0
 Multiplicity           Mult            ....    1
 Number of Electrons    NEL             ....   38
 Basis Dimension        Dim             ....  169

ORBITAL ENERGIES
----------------

  NO   OCC          E(Eh)            E(eV)
   0   2.0000     -20.560681      -559.4846
   1   2.0000     -11.285004      -307.0806
   2   2.0000     -11.284975      -307.0798
   3   2.0000     -11.241192      -305.8884
   4   2.0000     -11.239419      -305.8401
   5   2.0000      -1.375233       -37.4220
   6   2.0000      -1.076562       -29.2947
   7   2.0000      -0.993985       -27.0477
   8   2.0000      -0.830927       -22.6107
   9   2.0000      -0.764876       -20.8133
  10   2.0000      -0.699077       -19.0228
  11   2.0000      -0.663929       -18.0664
  12   2.0000      -0.582770       -15.8580
  13   2.0000      -0.570153       -15.5147
  14   2.0000      -0.567281       -15.4365
  15   2.0000      -0.510543       -13.8926
  16   2.0000      -0.489299       -13.3145
  17   2.0000      -0.436040       -11.8653
  18   2.0000      -0.352855        -9.6017
  19   0.0000       0.034381         0.9355
  20   0.0000       0.043488         1.1834
  21   0.0000       0.050544         1.3754
  22   0.0000       0.053770         1.4631
  23   0.0000       0.064589         1.7576

MULLIKEN ATOMIC CHARGES
-----------------------
   0 O :   -0.926479
   1 C :    1.043536
   2 C :   -0.137234
   3 C :   -0.137234
   4 C :    1.043536
   5 H :   -0.103569
   6 H :   -0.103665
   7 H :   -0.103665
   8 H :   -0.103569
   9 H :   -0.235828
  10 H :   -0.235828
Sum of atomic charges:   -0.0000000

LOEWDIN ATOMIC CHARGES
----------------------
   0 O :   -0.001590
   1 C :   -0.011506
   2 C :    0.006341
   3 C :    0.006341
   4 C :   -0.011506
   5 H :    0.004745
   6 H :    0.004729
   7 H :    0.004729
   8 H :    0.004745
   9 H :   -0.003514
  10 H :   -0.003514

  Mayer bond orders larger than 0.100000
B(  0-O ,  1-C ) :   0.5705 B(  0-O ,  4-C ) :   0.5705 B(  1-C ,  2-C ) :   1.1176
B(  1-C ,  5-H ) :   0.8677 B(  1-C ,  6-H ) :   0.8677 B(  2-C ,  3-C ) :   2.4171
B(  2-C ,  9-H ) :   0.7173 B(  2-C , 10-H ) :   0.1271 B(  3-C ,  4-C ) :   1.1176
B(  3-C ,  9-H ) :   0.1271 B(  3-C , 10-H ) :   0.7173 B(  4-C ,  7-H ) :   0.8677
B(  4-C ,  8-H ) :   0.8677 B(  5-H ,  6-H ) :  -0.1139 B(  7-H ,  8-H ) :  -0.1139

MP2 TOTAL ENERGY:     -230.566582757 Eh
FINAL SINGLE POINT ENERGY      -230.566582757140

DIPOLE MOMENT
-------------
                                X             Y             Z
Electronic contribution:      0.00020       0.73442       0.00000
Nuclear contribution   :     -0.00018      -1.43527       0.00000
                        -----------------------------------------
Total Dipole Moment    :      0.00002      -0.70085       0.00000
                        -----------------------------------------
Magnitude (a.u.)       :      0.70085
Magnitude (Debye)      :      1.78142

Rotational constants in cm-1:     0.267373     0.264496     0.139926
Rotational constants in MHz :  8015.638622  7929.381162  4194.861919

                             ****ORCA TERMINATED NORMALLY****
TOTAL RUN TIME: 0 days 0 hours 0 minutes 36 seconds 740 msec
