                         Program Version 5.0.3 -  RELEASE  -
|  1> !ri-mp2 aug-cc-pvdz aug-cc-pvdz/c tightscf
|  2> %pal nprocs 16 end
|  3>
|  4> * xyz 0 1
|  5> C     -1.639261    1.150479    0.000000
|  6> H     -2.490302    0.487611    0.000000
|  7> H     -1.809141    2.216402    0.000000
|  8> C     -0.417478    0.652524    0.000000
|  9> F      0.670083    1.440552    0.000000
| 10> C     -0.079576   -0.806625    0.000000
| 11> H     -0.974900   -1.428241    0.000000
| 12> F      0.670083   -1.123278    1.097373
| 13> F      0.670083   -1.123278   -1.097373
| 14> *
| 15>
| 16>                          ****END OF INPUT****

CARTESIAN COORDINATES (ANGSTROEM)
---------------------------------
  C     -1.639261    1.150479    0.000000
  H     -2.490302    0.487611    0.000000
  H     -1.809141    2.216402    0.000000
  C     -0.417478    0.652524    0.000000
  F      0.670083    1.440552    0.000000
  C     -0.079576   -0.806625    0.000000
  H     -0.974900   -1.428241    0.000000
  F      0.670083   -1.123278    1.097373
  F      0.670083   -1.123278   -1.097373

 Total Charge           Charge          ....    0
 Multiplicity           Mult            ....    1
 Number of Electrons    NEL             ....   48
 Basis Dimension        Dim             ....  165

ORBITAL ENERGIES
----------------

  NO   OCC          E(Eh)            E(eV)
   0   2.0000     -26.340927      -716.7731
   1   2.0000     -26.334378      -716.5949
   2   2.0000     -26.334360      -716.5944
   3   2.0000     -11.441296      -311.3335
   4   2.0000     -11.362153      -309.1799
   5   2.0000     -11.272690      -306.7455
   6   2.0000      -1.677928       -45.6587
   7   2.0000      -1.649313       -44.8801
   8   2.0000      -1.613296       -43.9000
   9   2.0000      -1.112620       -30.2759
  10   2.0000      -0.984935       -26.8014
  11   2.0000      -0.859553       -23.3896
  12   2.0000      -0.790397       -21.5078
  13   2.0000      -0.781170       -21.2567
  14   2.0000      -0.769921       -20.9506
  15   2.0000      -0.710627       -19.3371
  16   2.0000      -0.707718       -19.2580
  17   2.0000      -0.687301       -18.7024
  18   2.0000      -0.670421       -18.2431
  19   2.0000      -0.638962       -17.3870
  20   2.0000      -0.618652       -16.8344
  21   2.0000      -0.600789       -16.3483
  22   2.0000      -0.545530       -14.8446
  23   2.0000      -0.413255       -11.2452
  24   0.0000       0.029584         0.8050
  25   0.0000       0.043190         1.1753
  26   0.0000       0.056697         1.5428
  27   0.0000       0.086628         2.3573
  28   0.0000       0.093418         2.5420

MULLIKEN ATOMIC CHARGES
-----------------------
   0 C :    0.625558
   1 H :   -0.238629
   2 H :   -0.267461
   3 C :    0.621622
   4 F :   -0.724908
   5 C :    1.451084
   6 H :   -0.259285
   7 F :   -0.603991
   8 F :   -0.603991
Sum of atomic charges:   -0.0000000

LOEWDIN ATOMIC CHARGES
----------------------
   0 C :    0.236231
   1 H :   -0.030151
   2 H :   -0.021881
   3 C :   -0.239257
   4 F :    0.074514
   5 C :   -0.136072
   6 H :    0.027698
   7 F :    0.044459
   8 F :    0.044459

  Mayer bond orders larger than 0.100000
B(  0-C ,  1-H ) :   0.9764 B(  0-C ,  2-H ) :   0.7318 B(  0-C ,  3-C ) :   1.9006
B(  1-H ,  2-H ) :  -0.1526 B(  2-H ,  3-C ) :   0.1577 B(  3-C ,  4-F ) :   0.1656
B(  3-C ,  5-C ) :   1.1150 B(  5-C ,  6-H ) :   0.9459 B(  5-C ,  7-F ) :   0.3873
B(  5-C ,  8-F ) :   0.3873

MP2 TOTAL ENERGY:     -414.699731245 Eh
FINAL SINGLE POINT ENERGY      -414.699731244857

DIPOLE MOMENT
-------------
                                X             Y             Z
Electronic contribution:      5.41276      -1.84975       0.00000
Nuclear contribution   :     -6.81345       1.94444       0.00000
                        -----------------------------------------
Total Dipole Moment    :     -1.40069       0.09469       0.00000
                        -----------------------------------------
Magnitude (a.u.)       :      1.40389
Magnitude (Debye)      :      3.56839

Rotational constants in cm-1:     0.177276     0.088810     0.087165
Rotational constants in MHz :  5314.590791  2662.447088  2613.146449

                             ****ORCA TERMINATED NORMALLY****
TOTAL RUN TIME: 0 days 0 hours 0 minutes 40 seconds 952 msec
