                         Program Version 5.0.3 -  RELEASE  -
|  1> !ri-mp2 aug-cc-pvdz aug-cc-pvdz/c tightscf
|  2> %pal nprocs 16 end
|  3>
|  4> * xyz 0 1
|  5> C     0.336343    2.129295    0.000000
|  6> C     0.540978   -1.506450    0.000000
|  7> C    -0.989729   -1.289163    0.000000
|  8> N    -1.159293    0.170312    0.000000
|  9> O     1.078204   -0.160300    0.000000
| 10> C     0.000000    0.680984    0.000000
| 11> H     0.910587   -2.017738    0.887540
| 12> H     0.910587   -2.017738   -0.887540
| 13> H    -1.473240   -1.716662    0.879292
| 14> H    -1.473240   -1.716662   -0.879292
| 15> H     0.932661    2.376888    0.879004
| 16> H     0.932661    2.376888   -0.879004
| 17> H    -0.576148    2.717242    0.000000
| 18> *
| 19>
| 20>                          ****END OF INPUT****

CARTESIAN COORDINATES (ANGSTROEM)
---------------------------------
  C      0.336343    2.129295    0.000000
  C      0.540978   -1.506450    0.000000
  C     -0.989729   -1.289163    0.000000
  N     -1.159293    0.170312    0.000000
  O      1.078204   -0.160300    0.000000
  C      0.000000    0.680984    0.000000
  H      0.910587   -2.017738    0.887540
  H      0.910587   -2.017738   -0.887540
  H     -1.473240   -1.716662    0.879292
  H     -1.473240   -1.716662   -0.879292
  H      0.932661    2.376888    0.879004
  H      0.932661    2.376888   -0.879004
  H     -0.576148    2.717242    0.000000

 Total Charge           Charge          ....    0
 Multiplicity           Mult            ....    1
 Number of Electrons    NEL             ....   46
 Basis Dimension        Dim             ....  201

ORBITAL ENERGIES
----------------

  NO   OCC          E(Eh)            E(eV)
   0   2.0000     -20.597857      -560.4962
   1   2.0000     -15.547189      -423.0605
   2   2.0000     -11.337561      -308.5107
   3   2.0000     -11.294547      -307.3403
   4   2.0000     -11.262526      -306.4689
   5   2.0000     -11.240901      -305.8805
   6   2.0000      -1.432813       -38.9888
   7   2.0000      -1.209966       -32.9248
   8   2.0000      -1.054924       -28.7059
   9   2.0000      -0.962682       -26.1959
  10   2.0000      -0.860106       -23.4047
  11   2.0000      -0.755295       -20.5526
  12   2.0000      -0.686294       -18.6750
  13   2.0000      -0.681436       -18.5428
  14   2.0000      -0.621287       -16.9061
  15   2.0000      -0.591056       -16.0835
  16   2.0000      -0.561545       -15.2804
  17   2.0000      -0.550626       -14.9833
  18   2.0000      -0.544219       -14.8089
  19   2.0000      -0.512174       -13.9370
  20   2.0000      -0.504458       -13.7270
  21   2.0000      -0.427949       -11.6451
  22   2.0000      -0.372893       -10.1469
  23   0.0000       0.035659         0.9703
  24   0.0000       0.043733         1.1900
  25   0.0000       0.048490         1.3195
  26   0.0000       0.052861         1.4384
  27   0.0000       0.067664         1.8412

MULLIKEN ATOMIC CHARGES
-----------------------
   0 C :    0.553904
   1 C :    0.988065
   2 C :    0.553771
   3 N :   -0.714357
   4 O :   -1.014178
   5 C :    0.400794
   6 H :   -0.195593
   7 H :   -0.195593
   8 H :   -0.185734
   9 H :   -0.185734
  10 H :    0.020371
  11 H :    0.020371
  12 H :   -0.046086
Sum of atomic charges:   -0.0000000

LOEWDIN ATOMIC CHARGES
----------------------
   0 C :    0.204171
   1 C :    0.053266
   2 C :   -0.025468
   3 N :    0.043101
   4 O :    0.055927
   5 C :   -0.323827
   6 H :    0.001293
   7 H :    0.001293
   8 H :    0.001512
   9 H :    0.001512
  10 H :   -0.003584
  11 H :   -0.003584
  12 H :   -0.005611

  Mayer bond orders larger than 0.100000
B(  0-C ,  5-C ) :   1.2299 B(  0-C , 10-H ) :   0.8753 B(  0-C , 11-H ) :   0.8753
B(  0-C , 12-H ) :   0.7562 B(  1-C ,  2-C ) :   1.1750 B(  1-C ,  4-O ) :   0.6580
B(  1-C ,  5-C ) :  -0.1064 B(  1-C ,  6-H ) :   0.8836 B(  1-C ,  7-H ) :   0.8836
B(  2-C ,  3-N ) :   0.9404 B(  2-C ,  5-C ) :  -0.1441 B(  2-C ,  8-H ) :   0.9117
B(  2-C ,  9-H ) :   0.9117 B(  3-N ,  5-C ) :   1.7291 B(  4-O ,  5-C ) :   0.5158
B(  5-C , 12-H ) :   0.2598 B(  6-H ,  7-H ) :  -0.1032

MP2 TOTAL ENERGY:     -285.816539359 Eh
FINAL SINGLE POINT ENERGY      -285.816539359285

DIPOLE MOMENT
-------------
                                X             Y             Z
Electronic contribution:      0.23158      -0.35043       0.00000
Nuclear contribution   :      0.17669       0.00070       0.00000
                        -----------------------------------------
Total Dipole Moment    :      0.40827      -0.34973       0.00000
                        -----------------------------------------
Magnitude (a.u.)       :      0.53758
Magnitude (Debye)      :      1.36643

Rotational constants in cm-1:     0.259956     0.114055     0.082943
Rotational constants in MHz :  7793.284750  3419.271235  2486.583027

                             ****ORCA TERMINATED NORMALLY****
TOTAL RUN TIME: 0 days 0 hours 0 minutes 34 seconds 232 msec
