                         Program Version 5.0.3 -  RELEASE  -
|  1> !ri-mp2 aug-cc-pvdz aug-cc-pvdz/c tightscf
|  2> %pal nprocs 16 end
|  3>
|  4> * xyz 0 1
|  5> C     0.000000     1.456520   -0.815071
|  6> C     1.261383    -0.728260   -0.815071
|  7> C    -1.261383    -0.728260   -0.815071
|  8> C     0.000000     0.000000   -0.370596
|  9> Cl    0.000000     0.000000    1.489306
| 10> H    -0.883600     1.977898   -0.450456
| 11> H     0.883600     1.977898   -0.450456
| 12> H     0.000000     1.501962   -1.906872
| 13> H     2.154710    -0.223729   -0.450456
| 14> H     1.271110    -1.754169   -0.450456
| 15> H     1.300737    -0.750981   -1.906872
| 16> H    -2.154710    -0.223729   -0.450456
| 17> H    -1.271110    -1.754169   -0.450456
| 18> H    -1.300737    -0.750981   -1.906872
| 19> *
| 20>
| 21>                          ****END OF INPUT****

CARTESIAN COORDINATES (ANGSTROEM)
---------------------------------
  C      0.000000    1.456520   -0.815071
  C      1.261383   -0.728260   -0.815071
  C     -1.261383   -0.728260   -0.815071
  C      0.000000    0.000000   -0.370596
  Cl     0.000000    0.000000    1.489306
  H     -0.883600    1.977898   -0.450456
  H      0.883600    1.977898   -0.450456
  H      0.000000    1.501962   -1.906872
  H      2.154710   -0.223729   -0.450456
  H      1.271110   -1.754169   -0.450456
  H      1.300737   -0.750981   -1.906872
  H     -2.154710   -0.223729   -0.450456
  H     -1.271110   -1.754169   -0.450456
  H     -1.300737   -0.750981   -1.906872

 Total Charge           Charge          ....    0
 Multiplicity           Mult            ....    1
 Number of Electrons    NEL             ....   50
 Basis Dimension        Dim             ....  200

ORBITAL ENERGIES
----------------

  NO   OCC          E(Eh)            E(eV)
   0   2.0000    -104.805599     -2851.9053
   1   2.0000     -11.314030      -307.8704
   2   2.0000     -11.235841      -305.7428
   3   2.0000     -11.235841      -305.7428
   4   2.0000     -11.235815      -305.7421
   5   2.0000     -10.531629      -286.5802
   6   2.0000      -7.999028      -217.6646
   7   2.0000      -7.996263      -217.5894
   8   2.0000      -7.996263      -217.5894
   9   2.0000      -1.151835       -31.3430
  10   2.0000      -1.023993       -27.8643
  11   2.0000      -0.955090       -25.9893
  12   2.0000      -0.955090       -25.9893
  13   2.0000      -0.754234       -20.5237
  14   2.0000      -0.632510       -17.2115
  15   2.0000      -0.621761       -16.9190
  16   2.0000      -0.621761       -16.9190
  17   2.0000      -0.560780       -15.2596
  18   2.0000      -0.560780       -15.2596
  19   2.0000      -0.530024       -14.4227
  20   2.0000      -0.499686       -13.5971
  21   2.0000      -0.499686       -13.5971
  22   2.0000      -0.471923       -12.8417
  23   2.0000      -0.423364       -11.5203
  24   2.0000      -0.423364       -11.5203
  25   0.0000       0.034069         0.9271
  26   0.0000       0.047656         1.2968
  27   0.0000       0.047656         1.2968
  28   0.0000       0.054967         1.4957
  29   0.0000       0.069014         1.8780

MULLIKEN ATOMIC CHARGES
-----------------------
   0 C :    1.005627
   1 C :    1.005626
   2 C :    1.005626
   3 C :   -2.537987
   4 Cl:   -0.268455
   5 H :   -0.040672
   6 H :   -0.040672
   7 H :    0.011199
   8 H :   -0.040672
   9 H :   -0.040673
  10 H :    0.011199
  11 H :   -0.040672
  12 H :   -0.040673
  13 H :    0.011199
Sum of atomic charges:    0.0000000

LOEWDIN ATOMIC CHARGES
----------------------
   0 C :    0.116215
   1 C :    0.116215
   2 C :    0.116215
   3 C :   -0.755326
   4 Cl:    0.491614
   5 H :   -0.011646
   6 H :   -0.011646
   7 H :   -0.005019
   8 H :   -0.011646
   9 H :   -0.011646
  10 H :   -0.005019
  11 H :   -0.011646
  12 H :   -0.011646
  13 H :   -0.005019

  Mayer bond orders larger than 0.100000
B(  0-C ,  3-C ) :   1.4633 B(  0-C ,  5-H ) :   0.8136 B(  0-C ,  6-H ) :   0.8136
B(  0-C ,  7-H ) :   0.7951 B(  1-C ,  3-C ) :   1.4633 B(  1-C ,  8-H ) :   0.8136
B(  1-C ,  9-H ) :   0.8136 B(  1-C , 10-H ) :   0.7951 B(  2-C ,  3-C ) :   1.4633
B(  2-C , 11-H ) :   0.8136 B(  2-C , 12-H ) :   0.8136 B(  2-C , 13-H ) :   0.7951
B(  3-C ,  4-Cl) :   0.6339 B(  3-C ,  5-H ) :   0.1265 B(  3-C ,  6-H ) :   0.1265
B(  3-C ,  7-H ) :   0.1810 B(  3-C ,  8-H ) :   0.1265 B(  3-C ,  9-H ) :   0.1265
B(  3-C , 10-H ) :   0.1810 B(  3-C , 11-H ) :   0.1265 B(  3-C , 12-H ) :   0.1265
B(  3-C , 13-H ) :   0.1810

MP2 TOTAL ENERGY:     -617.005485323 Eh
FINAL SINGLE POINT ENERGY      -617.005485322665

DIPOLE MOMENT
-------------
                                X             Y             Z
Electronic contribution:      0.00000      -0.00000       9.65237
Nuclear contribution   :     -0.00000       0.00000     -10.70620
                        -----------------------------------------
Total Dipole Moment    :      0.00000      -0.00000      -1.05384
                        -----------------------------------------
Magnitude (a.u.)       :      1.05384
Magnitude (Debye)      :      2.67864

Rotational constants in cm-1:     0.150992     0.098536     0.098536
Rotational constants in MHz :  4526.614019  2954.031600  2954.031267

                             ****ORCA TERMINATED NORMALLY****
TOTAL RUN TIME: 0 days 0 hours 0 minutes 41 seconds 362 msec
