                         Program Version 5.0.3 -  RELEASE  -
|  1> !ri-mp2 aug-cc-pvdz aug-cc-pvdz/c tightscf
|  2> %pal nprocs 16 end
|  3>
|  4> * xyz 0 1
|  5> Cl    -1.849785   -1.123139   -0.022675
|  6> Cl    -0.868753    1.577128   -0.107884
|  7> O      3.067182   -0.524320   -0.216469
|  8> N     -0.501598   -0.072327    0.461280
|  9> C      0.718626   -0.556060   -0.215103
| 10> C      1.945213    0.179416    0.310336
| 11> H      0.651673   -0.480227   -1.301963
| 12> H      0.800148   -1.607945    0.057284
| 13> H      1.941056    0.161427    1.404237
| 14> H      1.942057    1.219714   -0.021165
| 15> H      3.870903   -0.050056    0.012492
| 16> *
| 17>
| 18>                          ****END OF INPUT****

CARTESIAN COORDINATES (ANGSTROEM)
---------------------------------
  Cl    -1.849785   -1.123139   -0.022675
  Cl    -0.868753    1.577128   -0.107884
  O      3.067182   -0.524320   -0.216469
  N     -0.501598   -0.072327    0.461280
  C      0.718626   -0.556060   -0.215103
  C      1.945213    0.179416    0.310336
  H      0.651673   -0.480227   -1.301963
  H      0.800148   -1.607945    0.057284
  H      1.941056    0.161427    1.404237
  H      1.942057    1.219714   -0.021165
  H      3.870903   -0.050056    0.012492

 Total Charge           Charge          ....    0
 Multiplicity           Mult            ....    1
 Number of Electrons    NEL             ....   66
 Basis Dimension        Dim             ....  191

ORBITAL ENERGIES
----------------

  NO   OCC          E(Eh)            E(eV)
   0   2.0000    -104.871847     -2853.7080
   1   2.0000    -104.871298     -2853.6931
   2   2.0000     -20.586489      -560.1868
   3   2.0000     -15.710957      -427.5169
   4   2.0000     -11.303114      -307.5734
   5   2.0000     -11.292520      -307.2851
   6   2.0000     -10.595046      -288.3059
   7   2.0000     -10.594677      -288.2958
   8   2.0000      -8.062851      -219.4013
   9   2.0000      -8.062443      -219.3902
  10   2.0000      -8.058831      -219.2920
  11   2.0000      -8.058579      -219.2851
  12   2.0000      -8.058522      -219.2835
  13   2.0000      -8.058247      -219.2761
  14   2.0000      -1.381800       -37.6007
  15   2.0000      -1.298692       -35.3392
  16   2.0000      -1.104786       -30.0627
  17   2.0000      -1.068390       -29.0724
  18   2.0000      -0.947511       -25.7831
  19   2.0000      -0.838547       -22.8180
  20   2.0000      -0.720367       -19.6022
  21   2.0000      -0.690583       -18.7917
  22   2.0000      -0.642967       -17.4960
  23   2.0000      -0.618130       -16.8202
  24   2.0000      -0.615376       -16.7452
  25   2.0000      -0.566448       -15.4138
  26   2.0000      -0.531431       -14.4610
  27   2.0000      -0.518717       -14.1150
  28   2.0000      -0.478423       -13.0185
  29   2.0000      -0.472577       -12.8595
  30   2.0000      -0.465034       -12.6542
  31   2.0000      -0.450709       -12.2644
  32   2.0000      -0.409580       -11.1452
  33   0.0000       0.031728         0.8634
  34   0.0000       0.050638         1.3779
  35   0.0000       0.052519         1.4291
  36   0.0000       0.057196         1.5564
  37   0.0000       0.063847         1.7374

MULLIKEN ATOMIC CHARGES
-----------------------
   0 Cl:    0.190358
   1 Cl:    0.169644
   2 O :   -0.678517
   3 N :   -0.974884
   4 C :    0.760080
   5 C :    0.909488
   6 H :   -0.148600
   7 H :   -0.131044
   8 H :   -0.086702
   9 H :   -0.147671
  10 H :    0.137849
Sum of atomic charges:    0.0000000

LOEWDIN ATOMIC CHARGES
----------------------
   0 Cl:    0.439668
   1 Cl:    0.442188
   2 O :    0.117100
   3 N :   -0.677257
   4 C :   -0.191042
   5 C :   -0.065170
   6 H :    0.003301
   7 H :    0.000503
   8 H :    0.005894
   9 H :   -0.018517
  10 H :   -0.056669

  Mayer bond orders larger than 0.100000
B(  0-Cl,  3-N ) :   0.9231 B(  1-Cl,  3-N ) :   0.8295 B(  2-O ,  5-C ) :   0.5577
B(  2-O , 10-H ) :   1.0874 B(  3-N ,  4-C ) :   0.6731 B(  4-C ,  5-C ) :   1.2841
B(  4-C ,  6-H ) :   0.9030 B(  4-C ,  7-H ) :   0.8803 B(  5-C ,  8-H ) :   0.9006
B(  5-C ,  9-H ) :   0.8855

MP2 TOTAL ENERGY:    -1127.870518978 Eh
FINAL SINGLE POINT ENERGY     -1127.870518977822

DIPOLE MOMENT
-------------
                                X             Y             Z
Electronic contribution:    -11.72629       1.64327      -0.24280
Nuclear contribution   :     12.53179      -1.34971       0.32136
                        -----------------------------------------
Total Dipole Moment    :      0.80549       0.29356       0.07855
                        -----------------------------------------
Magnitude (a.u.)       :      0.86091
Magnitude (Debye)      :      2.18826

Rotational constants in cm-1:     0.108484     0.043697     0.032290
Rotational constants in MHz :  3252.260880  1310.000481   968.043637

                             ****ORCA TERMINATED NORMALLY****
TOTAL RUN TIME: 0 days 0 hours 0 minutes 42 seconds 502 msec
