                         Program Version 5.0.3 -  RELEASE  -
|  1> !ri-mp2 aug-cc-pvdz aug-cc-pvdz/c tightscf
|  2> %pal nprocs 16 end
|  3>
|  4> * xyz 0 1
|  5> O      2.164676   -0.539196        0.000000
|  6> O      0.084580    2.775541        0.000000
|  7> N     -1.331579    0.475000        0.000000
|  8> N      0.726390    1.750983        0.000000
|  9> C      0.000000    0.522358        0.000000
| 10> C      0.824411   -0.616949        0.000000
| 11> C      0.204822   -1.870177        0.000000
| 12> C     -1.905774   -0.710961        0.000000
| 13> C     -1.171952   -1.910799        0.000000
| 14> H      2.405510    0.402858        0.000000
| 15> H      0.809768   -2.765739        0.000000
| 16> H     -2.988888   -0.732364        0.000000
| 17> H     -1.693161   -2.858226        0.000000
| 18> *
| 19>
| 20>                          ****END OF INPUT****

CARTESIAN COORDINATES (ANGSTROEM)
---------------------------------
  O      2.164676   -0.539196    0.000000
  O      0.084580    2.775541    0.000000
  N     -1.331579    0.475000    0.000000
  N      0.726390    1.750983    0.000000
  C      0.000000    0.522358    0.000000
  C      0.824411   -0.616949    0.000000
  C      0.204822   -1.870177    0.000000
  C     -1.905774   -0.710961    0.000000
  C     -1.171952   -1.910799    0.000000
  H      2.405510    0.402858    0.000000
  H      0.809768   -2.765739    0.000000
  H     -2.988888   -0.732364    0.000000
  H     -1.693161   -2.858226    0.000000

 Total Charge           Charge          ....    0
 Multiplicity           Mult            ....    1
 Number of Electrons    NEL             ....   64
 Basis Dimension        Dim             ....  243

ORBITAL ENERGIES
----------------

  NO   OCC          E(Eh)            E(eV)
   0   2.0000     -20.644099      -561.7545
   1   2.0000     -20.627048      -561.2905
   2   2.0000     -15.718322      -427.7173
   3   2.0000     -15.607226      -424.6942
   4   2.0000     -11.350392      -308.8599
   5   2.0000     -11.317964      -307.9775
   6   2.0000     -11.298086      -307.4365
   7   2.0000     -11.283708      -307.0453
   8   2.0000     -11.280231      -306.9507
   9   2.0000      -1.526134       -41.5282
  10   2.0000      -1.446807       -39.3696
  11   2.0000      -1.295703       -35.2579
  12   2.0000      -1.118378       -30.4326
  13   2.0000      -1.106073       -30.0978
  14   2.0000      -0.989523       -26.9263
  15   2.0000      -0.885439       -24.0940
  16   2.0000      -0.858875       -23.3712
  17   2.0000      -0.785584       -21.3768
  18   2.0000      -0.745126       -20.2759
  19   2.0000      -0.715102       -19.4589
  20   2.0000      -0.673062       -18.3150
  21   2.0000      -0.647652       -17.6235
  22   2.0000      -0.644233       -17.5305
  23   2.0000      -0.616319       -16.7709
  24   2.0000      -0.597077       -16.2473
  25   2.0000      -0.596172       -16.2227
  26   2.0000      -0.582112       -15.8401
  27   2.0000      -0.538001       -14.6397
  28   2.0000      -0.450871       -12.2688
  29   2.0000      -0.417301       -11.3553
  30   2.0000      -0.404271       -11.0008
  31   2.0000      -0.349311        -9.5052
  32   0.0000       0.022809         0.6207
  33   0.0000       0.027617         0.7515
  34   0.0000       0.039721         1.0809
  35   0.0000       0.046863         1.2752
  36   0.0000       0.059175         1.6102

MULLIKEN ATOMIC CHARGES
-----------------------
   0 O :   -0.936561
   1 O :   -0.601742
   2 N :   -0.485806
   3 N :   -0.226352
   4 C :    0.635744
   5 C :    0.820871
   6 C :    0.481282
   7 C :    0.444494
   8 C :    0.803918
   9 H :    0.213115
  10 H :   -0.416275
  11 H :   -0.329701
  12 H :   -0.402987
Sum of atomic charges:    0.0000000

LOEWDIN ATOMIC CHARGES
----------------------
   0 O :    0.203800
   1 O :    0.050184
   2 N :    0.080465
   3 N :    0.016780
   4 C :   -0.246030
   5 C :   -0.181805
   6 C :    0.079012
   7 C :   -0.019840
   8 C :    0.046825
   9 H :   -0.057213
  10 H :    0.017801
  11 H :    0.001688
  12 H :    0.008334

  Mayer bond orders larger than 0.100000
B(  0-O ,  4-C ) :   0.1971 B(  0-O ,  9-H ) :   1.0267 B(  1-O ,  3-N ) :   1.2716
B(  1-O ,  4-C ) :  -0.1283 B(  2-N ,  4-C ) :   1.2016 B(  2-N ,  7-C ) :   1.2948
B(  2-N , 11-H ) :  -0.1013 B(  3-N ,  4-C ) :   0.4663 B(  4-C ,  5-C ) :   0.9748
B(  4-C ,  6-C ) :   0.2987 B(  4-C ,  7-C ) :   0.1963 B(  5-C ,  6-C ) :   1.6460
B(  5-C ,  7-C ) :  -0.1187 B(  5-C ,  8-C ) :   0.1676 B(  5-C , 10-H ) :   0.3577
B(  6-C ,  7-C ) :   0.2585 B(  6-C ,  8-C ) :   1.5775 B(  6-C , 10-H ) :   0.3009
B(  6-C , 12-H ) :   0.2072 B(  7-C ,  8-C ) :   1.1011 B(  7-C , 11-H ) :   0.8881
B(  8-C , 12-H ) :   0.5463

MP2 TOTAL ENERGY:     -451.648145624 Eh
FINAL SINGLE POINT ENERGY      -451.648145623905

DIPOLE MOMENT
-------------
                                X             Y             Z
Electronic contribution:      1.32732       4.13605       0.00000
Nuclear contribution   :     -1.38975      -5.71946       0.00000
                        -----------------------------------------
Total Dipole Moment    :     -0.06242      -1.58341       0.00000
                        -----------------------------------------
Magnitude (a.u.)       :      1.58464
Magnitude (Debye)      :      4.02783

Rotational constants in cm-1:     0.091308     0.056191     0.034784
Rotational constants in MHz :  2737.359170  1684.552289  1042.812526

                             ****ORCA TERMINATED NORMALLY****
TOTAL RUN TIME: 0 days 0 hours 0 minutes 59 seconds 728 msec
