                         Program Version 5.0.3 -  RELEASE  -
|  1> !ri-mp2 aug-cc-pvdz aug-cc-pvdz/c tightscf
|  2> %pal nprocs 16 end
|  3>
|  4> * xyz 0 1
|  5> C     -1.883170   -0.506701    0.017217
|  6> H     -2.671790    0.234445   -0.081330
|  7> H     -2.008340   -1.043418    0.960588
|  8> H     -1.965083   -1.246251   -0.781367
|  9> C      2.019993   -0.020927    0.024676
| 10> H      2.107093    0.570058    0.935544
| 11> H      2.127700    0.662992   -0.815819
| 12> C      0.683365   -0.747236   -0.030294
| 13> H      0.608044   -1.363355   -0.932946
| 14> H      0.580955   -1.453175    0.800501
| 15> C     -0.528385    0.169660   -0.010123
| 16> O     -0.421739    1.375414   -0.011414
| 17> H      2.844518   -0.733384   -0.002718
| 18> *
| 19>
| 20>                          ****END OF INPUT****

CARTESIAN COORDINATES (ANGSTROEM)
---------------------------------
  C     -1.883170   -0.506701    0.017217
  H     -2.671790    0.234445   -0.081330
  H     -2.008340   -1.043418    0.960588
  H     -1.965083   -1.246251   -0.781367
  C      2.019993   -0.020927    0.024676
  H      2.107093    0.570058    0.935544
  H      2.127700    0.662992   -0.815819
  C      0.683365   -0.747236   -0.030294
  H      0.608044   -1.363355   -0.932946
  H      0.580955   -1.453175    0.800501
  C     -0.528385    0.169660   -0.010123
  O     -0.421739    1.375414   -0.011414
  H      2.844518   -0.733384   -0.002718

 Total Charge           Charge          ....    0
 Multiplicity           Mult            ....    1
 Number of Electrons    NEL             ....   40
 Basis Dimension        Dim             ....  187

ORBITAL ENERGIES
----------------

  NO   OCC          E(Eh)            E(eV)
   0   2.0000     -20.554310      -559.3112
   1   2.0000     -11.336288      -308.4761
   2   2.0000     -11.245047      -305.9933
   3   2.0000     -11.240589      -305.8720
   4   2.0000     -11.223564      -305.4087
   5   2.0000      -1.391252       -37.8579
   6   2.0000      -1.064055       -28.9544
   7   2.0000      -1.001971       -27.2650
   8   2.0000      -0.879116       -23.9220
   9   2.0000      -0.733220       -19.9519
  10   2.0000      -0.657242       -17.8845
  11   2.0000      -0.638745       -17.3811
  12   2.0000      -0.622731       -16.9454
  13   2.0000      -0.581234       -15.8162
  14   2.0000      -0.569925       -15.5084
  15   2.0000      -0.520703       -14.1690
  16   2.0000      -0.513461       -13.9720
  17   2.0000      -0.505964       -13.7680
  18   2.0000      -0.484179       -13.1752
  19   2.0000      -0.408572       -11.1178
  20   0.0000       0.031912         0.8684
  21   0.0000       0.042304         1.1511
  22   0.0000       0.047198         1.2843
  23   0.0000       0.054368         1.4794
  24   0.0000       0.066979         1.8226

MULLIKEN ATOMIC CHARGES
-----------------------
   0 C :    0.434594
   1 H :   -0.089373
   2 H :    0.046646
   3 H :    0.023186
   4 C :    0.498212
   5 H :   -0.058984
   6 H :   -0.048661
   7 C :    0.026067
   8 H :   -0.010336
   9 H :   -0.024477
  10 C :    0.052132
  11 O :   -0.788632
  12 H :   -0.060374
Sum of atomic charges:    0.0000000

LOEWDIN ATOMIC CHARGES
----------------------
   0 C :    0.193770
   1 H :   -0.009739
   2 H :   -0.008032
   3 H :   -0.010737
   4 C :    0.139392
   5 H :   -0.013862
   6 H :   -0.014470
   7 C :   -0.029760
   8 H :    0.019620
   9 H :    0.019022
  10 C :   -0.309937
  11 O :    0.044798
  12 H :   -0.020065

  Mayer bond orders larger than 0.100000
B(  0-C ,  1-H ) :   0.8257 B(  0-C ,  2-H ) :   0.9284 B(  0-C ,  3-H ) :   0.9421
B(  0-C , 10-C ) :   1.1045 B(  1-H , 10-C ) :   0.1664 B(  4-C ,  5-H ) :   0.9344
B(  4-C ,  6-H ) :   0.9328 B(  4-C ,  7-C ) :   1.2130 B(  4-C , 12-H ) :   0.8810
B(  7-C ,  8-H ) :   0.8661 B(  7-C ,  9-H ) :   0.8422 B(  7-C , 10-C ) :   1.1348
B( 10-C , 11-O ) :   1.4062

MP2 TOTAL ENERGY:     -231.803023313 Eh
FINAL SINGLE POINT ENERGY      -231.803023313224

DIPOLE MOMENT
-------------
                                X             Y             Z
Electronic contribution:     -1.76704       3.25506      -0.08090
Nuclear contribution   :      1.68406      -4.53236       0.08571
                        -----------------------------------------
Total Dipole Moment    :     -0.08298      -1.27731       0.00482
                        -----------------------------------------
Magnitude (a.u.)       :      1.28001
Magnitude (Debye)      :      3.25352

Rotational constants in cm-1:     0.319539     0.119413     0.091310
Rotational constants in MHz :  9579.550563  3579.913541  2737.409436

                             ****ORCA TERMINATED NORMALLY****
TOTAL RUN TIME: 0 days 0 hours 0 minutes 39 seconds 624 msec
