                         Program Version 5.0.3 -  RELEASE  -
|  1> !ri-mp2 aug-cc-pvdz aug-cc-pvdz/c tightscf
|  2> %pal nprocs 16 end
|  3> %maxcore 3800
|  4>
|  5> * xyz 0 1
|  6> C      0.266243   -2.381801   -0.314834
|  7> C      2.705992    0.000050    0.290476
|  8> C      0.265910    2.381868   -0.314817
|  9> C     -0.892239   -0.000056    0.940151
| 10> C      0.318956    0.000034   -0.011152
| 11> O      0.356269   -1.082293   -0.886845
| 12> O      1.407928    0.000118    0.889584
| 13> O      0.356106    1.082375   -0.886837
| 14> Cl    -2.460390   -0.000138    0.062875
| 15> H      0.547176   -3.074651   -1.104011
| 16> H     -0.754234   -2.608050    0.002453
| 17> H      0.948511   -2.502078    0.529039
| 18> H      2.859400   -0.886862   -0.324693
| 19> H      3.413060    0.000864    1.115990
| 20> H      2.858879    0.886125   -0.326020
| 21> H      0.948187    2.502235    0.529035
| 22> H     -0.754592    2.607970    0.002494
| 23> H      0.546724    3.074761   -1.104000
| 24> H     -0.869091    0.879866    1.572354
| 25> H     -0.868985   -0.879996    1.572325
| 26> *
| 27>
| 28>                          ****END OF INPUT****

CARTESIAN COORDINATES (ANGSTROEM)
---------------------------------
  C      0.266243   -2.381801   -0.314834
  C      2.705992    0.000050    0.290476
  C      0.265910    2.381868   -0.314817
  C     -0.892239   -0.000056    0.940151
  C      0.318956    0.000034   -0.011152
  O      0.356269   -1.082293   -0.886845
  O      1.407928    0.000118    0.889584
  O      0.356106    1.082375   -0.886837
  Cl    -2.460390   -0.000138    0.062875
  H      0.547176   -3.074651   -1.104011
  H     -0.754234   -2.608050    0.002453
  H      0.948511   -2.502078    0.529039
  H      2.859400   -0.886862   -0.324693
  H      3.413060    0.000864    1.115990
  H      2.858879    0.886125   -0.326020
  H      0.948187    2.502235    0.529035
  H     -0.754592    2.607970    0.002494
  H      0.546724    3.074761   -1.104000
  H     -0.869091    0.879866    1.572354
  H     -0.868985   -0.879996    1.572325

 Total Charge           Charge          ....    0
 Multiplicity           Mult            ....    1
 Number of Electrons    NEL             ....   82
 Basis Dimension        Dim             ....  310

ORBITAL ENERGIES
----------------

  NO   OCC          E(Eh)            E(eV)
   0   2.0000    -104.824527     -2852.4204
   1   2.0000     -20.585553      -560.1614
   2   2.0000     -20.580895      -560.0346
   3   2.0000     -20.580880      -560.0342
   4   2.0000     -11.413063      -310.5652
   5   2.0000     -11.303781      -307.5915
   6   2.0000     -11.285844      -307.1034
   7   2.0000     -11.285841      -307.1034
   8   2.0000     -11.284277      -307.0608
   9   2.0000     -10.550229      -287.0863
  10   2.0000      -8.017928      -218.1789
  11   2.0000      -8.014735      -218.0920
  12   2.0000      -8.014727      -218.0918
  13   2.0000      -1.469701       -39.9926
  14   2.0000      -1.362978       -37.0885
  15   2.0000      -1.362742       -37.0821
  16   2.0000      -1.135169       -30.8895
  17   2.0000      -1.015266       -27.6268
  18   2.0000      -0.970192       -26.4003
  19   2.0000      -0.924220       -25.1493
  20   2.0000      -0.913397       -24.8548
  21   2.0000      -0.793343       -21.5880
  22   2.0000      -0.728414       -19.8212
  23   2.0000      -0.718960       -19.5639
  24   2.0000      -0.697338       -18.9755
  25   2.0000      -0.662083       -18.0162
  26   2.0000      -0.623006       -16.9529
  27   2.0000      -0.613691       -16.6994
  28   2.0000      -0.605293       -16.4709
  29   2.0000      -0.590579       -16.0705
  30   2.0000      -0.588758       -16.0209
  31   2.0000      -0.573316       -15.6007
  32   2.0000      -0.541410       -14.7325
  33   2.0000      -0.532617       -14.4932
  34   2.0000      -0.518086       -14.0978
  35   2.0000      -0.481594       -13.1048
  36   2.0000      -0.461495       -12.5579
  37   2.0000      -0.454302       -12.3622
  38   2.0000      -0.453830       -12.3493
  39   2.0000      -0.436173       -11.8689
  40   2.0000      -0.427187       -11.6243
  41   0.0000       0.033590         0.9140
  42   0.0000       0.042472         1.1557
  43   0.0000       0.044486         1.2105
  44   0.0000       0.048984         1.3329
  45   0.0000       0.060947         1.6585

MULLIKEN ATOMIC CHARGES
-----------------------
   0 C :    0.836000
   1 C :    0.774649
   2 C :    0.836005
   3 C :    0.027407
   4 C :    1.906952
   5 O :   -1.034670
   6 O :   -1.018495
   7 O :   -1.034827
   8 Cl:   -0.134838
   9 H :   -0.293115
  10 H :   -0.081078
  11 H :   -0.053171
  12 H :   -0.058907
  13 H :   -0.228986
  14 H :   -0.058700
  15 H :   -0.053058
  16 H :   -0.081076
  17 H :   -0.293112
  18 H :    0.021492
  19 H :    0.021528
Sum of atomic charges:   -0.0000000

LOEWDIN ATOMIC CHARGES
----------------------
   0 C :    0.149534
   1 C :    0.161675
   2 C :    0.149538
   3 C :   -0.270429
   4 C :   -0.502257
   5 O :    0.027706
   6 O :    0.012956
   7 O :    0.027696
   8 Cl:    0.514267
   9 H :   -0.021174
  10 H :   -0.028589
  11 H :   -0.019913
  12 H :   -0.022825
  13 H :   -0.023177
  14 H :   -0.022809
  15 H :   -0.019907
  16 H :   -0.028591
  17 H :   -0.021176
  18 H :   -0.031263
  19 H :   -0.031264

  Mayer bond orders larger than 0.100000
B(  0-C ,  5-O ) :   0.8002 B(  0-C ,  9-H ) :   1.0073 B(  0-C , 10-H ) :   0.9330
B(  0-C , 11-H ) :   0.9194 B(  1-C ,  6-O ) :   0.7414 B(  1-C , 12-H ) :   0.9625
B(  1-C , 13-H ) :   0.9887 B(  1-C , 14-H ) :   0.9626 B(  2-C ,  7-O ) :   0.8002
B(  2-C , 15-H ) :   0.9193 B(  2-C , 16-H ) :   0.9330 B(  2-C , 17-H ) :   1.0073
B(  3-C ,  4-C ) :   1.1358 B(  3-C ,  6-O ) :   0.1056 B(  3-C ,  8-Cl) :   1.2410
B(  3-C , 18-H ) :   0.8487 B(  3-C , 19-H ) :   0.8486 B(  4-C ,  5-O ) :   0.1436
B(  4-C ,  6-O ) :   0.1108 B(  4-C ,  7-O ) :   0.1434 B(  4-C ,  8-Cl) :  -0.3401
B(  4-C , 18-H ) :   0.1986 B(  4-C , 19-H ) :   0.1987 B(  9-H , 11-H ) :  -0.1124
B( 15-H , 17-H ) :  -0.1124 B( 18-H , 19-H ) :  -0.1154

MP2 TOTAL ENERGY:     -881.343036128 Eh
FINAL SINGLE POINT ENERGY      -881.343036128035

DIPOLE MOMENT
-------------
                                X             Y             Z
Electronic contribution:    -11.53923      -0.00038      -1.56119
Nuclear contribution   :     12.38091       0.00038       2.35205
                        -----------------------------------------
Total Dipole Moment    :      0.84169       0.00001       0.79086
                        -----------------------------------------
Magnitude (a.u.)       :      1.15494
Magnitude (Debye)      :      2.93563

Rotational constants in cm-1:     0.059417     0.037920     0.027843
Rotational constants in MHz :  1781.266576  1136.802033   834.720383

                             ****ORCA TERMINATED NORMALLY****
TOTAL RUN TIME: 0 days 0 hours 1 minutes 28 seconds 455 msec
