                         Program Version 5.0.3 -  RELEASE  -
|  1> !ri-mp2 aug-cc-pvdz aug-cc-pvdz/c tightscf
|  2> %pal nprocs 16 end
|  3>
|  4> * xyz 0 1
|  5> C     -2.811044   -0.221945   -0.162139
|  6> C      2.221288   -0.900163   -0.048109
|  7> C     -1.473342    0.339233    0.316846
|  8> C     -0.280858   -0.504253   -0.134238
|  9> C      1.071410    0.028960    0.322589
| 10> O      1.239016    1.319777   -0.283419
| 11> H     -3.644676    0.394864    0.176352
| 12> H     -2.975117   -1.234898    0.212481
| 13> H     -2.852626   -0.264029   -1.252522
| 14> H      2.257486   -1.050421   -1.128043
| 15> H      3.179284   -0.482509    0.270000
| 16> H      2.107939   -1.872159    0.434921
| 17> H     -1.347052    1.358855   -0.049391
| 18> H     -1.474885    0.402013    1.409571
| 19> H     -0.391242   -1.525089    0.243683
| 20> H     -0.268458   -0.572453   -1.226633
| 21> H      1.048581    0.150408    1.414128
| 22> H      2.083920    1.686207   -0.006882
| 23> *
| 24>
| 25>                          ****END OF INPUT****

CARTESIAN COORDINATES (ANGSTROEM)
---------------------------------
  C     -2.811044   -0.221945   -0.162139
  C      2.221288   -0.900163   -0.048109
  C     -1.473342    0.339233    0.316846
  C     -0.280858   -0.504253   -0.134238
  C      1.071410    0.028960    0.322589
  O      1.239016    1.319777   -0.283419
  H     -3.644676    0.394864    0.176352
  H     -2.975117   -1.234898    0.212481
  H     -2.852626   -0.264029   -1.252522
  H      2.257486   -1.050421   -1.128043
  H      3.179284   -0.482509    0.270000
  H      2.107939   -1.872159    0.434921
  H     -1.347052    1.358855   -0.049391
  H     -1.474885    0.402013    1.409571
  H     -0.391242   -1.525089    0.243683
  H     -0.268458   -0.572453   -1.226633
  H      1.048581    0.150408    1.414128
  H      2.083920    1.686207   -0.006882

 Total Charge           Charge          ....    0
 Multiplicity           Mult            ....    1
 Number of Electrons    NEL             ....   50
 Basis Dimension        Dim             ....  246

ORBITAL ENERGIES
----------------

  NO   OCC          E(Eh)            E(eV)
   0   2.0000     -20.561406      -559.5043
   1   2.0000     -11.282856      -307.0221
   2   2.0000     -11.223294      -305.4013
   3   2.0000     -11.218837      -305.2801
   4   2.0000     -11.215640      -305.1931
   5   2.0000     -11.213220      -305.1272
   6   2.0000      -1.356820       -36.9209
   7   2.0000      -1.072234       -29.1770
   8   2.0000      -1.012257       -27.5449
   9   2.0000      -0.928228       -25.2584
  10   2.0000      -0.822883       -22.3918
  11   2.0000      -0.783401       -21.3174
  12   2.0000      -0.698310       -19.0020
  13   2.0000      -0.619603       -16.8603
  14   2.0000      -0.610873       -16.6227
  15   2.0000      -0.606283       -16.4978
  16   2.0000      -0.552232       -15.0270
  17   2.0000      -0.546585       -14.8733
  18   2.0000      -0.530303       -14.4303
  19   2.0000      -0.523339       -14.2408
  20   2.0000      -0.501103       -13.6357
  21   2.0000      -0.473375       -12.8812
  22   2.0000      -0.462310       -12.5801
  23   2.0000      -0.449593       -12.2340
  24   2.0000      -0.431851       -11.7513
  25   0.0000       0.034941         0.9508
  26   0.0000       0.042541         1.1576
  27   0.0000       0.046124         1.2551
  28   0.0000       0.048980         1.3328
  29   0.0000       0.062324         1.6959

MULLIKEN ATOMIC CHARGES
-----------------------
   0 C :    0.478817
   1 C :    0.538112
   2 C :    0.325059
   3 C :    0.140101
   4 C :    0.434683
   5 O :   -0.796832
   6 H :   -0.074087
   7 H :   -0.089731
   8 H :   -0.078684
   9 H :    0.000529
  10 H :   -0.086736
  11 H :   -0.046235
  12 H :   -0.131169
  13 H :   -0.193748
  14 H :   -0.163228
  15 H :   -0.169756
  16 H :   -0.203377
  17 H :    0.116282
Sum of atomic charges:    0.0000000

LOEWDIN ATOMIC CHARGES
----------------------
   0 C :    0.130651
   1 C :    0.160520
   2 C :   -0.064260
   3 C :   -0.022679
   4 C :   -0.268987
   5 O :    0.132639
   6 H :   -0.022365
   7 H :   -0.021578
   8 H :   -0.019978
   9 H :   -0.008424
  10 H :   -0.018597
  11 H :   -0.012634
  12 H :    0.009226
  13 H :    0.011457
  14 H :    0.020361
  15 H :    0.024365
  16 H :    0.031597
  17 H :   -0.061313

  Mayer bond orders larger than 0.100000
B(  0-C ,  2-C ) :   1.1545 B(  0-C ,  6-H ) :   0.9060 B(  0-C ,  7-H ) :   0.9236
B(  0-C ,  8-H ) :   0.9295 B(  1-C ,  3-C ) :  -0.1072 B(  1-C ,  4-C ) :   1.2582
B(  1-C ,  9-H ) :   0.9079 B(  1-C , 10-H ) :   0.8499 B(  1-C , 11-H ) :   0.8500
B(  2-C ,  3-C ) :   1.1871 B(  2-C , 12-H ) :   0.7801 B(  2-C , 13-H ) :   0.7482
B(  3-C ,  4-C ) :   1.3370 B(  3-C , 13-H ) :   0.1203 B(  3-C , 14-H ) :   0.7931
B(  3-C , 15-H ) :   0.7761 B(  4-C ,  5-O ) :   0.2559 B(  4-C , 10-H ) :   0.1691
B(  4-C , 15-H ) :   0.1296 B(  4-C , 16-H ) :   0.6484 B(  5-O , 17-H ) :   1.1022

MP2 TOTAL ENERGY:     -272.182035700 Eh
FINAL SINGLE POINT ENERGY      -272.182035699931

DIPOLE MOMENT
-------------
                                X             Y             Z
Electronic contribution:      2.83560       2.88380      -0.12925
Nuclear contribution   :     -2.40465      -3.18346       0.52539
                        -----------------------------------------
Total Dipole Moment    :      0.43095      -0.29966       0.39614
                        -----------------------------------------
Magnitude (a.u.)       :      0.65760
Magnitude (Debye)      :      1.67148

Rotational constants in cm-1:     0.241405     0.057607     0.050118
Rotational constants in MHz :  7237.143168  1727.014800  1502.505514

                             ****ORCA TERMINATED NORMALLY****
TOTAL RUN TIME: 0 days 0 hours 0 minutes 55 seconds 915 msec
