                         Program Version 5.0.3 -  RELEASE  -
|  1> !ri-mp2 aug-cc-pvdz aug-cc-pvdz/c tightscf
|  2> %pal nprocs 16 end
|  3>
|  4> * xyz 0 1
|  5> F    -1.560515    0.669193    1.027935
|  6> F    -2.395956   -0.758181   -0.402751
|  7> N    -1.190368   -0.448376    0.254141
|  8> N     2.540504   -1.531236    0.370739
|  9> C    -0.339313    0.108786   -0.819505
| 10> C     1.022612    0.458263   -0.274893
| 11> C     1.448448    1.716095   -0.160431
| 12> C     1.869720   -0.636358    0.095191
| 13> H    -0.826459    0.978775   -1.258076
| 14> H    -0.271637   -0.689646   -1.557439
| 15> H     0.810176    2.542787   -0.438338
| 16> H     2.436402    1.945546    0.210865
| 17> *
| 18>
| 19>                          ****END OF INPUT****

CARTESIAN COORDINATES (ANGSTROEM)
---------------------------------
  F     -1.560515    0.669193    1.027935
  F     -2.395956   -0.758181   -0.402751
  N     -1.190368   -0.448376    0.254141
  N      2.540504   -1.531236    0.370739
  C     -0.339313    0.108786   -0.819505
  C      1.022612    0.458263   -0.274893
  C      1.448448    1.716095   -0.160431
  C      1.869720   -0.636358    0.095191
  H     -0.826459    0.978775   -1.258076
  H     -0.271637   -0.689646   -1.557439
  H      0.810176    2.542787   -0.438338
  H      2.436402    1.945546    0.210865

 Total Charge           Charge          ....    0
 Multiplicity           Mult            ....    1
 Number of Electrons    NEL             ....   60
 Basis Dimension        Dim             ....  220

ORBITAL ENERGIES
----------------

  NO   OCC          E(Eh)            E(eV)
   0   2.0000     -26.361844      -717.3423
   1   2.0000     -26.360301      -717.3003
   2   2.0000     -15.796572      -429.8466
   3   2.0000     -15.600678      -424.5160
   4   2.0000     -11.330528      -308.3193
   5   2.0000     -11.322221      -308.0933
   6   2.0000     -11.304558      -307.6127
   7   2.0000     -11.299958      -307.4875
   8   2.0000      -1.698633       -46.2221
   9   2.0000      -1.614087       -43.9215
  10   2.0000      -1.248030       -33.9606
  11   2.0000      -1.205863       -32.8132
  12   2.0000      -1.118465       -30.4350
  13   2.0000      -0.963502       -26.2182
  14   2.0000      -0.892469       -24.2853
  15   2.0000      -0.784309       -21.3421
  16   2.0000      -0.774180       -21.0665
  17   2.0000      -0.771509       -20.9938
  18   2.0000      -0.718289       -19.5456
  19   2.0000      -0.690542       -18.7906
  20   2.0000      -0.668481       -18.1903
  21   2.0000      -0.647707       -17.6250
  22   2.0000      -0.645680       -17.5698
  23   2.0000      -0.610169       -16.6036
  24   2.0000      -0.590201       -16.0602
  25   2.0000      -0.564218       -15.3531
  26   2.0000      -0.528567       -14.3830
  27   2.0000      -0.500178       -13.6105
  28   2.0000      -0.485012       -13.1978
  29   2.0000      -0.411807       -11.2058
  30   0.0000       0.025605         0.6968
  31   0.0000       0.039154         1.0654
  32   0.0000       0.045526         1.2388
  33   0.0000       0.051979         1.4144
  34   0.0000       0.065352         1.7783

MULLIKEN ATOMIC CHARGES
-----------------------
   0 F :   -0.539961
   1 F :   -0.544879
   2 N :    0.431691
   3 N :   -0.297398
   4 C :    0.807138
   5 C :    0.887341
   6 C :    0.862581
   7 C :   -0.717191
   8 H :   -0.146849
   9 H :   -0.086835
  10 H :   -0.296565
  11 H :   -0.359072
Sum of atomic charges:    0.0000000

LOEWDIN ATOMIC CHARGES
----------------------
   0 F :    0.007869
   1 F :    0.008714
   2 N :   -0.025378
   3 N :    0.100834
   4 C :   -0.009053
   5 C :   -0.272203
   6 C :    0.281304
   7 C :   -0.127383
   8 H :    0.026319
   9 H :    0.030415
  10 H :   -0.011973
  11 H :   -0.009464

  Mayer bond orders larger than 0.100000
B(  0-F ,  2-N ) :   0.6120 B(  1-F ,  2-N ) :   0.5719 B(  2-N ,  4-C ) :   0.8373
B(  3-N ,  5-C ) :  -0.1310 B(  3-N ,  7-C ) :   2.5496 B(  4-C ,  5-C ) :   1.0485
B(  4-C ,  7-C ) :  -0.1662 B(  4-C ,  8-H ) :   0.8669 B(  4-C ,  9-H ) :   0.8436
B(  5-C ,  6-C ) :   1.6464 B(  5-C ,  7-C ) :   0.2438 B(  5-C , 10-H ) :   0.1183
B(  5-C , 11-H ) :   0.2481 B(  6-C ,  7-C ) :  -0.2760 B(  6-C , 10-H ) :   0.6829
B(  6-C , 11-H ) :   0.6879 B(  7-C , 11-H ) :  -0.1143 B( 10-H , 11-H ) :  -0.1437

MP2 TOTAL ENERGY:     -462.739611073 Eh
FINAL SINGLE POINT ENERGY      -462.739611072852

DIPOLE MOMENT
-------------
                                X             Y             Z
Electronic contribution:     -5.75432      -3.02083       2.48951
Nuclear contribution   :      5.78640       4.63170      -3.48947
                        -----------------------------------------
Total Dipole Moment    :      0.03208       1.61087      -0.99996
                        -----------------------------------------
Magnitude (a.u.)       :      1.89627
Magnitude (Debye)      :      4.81995

Rotational constants in cm-1:     0.113161     0.042848     0.036375
Rotational constants in MHz :  3392.490443  1284.558218  1090.491025

                             ****ORCA TERMINATED NORMALLY****
TOTAL RUN TIME: 0 days 0 hours 0 minutes 57 seconds 868 msec
