                         Program Version 5.0.3 -  RELEASE  -
|  1> !ri-mp2 aug-cc-pvdz aug-cc-pvdz/c tightscf
|  2> %pal nprocs 16 end
|  3>
|  4> * xyz 0 1
|  5> O      0.112000    1.645041    0.000178
|  6> N      0.429060   -0.659026   -0.000089
|  7> N      1.652969   -0.464671   -0.000125
|  8> N      2.770025   -0.386800   -0.000154
|  9> C     -1.813590    0.267150    0.000107
| 10> C     -0.363056    0.533548    0.000075
| 11> C     -2.364559   -0.942577   -0.000011
| 12> H     -2.413662    1.167111    0.000239
| 13> H     -1.760433   -1.838905   -0.000143
| 14> H     -3.439057   -1.063786    0.000022
| 15> *
| 16>
| 17>                          ****END OF INPUT****

CARTESIAN COORDINATES (ANGSTROEM)
---------------------------------
  O      0.112000    1.645041    0.000178
  N      0.429060   -0.659026   -0.000089
  N      1.652969   -0.464671   -0.000125
  N      2.770025   -0.386800   -0.000154
  C     -1.813590    0.267150    0.000107
  C     -0.363056    0.533548    0.000075
  C     -2.364559   -0.942577   -0.000011
  H     -2.413662    1.167111    0.000239
  H     -1.760433   -1.838905   -0.000143
  H     -3.439057   -1.063786    0.000022

 Total Charge           Charge          ....    0
 Multiplicity           Mult            ....    1
 Number of Electrons    NEL             ....   50
 Basis Dimension        Dim             ....  188

ORBITAL ENERGIES
----------------

  NO   OCC          E(Eh)            E(eV)
   0   2.0000     -20.571078      -559.7675
   1   2.0000     -15.820167      -430.4886
   2   2.0000     -15.718190      -427.7137
   3   2.0000     -15.635545      -425.4648
   4   2.0000     -11.393325      -310.0281
   5   2.0000     -11.275981      -306.8351
   6   2.0000     -11.266382      -306.5738
   7   2.0000      -1.547080       -42.0982
   8   2.0000      -1.424248       -38.7558
   9   2.0000      -1.315382       -35.7934
  10   2.0000      -1.099283       -29.9130
  11   2.0000      -0.945755       -25.7353
  12   2.0000      -0.846856       -23.0441
  13   2.0000      -0.740454       -20.1488
  14   2.0000      -0.731806       -19.9135
  15   2.0000      -0.715217       -19.4621
  16   2.0000      -0.694409       -18.8958
  17   2.0000      -0.660770       -17.9805
  18   2.0000      -0.633267       -17.2321
  19   2.0000      -0.577994       -15.7280
  20   2.0000      -0.557195       -15.1621
  21   2.0000      -0.519801       -14.1445
  22   2.0000      -0.441666       -12.0183
  23   2.0000      -0.420390       -11.4394
  24   2.0000      -0.402175       -10.9437
  25   0.0000       0.032211         0.8765
  26   0.0000       0.046468         1.2645
  27   0.0000       0.054082         1.4717
  28   0.0000       0.059015         1.6059
  29   0.0000       0.081529         2.2185

MULLIKEN ATOMIC CHARGES
-----------------------
   0 O :   -0.684453
   1 N :   -0.551805
   2 N :    0.386069
   3 N :   -0.189417
   4 C :    0.970580
   5 C :    0.532764
   6 C :    0.501318
   7 H :   -0.451933
   8 H :   -0.266010
   9 H :   -0.247113
Sum of atomic charges:   -0.0000000

LOEWDIN ATOMIC CHARGES
----------------------
   0 O :    0.038225
   1 N :    0.070119
   2 N :   -0.227330
   3 N :    0.320857
   4 C :   -0.009490
   5 C :   -0.352847
   6 C :    0.220359
   7 H :    0.002368
   8 H :   -0.034618
   9 H :   -0.027642

  Mayer bond orders larger than 0.100000
B(  0-O ,  5-C ) :   1.3525 B(  1-N ,  2-N ) :   1.0380 B(  1-N ,  3-N ) :   0.1687
B(  1-N ,  5-C ) :   0.9771 B(  1-N ,  6-C ) :  -0.1593 B(  2-N ,  3-N ) :   1.8795
B(  2-N ,  5-C ) :  -0.2137 B(  4-C ,  5-C ) :   0.8445 B(  4-C ,  6-C ) :   1.8258
B(  4-C ,  7-H ) :   0.5980 B(  5-C ,  7-H ) :   0.2127 B(  6-C ,  8-H ) :   0.9721
B(  6-C ,  9-H ) :   0.8365 B(  8-H ,  9-H ) :  -0.1787

MP2 TOTAL ENERGY:     -354.622186779 Eh
FINAL SINGLE POINT ENERGY      -354.622186779114

DIPOLE MOMENT
-------------
                                X             Y             Z
Electronic contribution:      6.64082       0.73113      -0.00019
Nuclear contribution   :     -7.33503      -1.66234       0.00012
                        -----------------------------------------
Total Dipole Moment    :     -0.69421      -0.93121      -0.00008
                        -----------------------------------------
Magnitude (a.u.)       :      1.16150
Magnitude (Debye)      :      2.95229

Rotational constants in cm-1:     0.224013     0.060816     0.047831
Rotational constants in MHz :  6715.752479  1823.222942  1433.932456

                             ****ORCA TERMINATED NORMALLY****
TOTAL RUN TIME: 0 days 0 hours 0 minutes 35 seconds 787 msec
