                         Program Version 5.0.3 -  RELEASE  -
|  1> !ri-mp2 aug-cc-pvdz aug-cc-pvdz/c tightscf
|  2> %pal nprocs 16 end
|  3>
|  4> * xyz 0 1
|  5> O     1.270824   -1.445451    0.000000
|  6> S     0.002229   -0.724554    0.000000
|  7> O    -1.257213   -1.461278    0.000000
|  8> C    -0.004596    0.507527    1.362305
|  9> C    -0.004596    1.830288    0.665220
| 10> C    -0.004596    1.830288   -0.665220
| 11> C    -0.004596    0.507527   -1.362305
| 12> H     0.883848    0.328649    1.967200
| 13> H    -0.896445    0.325784    1.961332
| 14> H    -0.004535    2.742025    1.247250
| 15> H    -0.004535    2.742025   -1.247250
| 16> H     0.883848    0.328649   -1.967200
| 17> H    -0.896445    0.325784   -1.961332
| 18> *
| 19>
| 20>                          ****END OF INPUT****

CARTESIAN COORDINATES (ANGSTROEM)
---------------------------------
  O      1.270824   -1.445451    0.000000
  S      0.002229   -0.724554    0.000000
  O     -1.257213   -1.461278    0.000000
  C     -0.004596    0.507527    1.362305
  C     -0.004596    1.830288    0.665220
  C     -0.004596    1.830288   -0.665220
  C     -0.004596    0.507527   -1.362305
  H      0.883848    0.328649    1.967200
  H     -0.896445    0.325784    1.961332
  H     -0.004535    2.742025    1.247250
  H     -0.004535    2.742025   -1.247250
  H      0.883848    0.328649   -1.967200
  H     -0.896445    0.325784   -1.961332

 Total Charge           Charge          ....    0
 Multiplicity           Mult            ....    1
 Number of Electrons    NEL             ....   62
 Basis Dimension        Dim             ....  219

ORBITAL ENERGIES
----------------

  NO   OCC          E(Eh)            E(eV)
   0   2.0000     -92.197454     -2508.8203
   1   2.0000     -20.554677      -559.3212
   2   2.0000     -20.554633      -559.3200
   3   2.0000     -11.293411      -307.3093
   4   2.0000     -11.293390      -307.3088
   5   2.0000     -11.281918      -306.9966
   6   2.0000     -11.280206      -306.9500
   7   2.0000      -9.170836      -249.5511
   8   2.0000      -6.856023      -186.5619
   9   2.0000      -6.854613      -186.5235
  10   2.0000      -6.854349      -186.5163
  11   2.0000      -1.450469       -39.4693
  12   2.0000      -1.337342       -36.3909
  13   2.0000      -1.167284       -31.7634
  14   2.0000      -1.032683       -28.1007
  15   2.0000      -0.985201       -26.8087
  16   2.0000      -0.821831       -22.3632
  17   2.0000      -0.793021       -21.5792
  18   2.0000      -0.715238       -19.4626
  19   2.0000      -0.671130       -18.2624
  20   2.0000      -0.641178       -17.4473
  21   2.0000      -0.638324       -17.3697
  22   2.0000      -0.625096       -17.0097
  23   2.0000      -0.606356       -16.4998
  24   2.0000      -0.596946       -16.2437
  25   2.0000      -0.557025       -15.1574
  26   2.0000      -0.490035       -13.3345
  27   2.0000      -0.484486       -13.1835
  28   2.0000      -0.466555       -12.6956
  29   2.0000      -0.423323       -11.5192
  30   2.0000      -0.396197       -10.7811
  31   0.0000       0.024921         0.6781
  32   0.0000       0.036800         1.0014
  33   0.0000       0.048921         1.3312
  34   0.0000       0.050708         1.3798
  35   0.0000       0.061232         1.6662

MULLIKEN ATOMIC CHARGES
-----------------------
   0 O :   -1.206820
   1 S :    2.870461
   2 O :   -1.206392
   3 C :   -0.228132
   4 C :    0.215120
   5 C :    0.215120
   6 C :   -0.228132
   7 H :    0.050850
   8 H :    0.050748
   9 H :   -0.317210
  10 H :   -0.317210
  11 H :    0.050850
  12 H :    0.050748
Sum of atomic charges:    0.0000000

LOEWDIN ATOMIC CHARGES
----------------------
   0 O :   -0.408476
   1 S :    0.976250
   2 O :   -0.408617
   3 C :   -0.046162
   4 C :   -0.032560
   5 C :   -0.032560
   6 C :   -0.046162
   7 H :   -0.001187
   8 H :   -0.001178
   9 H :    0.001509
  10 H :    0.001509
  11 H :   -0.001187
  12 H :   -0.001178

  Mayer bond orders larger than 0.100000
B(  0-O ,  1-S ) :   0.6972 B(  0-O ,  2-O ) :   0.1988 B(  0-O ,  3-C ) :   0.1495
B(  0-O ,  6-C ) :   0.1495 B(  1-S ,  2-O ) :   0.6982 B(  1-S ,  3-C ) :   0.7921
B(  1-S ,  4-C ) :  -0.1025 B(  1-S ,  5-C ) :  -0.1025 B(  1-S ,  6-C ) :   0.7921
B(  2-O ,  3-C ) :   0.1498 B(  2-O ,  6-C ) :   0.1498 B(  3-C ,  4-C ) :   1.2275
B(  3-C ,  6-C ) :   0.2349 B(  3-C ,  7-H ) :   0.8032 B(  3-C ,  8-H ) :   0.8027
B(  4-C ,  5-C ) :   2.2550 B(  4-C ,  8-H ) :   0.1010 B(  4-C ,  9-H ) :   0.6775
B(  5-C ,  6-C ) :   1.2275 B(  5-C , 10-H ) :   0.6775 B(  5-C , 12-H ) :   0.1010
B(  6-C , 11-H ) :   0.8032 B(  6-C , 12-H ) :   0.8027

MP2 TOTAL ENERGY:     -703.266684002 Eh
FINAL SINGLE POINT ENERGY      -703.266684002048

DIPOLE MOMENT
-------------
                                X             Y             Z
Electronic contribution:      0.02075      -4.45495       0.00000
Nuclear contribution   :     -0.03362       6.67151       0.00000
                        -----------------------------------------
Total Dipole Moment    :     -0.01287       2.21656       0.00000
                        -----------------------------------------
Magnitude (a.u.)       :      2.21660
Magnitude (Debye)      :      5.63415

Rotational constants in cm-1:     0.131468     0.070062     0.064789
Rotational constants in MHz :  3941.306370  2100.409294  1942.320760

                             ****ORCA TERMINATED NORMALLY****
TOTAL RUN TIME: 0 days 0 hours 0 minutes 45 seconds 501 msec
