                         Program Version 5.0.3 -  RELEASE  -
|  1> !ri-mp2 aug-cc-pvdz aug-cc-pvdz/c tightscf
|  2> %pal nprocs 16 end
|  3>
|  4> * xyz 0 1
|  5> C      1.129531   -1.313585   -0.008560
|  6> C     -0.238510   -1.556011   -0.001692
|  7> C      0.696232    1.038980   -0.007975
|  8> C      1.615630   -0.006887   -0.009477
|  9> C     -1.168888   -0.520347    0.002959
| 10> C     -0.670298    0.788304   -0.000863
| 11> C      3.095047    0.276324    0.010869
| 12> C     -2.651007   -0.783942    0.006802
| 13> O     -1.498806    1.880695   -0.001109
| 14> H      1.821316   -2.145686   -0.015281
| 15> H     -0.597329   -2.578032   -0.002925
| 16> H      1.028405    2.069063   -0.014268
| 17> H      3.349610    1.113290   -0.640203
| 18> H      3.430665    0.535881    1.018029
| 19> H      3.668352   -0.591678   -0.312831
| 20> H     -3.141766   -0.362979    0.890092
| 21> H     -3.146115   -0.365455   -0.875291
| 22> H     -2.851563   -1.853728    0.008728
| 23> H     -2.417548    1.596761    0.000440
| 24> *
| 25>
| 26>                          ****END OF INPUT****

CARTESIAN COORDINATES (ANGSTROEM)
---------------------------------
  C      1.129531   -1.313585   -0.008560
  C     -0.238510   -1.556011   -0.001692
  C      0.696232    1.038980   -0.007975
  C      1.615630   -0.006887   -0.009477
  C     -1.168888   -0.520347    0.002959
  C     -0.670298    0.788304   -0.000863
  C      3.095047    0.276324    0.010869
  C     -2.651007   -0.783942    0.006802
  O     -1.498806    1.880695   -0.001109
  H      1.821316   -2.145686   -0.015281
  H     -0.597329   -2.578032   -0.002925
  H      1.028405    2.069063   -0.014268
  H      3.349610    1.113290   -0.640203
  H      3.430665    0.535881    1.018029
  H      3.668352   -0.591678   -0.312831
  H     -3.141766   -0.362979    0.890092
  H     -3.146115   -0.365455   -0.875291
  H     -2.851563   -1.853728    0.008728
  H     -2.417548    1.596761    0.000440

 Total Charge           Charge          ....    0
 Multiplicity           Mult            ....    1
 Number of Electrons    NEL             ....   66
 Basis Dimension        Dim             ....  297

ORBITAL ENERGIES
----------------

  NO   OCC          E(Eh)            E(eV)
   0   2.0000     -20.596173      -560.4504
   1   2.0000     -11.300878      -307.5125
   2   2.0000     -11.245160      -305.9964
   3   2.0000     -11.242116      -305.9135
   4   2.0000     -11.239599      -305.8450
   5   2.0000     -11.238392      -305.8122
   6   2.0000     -11.227904      -305.5268
   7   2.0000     -11.223969      -305.4197
   8   2.0000     -11.223448      -305.4055
   9   2.0000      -1.404886       -38.2289
  10   2.0000      -1.154620       -31.4188
  11   2.0000      -1.067285       -29.0423
  12   2.0000      -1.005831       -27.3701
  13   2.0000      -0.982824       -26.7440
  14   2.0000      -0.902398       -24.5555
  15   2.0000      -0.827259       -22.5109
  16   2.0000      -0.810032       -22.0421
  17   2.0000      -0.709241       -19.2994
  18   2.0000      -0.672325       -18.2949
  19   2.0000      -0.649207       -17.6658
  20   2.0000      -0.607739       -16.5374
  21   2.0000      -0.604558       -16.4509
  22   2.0000      -0.571554       -15.5528
  23   2.0000      -0.568978       -15.4827
  24   2.0000      -0.561899       -15.2900
  25   2.0000      -0.559606       -15.2277
  26   2.0000      -0.554346       -15.0845
  27   2.0000      -0.526154       -14.3174
  28   2.0000      -0.499370       -13.5885
  29   2.0000      -0.481072       -13.0906
  30   2.0000      -0.464274       -12.6335
  31   2.0000      -0.325699        -8.8627
  32   2.0000      -0.305449        -8.3117
  33   0.0000       0.032969         0.8971
  34   0.0000       0.038343         1.0434
  35   0.0000       0.043273         1.1775
  36   0.0000       0.055149         1.5007
  37   0.0000       0.055823         1.5190

MULLIKEN ATOMIC CHARGES
-----------------------
   0 C :    0.353011
   1 C :    0.556419
   2 C :    0.498896
   3 C :    0.276309
   4 C :    0.308665
   5 C :   -0.276273
   6 C :    0.480385
   7 C :    0.418032
   8 O :   -0.928197
   9 H :   -0.615133
  10 H :   -0.634224
  11 H :   -0.628919
  12 H :   -0.000546
  13 H :    0.118935
  14 H :   -0.129830
  15 H :    0.165985
  16 H :    0.164995
  17 H :   -0.243123
  18 H :    0.114614
Sum of atomic charges:   -0.0000000

LOEWDIN ATOMIC CHARGES
----------------------
   0 C :    0.031376
   1 C :    0.039831
   2 C :    0.082382
   3 C :   -0.218439
   4 C :   -0.180339
   5 C :   -0.185845
   6 C :    0.175926
   7 C :    0.168123
   8 O :    0.194182
   9 H :   -0.001365
  10 H :    0.005374
  11 H :    0.013285
  12 H :   -0.011996
  13 H :   -0.006205
  14 H :   -0.015924
  15 H :   -0.005319
  16 H :   -0.005303
  17 H :   -0.014206
  18 H :   -0.065538

  Mayer bond orders larger than 0.100000
B(  0-C ,  1-C ) :   2.1962 B(  0-C ,  2-C ) :  -0.4608 B(  0-C ,  3-C ) :   1.9859
B(  0-C ,  4-C ) :  -0.2365 B(  0-C ,  5-C ) :   0.4792 B(  0-C ,  6-C ) :  -0.3042
B(  0-C ,  7-C ) :   0.2178 B(  0-C ,  9-H ) :  -0.4152 B(  0-C , 10-H ) :   0.2519
B(  0-C , 14-H ) :  -0.1125 B(  1-C ,  2-C ) :   0.5300 B(  1-C ,  3-C ) :  -0.4949
B(  1-C ,  4-C ) :   1.5453 B(  1-C ,  5-C ) :  -0.8595 B(  1-C ,  6-C ) :   0.2444
B(  1-C ,  7-C ) :  -0.1296 B(  1-C ,  9-H ) :   0.2944 B(  1-C , 10-H ) :  -0.7529
B(  2-C ,  3-C ) :   1.1915 B(  2-C ,  4-C ) :  -0.5579 B(  2-C ,  5-C ) :   2.8863
B(  2-C ,  6-C ) :  -0.5350 B(  2-C , 10-H ) :   0.1430 B(  2-C , 11-H ) :  -0.5714
B(  2-C , 12-H ) :  -0.1245 B(  3-C ,  4-C ) :   0.7519 B(  3-C ,  5-C ) :  -0.6831
B(  3-C ,  6-C ) :   1.5154 B(  3-C ,  9-H ) :   0.6743 B(  3-C , 10-H ) :  -0.2456
B(  3-C , 11-H ) :   0.3766 B(  3-C , 12-H ) :   0.2998 B(  3-C , 13-H ) :   0.2001
B(  3-C , 14-H ) :   0.4068 B(  4-C ,  5-C ) :   0.6966 B(  4-C ,  7-C ) :   1.1247
B(  4-C ,  8-O ) :   0.3921 B(  4-C ,  9-H ) :  -0.1129 B(  4-C , 10-H ) :   1.0933
B(  4-C , 11-H ) :  -0.1724 B(  4-C , 15-H ) :   0.2572 B(  4-C , 16-H ) :   0.2617
B(  4-C , 17-H ) :   0.3631 B(  5-C ,  6-C ) :   0.2363 B(  5-C ,  7-C ) :  -0.2461
B(  5-C ,  8-O ) :  -0.2537 B(  5-C , 11-H ) :   0.9265 B(  5-C , 15-H ) :  -0.1224
B(  5-C , 16-H ) :  -0.1242 B(  6-C , 12-H ) :   0.7799 B(  6-C , 13-H ) :   0.9225
B(  6-C , 14-H ) :   0.6514 B(  7-C , 15-H ) :   0.7926 B(  7-C , 16-H ) :   0.7906
B(  7-C , 17-H ) :   0.6952 B(  8-O , 18-H ) :   1.0408 B( 15-H , 16-H ) :  -0.1157

MP2 TOTAL ENERGY:     -384.994024337 Eh
FINAL SINGLE POINT ENERGY      -384.994024337482

DIPOLE MOMENT
-------------
                                X             Y             Z
Electronic contribution:     -1.47833       2.14878      -0.04501
Nuclear contribution   :      1.13678      -2.59024       0.05730
                        -----------------------------------------
Total Dipole Moment    :     -0.34156      -0.44145       0.01229
                        -----------------------------------------
Magnitude (a.u.)       :      0.55829
Magnitude (Debye)      :      1.41907

Rotational constants in cm-1:     0.102106     0.043308     0.030758
Rotational constants in MHz :  3061.061191  1298.354347   922.090230

                             ****ORCA TERMINATED NORMALLY****
TOTAL RUN TIME: 0 days 0 hours 1 minutes 31 seconds 92 msec
