                         Program Version 5.0.3 -  RELEASE  -
|  1> !ri-mp2 aug-cc-pvdz aug-cc-pvdz/c tightscf
|  2> %pal nprocs 16 end
|  3>
|  4> * xyz 0 1
|  5> C     -0.078596   -1.271647    0.190282
|  6> H     -0.054339   -1.558641    1.240593
|  7> H      0.112578   -2.148979   -0.421154
|  8> C     -1.395081   -0.560009   -0.160033
|  9> H     -2.213837   -0.949245    0.447464
| 10> H     -1.665515   -0.738605   -1.207404
| 11> C      0.114747    1.280233    0.074877
| 12> H      0.490719    2.289118    0.151229
| 13> C     -1.163345    0.913938    0.056193
| 14> H     -1.979816    1.619897    0.117529
| 15> S      1.277741   -0.043040   -0.081011
| 16> *
| 17>
| 18>                          ****END OF INPUT****

CARTESIAN COORDINATES (ANGSTROEM)
---------------------------------
  C     -0.078596   -1.271647    0.190282
  H     -0.054339   -1.558641    1.240593
  H      0.112578   -2.148979   -0.421154
  C     -1.395081   -0.560009   -0.160033
  H     -2.213837   -0.949245    0.447464
  H     -1.665515   -0.738605   -1.207404
  C      0.114747    1.280233    0.074877
  H      0.490719    2.289118    0.151229
  C     -1.163345    0.913938    0.056193
  H     -1.979816    1.619897    0.117529
  S      1.277741   -0.043040   -0.081011

 Total Charge           Charge          ....    0
 Multiplicity           Mult            ....    1
 Number of Electrons    NEL             ....   46
 Basis Dimension        Dim             ....  173

ORBITAL ENERGIES
----------------

  NO   OCC          E(Eh)            E(eV)
   0   2.0000     -91.952372     -2502.1512
   1   2.0000     -11.268445      -306.6300
   2   2.0000     -11.264343      -306.5183
   3   2.0000     -11.247577      -306.0621
   4   2.0000     -11.239893      -305.8530
   5   2.0000      -8.954512      -243.6647
   6   2.0000      -6.636344      -180.5841
   7   2.0000      -6.635194      -180.5528
   8   2.0000      -6.633015      -180.4935
   9   2.0000      -1.141414       -31.0594
  10   2.0000      -0.991665       -26.9846
  11   2.0000      -0.970673       -26.4134
  12   2.0000      -0.804271       -21.8853
  13   2.0000      -0.740533       -20.1509
  14   2.0000      -0.672124       -18.2894
  15   2.0000      -0.640063       -17.4170
  16   2.0000      -0.548099       -14.9145
  17   2.0000      -0.531152       -14.4534
  18   2.0000      -0.515118       -14.0171
  19   2.0000      -0.492572       -13.4036
  20   2.0000      -0.446655       -12.1541
  21   2.0000      -0.426286       -11.5998
  22   2.0000      -0.302913        -8.2427
  23   0.0000       0.035317         0.9610
  24   0.0000       0.044068         1.1991
  25   0.0000       0.050129         1.3641
  26   0.0000       0.051527         1.4021
  27   0.0000       0.064456         1.7539

MULLIKEN ATOMIC CHARGES
-----------------------
   0 C :    0.038688
   1 H :   -0.077586
   2 H :   -0.050179
   3 C :    0.157823
   4 H :   -0.036555
   5 H :   -0.043697
   6 C :    0.005584
   7 H :   -0.365308
   8 C :    0.267374
   9 H :   -0.297762
  10 S :    0.401618
Sum of atomic charges:    0.0000000

LOEWDIN ATOMIC CHARGES
----------------------
   0 C :   -0.230441
   1 H :   -0.033403
   2 H :   -0.036446
   3 C :   -0.080087
   4 H :    0.008479
   5 H :    0.013287
   6 C :   -0.309251
   7 H :   -0.051925
   8 C :   -0.089007
   9 H :   -0.013125
  10 S :    0.821920

  Mayer bond orders larger than 0.100000
B(  0-C ,  1-H ) :   0.8974 B(  0-C ,  2-H ) :   0.8685 B(  0-C ,  3-C ) :   1.2720
B(  0-C , 10-S ) :   1.1114 B(  1-H ,  3-C ) :   0.1056 B(  3-C ,  4-H ) :   0.7869
B(  3-C ,  5-H ) :   0.8181 B(  3-C ,  6-C ) :  -0.1013 B(  3-C ,  8-C ) :   1.2727
B(  3-C , 10-S ) :  -0.1265 B(  5-H ,  8-C ) :   0.1006 B(  6-C ,  7-H ) :   0.8746
B(  6-C ,  8-C ) :   2.2330 B(  6-C , 10-S ) :   0.8554 B(  7-H ,  8-C ) :   0.1245
B(  7-H , 10-S ) :  -0.1377 B(  8-C ,  9-H ) :   0.8245

MP2 TOTAL ENERGY:     -553.195772347 Eh
FINAL SINGLE POINT ENERGY      -553.195772347191

DIPOLE MOMENT
-------------
                                X             Y             Z
Electronic contribution:      4.63251       1.34115      -0.25933
Nuclear contribution   :     -5.36450      -1.48925       0.33168
                        -----------------------------------------
Total Dipole Moment    :     -0.73199      -0.14810       0.07234
                        -----------------------------------------
Magnitude (a.u.)       :      0.75032
Magnitude (Debye)      :      1.90716

Rotational constants in cm-1:     0.228172     0.155572     0.097297
Rotational constants in MHz :  6840.434941  4663.920063  2916.877626

                             ****ORCA TERMINATED NORMALLY****
TOTAL RUN TIME: 0 days 0 hours 0 minutes 44 seconds 101 msec
