                         Program Version 5.0.3 -  RELEASE  -
|  1> !ri-mp2 aug-cc-pvdz aug-cc-pvdz/c tightscf
|  2> %pal nprocs 16 end
|  3>
|  4> * xyz 0 1
|  5> Cl   -2.197577   -1.227671   -0.000015
|  6> F     3.325479    0.455112    0.000010
|  7> N     0.390768   -1.596694   -0.000015
|  8> N    -2.115599    2.508502    0.000021
|  9> C    -0.276396    0.703136    0.000006
| 10> C    -0.547172   -0.677505   -0.000008
| 11> C     2.027709    0.116243    0.000004
| 12> C     1.061483    1.100236    0.000013
| 13> C     1.668300   -1.221079   -0.000009
| 14> C    -1.309558    1.686129    0.000014
| 15> H     1.333645    2.145419    0.000023
| 16> H     2.423474   -1.996630   -0.000016
| 17> *
| 18>
| 19>                          ****END OF INPUT****

CARTESIAN COORDINATES (ANGSTROEM)
---------------------------------
  Cl    -2.197577   -1.227671   -0.000015
  F      3.325479    0.455112    0.000010
  N      0.390768   -1.596694   -0.000015
  N     -2.115599    2.508502    0.000021
  C     -0.276396    0.703136    0.000006
  C     -0.547172   -0.677505   -0.000008
  C      2.027709    0.116243    0.000004
  C      1.061483    1.100236    0.000013
  C      1.668300   -1.221079   -0.000009
  C     -1.309558    1.686129    0.000014
  H      1.333645    2.145419    0.000023
  H      2.423474   -1.996630   -0.000016

 Total Charge           Charge          ....    0
 Multiplicity           Mult            ....    1
 Number of Electrons    NEL             ....   78
 Basis Dimension        Dim             ....  252

ORBITAL ENERGIES
----------------

  NO   OCC          E(Eh)            E(eV)
   0   2.0000    -104.867902     -2853.6007
   1   2.0000     -26.364949      -717.4267
   2   2.0000     -15.630681      -425.3325
   3   2.0000     -15.607843      -424.7110
   4   2.0000     -11.392240      -309.9986
   5   2.0000     -11.379892      -309.6626
   6   2.0000     -11.339039      -308.5509
   7   2.0000     -11.334954      -308.4398
   8   2.0000     -11.324510      -308.1556
   9   2.0000     -11.308033      -307.7072
  10   2.0000     -10.594082      -288.2796
  11   2.0000      -8.061912      -219.3758
  12   2.0000      -8.058299      -219.2775
  13   2.0000      -8.058280      -219.2770
  14   2.0000      -1.675836       -45.6018
  15   2.0000      -1.340091       -36.4657
  16   2.0000      -1.251409       -34.0526
  17   2.0000      -1.175282       -31.9811
  18   2.0000      -1.162540       -31.6343
  19   2.0000      -1.069194       -29.0943
  20   2.0000      -0.961479       -26.1632
  21   2.0000      -0.906464       -24.6661
  22   2.0000      -0.826352       -22.4862
  23   2.0000      -0.784249       -21.3405
  24   2.0000      -0.739204       -20.1148
  25   2.0000      -0.737865       -20.0783
  26   2.0000      -0.722628       -19.6637
  27   2.0000      -0.673424       -18.3248
  28   2.0000      -0.635495       -17.2927
  29   2.0000      -0.624430       -16.9916
  30   2.0000      -0.600686       -16.3455
  31   2.0000      -0.579979       -15.7820
  32   2.0000      -0.525448       -14.2982
  33   2.0000      -0.505337       -13.7509
  34   2.0000      -0.504232       -13.7209
  35   2.0000      -0.485209       -13.2032
  36   2.0000      -0.470286       -12.7971
  37   2.0000      -0.428388       -11.6570
  38   2.0000      -0.377411       -10.2699
  39   0.0000       0.028648         0.7795
  40   0.0000       0.030557         0.8315
  41   0.0000       0.038478         1.0470
  42   0.0000       0.065783         1.7900
  43   0.0000       0.067488         1.8364

MULLIKEN ATOMIC CHARGES
-----------------------
   0 Cl:   -0.208085
   1 F :   -0.766986
   2 N :   -0.646965
   3 N :   -0.219744
   4 C :    2.427290
   5 C :   -0.545907
   6 C :    0.760860
   7 C :    0.193900
   8 C :    0.739180
   9 C :   -0.984643
  10 H :   -0.469984
  11 H :   -0.278916
Sum of atomic charges:   -0.0000000

LOEWDIN ATOMIC CHARGES
----------------------
   0 Cl:    0.637213
   1 F :    0.077360
   2 N :    0.021604
   3 N :    0.106742
   4 C :   -0.219016
   5 C :   -0.540536
   6 C :   -0.169987
   7 C :    0.126183
   8 C :    0.046999
   9 C :   -0.144593
  10 H :    0.036471
  11 H :    0.021560

  Mayer bond orders larger than 0.100000
B(  0-Cl,  2-N ) :  -0.1289 B(  0-Cl,  4-C ) :  -0.6655 B(  0-Cl,  5-C ) :   1.5680
B(  0-Cl,  7-C ) :   0.1027 B(  1-F ,  6-C ) :  -0.3559 B(  1-F ,  7-C ) :   0.3515
B(  1-F ,  8-C ) :   0.1728 B(  2-N ,  4-C ) :  -0.1443 B(  2-N ,  5-C ) :   1.3667
B(  2-N ,  8-C ) :   1.3556 B(  3-N ,  5-C ) :  -0.1046 B(  3-N ,  9-C ) :   2.4984
B(  4-C ,  5-C ) :  -0.4868 B(  4-C ,  6-C ) :   0.1498 B(  4-C ,  7-C ) :   1.4065
B(  4-C ,  8-C ) :   0.1279 B(  4-C ,  9-C ) :  -0.3837 B(  4-C , 10-H ) :   0.2245
B(  5-C ,  6-C ) :  -0.1160 B(  5-C ,  7-C ) :  -0.4410 B(  5-C ,  8-C ) :  -0.2093
B(  5-C ,  9-C ) :   0.1561 B(  6-C ,  7-C ) :   1.4863 B(  6-C ,  8-C ) :   1.3820
B(  6-C ,  9-C ) :   0.1347 B(  6-C , 10-H ) :   0.1431 B(  7-C ,  8-C ) :   0.2554
B(  7-C ,  9-C ) :  -0.3566 B(  7-C , 10-H ) :   0.3389 B(  8-C , 11-H ) :   0.7448

MP2 TOTAL ENERGY:     -897.698886412 Eh
FINAL SINGLE POINT ENERGY      -897.698886412486

DIPOLE MOMENT
-------------
                                X             Y             Z
Electronic contribution:     -1.99449      -1.77011      -0.00002
Nuclear contribution   :      3.37505       1.36719       0.00002
                        -----------------------------------------
Total Dipole Moment    :      1.38056      -0.40292      -0.00000
                        -----------------------------------------
Magnitude (a.u.)       :      1.43815
Magnitude (Debye)      :      3.65549

Rotational constants in cm-1:     0.062925     0.029297     0.019990
Rotational constants in MHz :  1886.444603   878.304324   599.284961

                             ****ORCA TERMINATED NORMALLY****
TOTAL RUN TIME: 0 days 0 hours 0 minutes 59 seconds 258 msec
