                         Program Version 5.0.3 -  RELEASE  -
|  1> !ri-mp2 aug-cc-pvdz aug-cc-pvdz/c tightscf
|  2> %pal nprocs 16 end
|  3>
|  4> * xyz 0 1
|  5> C     1.119788    1.638607     0.000000
|  6> C    -1.119788   -1.638607     0.000000
|  7> C    -0.125681    0.772915     0.000000
|  8> C     0.125681   -0.772915     0.000000
|  9> Cl   -1.119788    1.196241     1.462338
| 10> Cl   -1.119788    1.196241    -1.462338
| 11> Cl    1.119788   -1.196241    -1.462338
| 12> Cl    1.119788   -1.196241     1.462338
| 13> H     1.713774    1.435038     0.887218
| 14> H     1.713774    1.435038    -0.887218
| 15> H     0.825079    2.684199     0.000000
| 16> H    -0.825079   -2.684199     0.000000
| 17> H    -1.713774   -1.435038    -0.887218
| 18> H    -1.713774   -1.435038     0.887218
| 19> *
| 20>
| 21>                          ****END OF INPUT****

CARTESIAN COORDINATES (ANGSTROEM)
---------------------------------
  C      1.119788    1.638607    0.000000
  C     -1.119788   -1.638607    0.000000
  C     -0.125681    0.772915    0.000000
  C      0.125681   -0.772915    0.000000
  Cl    -1.119788    1.196241    1.462338
  Cl    -1.119788    1.196241   -1.462338
  Cl     1.119788   -1.196241   -1.462338
  Cl     1.119788   -1.196241    1.462338
  H      1.713774    1.435038    0.887218
  H      1.713774    1.435038   -0.887218
  H      0.825079    2.684199    0.000000
  H     -0.825079   -2.684199    0.000000
  H     -1.713774   -1.435038   -0.887218
  H     -1.713774   -1.435038    0.887218

 Total Charge           Charge          ....    0
 Multiplicity           Mult            ....    1
 Number of Electrons    NEL             ....   98
 Basis Dimension        Dim             ....  254

ORBITAL ENERGIES
----------------

  NO   OCC          E(Eh)            E(eV)
   0   2.0000    -104.851354     -2853.1504
   1   2.0000    -104.851354     -2853.1504
   2   2.0000    -104.851354     -2853.1504
   3   2.0000    -104.851354     -2853.1504
   4   2.0000     -11.410228      -310.4881
   5   2.0000     -11.409702      -310.4738
   6   2.0000     -11.258387      -306.3563
   7   2.0000     -11.258387      -306.3563
   8   2.0000     -10.577444      -287.8269
   9   2.0000     -10.577430      -287.8265
  10   2.0000     -10.577429      -287.8265
  11   2.0000     -10.577423      -287.8263
  12   2.0000      -8.045003      -218.9157
  13   2.0000      -8.045003      -218.9156
  14   2.0000      -8.045001      -218.9156
  15   2.0000      -8.045001      -218.9156
  16   2.0000      -8.041726      -218.8265
  17   2.0000      -8.041726      -218.8265
  18   2.0000      -8.041725      -218.8265
  19   2.0000      -8.041724      -218.8264
  20   2.0000      -8.041636      -218.8240
  21   2.0000      -8.041636      -218.8240
  22   2.0000      -8.041635      -218.8240
  23   2.0000      -8.041634      -218.8240
  24   2.0000      -1.246380       -33.9157
  25   2.0000      -1.171738       -31.8846
  26   2.0000      -1.109891       -30.2017
  27   2.0000      -1.088851       -29.6291
  28   2.0000      -1.024835       -27.8872
  29   2.0000      -1.014167       -27.5969
  30   2.0000      -0.894252       -24.3338
  31   2.0000      -0.754696       -20.5363
  32   2.0000      -0.677072       -18.4241
  33   2.0000      -0.655592       -17.8396
  34   2.0000      -0.643459       -17.5094
  35   2.0000      -0.628642       -17.1062
  36   2.0000      -0.577731       -15.7209
  37   2.0000      -0.576373       -15.6839
  38   2.0000      -0.549739       -14.9592
  39   2.0000      -0.546966       -14.8837
  40   2.0000      -0.523587       -14.2475
  41   2.0000      -0.485263       -13.2047
  42   2.0000      -0.482549       -13.1308
  43   2.0000      -0.478256       -13.0140
  44   2.0000      -0.472893       -12.8681
  45   2.0000      -0.461238       -12.5509
  46   2.0000      -0.457912       -12.4604
  47   2.0000      -0.445745       -12.1293
  48   2.0000      -0.431893       -11.7524
  49   0.0000       0.039899         1.0857
  50   0.0000       0.044495         1.2108
  51   0.0000       0.058126         1.5817
  52   0.0000       0.058732         1.5982
  53   0.0000       0.065324         1.7776

MULLIKEN ATOMIC CHARGES
-----------------------
   0 C :    0.900037
   1 C :    0.900037
   2 C :   -0.732027
   3 C :   -0.732027
   4 Cl:   -0.105333
   5 Cl:   -0.105333
   6 Cl:   -0.105333
   7 Cl:   -0.105333
   8 H :    0.021419
   9 H :    0.021419
  10 H :   -0.000183
  11 H :   -0.000183
  12 H :    0.021419
  13 H :    0.021419
Sum of atomic charges:    0.0000000

LOEWDIN ATOMIC CHARGES
----------------------
   0 C :    0.034420
   1 C :    0.034420
   2 C :   -1.045027
   3 C :   -1.045027
   4 Cl:    0.549455
   5 Cl:    0.549455
   6 Cl:    0.549455
   7 Cl:    0.549455
   8 H :   -0.035009
   9 H :   -0.035009
  10 H :   -0.018286
  11 H :   -0.018286
  12 H :   -0.035009
  13 H :   -0.035009

  Mayer bond orders larger than 0.100000
B(  0-C ,  2-C ) :   1.4153 B(  0-C ,  8-H ) :   0.8098 B(  0-C ,  9-H ) :   0.8098
B(  0-C , 10-H ) :   0.8330 B(  1-C ,  3-C ) :   1.4153 B(  1-C , 11-H ) :   0.8330
B(  1-C , 12-H ) :   0.8098 B(  1-C , 13-H ) :   0.8098 B(  2-C ,  3-C ) :   0.6842
B(  2-C ,  4-Cl) :   1.0284 B(  2-C ,  5-Cl) :   1.0284 B(  2-C ,  6-Cl) :  -0.2262
B(  2-C ,  7-Cl) :  -0.2262 B(  2-C ,  8-H ) :   0.1162 B(  2-C ,  9-H ) :   0.1162
B(  2-C , 10-H ) :   0.1345 B(  3-C ,  4-Cl) :  -0.2262 B(  3-C ,  5-Cl) :  -0.2262
B(  3-C ,  6-Cl) :   1.0284 B(  3-C ,  7-Cl) :   1.0284 B(  3-C , 11-H ) :   0.1345
B(  3-C , 12-H ) :   0.1162 B(  3-C , 13-H ) :   0.1162

MP2 TOTAL ENERGY:    -1994.196164839 Eh
FINAL SINGLE POINT ENERGY     -1994.196164839281

DIPOLE MOMENT
-------------
                                X             Y             Z
Electronic contribution:      0.00000      -0.00000      -0.00000
Nuclear contribution   :     -0.00000       0.00000       0.00000
                        -----------------------------------------
Total Dipole Moment    :      0.00000      -0.00000      -0.00000
                        -----------------------------------------
Magnitude (a.u.)       :      0.00000
Magnitude (Debye)      :      0.00000

Rotational constants in cm-1:     0.039261     0.032040     0.023755
Rotational constants in MHz :  1177.029254   960.526929   712.165308

                             ****ORCA TERMINATED NORMALLY****
TOTAL RUN TIME: 0 days 0 hours 1 minutes 3 seconds 420 msec
