                         Program Version 5.0.3 -  RELEASE  -
|  1> !ri-mp2 aug-cc-pvdz aug-cc-pvdz/c tightscf
|  2> %pal nprocs 16 end
|  3>
|  4> * xyz 0 1
|  5> O     -3.400108   -0.733442   -0.118928
|  6> O      3.400112   -0.733432   -0.118929
|  7> N      0.000000    1.083109    0.012803
|  8> C     -1.191775    0.449091   -0.005616
|  9> C      1.191770    0.449084   -0.005610
| 10> C     -2.247386   -0.118373    0.033472
| 11> C      2.247401   -0.118342    0.033478
| 12> H     -3.781620   -0.952804    0.740381
| 13> H      3.781529   -0.952982    0.740374
| 14> H      0.000002    2.090260   -0.001864
| 15> *
| 16>
| 17>                          ****END OF INPUT****

CARTESIAN COORDINATES (ANGSTROEM)
---------------------------------
  O     -3.400108   -0.733442   -0.118928
  O      3.400112   -0.733432   -0.118929
  N      0.000000    1.083109    0.012803
  C     -1.191775    0.449091   -0.005616
  C      1.191770    0.449084   -0.005610
  C     -2.247386   -0.118373    0.033472
  C      2.247401   -0.118342    0.033478
  H     -3.781620   -0.952804    0.740381
  H      3.781529   -0.952982    0.740374
  H      0.000002    2.090260   -0.001864

 Total Charge           Charge          ....    0
 Multiplicity           Mult            ....    1
 Number of Electrons    NEL             ....   50
 Basis Dimension        Dim             ....  188

ORBITAL ENERGIES
----------------

  NO   OCC          E(Eh)            E(eV)
   0   2.0000     -20.638118      -561.5917
   1   2.0000     -20.638117      -561.5917
   2   2.0000     -15.631304      -425.3494
   3   2.0000     -11.291376      -307.2540
   4   2.0000     -11.291375      -307.2539
   5   2.0000     -11.267545      -306.6055
   6   2.0000     -11.267528      -306.6050
   7   2.0000      -1.441118       -39.2148
   8   2.0000      -1.441080       -39.2138
   9   2.0000      -1.276348       -34.7312
  10   2.0000      -1.035300       -28.1719
  11   2.0000      -0.998077       -27.1591
  12   2.0000      -0.831182       -22.6176
  13   2.0000      -0.806714       -21.9518
  14   2.0000      -0.767976       -20.8977
  15   2.0000      -0.753694       -20.5091
  16   2.0000      -0.662548       -18.0289
  17   2.0000      -0.660232       -17.9658
  18   2.0000      -0.610189       -16.6041
  19   2.0000      -0.609551       -16.5867
  20   2.0000      -0.569353       -15.4929
  21   2.0000      -0.401683       -10.9304
  22   2.0000      -0.384060       -10.4508
  23   2.0000      -0.370126       -10.0716
  24   2.0000      -0.315989        -8.5985
  25   0.0000       0.028270         0.7693
  26   0.0000       0.034038         0.9262
  27   0.0000       0.043445         1.1822
  28   0.0000       0.095505         2.5988
  29   0.0000       0.098219         2.6727

MULLIKEN ATOMIC CHARGES
-----------------------
   0 O :   -0.592706
   1 O :   -0.592705
   2 N :   -0.242351
   3 C :    0.091825
   4 C :    0.091865
   5 C :    0.445945
   6 C :    0.445924
   7 H :    0.185792
   8 H :    0.185792
   9 H :   -0.019382
Sum of atomic charges:    0.0000000

LOEWDIN ATOMIC CHARGES
----------------------
   0 O :    0.177897
   1 O :    0.177896
   2 N :    0.023331
   3 C :   -0.070232
   4 C :   -0.070233
   5 C :   -0.101851
   6 C :   -0.101850
   7 H :   -0.025745
   8 H :   -0.025745
   9 H :    0.016532

  Mayer bond orders larger than 0.100000
B(  0-O ,  5-C ) :   0.7122 B(  0-O ,  7-H ) :   1.0125 B(  1-O ,  6-C ) :   0.7122
B(  1-O ,  8-H ) :   1.0125 B(  2-N ,  3-C ) :   1.1182 B(  2-N ,  4-C ) :   1.1182
B(  2-N ,  5-C ) :  -0.1551 B(  2-N ,  6-C ) :  -0.1551 B(  2-N ,  9-H ) :   0.9938
B(  3-C ,  5-C ) :   2.5140 B(  4-C ,  6-C ) :   2.5140

MP2 TOTAL ENERGY:     -358.310921810 Eh
FINAL SINGLE POINT ENERGY      -358.310921809610

DIPOLE MOMENT
-------------
                                X             Y             Z
Electronic contribution:      0.00002       0.01460      -0.29589
Nuclear contribution   :     -0.00009       0.16223       1.42705
                        -----------------------------------------
Total Dipole Moment    :     -0.00007       0.17683       1.13116
                        -----------------------------------------
Magnitude (a.u.)       :      1.14490
Magnitude (Debye)      :      2.91011

Rotational constants in cm-1:     0.361552     0.030335     0.028129
Rotational constants in MHz : 10839.053858   909.414850   843.276854

                             ****ORCA TERMINATED NORMALLY****
TOTAL RUN TIME: 0 days 0 hours 0 minutes 37 seconds 559 msec
