                         Program Version 5.0.3 -  RELEASE  -
|  1> !ri-mp2 aug-cc-pvdz aug-cc-pvdz/c tightscf
|  2> %pal nprocs 16 end
|  3>
|  4> * xyz 0 1
|  5> C      1.299716   -1.582465    0.000000
|  6> C     -0.088674   -1.564388    0.000000
|  7> C      1.965699   -0.367634    0.000000
|  8> C     -0.770283   -0.353502    0.000000
|  9> C      0.000000    0.825444    0.000000
| 10> C     -2.273731   -0.308186    0.000000
| 11> C     -0.652970    2.180273    0.000000
| 12> N      1.335751    0.807581    0.000000
| 13> H      1.849802   -2.513184    0.000000
| 14> H     -0.646412   -2.492987    0.000000
| 15> H      3.049088   -0.329331    0.000000
| 16> H     -2.693885   -1.312990    0.000000
| 17> H     -2.659868    0.216687    0.876553
| 18> H     -2.659868    0.216687   -0.876553
| 19> H     -1.290044    2.316709    0.877173
| 20> H      0.112433    2.951380    0.000000
| 21> H     -1.290044    2.316709   -0.877173
| 22> *
| 23>
| 24>                          ****END OF INPUT****

CARTESIAN COORDINATES (ANGSTROEM)
---------------------------------
  C      1.299716   -1.582465    0.000000
  C     -0.088674   -1.564388    0.000000
  C      1.965699   -0.367634    0.000000
  C     -0.770283   -0.353502    0.000000
  C      0.000000    0.825444    0.000000
  C     -2.273731   -0.308186    0.000000
  C     -0.652970    2.180273    0.000000
  N      1.335751    0.807581    0.000000
  H      1.849802   -2.513184    0.000000
  H     -0.646412   -2.492987    0.000000
  H      3.049088   -0.329331    0.000000
  H     -2.693885   -1.312990    0.000000
  H     -2.659868    0.216687    0.876553
  H     -2.659868    0.216687   -0.876553
  H     -1.290044    2.316709    0.877173
  H      0.112433    2.951380    0.000000
  H     -1.290044    2.316709   -0.877173

 Total Charge           Charge          ....    0
 Multiplicity           Mult            ....    1
 Number of Electrons    NEL             ....   58
 Basis Dimension        Dim             ....  265

ORBITAL ENERGIES
----------------

  NO   OCC          E(Eh)            E(eV)
   0   2.0000     -15.562847      -423.4866
   1   2.0000     -11.279498      -306.9308
   2   2.0000     -11.270003      -306.6724
   3   2.0000     -11.253615      -306.2264
   4   2.0000     -11.245826      -306.0145
   5   2.0000     -11.237269      -305.7816
   6   2.0000     -11.236753      -305.7676
   7   2.0000     -11.226343      -305.4843
   8   2.0000      -1.257864       -34.2282
   9   2.0000      -1.099329       -29.9143
  10   2.0000      -1.065884       -29.0042
  11   2.0000      -0.975569       -26.5466
  12   2.0000      -0.933531       -25.4027
  13   2.0000      -0.836841       -22.7716
  14   2.0000      -0.815599       -22.1936
  15   2.0000      -0.690414       -18.7871
  16   2.0000      -0.675366       -18.3776
  17   2.0000      -0.618178       -16.8215
  18   2.0000      -0.601723       -16.3737
  19   2.0000      -0.574905       -15.6440
  20   2.0000      -0.564863       -15.3707
  21   2.0000      -0.556583       -15.1454
  22   2.0000      -0.553675       -15.0663
  23   2.0000      -0.530735       -14.4420
  24   2.0000      -0.512797       -13.9539
  25   2.0000      -0.497798       -13.5458
  26   2.0000      -0.406227       -11.0540
  27   2.0000      -0.372878       -10.1465
  28   2.0000      -0.325570        -8.8592
  29   0.0000       0.033277         0.9055
  30   0.0000       0.038927         1.0593
  31   0.0000       0.043442         1.1821
  32   0.0000       0.054467         1.4821
  33   0.0000       0.056920         1.5489

MULLIKEN ATOMIC CHARGES
-----------------------
   0 C :    0.528508
   1 C :    0.509885
   2 C :    0.519056
   3 C :   -0.010758
   4 C :   -0.752389
   5 C :    0.489754
   6 C :    0.649991
   7 N :   -0.770670
   8 H :   -0.432520
   9 H :   -0.559662
  10 H :   -0.357596
  11 H :   -0.263568
  12 H :    0.152697
  13 H :    0.152697
  14 H :    0.150802
  15 H :   -0.157028
  16 H :    0.150802
Sum of atomic charges:    0.0000000

LOEWDIN ATOMIC CHARGES
----------------------
   0 C :    0.014516
   1 C :    0.048476
   2 C :   -0.035350
   3 C :   -0.170333
   4 C :   -0.212700
   5 C :    0.172062
   6 C :    0.181850
   7 N :    0.058219
   8 H :   -0.002848
   9 H :    0.009881
  10 H :   -0.000484
  11 H :   -0.015690
  12 H :   -0.008313
  13 H :   -0.008313
  14 H :   -0.008818
  15 H :   -0.013338
  16 H :   -0.008818

  Mayer bond orders larger than 0.100000
B(  0-C ,  1-C ) :   1.4826 B(  0-C ,  2-C ) :   1.3969 B(  0-C ,  3-C ) :   0.1140
B(  0-C ,  4-C ) :   0.1376 B(  0-C ,  5-C ) :   0.2331 B(  0-C ,  7-N ) :  -0.1417
B(  0-C ,  8-H ) :   0.3721 B(  0-C ,  9-H ) :   0.1539 B(  1-C ,  3-C ) :   1.7262
B(  1-C ,  4-C ) :  -0.5069 B(  1-C ,  5-C ) :  -0.5102 B(  1-C ,  6-C ) :   0.1382
B(  1-C ,  8-H ) :   0.2548 B(  2-C ,  3-C ) :  -0.1006 B(  2-C ,  4-C ) :   0.1191
B(  2-C ,  6-C ) :   0.1276 B(  2-C ,  7-N ) :   1.3349 B(  2-C , 10-H ) :   0.7570
B(  3-C ,  4-C ) :   1.5817 B(  3-C ,  5-C ) :   1.4194 B(  3-C ,  6-C ) :  -0.1582
B(  3-C ,  8-H ) :   0.1180 B(  3-C ,  9-H ) :   0.3965 B(  3-C , 11-H ) :   0.4634
B(  3-C , 12-H ) :   0.1212 B(  3-C , 13-H ) :   0.1212 B(  4-C ,  5-C ) :  -0.2063
B(  4-C ,  6-C ) :   1.1923 B(  4-C ,  7-N ) :   1.3308 B(  4-C , 10-H ) :   0.1599
B(  4-C , 15-H ) :   0.3485 B(  5-C , 11-H ) :   0.5148 B(  5-C , 12-H ) :   0.9003
B(  5-C , 13-H ) :   0.9003 B(  6-C , 14-H ) :   0.8419 B(  6-C , 15-H ) :   0.6533
B(  6-C , 16-H ) :   0.8419 B(  7-N , 10-H ) :  -0.1088

MP2 TOTAL ENERGY:     -325.950489512 Eh
FINAL SINGLE POINT ENERGY      -325.950489512079

DIPOLE MOMENT
-------------
                                X             Y             Z
Electronic contribution:      5.64374      -1.94748      -0.00000
Nuclear contribution   :     -6.32384       1.39715       0.00000
                        -----------------------------------------
Total Dipole Moment    :     -0.68011      -0.55033      -0.00000
                        -----------------------------------------
Magnitude (a.u.)       :      0.87488
Magnitude (Debye)      :      2.22377

Rotational constants in cm-1:     0.106741     0.075077     0.044802
Rotational constants in MHz :  3200.000305  2250.763110  1343.138086

                             ****ORCA TERMINATED NORMALLY****
TOTAL RUN TIME: 0 days 0 hours 1 minutes 21 seconds 781 msec
