                         Program Version 5.0.3 -  RELEASE  -
|  1> !ri-mp2 aug-cc-pvdz aug-cc-pvdz/c tightscf
|  2> %pal nprocs 16 end
|  3>
|  4> * xyz 0 1
|  5> C      1.212934   -2.830317    0.000000
|  6> C     -1.715980    2.860634    0.000000
|  7> C      0.924480   -0.299270    0.000000
|  8> C      0.000000    0.830193    0.000000
|  9> C      0.223042   -1.668570    0.000000
| 10> C     -0.778310    1.745812    0.000000
| 11> H      0.694512   -3.789693    0.000000
| 12> H     -2.748510    2.506561    0.000000
| 13> H      1.857339   -2.802347    0.881179
| 14> H      1.857339   -2.802347   -0.881179
| 15> H     -0.428117   -1.730803   -0.874251
| 16> H     -0.428117   -1.730803    0.874251
| 17> H      1.579877   -0.230796   -0.873928
| 18> H      1.579877   -0.230796    0.873928
| 19> H     -1.580599    3.490066    0.881436
| 20> H     -1.580599    3.490066   -0.881436
| 21> *
| 22>
| 23>                          ****END OF INPUT****

CARTESIAN COORDINATES (ANGSTROEM)
---------------------------------
  C      1.212934   -2.830317    0.000000
  C     -1.715980    2.860634    0.000000
  C      0.924480   -0.299270    0.000000
  C      0.000000    0.830193    0.000000
  C      0.223042   -1.668570    0.000000
  C     -0.778310    1.745812    0.000000
  H      0.694512   -3.789693    0.000000
  H     -2.748510    2.506561    0.000000
  H      1.857339   -2.802347    0.881179
  H      1.857339   -2.802347   -0.881179
  H     -0.428117   -1.730803   -0.874251
  H     -0.428117   -1.730803    0.874251
  H      1.579877   -0.230796   -0.873928
  H      1.579877   -0.230796    0.873928
  H     -1.580599    3.490066    0.881436
  H     -1.580599    3.490066   -0.881436

 Total Charge           Charge          ....    0
 Multiplicity           Mult            ....    1
 Number of Electrons    NEL             ....   46
 Basis Dimension        Dim             ....  228

ORBITAL ENERGIES
----------------

  NO   OCC          E(Eh)            E(eV)
   0   2.0000     -11.248021      -306.0742
   1   2.0000     -11.247596      -306.0626
   2   2.0000     -11.229929      -305.5819
   3   2.0000     -11.222526      -305.3805
   4   2.0000     -11.221647      -305.3565
   5   2.0000     -11.218023      -305.2579
   6   2.0000      -1.087123       -29.5821
   7   2.0000      -1.041663       -28.3451
   8   2.0000      -0.976589       -26.5743
   9   2.0000      -0.913433       -24.8558
  10   2.0000      -0.816312       -22.2130
  11   2.0000      -0.660881       -17.9835
  12   2.0000      -0.638547       -17.3757
  13   2.0000      -0.609043       -16.5729
  14   2.0000      -0.583515       -15.8783
  15   2.0000      -0.581586       -15.8258
  16   2.0000      -0.568585       -15.4720
  17   2.0000      -0.549768       -14.9599
  18   2.0000      -0.506791       -13.7905
  19   2.0000      -0.488626       -13.2962
  20   2.0000      -0.478161       -13.0114
  21   2.0000      -0.359984        -9.7957
  22   2.0000      -0.359844        -9.7918
  23   0.0000       0.035969         0.9788
  24   0.0000       0.039472         1.0741
  25   0.0000       0.048461         1.3187
  26   0.0000       0.050506         1.3743
  27   0.0000       0.059564         1.6208

MULLIKEN ATOMIC CHARGES
-----------------------
   0 C :    0.490340
   1 C :    0.151619
   2 C :   -0.103065
   3 C :    0.177664
   4 C :    0.313942
   5 C :   -0.931795
   6 H :   -0.069481
   7 H :    0.112087
   8 H :   -0.078766
   9 H :   -0.078766
  10 H :   -0.174404
  11 H :   -0.174404
  12 H :    0.058260
  13 H :    0.058260
  14 H :    0.124255
  15 H :    0.124255
Sum of atomic charges:   -0.0000000

LOEWDIN ATOMIC CHARGES
----------------------
   0 C :    0.131192
   1 C :    0.112217
   2 C :   -0.063770
   3 C :   -0.025303
   4 C :   -0.063861
   5 C :   -0.061150
   6 H :   -0.020626
   7 H :   -0.012169
   8 H :   -0.019330
   9 H :   -0.019330
  10 H :    0.013176
  11 H :    0.013176
  12 H :    0.020170
  13 H :    0.020170
  14 H :   -0.012281
  15 H :   -0.012281

  Mayer bond orders larger than 0.100000
B(  0-C ,  4-C ) :   1.1581 B(  0-C ,  6-H ) :   0.9103 B(  0-C ,  8-H ) :   0.9297
B(  0-C ,  9-H ) :   0.9297 B(  1-C ,  3-C ) :   0.3254 B(  1-C ,  5-C ) :   1.1585
B(  1-C ,  7-H ) :   0.8040 B(  1-C , 14-H ) :   0.7922 B(  1-C , 15-H ) :   0.7922
B(  2-C ,  3-C ) :   1.2516 B(  2-C ,  4-C ) :   1.3026 B(  2-C ,  5-C ) :   0.3723
B(  2-C , 12-H ) :   0.8021 B(  2-C , 13-H ) :   0.8021 B(  3-C ,  4-C ) :  -0.1553
B(  3-C ,  5-C ) :   2.5891 B(  3-C , 12-H ) :   0.1939 B(  3-C , 13-H ) :   0.1939
B(  3-C , 14-H ) :  -0.1140 B(  3-C , 15-H ) :  -0.1140 B(  4-C , 10-H ) :   0.7572
B(  4-C , 11-H ) :   0.7572 B(  5-C ,  7-H ) :   0.2922 B(  5-C , 12-H ) :  -0.1036
B(  5-C , 13-H ) :  -0.1036 B(  5-C , 14-H ) :   0.3132 B(  5-C , 15-H ) :   0.3132

MP2 TOTAL ENERGY:     -233.855801356 Eh
FINAL SINGLE POINT ENERGY      -233.855801356345

DIPOLE MOMENT
-------------
                                X             Y             Z
Electronic contribution:     -0.89408       3.98233      -0.00000
Nuclear contribution   :      0.84450      -4.02887       0.00000
                        -----------------------------------------
Total Dipole Moment    :     -0.04958      -0.04655      -0.00000
                        -----------------------------------------
Magnitude (a.u.)       :      0.06801
Magnitude (Debye)      :      0.17286

Rotational constants in cm-1:     0.603832     0.039924     0.038511
Rotational constants in MHz : 18102.419163  1196.888311  1154.525630

                             ****ORCA TERMINATED NORMALLY****
TOTAL RUN TIME: 0 days 0 hours 0 minutes 36 seconds 312 msec
