                         Program Version 5.0.3 -  RELEASE  -
|  1> !ri-mp2 aug-cc-pvdz aug-cc-pvdz/c tightscf
|  2> %pal nprocs 16 end
|  3>
|  4> * xyz 0 1
|  5> C      2.233334   -0.116230    0.218263
|  6> C      1.430378   -1.225938   -0.017669
|  7> C      0.433277    1.226506   -0.053715
|  8> C     -0.386763    0.119094   -0.289925
|  9> C     -2.716909   -0.220171    0.627717
| 10> C     -1.861257    0.258329   -0.552378
| 11> N      1.734306    1.117813    0.199732
| 12> N      0.129285   -1.113947   -0.269666
| 13> H      3.291804   -0.223926    0.422137
| 14> H      1.847245   -2.226480   -0.005825
| 15> H      0.020691    2.228991   -0.073988
| 16> H     -2.497551   -1.261629    0.860291
| 17> H     -3.777994   -0.138114    0.391141
| 18> H     -2.522970    0.375105    1.521205
| 19> H     -2.091480    1.300250   -0.781301
| 20> H     -2.107242   -0.330802   -1.437880
| 21> *
| 22>
| 23>                          ****END OF INPUT****

CARTESIAN COORDINATES (ANGSTROEM)
---------------------------------
  C      2.233334   -0.116230    0.218263
  C      1.430378   -1.225938   -0.017669
  C      0.433277    1.226506   -0.053715
  C     -0.386763    0.119094   -0.289925
  C     -2.716909   -0.220171    0.627717
  C     -1.861257    0.258329   -0.552378
  N      1.734306    1.117813    0.199732
  N      0.129285   -1.113947   -0.269666
  H      3.291804   -0.223926    0.422137
  H      1.847245   -2.226480   -0.005825
  H      0.020691    2.228991   -0.073988
  H     -2.497551   -1.261629    0.860291
  H     -3.777994   -0.138114    0.391141
  H     -2.522970    0.375105    1.521205
  H     -2.091480    1.300250   -0.781301
  H     -2.107242   -0.330802   -1.437880

 Total Charge           Charge          ....    0
 Multiplicity           Mult            ....    1
 Number of Electrons    NEL             ....   58
 Basis Dimension        Dim             ....  256

ORBITAL ENERGIES
----------------

  NO   OCC          E(Eh)            E(eV)
   0   2.0000     -15.597006      -424.4161
   1   2.0000     -15.591986      -424.2795
   2   2.0000     -11.290135      -307.2202
   3   2.0000     -11.286819      -307.1300
   4   2.0000     -11.282274      -307.0063
   5   2.0000     -11.282078      -307.0010
   6   2.0000     -11.241941      -305.9088
   7   2.0000     -11.227778      -305.5234
   8   2.0000      -1.309837       -35.6425
   9   2.0000      -1.220823       -33.2203
  10   2.0000      -1.086750       -29.5720
  11   2.0000      -1.014643       -27.6098
  12   2.0000      -0.908132       -24.7115
  13   2.0000      -0.893511       -24.3137
  14   2.0000      -0.828394       -22.5417
  15   2.0000      -0.714995       -19.4560
  16   2.0000      -0.709393       -19.3036
  17   2.0000      -0.659716       -17.9518
  18   2.0000      -0.613008       -16.6808
  19   2.0000      -0.602470       -16.3940
  20   2.0000      -0.579727       -15.7752
  21   2.0000      -0.559996       -15.2383
  22   2.0000      -0.523241       -14.2381
  23   2.0000      -0.506862       -13.7924
  24   2.0000      -0.499893       -13.6028
  25   2.0000      -0.491773       -13.3818
  26   2.0000      -0.429351       -11.6832
  27   2.0000      -0.402377       -10.9492
  28   2.0000      -0.346657        -9.4330
  29   0.0000       0.034795         0.9468
  30   0.0000       0.039071         1.0632
  31   0.0000       0.045209         1.2302
  32   0.0000       0.050083         1.3628
  33   0.0000       0.055855         1.5199

MULLIKEN ATOMIC CHARGES
-----------------------
   0 C :    0.520195
   1 C :    0.832179
   2 C :    0.496565
   3 C :    0.586689
   4 C :    0.331587
   5 C :    0.145340
   6 N :   -0.711555
   7 N :   -0.958389
   8 H :   -0.267206
   9 H :   -0.295460
  10 H :   -0.335478
  11 H :   -0.040265
  12 H :   -0.094882
  13 H :   -0.085562
  14 H :   -0.106468
  15 H :   -0.017289
Sum of atomic charges:   -0.0000000

LOEWDIN ATOMIC CHARGES
----------------------
   0 C :   -0.023743
   1 C :   -0.015238
   2 C :    0.017263
   3 C :   -0.216130
   4 C :    0.148055
   5 C :   -0.024508
   6 N :    0.048964
   7 N :    0.078796
   8 H :   -0.001476
   9 H :    0.001337
  10 H :    0.005375
  11 H :   -0.016265
  12 H :   -0.019249
  13 H :   -0.016451
  14 H :    0.012953
  15 H :    0.020318

  Mayer bond orders larger than 0.100000
B(  0-C ,  1-C ) :   1.2330 B(  0-C ,  2-C ) :  -0.1239 B(  0-C ,  3-C ) :   0.1114
B(  0-C ,  6-N ) :   1.3385 B(  0-C ,  8-H ) :   0.9915 B(  1-C ,  7-N ) :   1.2124
B(  1-C ,  9-H ) :   0.8969 B(  2-C ,  3-C ) :   0.9422 B(  2-C ,  6-N ) :   1.1563
B(  2-C , 10-H ) :   1.0152 B(  3-C ,  5-C ) :   1.1012 B(  3-C ,  7-N ) :   1.2437
B(  3-C , 10-H ) :  -0.2014 B(  4-C ,  5-C ) :   1.1871 B(  4-C , 11-H ) :   0.9489
B(  4-C , 12-H ) :   0.9145 B(  4-C , 13-H ) :   0.9589 B(  5-C , 14-H ) :   0.7873
B(  5-C , 15-H ) :   0.8388

MP2 TOTAL ENERGY:     -341.967322838 Eh
FINAL SINGLE POINT ENERGY      -341.967322838036

DIPOLE MOMENT
-------------
                                X             Y             Z
Electronic contribution:      7.62495       0.21918      -0.92616
Nuclear contribution   :     -7.88331      -0.27859       0.90186
                        -----------------------------------------
Total Dipole Moment    :     -0.25836      -0.05941      -0.02430
                        -----------------------------------------
Magnitude (a.u.)       :      0.26622
Magnitude (Debye)      :      0.67667

Rotational constants in cm-1:     0.162126     0.051286     0.042427
Rotational constants in MHz :  4860.417498  1537.506069  1271.921699

                             ****ORCA TERMINATED NORMALLY****
TOTAL RUN TIME: 0 days 0 hours 0 minutes 58 seconds 260 msec
