                         Program Version 5.0.3 -  RELEASE  -
|  1> !ri-mp2 aug-cc-pvdz aug-cc-pvdz/c tightscf
|  2> %pal nprocs 16 end
|  3>
|  4> * xyz 0 1
|  5> S     2.590627   -0.398383     0.022037
|  6> O    -1.809480   -1.599735    -0.671452
|  7> O    -2.549580    0.115934     0.577774
|  8> O    -0.025063    2.199939    -0.680860
|  9> N    -0.181727    1.093324    -1.068444
| 10> N    -0.043483    0.595039     1.433653
| 11> C    -0.211472    0.021895     0.148750
| 12> C    -1.585305   -0.610668    -0.028144
| 13> C     0.874555   -0.989357    -0.229063
| 14> H     2.628680   -0.584070     1.353771
| 15> H    -3.394862   -0.321472     0.396688
| 16> H    -0.824033    1.185978     1.685952
| 17> H     0.803667    1.150378     1.462821
| 18> H     0.792491   -1.224457    -1.287032
| 19> H     0.726816   -1.911112     0.325783
| 20> *
| 21>
| 22>                          ****END OF INPUT****

CARTESIAN COORDINATES (ANGSTROEM)
---------------------------------
  S      2.590627   -0.398383    0.022037
  O     -1.809480   -1.599735   -0.671452
  O     -2.549580    0.115934    0.577774
  O     -0.025063    2.199939   -0.680860
  N     -0.181727    1.093324   -1.068444
  N     -0.043483    0.595039    1.433653
  C     -0.211472    0.021895    0.148750
  C     -1.585305   -0.610668   -0.028144
  C      0.874555   -0.989357   -0.229063
  H      2.628680   -0.584070    1.353771
  H     -3.394862   -0.321472    0.396688
  H     -0.824033    1.185978    1.685952
  H      0.803667    1.150378    1.462821
  H      0.792491   -1.224457   -1.287032
  H      0.726816   -1.911112    0.325783

 Total Charge           Charge          ....    0
 Multiplicity           Mult            ....    1
 Number of Electrons    NEL             ....   78
 Basis Dimension        Dim             ....  265

ORBITAL ENERGIES
----------------

  NO   OCC          E(Eh)            E(eV)
   0   2.0000     -91.974154     -2502.7440
   1   2.0000     -20.666543      -562.3652
   2   2.0000     -20.649207      -561.8935
   3   2.0000     -20.591339      -560.3188
   4   2.0000     -15.729744      -428.0281
   5   2.0000     -15.585478      -424.1024
   6   2.0000     -11.424804      -310.8847
   7   2.0000     -11.346866      -308.7639
   8   2.0000     -11.292467      -307.2837
   9   2.0000      -8.975496      -244.2357
  10   2.0000      -6.657540      -181.1609
  11   2.0000      -6.656212      -181.1247
  12   2.0000      -6.654151      -181.0687
  13   2.0000      -1.560426       -42.4614
  14   2.0000      -1.499473       -40.8027
  15   2.0000      -1.398064       -38.0432
  16   2.0000      -1.247878       -33.9565
  17   2.0000      -1.089141       -29.6370
  18   2.0000      -1.019775       -27.7495
  19   2.0000      -0.928258       -25.2592
  20   2.0000      -0.894206       -24.3326
  21   2.0000      -0.800190       -21.7743
  22   2.0000      -0.749478       -20.3943
  23   2.0000      -0.740869       -20.1601
  24   2.0000      -0.730202       -19.8698
  25   2.0000      -0.690042       -18.7770
  26   2.0000      -0.668472       -18.1900
  27   2.0000      -0.653825       -17.7915
  28   2.0000      -0.629639       -17.1333
  29   2.0000      -0.609282       -16.5794
  30   2.0000      -0.604662       -16.4537
  31   2.0000      -0.572596       -15.5811
  32   2.0000      -0.537987       -14.6394
  33   2.0000      -0.512808       -13.9542
  34   2.0000      -0.486918       -13.2497
  35   2.0000      -0.479208       -13.0399
  36   2.0000      -0.468413       -12.7462
  37   2.0000      -0.390464       -10.6251
  38   2.0000      -0.372240       -10.1292
  39   0.0000       0.030176         0.8211
  40   0.0000       0.040264         1.0956
  41   0.0000       0.048834         1.3288
  42   0.0000       0.060566         1.6481
  43   0.0000       0.061971         1.6863

MULLIKEN ATOMIC CHARGES
-----------------------
   0 S :    0.288591
   1 O :   -0.712155
   2 O :   -0.742183
   3 O :   -0.551939
   4 N :   -0.050049
   5 N :   -0.374822
   6 C :    0.096216
   7 C :    1.446042
   8 C :    0.239791
   9 H :    0.143858
  10 H :    0.219936
  11 H :    0.027607
  12 H :    0.042039
  13 H :    0.049505
  14 H :   -0.122437
Sum of atomic charges:    0.0000000

LOEWDIN ATOMIC CHARGES
----------------------
   0 S :    0.763514
   1 O :    0.075031
   2 O :    0.221694
   3 O :    0.049072
   4 N :    0.057479
   5 N :    0.216198
   6 C :   -0.449773
   7 C :   -0.301741
   8 C :   -0.269109
   9 H :   -0.214403
  10 H :   -0.007423
  11 H :   -0.041980
  12 H :   -0.057843
  13 H :   -0.025244
  14 H :   -0.015472

  Mayer bond orders larger than 0.100000
B(  0-S ,  6-C ) :  -0.3943 B(  0-S ,  8-C ) :   1.2768 B(  0-S ,  9-H ) :   0.9320
B(  0-S , 13-H ) :  -0.1126 B(  1-O ,  6-C ) :   0.1416 B(  1-O ,  7-C ) :   1.3374
B(  2-O ,  7-C ) :   0.4306 B(  2-O , 10-H ) :   1.0260 B(  3-O ,  4-N ) :   1.5069
B(  4-N ,  5-N ) :   0.1159 B(  4-N ,  6-C ) :   0.6831 B(  4-N ,  8-C ) :  -0.1258
B(  5-N ,  6-C ) :   0.8159 B(  5-N , 11-H ) :   0.9969 B(  5-N , 12-H ) :   0.9853
B(  6-C ,  7-C ) :   0.7255 B(  6-C ,  8-C ) :   0.9187 B(  6-C , 13-H ) :   0.2534
B(  6-C , 14-H ) :   0.1644 B(  7-C ,  8-C ) :   0.1777 B(  8-C , 13-H ) :   0.7125
B(  8-C , 14-H ) :   0.9460

MP2 TOTAL ENERGY:     -849.613058025 Eh
FINAL SINGLE POINT ENERGY      -849.613058024889

DIPOLE MOMENT
-------------
                                X             Y             Z
Electronic contribution:     -1.06839       1.60845      -2.94523
Nuclear contribution   :      0.56818      -1.63050       3.83145
                        -----------------------------------------
Total Dipole Moment    :     -0.50021      -0.02205       0.88622
                        -----------------------------------------
Magnitude (a.u.)       :      1.01788
Magnitude (Debye)      :      2.58725

Rotational constants in cm-1:     0.068993     0.033230     0.027948
Rotational constants in MHz :  2068.366866   996.203614   837.861036

                             ****ORCA TERMINATED NORMALLY****
TOTAL RUN TIME: 0 days 0 hours 1 minutes 27 seconds 144 msec
