                         Program Version 5.0.3 -  RELEASE  -
|  1> !ri-mp2 aug-cc-pvdz aug-cc-pvdz/c tightscf
|  2> %pal nprocs 16 end
|  3>
|  4> * xyz 0 1
|  5> S     -1.970085   -1.004828    0.404057
|  6> S     -1.139601    1.747515   -0.120095
|  7> O      2.148970    1.195734   -0.147249
|  8> O      1.936106   -0.474436    1.215650
|  9> N      1.643397    0.143182    0.214618
| 10> C      0.530339   -0.432912   -0.684238
| 11> C     -0.823235    0.025273   -0.124545
| 12> C      0.716287   -1.928719   -0.821212
| 13> H      0.055105    2.176069   -0.582816
| 14> H      0.695123    0.073347   -1.632561
| 15> H      0.587915   -2.431303    0.132211
| 16> H     -0.020664   -2.316756   -1.520848
| 17> H      1.712761   -2.138853   -1.208928
| 18> *
| 19>
| 20>                          ****END OF INPUT****

CARTESIAN COORDINATES (ANGSTROEM)
---------------------------------
  S     -1.970085   -1.004828    0.404057
  S     -1.139601    1.747515   -0.120095
  O      2.148970    1.195734   -0.147249
  O      1.936106   -0.474436    1.215650
  N      1.643397    0.143182    0.214618
  C      0.530339   -0.432912   -0.684238
  C     -0.823235    0.025273   -0.124545
  C      0.716287   -1.928719   -0.821212
  H      0.055105    2.176069   -0.582816
  H      0.695123    0.073347   -1.632561
  H      0.587915   -2.431303    0.132211
  H     -0.020664   -2.316756   -1.520848
  H      1.712761   -2.138853   -1.208928

 Total Charge           Charge          ....    0
 Multiplicity           Mult            ....    1
 Number of Electrons    NEL             ....   78
 Basis Dimension        Dim             ....  237

ORBITAL ENERGIES
----------------

  NO   OCC          E(Eh)            E(eV)
   0   2.0000     -92.011932     -2503.7719
   1   2.0000     -91.966215     -2502.5279
   2   2.0000     -20.638286      -561.5963
   3   2.0000     -20.633279      -561.4601
   4   2.0000     -15.875158      -431.9850
   5   2.0000     -11.388452      -309.8955
   6   2.0000     -11.356534      -309.0270
   7   2.0000     -11.263668      -306.5000
   8   2.0000      -9.014193      -245.2887
   9   2.0000      -8.969116      -244.0620
  10   2.0000      -6.695980      -182.2069
  11   2.0000      -6.694510      -182.1669
  12   2.0000      -6.692634      -182.1158
  13   2.0000      -6.650853      -180.9789
  14   2.0000      -6.649135      -180.9322
  15   2.0000      -6.647062      -180.8758
  16   2.0000      -1.635004       -44.4907
  17   2.0000      -1.430547       -38.9272
  18   2.0000      -1.191020       -32.4093
  19   2.0000      -1.092435       -29.7267
  20   2.0000      -1.001705       -27.2578
  21   2.0000      -0.972931       -26.4748
  22   2.0000      -0.877571       -23.8799
  23   2.0000      -0.799219       -21.7479
  24   2.0000      -0.763676       -20.7807
  25   2.0000      -0.745552       -20.2875
  26   2.0000      -0.715495       -19.4696
  27   2.0000      -0.668547       -18.1921
  28   2.0000      -0.617402       -16.8004
  29   2.0000      -0.590850       -16.0778
  30   2.0000      -0.571928       -15.5630
  31   2.0000      -0.544691       -14.8218
  32   2.0000      -0.519023       -14.1233
  33   2.0000      -0.512318       -13.9409
  34   2.0000      -0.499874       -13.6023
  35   2.0000      -0.480661       -13.0795
  36   2.0000      -0.472423       -12.8553
  37   2.0000      -0.371528       -10.1098
  38   2.0000      -0.369494       -10.0544
  39   0.0000       0.014487         0.3942
  40   0.0000       0.031360         0.8534
  41   0.0000       0.044354         1.2069
  42   0.0000       0.051779         1.4090
  43   0.0000       0.055328         1.5056

MULLIKEN ATOMIC CHARGES
-----------------------
   0 S :    0.027759
   1 S :    0.265935
   2 O :   -0.814849
   3 O :   -0.796737
   4 N :    0.809041
   5 C :    0.099792
   6 C :   -0.329812
   7 C :    0.704861
   8 H :    0.162594
   9 H :   -0.200625
  10 H :    0.074736
  11 H :    0.032606
  12 H :   -0.035301
Sum of atomic charges:    0.0000000

LOEWDIN ATOMIC CHARGES
----------------------
   0 S :    0.643927
   1 S :    0.827799
   2 O :    0.072643
   3 O :    0.117905
   4 N :   -0.352581
   5 C :   -0.239467
   6 C :   -1.005645
   7 C :    0.142263
   8 H :   -0.208808
   9 H :    0.032876
  10 H :   -0.020281
  11 H :   -0.008716
  12 H :   -0.001913

  Mayer bond orders larger than 0.100000
B(  0-S ,  5-C ) :  -0.1331 B(  0-S ,  6-C ) :   1.8739 B(  0-S ,  7-C ) :   0.1523
B(  1-S ,  5-C ) :   0.2373 B(  1-S ,  6-C ) :   1.0830 B(  1-S ,  8-H ) :   0.8873
B(  2-O ,  3-O ) :   0.1874 B(  2-O ,  4-N ) :   1.1488 B(  3-O ,  4-N ) :   1.1944
B(  4-N ,  5-C ) :   0.5418 B(  4-N ,  9-H ) :   0.1443 B(  5-C ,  6-C ) :   1.2906
B(  5-C ,  7-C ) :   1.1945 B(  5-C ,  9-H ) :   0.6176 B(  7-C , 10-H ) :   0.9438
B(  7-C , 11-H ) :   0.8225 B(  7-C , 12-H ) :   0.7915

MP2 TOTAL ENERGY:    -1116.961514398 Eh
FINAL SINGLE POINT ENERGY     -1116.961514398383

DIPOLE MOMENT
-------------
                                X             Y             Z
Electronic contribution:     -3.17737       4.27496       3.41437
Nuclear contribution   :      3.10058      -4.50346      -4.65402
                        -----------------------------------------
Total Dipole Moment    :     -0.07679      -0.22850      -1.23964
                        -----------------------------------------
Magnitude (a.u.)       :      1.26286
Magnitude (Debye)      :      3.20994

Rotational constants in cm-1:     0.061227     0.041100     0.028870
Rotational constants in MHz :  1835.543257  1232.145557   865.505012

                             ****ORCA TERMINATED NORMALLY****
TOTAL RUN TIME: 0 days 0 hours 0 minutes 59 seconds 710 msec
