                         Program Version 5.0.3 -  RELEASE  -
|  1> !ri-mp2 aug-cc-pvdz aug-cc-pvdz/c tightscf
|  2> %pal nprocs 16 end
|  3>
|  4> * xyz 0 1
|  5> S     -1.212773   -1.207584    0.003315
|  6> S      2.042508   -0.178536   -0.008928
|  7> N     -1.534033    1.415066   -0.011441
|  8> C     -0.689942    0.359550    0.002786
|  9> C      0.740967    0.774182    0.022682
| 10> H     -1.200704    2.364588   -0.016085
| 11> H     -2.525891    1.249315   -0.027968
| 12> H      0.882911    1.856177    0.061139
| 13> *
| 14>
| 15>                          ****END OF INPUT****

CARTESIAN COORDINATES (ANGSTROEM)
---------------------------------
  S     -1.212773   -1.207584    0.003315
  S      2.042508   -0.178536   -0.008928
  N     -1.534033    1.415066   -0.011441
  C     -0.689942    0.359550    0.002786
  C      0.740967    0.774182    0.022682
  H     -1.200704    2.364588   -0.016085
  H     -2.525891    1.249315   -0.027968
  H      0.882911    1.856177    0.061139

 Total Charge           Charge          ....    0
 Multiplicity           Mult            ....    1
 Number of Electrons    NEL             ....   54
 Basis Dimension        Dim             ....  150

ORBITAL ENERGIES
----------------

  NO   OCC          E(Eh)            E(eV)
   0   2.0000     -91.977479     -2502.8345
   1   2.0000     -91.921770     -2501.3185
   2   2.0000     -15.636593      -425.4933
   3   2.0000     -11.377463      -309.5965
   4   2.0000     -11.345003      -308.7132
   5   2.0000      -8.979477      -244.3440
   6   2.0000      -8.924896      -242.8588
   7   2.0000      -6.660763      -181.2486
   8   2.0000      -6.659991      -181.2276
   9   2.0000      -6.656973      -181.1454
  10   2.0000      -6.607024      -179.7863
  11   2.0000      -6.604656      -179.7218
  12   2.0000      -6.603167      -179.6813
  13   2.0000      -1.292254       -35.1640
  14   2.0000      -1.106374       -30.1060
  15   2.0000      -1.004562       -27.3355
  16   2.0000      -0.893028       -24.3005
  17   2.0000      -0.779581       -21.2135
  18   2.0000      -0.731496       -19.9050
  19   2.0000      -0.686254       -18.6739
  20   2.0000      -0.564612       -15.3639
  21   2.0000      -0.554125       -15.0785
  22   2.0000      -0.526669       -14.3314
  23   2.0000      -0.431942       -11.7537
  24   2.0000      -0.369168       -10.0456
  25   2.0000      -0.345198        -9.3933
  26   2.0000      -0.339722        -9.2443
  27   0.0000      -0.009142        -0.2488
  28   0.0000       0.020380         0.5546
  29   0.0000       0.042658         1.1608
  30   0.0000       0.061228         1.6661
  31   0.0000       0.080252         2.1838

MULLIKEN ATOMIC CHARGES
-----------------------
   0 S :    0.034211
   1 S :    0.310988
   2 N :   -0.314421
   3 C :    0.301154
   4 C :    0.103821
   5 H :   -0.029854
   6 H :    0.014089
   7 H :   -0.419988
Sum of atomic charges:    0.0000000

LOEWDIN ATOMIC CHARGES
----------------------
   0 S :    0.549844
   1 S :    0.691216
   2 N :    0.193729
   3 C :   -0.803851
   4 C :   -0.530907
   5 H :   -0.022524
   6 H :   -0.012170
   7 H :   -0.065337

  Mayer bond orders larger than 0.100000
B(  0-S ,  3-C ) :   1.7248 B(  1-S ,  3-C ) :  -0.1599 B(  1-S ,  4-C ) :   1.9951
B(  2-N ,  3-C ) :   0.9957 B(  2-N ,  5-H ) :   1.1456 B(  2-N ,  6-H ) :   1.0897
B(  3-C ,  4-C ) :   1.0586 B(  3-C ,  5-H ) :  -0.1370 B(  4-C ,  7-H ) :   0.9477

MP2 TOTAL ENERGY:     -927.711249151 Eh
FINAL SINGLE POINT ENERGY      -927.711249151148

DIPOLE MOMENT
-------------
                                X             Y             Z
Electronic contribution:      2.36728      -3.34881      -0.01794
Nuclear contribution   :     -2.77547       5.32393       0.01658
                        -----------------------------------------
Total Dipole Moment    :     -0.40819       1.97512      -0.00136
                        -----------------------------------------
Magnitude (a.u.)       :      2.01686
Magnitude (Debye)      :      5.12644

Rotational constants in cm-1:     0.177751     0.071755     0.051124
Rotational constants in MHz :  5328.841955  2151.173168  1532.664707

                             ****ORCA TERMINATED NORMALLY****
TOTAL RUN TIME: 0 days 0 hours 0 minutes 31 seconds 453 msec
