                         Program Version 5.0.3 -  RELEASE  -
|  1> !ri-mp2 aug-cc-pvdz aug-cc-pvdz/c tightscf
|  2> %pal nprocs 16 end
|  3>
|  4> * xyz 0 1
|  5> C      0.000000    0.000000    0.697725
|  6> C      0.000000    1.263786    1.332760
|  7> C      0.000000    0.000000   -0.697725
|  8> N      0.000000    2.398784    0.679888
|  9> C      0.000000    1.263786   -1.332760
| 10> N      0.000000    2.398784   -0.679888
| 11> C      0.000000   -1.263786   -1.332760
| 12> N      0.000000   -2.398784   -0.679888
| 13> C      0.000000   -1.263786    1.332760
| 14> N      0.000000   -2.398784    0.679888
| 15> H      0.000000   -1.340928   -2.414429
| 16> H      0.000000    1.340928    2.414429
| 17> H      0.000000   -1.340928    2.414429
| 18> H      0.000000    1.340928   -2.414429
| 19> *
| 20>
| 21>                          ****END OF INPUT****

CARTESIAN COORDINATES (ANGSTROEM)
---------------------------------
  C      0.000000    0.000000    0.697725
  C      0.000000    1.263786    1.332760
  C      0.000000    0.000000   -0.697725
  N      0.000000    2.398784    0.679888
  C      0.000000    1.263786   -1.332760
  N      0.000000    2.398784   -0.679888
  C      0.000000   -1.263786   -1.332760
  N      0.000000   -2.398784   -0.679888
  C      0.000000   -1.263786    1.332760
  N      0.000000   -2.398784    0.679888
  H      0.000000   -1.340928   -2.414429
  H      0.000000    1.340928    2.414429
  H      0.000000   -1.340928    2.414429
  H      0.000000    1.340928   -2.414429

 Total Charge           Charge          ....    0
 Multiplicity           Mult            ....    1
 Number of Electrons    NEL             ....   68
 Basis Dimension        Dim             ....  266

ORBITAL ENERGIES
----------------

  NO   OCC          E(Eh)            E(eV)
   0   2.0000     -15.640985      -425.6128
   1   2.0000     -15.640984      -425.6128
   2   2.0000     -15.640287      -425.5938
   3   2.0000     -15.640286      -425.5938
   4   2.0000     -11.320507      -308.0467
   5   2.0000     -11.320485      -308.0461
   6   2.0000     -11.320484      -308.0460
   7   2.0000     -11.320457      -308.0453
   8   2.0000     -11.306647      -307.6695
   9   2.0000     -11.305430      -307.6364
  10   2.0000      -1.374769       -37.4094
  11   2.0000      -1.362817       -37.0841
  12   2.0000      -1.170086       -31.8397
  13   2.0000      -1.163744       -31.6671
  14   2.0000      -1.143679       -31.1211
  15   2.0000      -0.961782       -26.1714
  16   2.0000      -0.960829       -26.1455
  17   2.0000      -0.895610       -24.3708
  18   2.0000      -0.773015       -21.0348
  19   2.0000      -0.767428       -20.8828
  20   2.0000      -0.762422       -20.7466
  21   2.0000      -0.682298       -18.5663
  22   2.0000      -0.680872       -18.5275
  23   2.0000      -0.640725       -17.4350
  24   2.0000      -0.625476       -17.0201
  25   2.0000      -0.623697       -16.9717
  26   2.0000      -0.569210       -15.4890
  27   2.0000      -0.499181       -13.5834
  28   2.0000      -0.490522       -13.3478
  29   2.0000      -0.457399       -12.4465
  30   2.0000      -0.454864       -12.3775
  31   2.0000      -0.422079       -11.4854
  32   2.0000      -0.418872       -11.3981
  33   2.0000      -0.378869       -10.3096
  34   0.0000       0.029332         0.7982
  35   0.0000       0.030902         0.8409
  36   0.0000       0.035490         0.9657
  37   0.0000       0.038064         1.0358
  38   0.0000       0.049871         1.3571

MULLIKEN ATOMIC CHARGES
-----------------------
   0 C :    0.181987
   1 C :    0.886757
   2 C :    0.181987
   3 N :   -0.640471
   4 C :    0.886757
   5 N :   -0.640471
   6 C :    0.886757
   7 N :   -0.640471
   8 C :    0.886757
   9 N :   -0.640471
  10 H :   -0.337280
  11 H :   -0.337280
  12 H :   -0.337280
  13 H :   -0.337280
Sum of atomic charges:   -0.0000000

LOEWDIN ATOMIC CHARGES
----------------------
   0 C :   -0.127527
   1 C :    0.032397
   2 C :   -0.127527
   3 N :    0.015625
   4 C :    0.032397
   5 N :    0.015625
   6 C :    0.032397
   7 N :    0.015625
   8 C :    0.032397
   9 N :    0.015625
  10 H :    0.015741
  11 H :    0.015741
  12 H :    0.015741
  13 H :    0.015741

  Mayer bond orders larger than 0.100000
B(  0-C ,  1-C ) :   1.1082 B(  0-C ,  2-C ) :   2.1716 B(  0-C ,  4-C ) :  -0.4728
B(  0-C ,  6-C ) :  -0.4728 B(  0-C ,  8-C ) :   1.1082 B(  0-C , 11-H ) :   0.3011
B(  0-C , 12-H ) :   0.3011 B(  1-C ,  2-C ) :  -0.4728 B(  1-C ,  3-N ) :   1.3924
B(  1-C ,  4-C ) :   0.2617 B(  1-C ,  5-N ) :  -0.1258 B(  1-C ,  6-C ) :   0.1510
B(  1-C ,  8-C ) :   0.1877 B(  1-C , 11-H ) :   0.3581 B(  2-C ,  4-C ) :   1.1082
B(  2-C ,  6-C ) :   1.1082 B(  2-C ,  8-C ) :  -0.4728 B(  2-C , 10-H ) :   0.3011
B(  2-C , 13-H ) :   0.3011 B(  3-N ,  4-C ) :  -0.1258 B(  3-N ,  5-N ) :   0.9795
B(  4-C ,  5-N ) :   1.3924 B(  4-C ,  6-C ) :   0.1877 B(  4-C ,  8-C ) :   0.1510
B(  4-C , 13-H ) :   0.3581 B(  6-C ,  7-N ) :   1.3924 B(  6-C ,  8-C ) :   0.2617
B(  6-C ,  9-N ) :  -0.1258 B(  6-C , 10-H ) :   0.3581 B(  7-N ,  8-C ) :  -0.1258
B(  7-N ,  9-N ) :   0.9795 B(  8-C ,  9-N ) :   1.3924 B(  8-C , 12-H ) :   0.3581

MP2 TOTAL ENERGY:     -448.760585695 Eh
FINAL SINGLE POINT ENERGY      -448.760585694728

DIPOLE MOMENT
-------------
                                X             Y             Z
Electronic contribution:      0.00000      -0.00000       0.00000
Nuclear contribution   :      0.00000       0.00000       0.00000
                        -----------------------------------------
Total Dipole Moment    :      0.00000      -0.00000       0.00000
                        -----------------------------------------
Magnitude (a.u.)       :      0.00000
Magnitude (Debye)      :      0.00000

Rotational constants in cm-1:     0.115120     0.041483     0.030494
Rotational constants in MHz :  3451.203148  1243.619355   914.194952

                             ****ORCA TERMINATED NORMALLY****
TOTAL RUN TIME: 0 days 0 hours 1 minutes 19 seconds 552 msec
