                         Program Version 5.0.3 -  RELEASE  -
|  1> !ri-mp2 aug-cc-pvdz aug-cc-pvdz/c tightscf
|  2> %pal nprocs 16 end
|  3>
|  4> * xyz 0 1
|  5> C     0.000000    1.278542    0.000000
|  6> C     1.107250   -0.639271    0.000000
|  7> C    -1.107250   -0.639271    0.000000
|  8> N     0.000000   -1.366438    0.000000
|  9> N    -1.183370    0.683219    0.000000
| 10> N     1.183370    0.683219    0.000000
| 11> Cl    0.000000    3.006062    0.000000
| 12> Cl    2.603326   -1.503031    0.000000
| 13> Cl   -2.603326   -1.503031    0.000000
| 14> *
| 15>
| 16>                          ****END OF INPUT****

CARTESIAN COORDINATES (ANGSTROEM)
---------------------------------
  C      0.000000    1.278542    0.000000
  C      1.107250   -0.639271    0.000000
  C     -1.107250   -0.639271    0.000000
  N      0.000000   -1.366438    0.000000
  N     -1.183370    0.683219    0.000000
  N      1.183370    0.683219    0.000000
  Cl     0.000000    3.006062    0.000000
  Cl     2.603326   -1.503031    0.000000
  Cl    -2.603326   -1.503031    0.000000

 Total Charge           Charge          ....    0
 Multiplicity           Mult            ....    1
 Number of Electrons    NEL             ....   90
 Basis Dimension        Dim             ....  219

ORBITAL ENERGIES
----------------

  NO   OCC          E(Eh)            E(eV)
   0   2.0000    -104.880840     -2853.9527
   1   2.0000    -104.880840     -2853.9527
   2   2.0000    -104.880840     -2853.9527
   3   2.0000     -15.634347      -425.4322
   4   2.0000     -15.634344      -425.4321
   5   2.0000     -15.634295      -425.4308
   6   2.0000     -11.443536      -311.3944
   7   2.0000     -11.443534      -311.3944
   8   2.0000     -11.443530      -311.3943
   9   2.0000     -10.607392      -288.6418
  10   2.0000     -10.607392      -288.6418
  11   2.0000     -10.607392      -288.6418
  12   2.0000      -8.075214      -219.7378
  13   2.0000      -8.075214      -219.7377
  14   2.0000      -8.075214      -219.7377
  15   2.0000      -8.071583      -219.6389
  16   2.0000      -8.071582      -219.6389
  17   2.0000      -8.071582      -219.6389
  18   2.0000      -8.071338      -219.6323
  19   2.0000      -8.071337      -219.6323
  20   2.0000      -8.071337      -219.6323
  21   2.0000      -1.435313       -39.0569
  22   2.0000      -1.293887       -35.2084
  23   2.0000      -1.293886       -35.2084
  24   2.0000      -1.164699       -31.6931
  25   2.0000      -1.164699       -31.6931
  26   2.0000      -1.155360       -31.4389
  27   2.0000      -0.927910       -25.2497
  28   2.0000      -0.927910       -25.2497
  29   2.0000      -0.823080       -22.3972
  30   2.0000      -0.729892       -19.8614
  31   2.0000      -0.687980       -18.7209
  32   2.0000      -0.632575       -17.2132
  33   2.0000      -0.632575       -17.2132
  34   2.0000      -0.613551       -16.6956
  35   2.0000      -0.561316       -15.2742
  36   2.0000      -0.561316       -15.2742
  37   2.0000      -0.505270       -13.7491
  38   2.0000      -0.505270       -13.7491
  39   2.0000      -0.491117       -13.3640
  40   2.0000      -0.489338       -13.3156
  41   2.0000      -0.482273       -13.1233
  42   2.0000      -0.482272       -13.1233
  43   2.0000      -0.447146       -12.1675
  44   2.0000      -0.447146       -12.1675
  45   0.0000       0.052102         1.4178
  46   0.0000       0.052102         1.4178
  47   0.0000       0.054262         1.4766
  48   0.0000       0.070718         1.9243
  49   0.0000       0.070718         1.9243

MULLIKEN ATOMIC CHARGES
-----------------------
   0 C :    0.366476
   1 C :    0.366478
   2 C :    0.366478
   3 N :   -0.390138
   4 N :   -0.390138
   5 N :   -0.390138
   6 Cl:    0.023661
   7 Cl:    0.023661
   8 Cl:    0.023661
Sum of atomic charges:   -0.0000000

LOEWDIN ATOMIC CHARGES
----------------------
   0 C :   -0.633159
   1 C :   -0.633158
   2 C :   -0.633158
   3 N :   -0.009856
   4 N :   -0.009857
   5 N :   -0.009857
   6 Cl:    0.643015
   7 Cl:    0.643015
   8 Cl:    0.643015

  Mayer bond orders larger than 0.100000
B(  0-C ,  1-C ) :  -0.1707 B(  0-C ,  2-C ) :  -0.1707 B(  0-C ,  4-N ) :   1.1838
B(  0-C ,  5-N ) :   1.1838 B(  0-C ,  6-Cl) :   1.2882 B(  1-C ,  2-C ) :  -0.1707
B(  1-C ,  3-N ) :   1.1838 B(  1-C ,  5-N ) :   1.1838 B(  1-C ,  7-Cl) :   1.2882
B(  2-C ,  3-N ) :   1.1838 B(  2-C ,  4-N ) :   1.1838 B(  2-C ,  8-Cl) :   1.2882
B(  3-N ,  7-Cl) :  -0.1042 B(  3-N ,  8-Cl) :  -0.1042 B(  4-N ,  6-Cl) :  -0.1042
B(  4-N ,  8-Cl) :  -0.1042 B(  5-N ,  6-Cl) :  -0.1042 B(  5-N ,  7-Cl) :  -0.1042

MP2 TOTAL ENERGY:    -1656.813429939 Eh
FINAL SINGLE POINT ENERGY     -1656.813429939459

DIPOLE MOMENT
-------------
                                X             Y             Z
Electronic contribution:     -0.00000      -0.00000      -0.00000
Nuclear contribution   :      0.00000       0.00000       0.00000
                        -----------------------------------------
Total Dipole Moment    :     -0.00000      -0.00000      -0.00000
                        -----------------------------------------
Magnitude (a.u.)       :      0.00000
Magnitude (Debye)      :      0.00001

Rotational constants in cm-1:     0.030693     0.030693     0.015347
Rotational constants in MHz :   920.155777   920.155752   460.077882

                             ****ORCA TERMINATED NORMALLY****
TOTAL RUN TIME: 0 days 0 hours 0 minutes 45 seconds 624 msec
