                         Program Version 5.0.3 -  RELEASE  -
|  1> !ri-mp2 aug-cc-pvdz aug-cc-pvdz/c tightscf
|  2> %pal nprocs 16 end
|  3>
|  4> * xyz 0 1
|  5> S     -1.237044    0.001448   -0.107671
|  6> N      0.008561   -1.244800    0.162871
|  7> N      1.291262   -0.667661   -0.105066
|  8> C     -0.008423    1.263519    0.104972
|  9> C      1.217607    0.751160    0.046079
| 10> H     -0.002263   -1.404163    1.165699
| 11> H      1.571441   -0.928185   -1.047847
| 12> H     -0.273152    2.302314    0.208260
| 13> H      2.142819    1.306025    0.085693
| 14> *
| 15>
| 16>                          ****END OF INPUT****

CARTESIAN COORDINATES (ANGSTROEM)
---------------------------------
  S     -1.237044    0.001448   -0.107671
  N      0.008561   -1.244800    0.162871
  N      1.291262   -0.667661   -0.105066
  C     -0.008423    1.263519    0.104972
  C      1.217607    0.751160    0.046079
  H     -0.002263   -1.404163    1.165699
  H      1.571441   -0.928185   -1.047847
  H     -0.273152    2.302314    0.208260
  H      2.142819    1.306025    0.085693

 Total Charge           Charge          ....    0
 Multiplicity           Mult            ....    1
 Number of Electrons    NEL             ....   46
 Basis Dimension        Dim             ....  155

ORBITAL ENERGIES
----------------

  NO   OCC          E(Eh)            E(eV)
   0   2.0000     -91.988155     -2503.1250
   1   2.0000     -15.626469      -425.2178
   2   2.0000     -15.613079      -424.8535
   3   2.0000     -11.283828      -307.0486
   4   2.0000     -11.271189      -306.7046
   5   2.0000      -8.987246      -244.5554
   6   2.0000      -6.668970      -181.4719
   7   2.0000      -6.667729      -181.4381
   8   2.0000      -6.665166      -181.3684
   9   2.0000      -1.324657       -36.0458
  10   2.0000      -1.090087       -29.6628
  11   2.0000      -1.066583       -29.0232
  12   2.0000      -0.876283       -23.8449
  13   2.0000      -0.786801       -21.4099
  14   2.0000      -0.709806       -19.3148
  15   2.0000      -0.676612       -18.4116
  16   2.0000      -0.614348       -16.7173
  17   2.0000      -0.575739       -15.6667
  18   2.0000      -0.504543       -13.7293
  19   2.0000      -0.483393       -13.1538
  20   2.0000      -0.442734       -12.0474
  21   2.0000      -0.402729       -10.9588
  22   2.0000      -0.309622        -8.4252
  23   0.0000       0.034193         0.9304
  24   0.0000       0.045645         1.2421
  25   0.0000       0.052129         1.4185
  26   0.0000       0.056175         1.5286
  27   0.0000       0.085755         2.3335

MULLIKEN ATOMIC CHARGES
-----------------------
   0 S :    0.535966
   1 N :   -0.637122
   2 N :   -0.312868
   3 C :    0.183796
   4 C :    0.590479
   5 H :    0.141066
   6 H :    0.086581
   7 H :   -0.369950
   8 H :   -0.217948
Sum of atomic charges:    0.0000000

LOEWDIN ATOMIC CHARGES
----------------------
   0 S :    0.817980
   1 N :   -0.205846
   2 N :   -0.027479
   3 C :   -0.303400
   4 C :   -0.111642
   5 H :   -0.086871
   6 H :   -0.018134
   7 H :   -0.057265
   8 H :   -0.007343

  Mayer bond orders larger than 0.100000
B(  0-S ,  1-N ) :   0.7814 B(  0-S ,  3-C ) :   0.8352 B(  1-N ,  2-N ) :   0.9844
B(  1-N ,  4-C ) :  -0.1113 B(  1-N ,  5-H ) :   1.0356 B(  2-N ,  4-C ) :   0.8392
B(  2-N ,  6-H ) :   0.9847 B(  3-C ,  4-C ) :   2.1086 B(  3-C ,  7-H ) :   0.8436
B(  4-C ,  7-H ) :   0.1854 B(  4-C ,  8-H ) :   0.8622

MP2 TOTAL ENERGY:     -585.196179730 Eh
FINAL SINGLE POINT ENERGY      -585.196179729608

DIPOLE MOMENT
-------------
                                X             Y             Z
Electronic contribution:     -2.93154      -0.63004      -0.36720
Nuclear contribution   :      3.41598       1.23980       0.40728
                        -----------------------------------------
Total Dipole Moment    :      0.48443       0.60976       0.04008
                        -----------------------------------------
Magnitude (a.u.)       :      0.77980
Magnitude (Debye)      :      1.98210

Rotational constants in cm-1:     0.250331     0.167107     0.104637
Rotational constants in MHz :  7504.738066  5009.744626  3136.933123

                             ****ORCA TERMINATED NORMALLY****
TOTAL RUN TIME: 0 days 0 hours 0 minutes 43 seconds 628 msec
