                         Program Version 5.0.3 -  RELEASE  -
|  1> !ri-mp2 aug-cc-pvdz aug-cc-pvdz/c tightscf
|  2> %pal nprocs 16 end
|  3>
|  4> * xyz 0 1
|  5> S     2.547758   -0.919099   -0.053026
|  6> S    -2.705184   -0.795536    0.103404
|  7> N     1.128924   -0.011693   -0.377571
|  8> N    -0.064029   -0.748349   -0.053981
|  9> N     1.139175    1.250598    0.371535
| 10> C    -1.124329   -0.028818   -0.115379
| 11> C    -1.120311    1.420199   -0.258114
| 12> C     0.038662    2.018372    0.067171
| 13> H     2.381553   -1.155465    1.277531
| 14> H    -2.221852   -2.049836    0.167875
| 15> H     2.042552    1.684451    0.251989
| 16> H    -2.024383    1.975775   -0.440590
| 17> H     0.148326    3.086836    0.195205
| 18> *
| 19>
| 20>                          ****END OF INPUT****

CARTESIAN COORDINATES (ANGSTROEM)
---------------------------------
  S      2.547758   -0.919099   -0.053026
  S     -2.705184   -0.795536    0.103404
  N      1.128924   -0.011693   -0.377571
  N     -0.064029   -0.748349   -0.053981
  N      1.139175    1.250598    0.371535
  C     -1.124329   -0.028818   -0.115379
  C     -1.120311    1.420199   -0.258114
  C      0.038662    2.018372    0.067171
  H      2.381553   -1.155465    1.277531
  H     -2.221852   -2.049836    0.167875
  H      2.042552    1.684451    0.251989
  H     -2.024383    1.975775   -0.440590
  H      0.148326    3.086836    0.195205

 Total Charge           Charge          ....    0
 Multiplicity           Mult            ....    1
 Number of Electrons    NEL             ....   76
 Basis Dimension        Dim             ....  237

ORBITAL ENERGIES
----------------

  NO   OCC          E(Eh)            E(eV)
   0   2.0000     -91.994627     -2503.3011
   1   2.0000     -91.980059     -2502.9047
   2   2.0000     -15.665560      -426.2816
   3   2.0000     -15.631799      -425.3629
   4   2.0000     -15.600216      -424.5034
   5   2.0000     -11.333711      -308.4059
   6   2.0000     -11.319961      -308.0318
   7   2.0000     -11.247376      -306.0567
   8   2.0000      -8.993022      -244.7126
   9   2.0000      -8.982722      -244.4323
  10   2.0000      -6.675256      -181.6429
  11   2.0000      -6.673196      -181.5869
  12   2.0000      -6.671171      -181.5318
  13   2.0000      -6.664828      -181.3592
  14   2.0000      -6.663351      -181.3190
  15   2.0000      -6.661268      -181.2623
  16   2.0000      -1.374792       -37.4100
  17   2.0000      -1.229198       -33.4482
  18   2.0000      -1.154583       -31.4178
  19   2.0000      -1.021291       -27.7907
  20   2.0000      -1.011911       -27.5355
  21   2.0000      -0.899845       -24.4860
  22   2.0000      -0.864224       -23.5167
  23   2.0000      -0.753572       -20.5057
  24   2.0000      -0.708961       -19.2918
  25   2.0000      -0.697231       -18.9726
  26   2.0000      -0.641020       -17.4430
  27   2.0000      -0.614065       -16.7096
  28   2.0000      -0.608050       -16.5459
  29   2.0000      -0.563616       -15.3368
  30   2.0000      -0.520736       -14.1699
  31   2.0000      -0.500960       -13.6318
  32   2.0000      -0.484968       -13.1966
  33   2.0000      -0.461713       -12.5639
  34   2.0000      -0.421949       -11.4818
  35   2.0000      -0.383666       -10.4401
  36   2.0000      -0.369105       -10.0438
  37   2.0000      -0.311046        -8.4640
  38   0.0000       0.028806         0.7838
  39   0.0000       0.044844         1.2203
  40   0.0000       0.045973         1.2510
  41   0.0000       0.059681         1.6240
  42   0.0000       0.065609         1.7853

MULLIKEN ATOMIC CHARGES
-----------------------
   0 S :    0.343749
   1 S :    0.231436
   2 N :   -0.633055
   3 N :   -0.747405
   4 N :   -0.347530
   5 C :    0.173324
   6 C :    0.630824
   7 C :    0.697112
   8 H :    0.145429
   9 H :    0.154284
  10 H :    0.039052
  11 H :   -0.379871
  12 H :   -0.307351
Sum of atomic charges:    0.0000000

LOEWDIN ATOMIC CHARGES
----------------------
   0 S :    0.765056
   1 S :    0.819212
   2 N :   -0.456109
   3 N :   -0.082490
   4 N :    0.021597
   5 C :   -0.608792
   6 C :   -0.035898
   7 C :    0.001572
   8 H :   -0.208625
   9 H :   -0.190310
  10 H :   -0.027514
  11 H :   -0.019152
  12 H :    0.021454

  Mayer bond orders larger than 0.100000
B(  0-S ,  2-N ) :   0.7412 B(  0-S ,  8-H ) :   0.9036 B(  1-S ,  5-C ) :   1.0027
B(  1-S ,  9-H ) :   0.9012 B(  2-N ,  3-N ) :   1.0134 B(  2-N ,  4-N ) :   1.1117
B(  2-N ,  5-C ) :  -0.2359 B(  2-N ,  6-C ) :   0.1125 B(  2-N ,  7-C ) :  -0.2368
B(  2-N ,  8-H ) :   0.1553 B(  3-N ,  5-C ) :   1.6302 B(  4-N ,  7-C ) :   0.8660
B(  4-N , 10-H ) :   1.0330 B(  5-C ,  6-C ) :   1.1007 B(  5-C ,  7-C ) :   0.1902
B(  6-C ,  7-C ) :   1.7571 B(  6-C , 11-H ) :   0.5879 B(  7-C , 11-H ) :   0.1288
B(  7-C , 12-H ) :   0.7711

MP2 TOTAL ENERGY:    -1076.045759688 Eh
FINAL SINGLE POINT ENERGY     -1076.045759687876

DIPOLE MOMENT
-------------
                                X             Y             Z
Electronic contribution:     -0.15753      -2.43958      -1.03545
Nuclear contribution   :      0.33352       3.48806       1.40597
                        -----------------------------------------
Total Dipole Moment    :      0.17599       1.04848       0.37052
                        -----------------------------------------
Magnitude (a.u.)       :      1.12586
Magnitude (Debye)      :      2.86171

Rotational constants in cm-1:     0.093903     0.031480     0.024070
Rotational constants in MHz :  2815.146379   943.749923   721.592652

                             ****ORCA TERMINATED NORMALLY****
TOTAL RUN TIME: 0 days 0 hours 1 minutes 1 seconds 135 msec
