                         Program Version 5.0.3 -  RELEASE  -
|  1> !ri-mp2 aug-cc-pvdz aug-cc-pvdz/c tightscf
|  2> %pal nprocs 16 end
|  3>
|  4> * xyz 0 1
|  5> C     -0.983062   -2.154025    0.000000
|  6> C     -1.860094   -1.080555    0.000000
|  7> C      0.392477   -1.934250    0.000000
|  8> C     -1.369349    0.225898    0.000000
|  9> C      0.887643   -0.641461    0.000000
| 10> C      0.000000    0.446658    0.000000
| 11> C     -0.195214    2.837494    0.000000
| 12> O      2.233459   -0.428850    0.000000
| 13> O      0.616159    1.672471    0.000000
| 14> H     -1.361602   -3.166654    0.000000
| 15> H     -2.928255   -1.246184    0.000000
| 16> H      1.093761   -2.757095    0.000000
| 17> H     -2.058350    1.057052    0.000000
| 18> H     -0.824743    2.879274    0.891811
| 19> H     -0.824743    2.879274   -0.891811
| 20> H      0.488417    3.681876    0.000000
| 21> H      2.384168    0.524940    0.000000
| 22> *
| 23>
| 24>                          ****END OF INPUT****

CARTESIAN COORDINATES (ANGSTROEM)
---------------------------------
  C     -0.983062   -2.154025    0.000000
  C     -1.860094   -1.080555    0.000000
  C      0.392477   -1.934250    0.000000
  C     -1.369349    0.225898    0.000000
  C      0.887643   -0.641461    0.000000
  C      0.000000    0.446658    0.000000
  C     -0.195214    2.837494    0.000000
  O      2.233459   -0.428850    0.000000
  O      0.616159    1.672471    0.000000
  H     -1.361602   -3.166654    0.000000
  H     -2.928255   -1.246184    0.000000
  H      1.093761   -2.757095    0.000000
  H     -2.058350    1.057052    0.000000
  H     -0.824743    2.879274    0.891811
  H     -0.824743    2.879274   -0.891811
  H      0.488417    3.681876    0.000000
  H      2.384168    0.524940    0.000000

 Total Charge           Charge          ....    0
 Multiplicity           Mult            ....    1
 Number of Electrons    NEL             ....   66
 Basis Dimension        Dim             ....  279

ORBITAL ENERGIES
----------------

  NO   OCC          E(Eh)            E(eV)
   0   2.0000     -20.606909      -560.7425
   1   2.0000     -20.590765      -560.3032
   2   2.0000     -11.304380      -307.6078
   3   2.0000     -11.301848      -307.5389
   4   2.0000     -11.300650      -307.5063
   5   2.0000     -11.243642      -305.9550
   6   2.0000     -11.237050      -305.7757
   7   2.0000     -11.235768      -305.7408
   8   2.0000     -11.234418      -305.7041
   9   2.0000      -1.431251       -38.9463
  10   2.0000      -1.393839       -37.9283
  11   2.0000      -1.149488       -31.2792
  12   2.0000      -1.025968       -27.9180
  13   2.0000      -1.015703       -27.6387
  14   2.0000      -0.952736       -25.9253
  15   2.0000      -0.833060       -22.6687
  16   2.0000      -0.827896       -22.5282
  17   2.0000      -0.746572       -20.3153
  18   2.0000      -0.709656       -19.3107
  19   2.0000      -0.678701       -18.4684
  20   2.0000      -0.667459       -18.1625
  21   2.0000      -0.631976       -17.1969
  22   2.0000      -0.620732       -16.8910
  23   2.0000      -0.598040       -16.2735
  24   2.0000      -0.585327       -15.9276
  25   2.0000      -0.568322       -15.4648
  26   2.0000      -0.542915       -14.7735
  27   2.0000      -0.513166       -13.9640
  28   2.0000      -0.508951       -13.8493
  29   2.0000      -0.496349       -13.5063
  30   2.0000      -0.468772       -12.7559
  31   2.0000      -0.333639        -9.0788
  32   2.0000      -0.302814        -8.2400
  33   0.0000       0.031241         0.8501
  34   0.0000       0.039474         1.0742
  35   0.0000       0.044421         1.2088
  36   0.0000       0.055617         1.5134
  37   0.0000       0.057147         1.5550

MULLIKEN ATOMIC CHARGES
-----------------------
   0 C :    0.547969
   1 C :    0.493829
   2 C :    0.992826
   3 C :    0.388486
   4 C :    0.109699
   5 C :    1.136021
   6 C :    0.840500
   7 O :   -0.913252
   8 O :   -1.180519
   9 H :   -0.445585
  10 H :   -0.452082
  11 H :   -0.496715
  12 H :   -0.761455
  13 H :   -0.067288
  14 H :   -0.067288
  15 H :   -0.318070
  16 H :    0.192924
Sum of atomic charges:    0.0000000

LOEWDIN ATOMIC CHARGES
----------------------
   0 C :   -0.000457
   1 C :   -0.001681
   2 C :    0.054176
   3 C :    0.037887
   4 C :   -0.195336
   5 C :   -0.164270
   6 C :    0.162159
   7 O :    0.194027
   8 O :    0.033919
   9 H :   -0.002198
  10 H :   -0.004062
  11 H :    0.009576
  12 H :   -0.009659
  13 H :   -0.014521
  14 H :   -0.014521
  15 H :   -0.022224
  16 H :   -0.062816

  Mayer bond orders larger than 0.100000
B(  0-C ,  1-C ) :   1.7241 B(  0-C ,  2-C ) :   1.6488 B(  0-C ,  5-C ) :   0.1463
B(  0-C ,  9-H ) :   0.3188 B(  0-C , 10-H ) :   0.1130 B(  1-C ,  3-C ) :   1.8123
B(  1-C ,  6-C ) :   0.1191 B(  1-C ,  9-H ) :   0.2510 B(  1-C , 10-H ) :   0.1194
B(  1-C , 12-H ) :   0.3825 B(  2-C ,  3-C ) :   0.3709 B(  2-C ,  4-C ) :   1.6964
B(  2-C ,  5-C ) :  -0.1799 B(  2-C ,  9-H ) :   0.1618 B(  2-C , 11-H ) :  -0.1734
B(  2-C , 12-H ) :   0.1070 B(  3-C ,  5-C ) :   1.4805 B(  3-C ,  8-O ) :   0.1357
B(  3-C , 10-H ) :   0.5016 B(  3-C , 12-H ) :  -0.2961 B(  4-C ,  5-C ) :   1.4750
B(  4-C ,  6-C ) :  -0.1105 B(  4-C ,  7-O ) :  -0.1708 B(  4-C ,  8-O ) :   0.3328
B(  4-C , 11-H ) :   0.8457 B(  4-C , 12-H ) :  -0.1375 B(  5-C ,  7-O ) :   0.3408
B(  5-C ,  8-O ) :  -0.3566 B(  5-C , 12-H ) :   0.5257 B(  6-C ,  8-O ) :   0.7454
B(  6-C , 13-H ) :   0.9628 B(  6-C , 14-H ) :   0.9628 B(  6-C , 15-H ) :   0.9997
B(  7-O , 16-H ) :   1.0336 B( 13-H , 15-H ) :  -0.1031 B( 14-H , 15-H ) :  -0.1031

MP2 TOTAL ENERGY:     -420.850002908 Eh
FINAL SINGLE POINT ENERGY      -420.850002908144

DIPOLE MOMENT
-------------
                                X             Y             Z
Electronic contribution:      3.33046      -2.95945       0.00000
Nuclear contribution   :     -3.98045       3.86628       0.00000
                        -----------------------------------------
Total Dipole Moment    :     -0.64999       0.90683       0.00000
                        -----------------------------------------
Magnitude (a.u.)       :      1.11572
Magnitude (Debye)      :      2.83593

Rotational constants in cm-1:     0.087359     0.051898     0.032760
Rotational constants in MHz :  2618.969385  1555.869052   982.113791

                             ****ORCA TERMINATED NORMALLY****
TOTAL RUN TIME: 0 days 0 hours 1 minutes 18 seconds 260 msec
