                         Program Version 5.0.3 -  RELEASE  -
|  1> !ri-mp2 aug-cc-pvdz aug-cc-pvdz/c tightscf
|  2> %pal nprocs 16 end
|  3>
|  4> * xyz 0 1
|  5> C      1.751556    1.082901    0.182606
|  6> C      2.271460   -0.203318    0.214278
|  7> C      0.398740    1.250753   -0.075620
|  8> C      1.403367   -1.263547   -0.016890
|  9> C     -0.401322    0.128061   -0.295305
| 10> C     -2.726106   -0.194903    0.645780
| 11> C     -1.881035    0.248415   -0.555272
| 12> N      0.103790   -1.111829   -0.264838
| 13> H      2.388226    1.940873    0.354047
| 14> H      3.319053   -0.385161    0.408951
| 15> H     -0.037426    2.240056   -0.109962
| 16> H      1.770415   -2.283998   -0.005475
| 17> H     -2.495860   -1.225772    0.912489
| 18> H     -3.789953   -0.129702    0.414763
| 19> H     -2.530642    0.432256    1.517119
| 20> H     -2.122699    1.279481   -0.819168
| 21> H     -2.127609   -0.375408   -1.416356
| 22> *
| 23>
| 24>                          ****END OF INPUT****

CARTESIAN COORDINATES (ANGSTROEM)
---------------------------------
  C      1.751556    1.082901    0.182606
  C      2.271460   -0.203318    0.214278
  C      0.398740    1.250753   -0.075620
  C      1.403367   -1.263547   -0.016890
  C     -0.401322    0.128061   -0.295305
  C     -2.726106   -0.194903    0.645780
  C     -1.881035    0.248415   -0.555272
  N      0.103790   -1.111829   -0.264838
  H      2.388226    1.940873    0.354047
  H      3.319053   -0.385161    0.408951
  H     -0.037426    2.240056   -0.109962
  H      1.770415   -2.283998   -0.005475
  H     -2.495860   -1.225772    0.912489
  H     -3.789953   -0.129702    0.414763
  H     -2.530642    0.432256    1.517119
  H     -2.122699    1.279481   -0.819168
  H     -2.127609   -0.375408   -1.416356

 Total Charge           Charge          ....    0
 Multiplicity           Mult            ....    1
 Number of Electrons    NEL             ....   58
 Basis Dimension        Dim             ....  265

ORBITAL ENERGIES
----------------

  NO   OCC          E(Eh)            E(eV)
   0   2.0000     -15.564937      -423.5435
   1   2.0000     -11.280978      -306.9710
   2   2.0000     -11.277456      -306.8752
   3   2.0000     -11.261126      -306.4308
   4   2.0000     -11.240334      -305.8650
   5   2.0000     -11.239711      -305.8481
   6   2.0000     -11.231196      -305.6164
   7   2.0000     -11.219765      -305.3053
   8   2.0000      -1.261014       -34.3139
   9   2.0000      -1.088700       -29.6250
  10   2.0000      -1.071854       -29.1666
  11   2.0000      -0.997789       -27.1512
  12   2.0000      -0.880795       -23.9677
  13   2.0000      -0.858190       -23.3525
  14   2.0000      -0.807755       -21.9801
  15   2.0000      -0.701415       -19.0865
  16   2.0000      -0.670387       -18.2422
  17   2.0000      -0.642184       -17.4747
  18   2.0000      -0.600526       -16.3411
  19   2.0000      -0.594238       -16.1700
  20   2.0000      -0.573686       -15.6108
  21   2.0000      -0.553974       -15.0744
  22   2.0000      -0.533969       -14.5300
  23   2.0000      -0.502959       -13.6862
  24   2.0000      -0.489649       -13.3240
  25   2.0000      -0.487903       -13.2765
  26   2.0000      -0.409407       -11.1405
  27   2.0000      -0.379439       -10.3251
  28   2.0000      -0.336022        -9.1436
  29   0.0000       0.032802         0.8926
  30   0.0000       0.039315         1.0698
  31   0.0000       0.043620         1.1870
  32   0.0000       0.053823         1.4646
  33   0.0000       0.055061         1.4983

MULLIKEN ATOMIC CHARGES
-----------------------
   0 C :   -0.217549
   1 C :    0.899235
   2 C :    0.928264
   3 C :    0.438693
   4 C :    0.307515
   5 C :    0.331307
   6 C :    0.185389
   7 N :   -0.769508
   8 H :   -0.410435
   9 H :   -0.424734
  10 H :   -0.550680
  11 H :   -0.365034
  12 H :   -0.039668
  13 H :   -0.093867
  14 H :   -0.089309
  15 H :   -0.111359
  16 H :   -0.018260
Sum of atomic charges:    0.0000000

LOEWDIN ATOMIC CHARGES
----------------------
   0 C :    0.020072
   1 C :    0.013008
   2 C :    0.051764
   3 C :   -0.028773
   4 C :   -0.225549
   5 C :    0.146200
   6 C :   -0.024233
   7 N :    0.063548
   8 H :    0.007466
   9 H :   -0.003793
  10 H :    0.002660
  11 H :    0.001659
  12 H :   -0.016563
  13 H :   -0.020485
  14 H :   -0.017462
  15 H :    0.011350
  16 H :    0.019131

  Mayer bond orders larger than 0.100000
B(  0-C ,  1-C ) :   1.5576 B(  0-C ,  2-C ) :   1.4291 B(  0-C ,  3-C ) :   0.2621
B(  0-C ,  4-C ) :   0.1757 B(  0-C ,  8-H ) :   0.5183 B(  0-C ,  9-H ) :   0.3248
B(  0-C , 10-H ) :   0.2935 B(  1-C ,  2-C ) :   0.1398 B(  1-C ,  3-C ) :   1.2221
B(  1-C ,  7-N ) :  -0.1541 B(  1-C ,  9-H ) :   0.3912 B(  2-C ,  3-C ) :  -0.3152
B(  2-C ,  4-C ) :   1.0085 B(  2-C ,  5-C ) :   0.1138 B(  2-C ,  6-C ) :  -0.1475
B(  2-C ,  8-H ) :   0.1381 B(  2-C , 10-H ) :   0.1475 B(  3-C ,  4-C ) :   0.2146
B(  3-C ,  7-N ) :   1.3176 B(  3-C , 11-H ) :   0.8436 B(  4-C ,  6-C ) :   1.1786
B(  4-C ,  7-N ) :   1.2190 B(  4-C , 10-H ) :   0.2314 B(  4-C , 15-H ) :   0.1341
B(  5-C ,  6-C ) :   1.1962 B(  5-C , 12-H ) :   0.9552 B(  5-C , 13-H ) :   0.9103
B(  5-C , 14-H ) :   0.9648 B(  6-C , 15-H ) :   0.7713 B(  6-C , 16-H ) :   0.8488
B(  7-N , 11-H ) :  -0.1231

MP2 TOTAL ENERGY:     -325.945686710 Eh
FINAL SINGLE POINT ENERGY      -325.945686710189

DIPOLE MOMENT
-------------
                                X             Y             Z
Electronic contribution:      6.04182      -0.86575      -1.15629
Nuclear contribution   :     -5.71893       1.51068       1.27561
                        -----------------------------------------
Total Dipole Moment    :      0.32289       0.64493       0.11931
                        -----------------------------------------
Magnitude (a.u.)       :      0.73105
Magnitude (Debye)      :      1.85818

Rotational constants in cm-1:     0.157402     0.050722     0.041800
Rotational constants in MHz :  4718.798398  1520.604559  1253.135961

                             ****ORCA TERMINATED NORMALLY****
TOTAL RUN TIME: 0 days 0 hours 1 minutes 21 seconds 113 msec
