                         Program Version 5.0.3 -  RELEASE  -
|  1> !ri-mp2 aug-cc-pvdz aug-cc-pvdz/c tightscf
|  2> %pal nprocs 16 end
|  3>
|  4> * xyz 0 1
|  5> O      3.930220    0.922903   -0.701602
|  6> O     -3.930220   -0.922899   -0.701611
|  7> O      3.973285   -0.836514    0.665513
|  8> O     -3.973285    0.836512    0.665510
|  9> C      3.332555    0.099218   -0.070156
| 10> C     -3.332555   -0.099217   -0.070161
| 11> C      1.886554    0.027690   -0.032419
| 12> C     -1.886554   -0.027691   -0.032422
| 13> C      0.677478    0.008906   -0.032785
| 14> C     -0.677478   -0.008907   -0.032786
| 15> H      3.342337   -1.424609    1.100947
| 16> H     -3.342337    1.424605    1.100948
| 17> *
| 18>
| 19>                          ****END OF INPUT****

CARTESIAN COORDINATES (ANGSTROEM)
---------------------------------
  O      3.930220    0.922903   -0.701602
  O     -3.930220   -0.922899   -0.701611
  O      3.973285   -0.836514    0.665513
  O     -3.973285    0.836512    0.665510
  C      3.332555    0.099218   -0.070156
  C     -3.332555   -0.099217   -0.070161
  C      1.886554    0.027690   -0.032419
  C     -1.886554   -0.027691   -0.032422
  C      0.677478    0.008906   -0.032785
  C     -0.677478   -0.008907   -0.032786
  H      3.342337   -1.424609    1.100947
  H     -3.342337    1.424605    1.100948

 Total Charge           Charge          ....    0
 Multiplicity           Mult            ....    1
 Number of Electrons    NEL             ....   70
 Basis Dimension        Dim             ....  248

ORBITAL ENERGIES
----------------

  NO   OCC          E(Eh)            E(eV)
   0   2.0000     -20.657673      -562.1239
   1   2.0000     -20.657673      -562.1239
   2   2.0000     -20.597234      -560.4792
   3   2.0000     -20.597233      -560.4792
   4   2.0000     -11.452587      -311.6407
   5   2.0000     -11.452587      -311.6407
   6   2.0000     -11.334763      -308.4346
   7   2.0000     -11.333502      -308.4003
   8   2.0000     -11.321271      -308.0674
   9   2.0000     -11.321248      -308.0668
  10   2.0000      -1.502973       -40.8980
  11   2.0000      -1.502966       -40.8978
  12   2.0000      -1.408987       -38.3405
  13   2.0000      -1.408985       -38.3404
  14   2.0000      -1.158938       -31.5363
  15   2.0000      -1.097082       -29.8531
  16   2.0000      -0.977317       -26.5942
  17   2.0000      -0.925440       -25.1825
  18   2.0000      -0.868396       -23.6302
  19   2.0000      -0.840216       -22.8634
  20   2.0000      -0.820759       -22.3340
  21   2.0000      -0.701251       -19.0820
  22   2.0000      -0.701017       -19.0757
  23   2.0000      -0.670184       -18.2366
  24   2.0000      -0.669744       -18.2247
  25   2.0000      -0.637252       -17.3405
  26   2.0000      -0.635989       -17.3061
  27   2.0000      -0.548788       -14.9333
  28   2.0000      -0.548417       -14.9232
  29   2.0000      -0.517654       -14.0861
  30   2.0000      -0.515390       -14.0245
  31   2.0000      -0.504232       -13.7209
  32   2.0000      -0.504024       -13.7152
  33   2.0000      -0.418000       -11.3744
  34   2.0000      -0.417344       -11.3565
  35   0.0000       0.017369         0.4726
  36   0.0000       0.023742         0.6460
  37   0.0000       0.027101         0.7375
  38   0.0000       0.036941         1.0052
  39   0.0000       0.066939         1.8215

MULLIKEN ATOMIC CHARGES
-----------------------
   0 O :   -0.658538
   1 O :   -0.658538
   2 O :   -0.650806
   3 O :   -0.650806
   4 C :    0.831977
   5 C :    0.831978
   6 C :   -1.493149
   7 C :   -1.493154
   8 C :    1.748131
   9 C :    1.748134
  10 H :    0.222384
  11 H :    0.222385
Sum of atomic charges:    0.0000000

LOEWDIN ATOMIC CHARGES
----------------------
   0 O :    0.085195
   1 O :    0.085195
   2 O :    0.218978
   3 O :    0.218978
   4 C :   -0.381010
   5 C :   -0.381011
   6 C :    0.118194
   7 C :    0.118194
   8 C :   -0.014464
   9 C :   -0.014464
  10 H :   -0.026893
  11 H :   -0.026892

  Mayer bond orders larger than 0.100000
B(  0-O ,  4-C ) :   1.7720 B(  0-O ,  6-C ) :  -0.1994 B(  0-O ,  8-C ) :   0.1360
B(  1-O ,  5-C ) :   1.7720 B(  1-O ,  7-C ) :  -0.1994 B(  1-O ,  9-C ) :   0.1360
B(  2-O ,  4-C ) :   0.4821 B(  2-O ,  6-C ) :   0.1270 B(  2-O , 10-H ) :   0.9808
B(  3-O ,  5-C ) :   0.4821 B(  3-O ,  7-C ) :   0.1270 B(  3-O , 11-H ) :   0.9808
B(  4-C ,  6-C ) :   1.4599 B(  4-C ,  8-C ) :  -0.5483 B(  5-C ,  7-C ) :   1.4599
B(  5-C ,  9-C ) :  -0.5483 B(  6-C ,  7-C ) :   3.0868 B(  6-C ,  8-C ) :   0.9129
B(  6-C ,  9-C ) :  -3.4172 B(  7-C ,  8-C ) :  -3.4172 B(  7-C ,  9-C ) :   0.9129
B(  8-C ,  9-C ) :   2.9577

MP2 TOTAL ENERGY:     -529.324253769 Eh
FINAL SINGLE POINT ENERGY      -529.324253768861

DIPOLE MOMENT
-------------
                                X             Y             Z
Electronic contribution:     -0.00000       0.00000      -0.72881
Nuclear contribution   :      0.00000      -0.00000       2.09536
                        -----------------------------------------
Total Dipole Moment    :     -0.00000      -0.00000       1.36655
                        -----------------------------------------
Magnitude (a.u.)       :      1.36655
Magnitude (Debye)      :      3.47349

Rotational constants in cm-1:     0.195050     0.011890     0.011713
Rotational constants in MHz :  5847.442947   356.450389   351.144225

                             ****ORCA TERMINATED NORMALLY****
TOTAL RUN TIME: 0 days 0 hours 0 minutes 52 seconds 827 msec
