                         Program Version 5.0.3 -  RELEASE  -
|  1> !ri-mp2 aug-cc-pvdz aug-cc-pvdz/c tightscf
|  2> %pal nprocs 16 end
|  3>
|  4> * xyz 0 1
|  5> C      0.000000    0.000000    0.000000
|  6> C      0.886726    0.886726    0.886726
|  7> C     -0.886726   -0.886726    0.886726
|  8> C      0.886726   -0.886726   -0.886726
|  9> C     -0.886726    0.886726   -0.886726
| 10> H     -1.529798    0.282357   -1.529798
| 11> H      1.529798    1.529798    0.282357
| 12> H      1.529798   -0.282357   -1.529798
| 13> H      1.529798    0.282357    1.529798
| 14> H     -1.529798   -0.282357    1.529798
| 15> H      1.529798   -1.529798   -0.282357
| 16> H     -0.282357    1.529798   -1.529798
| 17> H      0.282357    1.529798    1.529798
| 18> H      0.282357   -1.529798   -1.529798
| 19> H     -0.282357   -1.529798    1.529798
| 20> H     -1.529798    1.529798   -0.282357
| 21> H     -1.529798   -1.529798    0.282357
| 22> *
| 23>
| 24>                          ****END OF INPUT****

CARTESIAN COORDINATES (ANGSTROEM)
---------------------------------
  C      0.000000    0.000000    0.000000
  C      0.886726    0.886726    0.886726
  C     -0.886726   -0.886726    0.886726
  C      0.886726   -0.886726   -0.886726
  C     -0.886726    0.886726   -0.886726
  H     -1.529798    0.282357   -1.529798
  H      1.529798    1.529798    0.282357
  H      1.529798   -0.282357   -1.529798
  H      1.529798    0.282357    1.529798
  H     -1.529798   -0.282357    1.529798
  H      1.529798   -1.529798   -0.282357
  H     -0.282357    1.529798   -1.529798
  H      0.282357    1.529798    1.529798
  H      0.282357   -1.529798   -1.529798
  H     -0.282357   -1.529798    1.529798
  H     -1.529798    1.529798   -0.282357
  H     -1.529798   -1.529798    0.282357

 Total Charge           Charge          ....    0
 Multiplicity           Mult            ....    1
 Number of Electrons    NEL             ....   42
 Basis Dimension        Dim             ....  223

ORBITAL ENERGIES
----------------

  NO   OCC          E(Eh)            E(eV)
   0   2.0000     -11.235307      -305.7282
   1   2.0000     -11.213288      -305.1291
   2   2.0000     -11.213288      -305.1291
   3   2.0000     -11.213288      -305.1291
   4   2.0000     -11.213247      -305.1280
   5   2.0000      -1.102519       -30.0011
   6   2.0000      -0.928514       -25.2662
   7   2.0000      -0.928514       -25.2662
   8   2.0000      -0.928514       -25.2662
   9   2.0000      -0.730716       -19.8838
  10   2.0000      -0.608988       -16.5714
  11   2.0000      -0.608988       -16.5714
  12   2.0000      -0.608988       -16.5714
  13   2.0000      -0.551219       -14.9994
  14   2.0000      -0.551219       -14.9994
  15   2.0000      -0.508396       -13.8341
  16   2.0000      -0.508396       -13.8341
  17   2.0000      -0.508396       -13.8341
  18   2.0000      -0.451122       -12.2757
  19   2.0000      -0.451122       -12.2757
  20   2.0000      -0.451122       -12.2757
  21   0.0000       0.036846         1.0026
  22   0.0000       0.048426         1.3177
  23   0.0000       0.048426         1.3177
  24   0.0000       0.048426         1.3177
  25   0.0000       0.069307         1.8859

MULLIKEN ATOMIC CHARGES
-----------------------
   0 C :   -4.878008
   1 C :    1.346703
   2 C :    1.346703
   3 C :    1.346703
   4 C :    1.346703
   5 H :   -0.042400
   6 H :   -0.042400
   7 H :   -0.042400
   8 H :   -0.042400
   9 H :   -0.042400
  10 H :   -0.042400
  11 H :   -0.042400
  12 H :   -0.042400
  13 H :   -0.042400
  14 H :   -0.042400
  15 H :   -0.042400
  16 H :   -0.042400
Sum of atomic charges:   -0.0000000

LOEWDIN ATOMIC CHARGES
----------------------
   0 C :   -0.550128
   1 C :    0.165116
   2 C :    0.165116
   3 C :    0.165116
   4 C :    0.165116
   5 H :   -0.009195
   6 H :   -0.009195
   7 H :   -0.009195
   8 H :   -0.009195
   9 H :   -0.009195
  10 H :   -0.009195
  11 H :   -0.009195
  12 H :   -0.009195
  13 H :   -0.009195
  14 H :   -0.009195
  15 H :   -0.009195
  16 H :   -0.009195

  Mayer bond orders larger than 0.100000
B(  0-C ,  1-C ) :   1.0538 B(  0-C ,  2-C ) :   1.0538 B(  0-C ,  3-C ) :   1.0538
B(  0-C ,  4-C ) :   1.0538 B(  0-C ,  5-H ) :   0.1615 B(  0-C ,  6-H ) :   0.1615
B(  0-C ,  7-H ) :   0.1615 B(  0-C ,  8-H ) :   0.1615 B(  0-C ,  9-H ) :   0.1615
B(  0-C , 10-H ) :   0.1615 B(  0-C , 11-H ) :   0.1615 B(  0-C , 12-H ) :   0.1615
B(  0-C , 13-H ) :   0.1615 B(  0-C , 14-H ) :   0.1615 B(  0-C , 15-H ) :   0.1615
B(  0-C , 16-H ) :   0.1615 B(  1-C ,  6-H ) :   0.7319 B(  1-C ,  8-H ) :   0.7319
B(  1-C , 12-H ) :   0.7319 B(  2-C ,  9-H ) :   0.7319 B(  2-C , 14-H ) :   0.7319
B(  2-C , 16-H ) :   0.7319 B(  3-C ,  7-H ) :   0.7319 B(  3-C , 10-H ) :   0.7319
B(  3-C , 13-H ) :   0.7319 B(  4-C ,  5-H ) :   0.7319 B(  4-C , 11-H ) :   0.7319
B(  4-C , 15-H ) :   0.7319 B(  5-H , 11-H ) :  -0.1065 B(  5-H , 15-H ) :  -0.1065
B(  6-H ,  8-H ) :  -0.1065 B(  6-H , 12-H ) :  -0.1065 B(  7-H , 10-H ) :  -0.1065
B(  7-H , 13-H ) :  -0.1065 B(  8-H , 12-H ) :  -0.1065 B(  9-H , 14-H ) :  -0.1065
B(  9-H , 16-H ) :  -0.1065 B( 10-H , 13-H ) :  -0.1065 B( 11-H , 15-H ) :  -0.1065
B( 14-H , 16-H ) :  -0.1065

MP2 TOTAL ENERGY:     -197.122289449 Eh
FINAL SINGLE POINT ENERGY      -197.122289448980

DIPOLE MOMENT
-------------
                                X             Y             Z
Electronic contribution:      0.00000       0.00000       0.00000
Nuclear contribution   :      0.00000       0.00000      -0.00000
                        -----------------------------------------
Total Dipole Moment    :      0.00000       0.00000       0.00000
                        -----------------------------------------
Magnitude (a.u.)       :      0.00000
Magnitude (Debye)      :      0.00000

Rotational constants in cm-1:     0.147953     0.147953     0.147953
Rotational constants in MHz :  4435.513729  4435.513729  4435.513729

                             ****ORCA TERMINATED NORMALLY****
TOTAL RUN TIME: 0 days 0 hours 0 minutes 48 seconds 640 msec
