                         Program Version 5.0.3 -  RELEASE  -
|  1> !ri-mp2 aug-cc-pvdz aug-cc-pvdz/c tightscf
|  2> %pal nprocs 16 end
|  3>
|  4> * xyz 0 1
|  5> C      0.000000    0.160391    0.000000
|  6> C      1.341166   -0.522197    0.000000
|  7> C     -1.204165   -0.750105    0.000000
|  8> N     -0.046207    1.430440    0.000000
|  9> H      2.139324    0.215075    0.000000
| 10> H      1.444083   -1.166052    0.876901
| 11> H      1.444083   -1.166052   -0.876901
| 12> H     -2.134256   -0.183538    0.000000
| 13> H     -1.190635   -1.402345    0.876352
| 14> H     -1.190635   -1.402345   -0.876352
| 15> H     -1.010521    1.763644    0.000000
| 16> *
| 17>
| 18>                          ****END OF INPUT****

CARTESIAN COORDINATES (ANGSTROEM)
---------------------------------
  C      0.000000    0.160391    0.000000
  C      1.341166   -0.522197    0.000000
  C     -1.204165   -0.750105    0.000000
  N     -0.046207    1.430440    0.000000
  H      2.139324    0.215075    0.000000
  H      1.444083   -1.166052    0.876901
  H      1.444083   -1.166052   -0.876901
  H     -2.134256   -0.183538    0.000000
  H     -1.190635   -1.402345    0.876352
  H     -1.190635   -1.402345   -0.876352
  H     -1.010521    1.763644    0.000000

 Total Charge           Charge          ....    0
 Multiplicity           Mult            ....    1
 Number of Electrons    NEL             ....   32
 Basis Dimension        Dim             ....  155

ORBITAL ENERGIES
----------------

  NO   OCC          E(Eh)            E(eV)
   0   2.0000     -15.547542      -423.0701
   1   2.0000     -11.291624      -307.2607
   2   2.0000     -11.241509      -305.8970
   3   2.0000     -11.229497      -305.5701
   4   2.0000      -1.213582       -33.0232
   5   2.0000      -1.012858       -27.5613
   6   2.0000      -0.958615       -26.0852
   7   2.0000      -0.745470       -20.2853
   8   2.0000      -0.650583       -17.7033
   9   2.0000      -0.606934       -16.5155
  10   2.0000      -0.604218       -16.4416
  11   2.0000      -0.549299       -14.9472
  12   2.0000      -0.543793       -14.7974
  13   2.0000      -0.519167       -14.1273
  14   2.0000      -0.414324       -11.2743
  15   2.0000      -0.410254       -11.1636
  16   0.0000       0.032739         0.8909
  17   0.0000       0.046000         1.2517
  18   0.0000       0.051755         1.4083
  19   0.0000       0.054632         1.4866
  20   0.0000       0.072713         1.9786

MULLIKEN ATOMIC CHARGES
-----------------------
   0 C :   -0.316362
   1 C :    0.451251
   2 C :    0.533859
   3 N :   -0.535068
   4 H :   -0.105535
   5 H :    0.040152
   6 H :    0.040152
   7 H :   -0.180179
   8 H :    0.036172
   9 H :    0.036172
  10 H :   -0.000613
Sum of atomic charges:    0.0000000

LOEWDIN ATOMIC CHARGES
----------------------
   0 C :   -0.361128
   1 C :    0.172961
   2 C :    0.183125
   3 N :    0.159353
   4 H :   -0.012494
   5 H :   -0.010290
   6 H :   -0.010290
   7 H :   -0.015289
   8 H :   -0.008296
   9 H :   -0.008296
  10 H :   -0.089355

  Mayer bond orders larger than 0.100000
B(  0-C ,  1-C ) :   1.2917 B(  0-C ,  2-C ) :   1.0923 B(  0-C ,  3-N ) :   1.6435
B(  0-C ,  4-H ) :   0.1758 B(  0-C ,  7-H ) :   0.2057 B(  1-C ,  4-H ) :   0.8314
B(  1-C ,  5-H ) :   0.8981 B(  1-C ,  6-H ) :   0.8981 B(  2-C ,  7-H ) :   0.7828
B(  2-C ,  8-H ) :   0.9389 B(  2-C ,  9-H ) :   0.9389 B(  3-N , 10-H ) :   1.0206

MP2 TOTAL ENERGY:     -172.753364585 Eh
FINAL SINGLE POINT ENERGY      -172.753364584590

DIPOLE MOMENT
-------------
                                X             Y             Z
Electronic contribution:      0.03354       2.57685       0.00000
Nuclear contribution   :     -0.52506      -3.50849       0.00000
                        -----------------------------------------
Total Dipole Moment    :     -0.49152      -0.93164       0.00000
                        -----------------------------------------
Magnitude (a.u.)       :      1.05335
Magnitude (Debye)      :      2.67741

Rotational constants in cm-1:     0.325462     0.283438     0.160435
Rotational constants in MHz :  9757.119528  8497.245557  4809.717119

                             ****ORCA TERMINATED NORMALLY****
TOTAL RUN TIME: 0 days 0 hours 0 minutes 26 seconds 169 msec
