                         Program Version 5.0.3 -  RELEASE  -
|  1> !ri-mp2 aug-cc-pvdz aug-cc-pvdz/c tightscf
|  2> %pal nprocs 16 end
|  3>
|  4> * xyz 0 1
|  5> C     -0.634025    0.771526    1.262380
|  6> C      1.518392    1.037638    0.000000
|  7> C     -0.634025    0.771526   -1.262380
|  8> C     -0.634025   -1.948562    0.000000
|  9> C      0.140834    0.377397    0.000000
| 10> O      0.443226   -1.034249    0.000000
| 11> H     -0.101780    0.437781    2.153609
| 12> H     -0.741929    1.855478    1.313981
| 13> H     -1.636409    0.343353    1.277197
| 14> H      2.081691    0.735411   -0.882718
| 15> H      2.081691    0.735411    0.882718
| 16> H      1.426783    2.124044    0.000000
| 17> H     -1.636409    0.343353   -1.277197
| 18> H     -0.741929    1.855478   -1.313981
| 19> H     -0.101780    0.437781   -2.153609
| 20> H     -1.264755   -1.854556   -0.889485
| 21> H     -1.264755   -1.854556    0.889485
| 22> H     -0.189132   -2.942139    0.000000
| 23> *
| 24>
| 25>                          ****END OF INPUT****

CARTESIAN COORDINATES (ANGSTROEM)
---------------------------------
  C     -0.634025    0.771526    1.262380
  C      1.518392    1.037638    0.000000
  C     -0.634025    0.771526   -1.262380
  C     -0.634025   -1.948562    0.000000
  C      0.140834    0.377397    0.000000
  O      0.443226   -1.034249    0.000000
  H     -0.101780    0.437781    2.153609
  H     -0.741929    1.855478    1.313981
  H     -1.636409    0.343353    1.277197
  H      2.081691    0.735411   -0.882718
  H      2.081691    0.735411    0.882718
  H      1.426783    2.124044    0.000000
  H     -1.636409    0.343353   -1.277197
  H     -0.741929    1.855478   -1.313981
  H     -0.101780    0.437781   -2.153609
  H     -1.264755   -1.854556   -0.889485
  H     -1.264755   -1.854556    0.889485
  H     -0.189132   -2.942139    0.000000

 Total Charge           Charge          ....    0
 Multiplicity           Mult            ....    1
 Number of Electrons    NEL             ....   50
 Basis Dimension        Dim             ....  246

ORBITAL ENERGIES
----------------

  NO   OCC          E(Eh)            E(eV)
   0   2.0000     -20.554206      -559.3084
   1   2.0000     -11.288617      -307.1789
   2   2.0000     -11.269903      -306.6697
   3   2.0000     -11.218553      -305.2723
   4   2.0000     -11.218535      -305.2719
   5   2.0000     -11.212951      -305.1199
   6   2.0000      -1.362888       -37.0861
   7   2.0000      -1.073633       -29.2150
   8   2.0000      -0.945054       -25.7162
   9   2.0000      -0.940203       -25.5842
  10   2.0000      -0.910265       -24.7696
  11   2.0000      -0.750677       -20.4270
  12   2.0000      -0.653001       -17.7691
  13   2.0000      -0.639448       -17.4003
  14   2.0000      -0.632673       -17.2159
  15   2.0000      -0.592455       -16.1215
  16   2.0000      -0.573013       -15.5925
  17   2.0000      -0.551404       -15.0045
  18   2.0000      -0.532047       -14.4777
  19   2.0000      -0.522059       -14.2059
  20   2.0000      -0.513623       -13.9764
  21   2.0000      -0.486485       -13.2379
  22   2.0000      -0.484770       -13.1913
  23   2.0000      -0.443532       -12.0691
  24   2.0000      -0.410081       -11.1589
  25   0.0000       0.036183         0.9846
  26   0.0000       0.045553         1.2396
  27   0.0000       0.048190         1.3113
  28   0.0000       0.049044         1.3346
  29   0.0000       0.064637         1.7589

MULLIKEN ATOMIC CHARGES
-----------------------
   0 C :    1.180962
   1 C :    0.861040
   2 C :    1.180962
   3 C :    0.884341
   4 C :   -2.361769
   5 O :   -0.957109
   6 H :   -0.004329
   7 H :   -0.027774
   8 H :   -0.100070
   9 H :   -0.029399
  10 H :   -0.029399
  11 H :    0.027350
  12 H :   -0.100070
  13 H :   -0.027774
  14 H :   -0.004329
  15 H :   -0.119965
  16 H :   -0.119965
  17 H :   -0.252703
Sum of atomic charges:   -0.0000000

LOEWDIN ATOMIC CHARGES
----------------------
   0 C :    0.174413
   1 C :    0.172435
   2 C :    0.174413
   3 C :    0.130218
   4 C :   -0.491381
   5 O :    0.003168
   6 H :   -0.001217
   7 H :   -0.007650
   8 H :   -0.020223
   9 H :   -0.006421
  10 H :   -0.006421
  11 H :   -0.008211
  12 H :   -0.020223
  13 H :   -0.007650
  14 H :   -0.001217
  15 H :   -0.029118
  16 H :   -0.029118
  17 H :   -0.025797

  Mayer bond orders larger than 0.100000
B(  0-C ,  1-C ) :  -0.1739 B(  0-C ,  2-C ) :  -0.1287 B(  0-C ,  4-C ) :   1.2088
B(  0-C ,  5-O ) :   0.1037 B(  0-C ,  6-H ) :   0.7337 B(  0-C ,  7-H ) :   0.7881
B(  0-C ,  8-H ) :   0.7456 B(  1-C ,  2-C ) :  -0.1739 B(  1-C ,  4-C ) :   1.7126
B(  1-C ,  9-H ) :   0.7408 B(  1-C , 10-H ) :   0.7408 B(  1-C , 11-H ) :   0.7985
B(  2-C ,  4-C ) :   1.2088 B(  2-C ,  5-O ) :   0.1037 B(  2-C , 12-H ) :   0.7456
B(  2-C , 13-H ) :   0.7881 B(  2-C , 14-H ) :   0.7337 B(  3-C ,  5-O ) :   0.8439
B(  3-C , 15-H ) :   0.9483 B(  3-C , 16-H ) :   0.9483 B(  3-C , 17-H ) :   0.9916
B(  4-C ,  5-O ) :  -0.2769 B(  4-C ,  6-H ) :   0.1695 B(  4-C ,  7-H ) :   0.1320
B(  4-C ,  8-H ) :   0.2185 B(  4-C ,  9-H ) :   0.2882 B(  4-C , 10-H ) :   0.2882
B(  4-C , 11-H ) :   0.1070 B(  4-C , 12-H ) :   0.2185 B(  4-C , 13-H ) :   0.1320
B(  4-C , 14-H ) :   0.1695 B(  6-H ,  8-H ) :  -0.1209 B(  7-H ,  8-H ) :  -0.1002
B(  9-H , 10-H ) :  -0.1042 B( 12-H , 13-H ) :  -0.1002 B( 12-H , 14-H ) :  -0.1209

MP2 TOTAL ENERGY:     -272.168007944 Eh
FINAL SINGLE POINT ENERGY      -272.168007943942

DIPOLE MOMENT
-------------
                                X             Y             Z
Electronic contribution:      1.72185      -2.11436       0.00000
Nuclear contribution   :     -2.21760       2.34417       0.00000
                        -----------------------------------------
Total Dipole Moment    :     -0.49575       0.22980       0.00000
                        -----------------------------------------
Magnitude (a.u.)       :      0.54643
Magnitude (Debye)      :      1.38891

Rotational constants in cm-1:     0.146131     0.090472     0.090363
Rotational constants in MHz :  4380.901471  2712.292604  2709.010193

                             ****ORCA TERMINATED NORMALLY****
TOTAL RUN TIME: 0 days 0 hours 0 minutes 42 seconds 440 msec
