                         Program Version 5.0.3 -  RELEASE  -
|  1> !ri-mp2 aug-cc-pvdz aug-cc-pvdz/c tightscf
|  2> %pal nprocs 16 end
|  3> %maxcore 3800
|  4>
|  5> * xyz 0 1
|  6> N      0.859731   -0.762092   -0.403390
|  7> N      2.049387   -0.946307   -0.188347
|  8> N      3.137721   -1.220267   -0.036056
|  9> C      0.291648    0.571345    0.012070
| 10> C     -1.196524    0.509338   -0.367515
| 11> C      0.982348    1.682950   -0.785949
| 12> C      0.502842    0.782356    1.515246
| 13> C     -2.032716   -0.571619    0.318400
| 14> C     -3.460252   -0.628326   -0.225082
| 15> H     -1.253030    0.365417   -1.449882
| 16> H     -1.630745    1.492153   -0.162114
| 17> H      0.564501    2.654726   -0.520022
| 18> H      2.052937    1.712880   -0.577082
| 19> H      0.845343    1.530789   -1.856315
| 20> H      0.024062    1.708878    1.835252
| 21> H      1.564949    0.858780    1.752680
| 22> H      0.084771   -0.038464    2.094828
| 23> H     -1.547898   -1.539559    0.179221
| 24> H     -2.067572   -0.392248    1.395396
| 25> H     -3.978282    0.323071   -0.084883
| 26> H     -3.466515   -0.852334   -1.293656
| 27> H     -4.044468   -1.399694    0.278104
| 28> *
| 29>
| 30>                          ****END OF INPUT****

CARTESIAN COORDINATES (ANGSTROEM)
---------------------------------
  N      0.859731   -0.762092   -0.403390
  N      2.049387   -0.946307   -0.188347
  N      3.137721   -1.220267   -0.036056
  C      0.291648    0.571345    0.012070
  C     -1.196524    0.509338   -0.367515
  C      0.982348    1.682950   -0.785949
  C      0.502842    0.782356    1.515246
  C     -2.032716   -0.571619    0.318400
  C     -3.460252   -0.628326   -0.225082
  H     -1.253030    0.365417   -1.449882
  H     -1.630745    1.492153   -0.162114
  H      0.564501    2.654726   -0.520022
  H      2.052937    1.712880   -0.577082
  H      0.845343    1.530789   -1.856315
  H      0.024062    1.708878    1.835252
  H      1.564949    0.858780    1.752680
  H      0.084771   -0.038464    2.094828
  H     -1.547898   -1.539559    0.179221
  H     -2.067572   -0.392248    1.395396
  H     -3.978282    0.323071   -0.084883
  H     -3.466515   -0.852334   -1.293656
  H     -4.044468   -1.399694    0.278104

 Total Charge           Charge          ....    0
 Multiplicity           Mult            ....    1
 Number of Electrons    NEL             ....   70
 Basis Dimension        Dim             ....  324

ORBITAL ENERGIES
----------------

  NO   OCC          E(Eh)            E(eV)
   0   2.0000     -15.784990      -429.5314
   1   2.0000     -15.664567      -426.2545
   2   2.0000     -15.604471      -424.6192
   3   2.0000     -11.295615      -307.3693
   4   2.0000     -11.231852      -305.6342
   5   2.0000     -11.231691      -305.6299
   6   2.0000     -11.230424      -305.5954
   7   2.0000     -11.223477      -305.4063
   8   2.0000     -11.219467      -305.2972
   9   2.0000      -1.502880       -40.8954
  10   2.0000      -1.291672       -35.1482
  11   2.0000      -1.111742       -30.2520
  12   2.0000      -1.040405       -28.3109
  13   2.0000      -0.952382       -25.9156
  14   2.0000      -0.934673       -25.4337
  15   2.0000      -0.849828       -23.1250
  16   2.0000      -0.807018       -21.9601
  17   2.0000      -0.705064       -19.1858
  18   2.0000      -0.697411       -18.9775
  19   2.0000      -0.688738       -18.7415
  20   2.0000      -0.661465       -17.9994
  21   2.0000      -0.625465       -17.0198
  22   2.0000      -0.609984       -16.5985
  23   2.0000      -0.593782       -16.1576
  24   2.0000      -0.568372       -15.4662
  25   2.0000      -0.560126       -15.2418
  26   2.0000      -0.550519       -14.9804
  27   2.0000      -0.532516       -14.4905
  28   2.0000      -0.522409       -14.2155
  29   2.0000      -0.506340       -13.7782
  30   2.0000      -0.474926       -12.9234
  31   2.0000      -0.467733       -12.7277
  32   2.0000      -0.461244       -12.5511
  33   2.0000      -0.418535       -11.3889
  34   2.0000      -0.368978       -10.0404
  35   0.0000       0.034435         0.9370
  36   0.0000       0.040648         1.1061
  37   0.0000       0.043285         1.1778
  38   0.0000       0.048839         1.3290
  39   0.0000       0.060139         1.6365

MULLIKEN ATOMIC CHARGES
-----------------------
   0 N :   -0.614470
   1 N :    0.398570
   2 N :   -0.415954
   3 C :   -2.778424
   4 C :    0.856858
   5 C :    1.355753
   6 C :    1.216990
   7 C :    0.413325
   8 C :    0.484666
   9 H :   -0.128223
  10 H :   -0.143964
  11 H :    0.036882
  12 H :   -0.029080
  13 H :   -0.012386
  14 H :    0.011009
  15 H :   -0.030469
  16 H :   -0.031961
  17 H :   -0.158217
  18 H :   -0.217894
  19 H :   -0.069395
  20 H :   -0.078714
  21 H :   -0.064902
Sum of atomic charges:   -0.0000000

LOEWDIN ATOMIC CHARGES
----------------------
   0 N :    0.101679
   1 N :   -0.291737
   2 N :    0.249608
   3 C :   -0.461718
   4 C :   -0.002595
   5 C :    0.180373
   6 C :    0.182056
   7 C :   -0.060304
   8 C :    0.136609
   9 H :    0.024769
  10 H :    0.027003
  11 H :   -0.003862
  12 H :   -0.011752
  13 H :   -0.003043
  14 H :   -0.000201
  15 H :   -0.011358
  16 H :   -0.010385
  17 H :    0.008529
  18 H :    0.004897
  19 H :   -0.019595
  20 H :   -0.018494
  21 H :   -0.020479

  Mayer bond orders larger than 0.100000
B(  0-N ,  1-N ) :   1.1191 B(  0-N ,  2-N ) :   0.2712 B(  0-N ,  3-C ) :  -0.1294
B(  1-N ,  2-N ) :   1.7951 B(  1-N ,  3-C ) :  -0.1224 B(  3-C ,  4-C ) :   0.6264
B(  3-C ,  5-C ) :   1.1841 B(  3-C ,  6-C ) :   1.2777 B(  3-C ,  9-H ) :   0.3946
B(  3-C , 10-H ) :   0.2236 B(  3-C , 11-H ) :   0.2865 B(  3-C , 12-H ) :   0.2401
B(  3-C , 13-H ) :   0.2382 B(  3-C , 14-H ) :   0.2988 B(  3-C , 15-H ) :   0.2159
B(  3-C , 16-H ) :   0.1447 B(  3-C , 18-H ) :  -0.1021 B(  4-C ,  6-C ) :  -0.1154
B(  4-C ,  7-C ) :   1.0680 B(  4-C ,  9-H ) :   0.5864 B(  4-C , 10-H ) :   0.7520
B(  4-C , 18-H ) :   0.2088 B(  5-C ,  6-C ) :  -0.1407 B(  5-C , 11-H ) :   0.7063
B(  5-C , 12-H ) :   0.7396 B(  5-C , 13-H ) :   0.7046 B(  5-C , 14-H ) :  -0.1695
B(  6-C , 11-H ) :  -0.1194 B(  6-C , 14-H ) :   0.7492 B(  6-C , 15-H ) :   0.7116
B(  6-C , 16-H ) :   0.7540 B(  7-C ,  8-C ) :   1.1741 B(  7-C , 17-H ) :   0.7281
B(  7-C , 18-H ) :   0.6846 B(  7-C , 21-H ) :   0.1005 B(  8-C , 19-H ) :   0.9044
B(  8-C , 20-H ) :   0.9065 B(  8-C , 21-H ) :   0.9157 B(  9-H , 10-H ) :  -0.1375
B( 12-H , 13-H ) :  -0.1103 B( 14-H , 15-H ) :  -0.1029 B( 15-H , 16-H ) :  -0.1023

MP2 TOTAL ENERGY:     -399.525626491 Eh
FINAL SINGLE POINT ENERGY      -399.525626491179

DIPOLE MOMENT
-------------
                                X             Y             Z
Electronic contribution:     12.74777      -5.88476      -1.41536
Nuclear contribution   :    -13.24714       6.62251       1.64120
                        -----------------------------------------
Total Dipole Moment    :     -0.49936       0.73775       0.22584
                        -----------------------------------------
Magnitude (a.u.)       :      0.91905
Magnitude (Debye)      :      2.33603

Rotational constants in cm-1:     0.091773     0.030207     0.027296
Rotational constants in MHz :  2751.282376   905.585214   818.312924

                             ****ORCA TERMINATED NORMALLY****
TOTAL RUN TIME: 0 days 0 hours 2 minutes 3 seconds 45 msec
