                         Program Version 5.0.3 -  RELEASE  -
|  1> !ri-mp2 aug-cc-pvdz aug-cc-pvdz/c tightscf
|  2> %pal nprocs 16 end
|  3>
|  4> * xyz 0 1
|  5> C      1.914502   -1.078827   -0.104407
|  6> C      1.061527    0.128342   -0.489304
|  7> C      1.601028    1.440504    0.068529
|  8> S     -0.649449   -0.198934    0.095737
|  9> C     -1.646361    1.149604   -0.566671
| 10> O     -1.109835   -1.428241   -0.547411
| 11> O     -0.671628   -0.094970    1.553917
| 12> H      1.500968   -2.001807   -0.504676
| 13> H      2.919668   -0.945747   -0.505540
| 14> H      1.988659   -1.170348    0.978888
| 15> H      0.955561    0.177066   -1.574814
| 16> H      2.625979    1.581977   -0.276903
| 17> H      1.023346    2.303886   -0.259803
| 18> H      1.607003    1.421611    1.157570
| 19> H     -1.554403    1.165975   -1.649467
| 20> H     -2.667243    0.908253   -0.279320
| 21> H     -1.340836    2.090018   -0.118649
| 22> *
| 23>
| 24>                          ****END OF INPUT****

CARTESIAN COORDINATES (ANGSTROEM)
---------------------------------
  C      1.914502   -1.078827   -0.104407
  C      1.061527    0.128342   -0.489304
  C      1.601028    1.440504    0.068529
  S     -0.649449   -0.198934    0.095737
  C     -1.646361    1.149604   -0.566671
  O     -1.109835   -1.428241   -0.547411
  O     -0.671628   -0.094970    1.553917
  H      1.500968   -2.001807   -0.504676
  H      2.919668   -0.945747   -0.505540
  H      1.988659   -1.170348    0.978888
  H      0.955561    0.177066   -1.574814
  H      2.625979    1.581977   -0.276903
  H      1.023346    2.303886   -0.259803
  H      1.607003    1.421611    1.157570
  H     -1.554403    1.165975   -1.649467
  H     -2.667243    0.908253   -0.279320
  H     -1.340836    2.090018   -0.118649

 Total Charge           Charge          ....    0
 Multiplicity           Mult            ....    1
 Number of Electrons    NEL             ....   66
 Basis Dimension        Dim             ....  255

ORBITAL ENERGIES
----------------

  NO   OCC          E(Eh)            E(eV)
   0   2.0000     -92.188039     -2508.5641
   1   2.0000     -20.546374      -559.0952
   2   2.0000     -20.545635      -559.0752
   3   2.0000     -11.292272      -307.2784
   4   2.0000     -11.282559      -307.0140
   5   2.0000     -11.251724      -306.1750
   6   2.0000     -11.242198      -305.9158
   7   2.0000      -9.161767      -249.3044
   8   2.0000      -6.846950      -186.3150
   9   2.0000      -6.845601      -186.2783
  10   2.0000      -6.845252      -186.2688
  11   2.0000      -1.442544       -39.2536
  12   2.0000      -1.328705       -36.1559
  13   2.0000      -1.112862       -30.2825
  14   2.0000      -1.037138       -28.2220
  15   2.0000      -0.962331       -26.1864
  16   2.0000      -0.889960       -24.2170
  17   2.0000      -0.784382       -21.3441
  18   2.0000      -0.697315       -18.9749
  19   2.0000      -0.662054       -18.0154
  20   2.0000      -0.655142       -17.8273
  21   2.0000      -0.640835       -17.4380
  22   2.0000      -0.606803       -16.5119
  23   2.0000      -0.595403       -16.2017
  24   2.0000      -0.585572       -15.9342
  25   2.0000      -0.562813       -15.3149
  26   2.0000      -0.555751       -15.1227
  27   2.0000      -0.516344       -14.0504
  28   2.0000      -0.514968       -14.0130
  29   2.0000      -0.485077       -13.1996
  30   2.0000      -0.476452       -12.9649
  31   2.0000      -0.457637       -12.4529
  32   2.0000      -0.418299       -11.3825
  33   0.0000       0.027075         0.7367
  34   0.0000       0.038304         1.0423
  35   0.0000       0.044452         1.2096
  36   0.0000       0.049475         1.3463
  37   0.0000       0.061453         1.6722

MULLIKEN ATOMIC CHARGES
-----------------------
   0 C :    0.777639
   1 C :   -1.408346
   2 C :    0.792850
   3 S :    2.639965
   4 C :    0.069392
   5 O :   -1.235870
   6 O :   -1.248128
   7 H :   -0.052891
   8 H :   -0.042017
   9 H :    0.013638
  10 H :   -0.179309
  11 H :   -0.042242
  12 H :   -0.129124
  13 H :    0.023105
  14 H :   -0.018069
  15 H :    0.028643
  16 H :    0.010763
Sum of atomic charges:    0.0000000

LOEWDIN ATOMIC CHARGES
----------------------
   0 C :    0.141307
   1 C :   -0.332532
   2 C :    0.138743
   3 S :    0.930690
   4 C :    0.088658
   5 O :   -0.404146
   6 O :   -0.402955
   7 H :   -0.015666
   8 H :   -0.009988
   9 H :   -0.006978
  10 H :    0.016948
  11 H :   -0.008716
  12 H :   -0.024784
  13 H :   -0.007184
  14 H :   -0.032689
  15 H :   -0.029303
  16 H :   -0.041406

  Mayer bond orders larger than 0.100000
B(  0-C ,  1-C ) :   1.4182 B(  0-C ,  2-C ) :  -0.1456 B(  0-C ,  7-H ) :   0.8211
B(  0-C ,  8-H ) :   0.8179 B(  0-C ,  9-H ) :   0.8947 B(  1-C ,  2-C ) :   1.3873
B(  1-C ,  3-S ) :   0.7327 B(  1-C ,  5-O ) :   0.2090 B(  1-C ,  6-O ) :   0.1569
B(  1-C ,  7-H ) :   0.1327 B(  1-C ,  8-H ) :   0.1080 B(  1-C ,  9-H ) :   0.1203
B(  1-C , 10-H ) :   0.8783 B(  1-C , 13-H ) :   0.1535 B(  2-C , 11-H ) :   0.8087
B(  2-C , 12-H ) :   0.8674 B(  2-C , 13-H ) :   0.8829 B(  3-S ,  4-C ) :   1.1638
B(  3-S ,  5-O ) :   0.5892 B(  3-S ,  6-O ) :   0.6490 B(  4-C , 14-H ) :   0.9381
B(  4-C , 15-H ) :   0.9315 B(  4-C , 16-H ) :   0.8987 B(  5-O ,  6-O ) :   0.1419

MP2 TOTAL ENERGY:     -705.678349451 Eh
FINAL SINGLE POINT ENERGY      -705.678349451103

DIPOLE MOMENT
-------------
                                X             Y             Z
Electronic contribution:     -6.29316      -4.03612       1.96463
Nuclear contribution   :      7.15285       5.59291      -3.06357
                        -----------------------------------------
Total Dipole Moment    :      0.85969       1.55679      -1.09894
                        -----------------------------------------
Magnitude (a.u.)       :      2.09053
Magnitude (Debye)      :      5.31371

Rotational constants in cm-1:     0.099101     0.065358     0.054291
Rotational constants in MHz :  2970.984282  1959.376335  1627.613595

                             ****ORCA TERMINATED NORMALLY****
TOTAL RUN TIME: 0 days 0 hours 1 minutes 0 seconds 127 msec
