                         Program Version 5.0.3 -  RELEASE  -
|  1> !ri-mp2 aug-cc-pvdz aug-cc-pvdz/c tightscf
|  2> %pal nprocs 16 end
|  3> %maxcore 3800
|  4>
|  5> * xyz 0 1
|  6> C      4.089165    0.588477    0.122469
|  7> C      2.923903   -0.328181   -0.246075
|  8> C      1.567017    0.231891    0.182347
|  9> C      0.411798   -0.680523   -0.186833
| 10> C     -3.172463   -0.056120    0.344075
| 11> C     -1.956993   -0.859646   -0.067429
| 12> O     -3.273599    1.167332   -0.370804
| 13> O     -0.806302   -0.090619    0.241637
| 14> H      3.988063    1.565495   -0.353995
| 15> H      4.136511    0.751152    1.200924
| 16> H      5.043295    0.163461   -0.191317
| 17> H      2.923021   -0.497172   -1.326931
| 18> H      3.074567   -1.308953    0.214777
| 19> H      1.555650    0.393751    1.263323
| 20> H      1.405218    1.208369   -0.282062
| 21> H      0.381813   -0.843154   -1.272776
| 22> H      0.532797   -1.663858    0.288024
| 23> H     -3.138051    0.127329    1.424009
| 24> H     -4.077395   -0.622897    0.124143
| 25> H     -1.992298   -1.069512   -1.143946
| 26> H     -1.937954   -1.816743    0.471425
| 27> H     -2.430595    1.623640   -0.273584
| 28> *
| 29>
| 30>                          ****END OF INPUT****

CARTESIAN COORDINATES (ANGSTROEM)
---------------------------------
  C      4.089165    0.588477    0.122469
  C      2.923903   -0.328181   -0.246075
  C      1.567017    0.231891    0.182347
  C      0.411798   -0.680523   -0.186833
  C     -3.172463   -0.056120    0.344075
  C     -1.956993   -0.859646   -0.067429
  O     -3.273599    1.167332   -0.370804
  O     -0.806302   -0.090619    0.241637
  H      3.988063    1.565495   -0.353995
  H      4.136511    0.751152    1.200924
  H      5.043295    0.163461   -0.191317
  H      2.923021   -0.497172   -1.326931
  H      3.074567   -1.308953    0.214777
  H      1.555650    0.393751    1.263323
  H      1.405218    1.208369   -0.282062
  H      0.381813   -0.843154   -1.272776
  H      0.532797   -1.663858    0.288024
  H     -3.138051    0.127329    1.424009
  H     -4.077395   -0.622897    0.124143
  H     -1.992298   -1.069512   -1.143946
  H     -1.937954   -1.816743    0.471425
  H     -2.430595    1.623640   -0.273584

 Total Charge           Charge          ....    0
 Multiplicity           Mult            ....    1
 Number of Electrons    NEL             ....   66
 Basis Dimension        Dim             ....  310

ORBITAL ENERGIES
----------------

  NO   OCC          E(Eh)            E(eV)
   0   2.0000     -20.571218      -559.7713
   1   2.0000     -20.559428      -559.4505
   2   2.0000     -11.283572      -307.0416
   3   2.0000     -11.283549      -307.0410
   4   2.0000     -11.279007      -306.9174
   5   2.0000     -11.230758      -305.6045
   6   2.0000     -11.226572      -305.4905
   7   2.0000     -11.222486      -305.3794
   8   2.0000      -1.387102       -37.7450
   9   2.0000      -1.351420       -36.7740
  10   2.0000      -1.081476       -29.4285
  11   2.0000      -1.018352       -27.7108
  12   2.0000      -0.964372       -26.2419
  13   2.0000      -0.864680       -23.5291
  14   2.0000      -0.832661       -22.6579
  15   2.0000      -0.801238       -21.8028
  16   2.0000      -0.696155       -18.9433
  17   2.0000      -0.683326       -18.5942
  18   2.0000      -0.659886       -17.9564
  19   2.0000      -0.641992       -17.4695
  20   2.0000      -0.615853       -16.7582
  21   2.0000      -0.588084       -16.0026
  22   2.0000      -0.584346       -15.9009
  23   2.0000      -0.559838       -15.2340
  24   2.0000      -0.548267       -14.9191
  25   2.0000      -0.517768       -14.0892
  26   2.0000      -0.506721       -13.7886
  27   2.0000      -0.489189       -13.3115
  28   2.0000      -0.477989       -13.0067
  29   2.0000      -0.471434       -12.8284
  30   2.0000      -0.465471       -12.6661
  31   2.0000      -0.437624       -11.9084
  32   2.0000      -0.428540       -11.6612
  33   0.0000       0.035195         0.9577
  34   0.0000       0.039969         1.0876
  35   0.0000       0.043429         1.1818
  36   0.0000       0.045516         1.2386
  37   0.0000       0.054400         1.4803

MULLIKEN ATOMIC CHARGES
-----------------------
   0 C :    0.418361
   1 C :    0.384627
   2 C :    0.238389
   3 C :    0.833543
   4 C :    0.967577
   5 C :    0.516520
   6 O :   -0.718600
   7 O :   -0.943839
   8 H :   -0.081148
   9 H :   -0.081195
  10 H :   -0.070812
  11 H :   -0.177666
  12 H :   -0.176392
  13 H :   -0.195391
  14 H :   -0.192202
  15 H :   -0.196061
  16 H :   -0.199608
  17 H :   -0.121093
  18 H :   -0.140981
  19 H :   -0.116402
  20 H :   -0.121107
  21 H :    0.173479
Sum of atomic charges:   -0.0000000

LOEWDIN ATOMIC CHARGES
----------------------
   0 C :    0.131929
   1 C :   -0.071026
   2 C :   -0.035365
   3 C :   -0.043846
   4 C :   -0.051781
   5 C :   -0.045395
   6 O :    0.112868
   7 O :    0.003065
   8 H :   -0.019139
   9 H :   -0.019176
  10 H :   -0.021262
  11 H :    0.010587
  12 H :    0.010509
  13 H :    0.019577
  14 H :    0.018931
  15 H :    0.013041
  16 H :    0.013326
  17 H :    0.008348
  18 H :    0.006077
  19 H :    0.014771
  20 H :    0.014656
  21 H :   -0.070695

  Mayer bond orders larger than 0.100000
B(  0-C ,  1-C ) :   1.2125 B(  0-C ,  8-H ) :   0.9266 B(  0-C ,  9-H ) :   0.9292
B(  0-C , 10-H ) :   0.9257 B(  1-C ,  2-C ) :   1.1964 B(  1-C ,  3-C ) :  -0.1110
B(  1-C , 11-H ) :   0.7679 B(  1-C , 12-H ) :   0.7685 B(  2-C ,  3-C ) :   1.2510
B(  2-C , 13-H ) :   0.8026 B(  2-C , 14-H ) :   0.8012 B(  3-C ,  7-O ) :   0.5546
B(  3-C , 15-H ) :   0.8616 B(  3-C , 16-H ) :   0.8520 B(  4-C ,  5-C ) :   1.2841
B(  4-C ,  6-O ) :   0.4928 B(  4-C , 17-H ) :   0.8836 B(  4-C , 18-H ) :   0.8644
B(  5-C ,  7-O ) :   0.8125 B(  5-C , 19-H ) :   0.8898 B(  5-C , 20-H ) :   0.8484
B(  6-O , 21-H ) :   1.0282

MP2 TOTAL ENERGY:     -386.413885596 Eh
FINAL SINGLE POINT ENERGY      -386.413885595921

DIPOLE MOMENT
-------------
                                X             Y             Z
Electronic contribution:     -9.12125       1.33883      -0.05140
Nuclear contribution   :      9.85984      -2.06852       0.14682
                        -----------------------------------------
Total Dipole Moment    :      0.73859      -0.72970       0.09542
                        -----------------------------------------
Magnitude (a.u.)       :      1.04263
Magnitude (Debye)      :      2.65016

Rotational constants in cm-1:     0.219126     0.020500     0.019474
Rotational constants in MHz :  6569.225253   614.569219   583.812744

                             ****ORCA TERMINATED NORMALLY****
TOTAL RUN TIME: 0 days 0 hours 1 minutes 14 seconds 356 msec
