                         Program Version 5.0.3 -  RELEASE  -
|  1> !ri-mp2 aug-cc-pvdz aug-cc-pvdz/c tightscf
|  2> %pal nprocs 16 end
|  3>
|  4> * xyz 0 1
|  5> C     -3.551731   -0.145916    0.178332
|  6> C     -2.160631   -0.497409   -0.345698
|  7> C     -1.084795    0.418115    0.210133
|  8> C      2.554528    0.252331   -0.341891
|  9> C      1.246011    0.820604    0.153652
| 10> O      2.871763   -0.915524    0.411744
| 11> O      0.173609    0.025383   -0.308235
| 12> H     -3.834247    0.874037   -0.090442
| 13> H     -4.305646   -0.815827   -0.235313
| 14> H     -3.600044   -0.226907    1.266045
| 15> H     -2.141876   -0.436709   -1.436016
| 16> H     -1.907786   -1.527183   -0.084984
| 17> H     -1.294438    1.463084   -0.062635
| 18> H     -1.068300    0.365578    1.307923
| 19> H      3.334739    1.012724   -0.218945
| 20> H      2.461235    0.020138   -1.407091
| 21> H      1.140374    1.851849   -0.212086
| 22> H      1.258753    0.851169    1.250942
| 23> H      3.573974   -1.397171   -0.032650
| 24> *
| 25>
| 26>                          ****END OF INPUT****

CARTESIAN COORDINATES (ANGSTROEM)
---------------------------------
  C     -3.551731   -0.145916    0.178332
  C     -2.160631   -0.497409   -0.345698
  C     -1.084795    0.418115    0.210133
  C      2.554528    0.252331   -0.341891
  C      1.246011    0.820604    0.153652
  O      2.871763   -0.915524    0.411744
  O      0.173609    0.025383   -0.308235
  H     -3.834247    0.874037   -0.090442
  H     -4.305646   -0.815827   -0.235313
  H     -3.600044   -0.226907    1.266045
  H     -2.141876   -0.436709   -1.436016
  H     -1.907786   -1.527183   -0.084984
  H     -1.294438    1.463084   -0.062635
  H     -1.068300    0.365578    1.307923
  H      3.334739    1.012724   -0.218945
  H      2.461235    0.020138   -1.407091
  H      1.140374    1.851849   -0.212086
  H      1.258753    0.851169    1.250942
  H      3.573974   -1.397171   -0.032650

 Total Charge           Charge          ....    0
 Multiplicity           Mult            ....    1
 Number of Electrons    NEL             ....   58
 Basis Dimension        Dim             ....  269

ORBITAL ENERGIES
----------------

  NO   OCC          E(Eh)            E(eV)
   0   2.0000     -20.564180      -559.5798
   1   2.0000     -20.558871      -559.4353
   2   2.0000     -11.281694      -306.9905
   3   2.0000     -11.278304      -306.8983
   4   2.0000     -11.274440      -306.7931
   5   2.0000     -11.220986      -305.3386
   6   2.0000     -11.220094      -305.3143
   7   2.0000      -1.377315       -37.4787
   8   2.0000      -1.354316       -36.8528
   9   2.0000      -1.060440       -28.8560
  10   2.0000      -1.003118       -27.2962
  11   2.0000      -0.908866       -24.7315
  12   2.0000      -0.825907       -22.4741
  13   2.0000      -0.805453       -21.9175
  14   2.0000      -0.710075       -19.3221
  15   2.0000      -0.672677       -18.3045
  16   2.0000      -0.660511       -17.9734
  17   2.0000      -0.615959       -16.7611
  18   2.0000      -0.598968       -16.2988
  19   2.0000      -0.596815       -16.2402
  20   2.0000      -0.565126       -15.3779
  21   2.0000      -0.536616       -14.6021
  22   2.0000      -0.521103       -14.1799
  23   2.0000      -0.501657       -13.6508
  24   2.0000      -0.475642       -12.9429
  25   2.0000      -0.472095       -12.8463
  26   2.0000      -0.463888       -12.6230
  27   2.0000      -0.445332       -12.1181
  28   2.0000      -0.416444       -11.3320
  29   0.0000       0.036041         0.9807
  30   0.0000       0.040573         1.1040
  31   0.0000       0.045359         1.2343
  32   0.0000       0.048771         1.3271
  33   0.0000       0.058081         1.5805

MULLIKEN ATOMIC CHARGES
-----------------------
   0 C :    0.438939
   1 C :    0.239080
   2 C :    0.638548
   3 C :    0.977190
   4 C :    0.546911
   5 O :   -0.691616
   6 O :   -0.876600
   7 H :   -0.077358
   8 H :   -0.081189
   9 H :   -0.077182
  10 H :   -0.150977
  11 H :   -0.143704
  12 H :   -0.166254
  13 H :   -0.171273
  14 H :   -0.121761
  15 H :   -0.161434
  16 H :   -0.148350
  17 H :   -0.108593
  18 H :    0.135624
Sum of atomic charges:   -0.0000000

LOEWDIN ATOMIC CHARGES
----------------------
   0 C :    0.132681
   1 C :   -0.065943
   2 C :   -0.055349
   3 C :   -0.049199
   4 C :   -0.053481
   5 O :    0.115374
   6 O :    0.009357
   7 H :   -0.021055
   8 H :   -0.021512
   9 H :   -0.020585
  10 H :    0.013362
  11 H :    0.014789
  12 H :    0.011749
  13 H :    0.012220
  14 H :    0.004144
  15 H :    0.008144
  16 H :    0.013437
  17 H :    0.015389
  18 H :   -0.063521

  Mayer bond orders larger than 0.100000
B(  0-C ,  1-C ) :   1.1251 B(  0-C ,  7-H ) :   0.9407 B(  0-C ,  8-H ) :   0.9081
B(  0-C ,  9-H ) :   0.9420 B(  1-C ,  2-C ) :   1.2404 B(  1-C , 10-H ) :   0.7692
B(  1-C , 11-H ) :   0.7723 B(  2-C ,  6-O ) :   0.5286 B(  2-C , 10-H ) :   0.1461
B(  2-C , 11-H ) :   0.1393 B(  2-C , 12-H ) :   0.8707 B(  2-C , 13-H ) :   0.8428
B(  3-C ,  4-C ) :   1.2784 B(  3-C ,  5-O ) :   0.5846 B(  3-C , 14-H ) :   0.8291
B(  3-C , 15-H ) :   0.9084 B(  4-C ,  6-O ) :   0.7659 B(  4-C , 14-H ) :   0.1016
B(  4-C , 16-H ) :   0.8364 B(  4-C , 17-H ) :   0.9513 B(  5-O , 18-H ) :   1.0864

MP2 TOTAL ENERGY:     -347.221531308 Eh
FINAL SINGLE POINT ENERGY      -347.221531307929

DIPOLE MOMENT
-------------
                                X             Y             Z
Electronic contribution:      6.80476      -1.59658      -0.31797
Nuclear contribution   :     -6.62597       2.11348       0.04851
                        -----------------------------------------
Total Dipole Moment    :      0.17879       0.51689      -0.26946
                        -----------------------------------------
Magnitude (a.u.)       :      0.60972
Magnitude (Debye)      :      1.54978

Rotational constants in cm-1:     0.288445     0.030158     0.028926
Rotational constants in MHz :  8647.364960   904.117491   867.172033

                             ****ORCA TERMINATED NORMALLY****
TOTAL RUN TIME: 0 days 0 hours 0 minutes 46 seconds 218 msec
