                         Program Version 5.0.3 -  RELEASE  -
|  1> !ri-mp2 aug-cc-pvdz aug-cc-pvdz/c tightscf
|  2> %pal nprocs 16 end
|  3>
|  4> * xyz 0 1
|  5> C     -0.431809    1.690207   -0.000125
|  6> C      0.097948    0.460822   -0.000034
|  7> C      1.557665    0.319248   -0.000030
|  8> C      2.248973   -0.821807    0.000057
|  9> C     -0.736939   -0.798581    0.000064
| 10> H      0.202753    2.566781   -0.000196
| 11> H     -1.497262    1.864489   -0.000133
| 12> H      2.107527    1.255021   -0.000107
| 13> H      1.772778   -1.792680    0.000137
| 14> H      3.330020   -0.814825    0.000051
| 15> C     -2.250834   -0.611254    0.000050
| 16> H     -0.448920   -1.398382   -0.868916
| 17> H     -0.448919   -1.398250    0.869134
| 18> H     -2.589661   -0.066300    0.881969
| 19> H     -2.748682   -1.581216    0.000132
| 20> H     -2.589661   -0.066449   -0.881960
| 21> *
| 22>
| 23>                          ****END OF INPUT****

CARTESIAN COORDINATES (ANGSTROEM)
---------------------------------
  C     -0.431809    1.690207   -0.000125
  C      0.097948    0.460822   -0.000034
  C      1.557665    0.319248   -0.000030
  C      2.248973   -0.821807    0.000057
  C     -0.736939   -0.798581    0.000064
  H      0.202753    2.566781   -0.000196
  H     -1.497262    1.864489   -0.000133
  H      2.107527    1.255021   -0.000107
  H      1.772778   -1.792680    0.000137
  H      3.330020   -0.814825    0.000051
  C     -2.250834   -0.611254    0.000050
  H     -0.448920   -1.398382   -0.868916
  H     -0.448919   -1.398250    0.869134
  H     -2.589661   -0.066300    0.881969
  H     -2.748682   -1.581216    0.000132
  H     -2.589661   -0.066449   -0.881960

 Total Charge           Charge          ....    0
 Multiplicity           Mult            ....    1
 Number of Electrons    NEL             ....   46
 Basis Dimension        Dim             ....  228

ORBITAL ENERGIES
----------------

  NO   OCC          E(Eh)            E(eV)
   0   2.0000     -11.246871      -306.0429
   1   2.0000     -11.241199      -305.8886
   2   2.0000     -11.233142      -305.6693
   3   2.0000     -11.231395      -305.6218
   4   2.0000     -11.226857      -305.4983
   5   2.0000     -11.222211      -305.3719
   6   2.0000      -1.116897       -30.3923
   7   2.0000      -1.029318       -28.0092
   8   2.0000      -0.985163       -26.8076
   9   2.0000      -0.873269       -23.7629
  10   2.0000      -0.811571       -22.0840
  11   2.0000      -0.709513       -19.3068
  12   2.0000      -0.648366       -17.6429
  13   2.0000      -0.639615       -17.4048
  14   2.0000      -0.614781       -16.7290
  15   2.0000      -0.564802       -15.3690
  16   2.0000      -0.538512       -14.6537
  17   2.0000      -0.537926       -14.6377
  18   2.0000      -0.505004       -13.7419
  19   2.0000      -0.494639       -13.4598
  20   2.0000      -0.469119       -12.7654
  21   2.0000      -0.420164       -11.4332
  22   2.0000      -0.320972        -8.7341
  23   0.0000       0.036537         0.9942
  24   0.0000       0.041560         1.1309
  25   0.0000       0.042809         1.1649
  26   0.0000       0.053510         1.4561
  27   0.0000       0.059128         1.6090

MULLIKEN ATOMIC CHARGES
-----------------------
   0 C :    1.201659
   1 C :   -0.329058
   2 C :    0.324759
   3 C :    0.549071
   4 C :   -0.147703
   5 H :   -0.478005
   6 H :   -0.486082
   7 H :   -0.595526
   8 H :   -0.397605
   9 H :   -0.337998
  10 C :    0.521354
  11 H :    0.121879
  12 H :    0.121875
  13 H :    0.032822
  14 H :   -0.134264
  15 H :    0.032821
Sum of atomic charges:    0.0000000

LOEWDIN ATOMIC CHARGES
----------------------
   0 C :    0.214101
   1 C :   -0.257862
   2 C :   -0.040958
   3 C :    0.179972
   4 C :   -0.048449
   5 H :   -0.036780
   6 H :   -0.046159
   7 H :    0.000055
   8 H :   -0.045742
   9 H :   -0.043009
  10 C :    0.132603
  11 H :    0.020894
  12 H :    0.020894
  13 H :   -0.015266
  14 H :   -0.019027
  15 H :   -0.015266

  Mayer bond orders larger than 0.100000
B(  0-C ,  1-C ) :   1.4339 B(  0-C ,  2-C ) :  -0.2849 B(  0-C ,  3-C ) :   0.1837
B(  0-C ,  4-C ) :  -0.2598 B(  0-C ,  5-H ) :   0.4773 B(  0-C ,  6-H ) :   0.3399
B(  1-C ,  2-C ) :   1.6388 B(  1-C ,  4-C ) :   1.2044 B(  1-C ,  5-H ) :   0.2537
B(  1-C ,  6-H ) :   0.2530 B(  1-C ,  7-H ) :   0.3336 B(  1-C ,  8-H ) :  -0.1691
B(  1-C , 10-C ) :  -0.2055 B(  1-C , 11-H ) :   0.3542 B(  1-C , 12-H ) :   0.3542
B(  2-C ,  3-C ) :   1.7385 B(  2-C ,  7-H ) :   0.1726 B(  2-C ,  8-H ) :   0.2570
B(  2-C ,  9-H ) :   0.1931 B(  2-C , 11-H ) :  -0.1943 B(  2-C , 12-H ) :  -0.1943
B(  3-C ,  7-H ) :   0.1469 B(  3-C ,  8-H ) :   0.7460 B(  3-C ,  9-H ) :   0.6805
B(  4-C , 10-C ) :   1.1217 B(  4-C , 11-H ) :   0.7027 B(  4-C , 12-H ) :   0.7027
B(  4-C , 14-H ) :   0.1460 B(  5-H ,  6-H ) :  -0.2121 B(  6-H , 10-C ) :   0.1799
B(  8-H ,  9-H ) :  -0.2217 B( 10-C , 13-H ) :   0.8874 B( 10-C , 14-H ) :   0.8480
B( 10-C , 15-H ) :   0.8874 B( 11-H , 12-H ) :  -0.1096

MP2 TOTAL ENERGY:     -233.873871476 Eh
FINAL SINGLE POINT ENERGY      -233.873871475928

DIPOLE MOMENT
-------------
                                X             Y             Z
Electronic contribution:      2.96388       1.39577      -0.00011
Nuclear contribution   :     -3.06042      -1.50581       0.00012
                        -----------------------------------------
Total Dipole Moment    :     -0.09654      -0.11004       0.00001
                        -----------------------------------------
Magnitude (a.u.)       :      0.14638
Magnitude (Debye)      :      0.37208

Rotational constants in cm-1:     0.201830     0.082121     0.059648
Rotational constants in MHz :  6050.724956  2461.928682  1788.192173

                             ****ORCA TERMINATED NORMALLY****
TOTAL RUN TIME: 0 days 0 hours 0 minutes 51 seconds 83 msec
