                         Program Version 5.0.3 -  RELEASE  -
|  1> !ri-mp2 aug-cc-pvdz aug-cc-pvdz/c tightscf
|  2> %pal nprocs 16 end
|  3>
|  4> * xyz 0 1
|  5> C     1.021460    0.038369    0.000000
|  6> C     0.640074   -1.308976    0.000000
|  7> C     0.000000    0.987794    0.000000
|  8> C    -1.528760   -0.650022    0.000000
|  9> C     1.636021   -2.424461    0.000000
| 10> N    -0.656618   -1.639019    0.000000
| 11> N    -1.273552    0.646231    0.000000
| 12> Cl    2.695285    0.484019    0.000000
| 13> Cl    0.352375    2.685355    0.000000
| 14> Cl   -3.211246   -1.098954    0.000000
| 15> H     2.284076   -2.364524    0.875642
| 16> H     1.111227   -3.374788    0.000000
| 17> H     2.284076   -2.364524   -0.875642
| 18> *
| 19>
| 20>                          ****END OF INPUT****

CARTESIAN COORDINATES (ANGSTROEM)
---------------------------------
  C      1.021460    0.038369    0.000000
  C      0.640074   -1.308976    0.000000
  C      0.000000    0.987794    0.000000
  C     -1.528760   -0.650022    0.000000
  C      1.636021   -2.424461    0.000000
  N     -0.656618   -1.639019    0.000000
  N     -1.273552    0.646231    0.000000
  Cl     2.695285    0.484019    0.000000
  Cl     0.352375    2.685355    0.000000
  Cl    -3.211246   -1.098954    0.000000
  H      2.284076   -2.364524    0.875642
  H      1.111227   -3.374788    0.000000
  H      2.284076   -2.364524   -0.875642

 Total Charge           Charge          ....    0
 Multiplicity           Mult            ....    1
 Number of Electrons    NEL             ....   98
 Basis Dimension        Dim             ....  269

ORBITAL ENERGIES
----------------

  NO   OCC          E(Eh)            E(eV)
   0   2.0000    -104.870796     -2853.6795
   1   2.0000    -104.870506     -2853.6716
   2   2.0000    -104.857662     -2853.3220
   3   2.0000     -15.618265      -424.9946
   4   2.0000     -15.612673      -424.8424
   5   2.0000     -11.409768      -310.4756
   6   2.0000     -11.398987      -310.1822
   7   2.0000     -11.352244      -308.9103
   8   2.0000     -11.339137      -308.5536
   9   2.0000     -11.261938      -306.4529
  10   2.0000     -10.596827      -288.3543
  11   2.0000     -10.596800      -288.3536
  12   2.0000     -10.584074      -288.0073
  13   2.0000      -8.064674      -219.4509
  14   2.0000      -8.064649      -219.4503
  15   2.0000      -8.061159      -219.3553
  16   2.0000      -8.061055      -219.3525
  17   2.0000      -8.061029      -219.3518
  18   2.0000      -8.060923      -219.3489
  19   2.0000      -8.051881      -219.1028
  20   2.0000      -8.048330      -219.0062
  21   2.0000      -8.048172      -219.0019
  22   2.0000      -1.378729       -37.5171
  23   2.0000      -1.261840       -34.3364
  24   2.0000      -1.216416       -33.1004
  25   2.0000      -1.154084       -31.4042
  26   2.0000      -1.138959       -30.9927
  27   2.0000      -1.059034       -28.8178
  28   2.0000      -1.007529       -27.4163
  29   2.0000      -0.890397       -24.2289
  30   2.0000      -0.874356       -23.7924
  31   2.0000      -0.779628       -21.2148
  32   2.0000      -0.700248       -19.0547
  33   2.0000      -0.658634       -17.9223
  34   2.0000      -0.638152       -17.3650
  35   2.0000      -0.617593       -16.8055
  36   2.0000      -0.598057       -16.2740
  37   2.0000      -0.597717       -16.2647
  38   2.0000      -0.574851       -15.6425
  39   2.0000      -0.550527       -14.9806
  40   2.0000      -0.514041       -13.9878
  41   2.0000      -0.514012       -13.9870
  42   2.0000      -0.508544       -13.8382
  43   2.0000      -0.484952       -13.1962
  44   2.0000      -0.478136       -13.0107
  45   2.0000      -0.474257       -12.9052
  46   2.0000      -0.440945       -11.9987
  47   2.0000      -0.437628       -11.9085
  48   2.0000      -0.373223       -10.1559
  49   0.0000       0.032219         0.8767
  50   0.0000       0.052101         1.4177
  51   0.0000       0.055174         1.5014
  52   0.0000       0.063629         1.7314
  53   0.0000       0.065118         1.7720

MULLIKEN ATOMIC CHARGES
-----------------------
   0 C :    0.578605
   1 C :    0.505501
   2 C :   -0.150673
   3 C :    0.040943
   4 C :    0.741859
   5 N :   -0.686483
   6 N :   -0.569775
   7 Cl:   -0.353263
   8 Cl:   -0.169838
   9 Cl:   -0.013267
  10 H :    0.096608
  11 H :   -0.116825
  12 H :    0.096608
Sum of atomic charges:    0.0000000

LOEWDIN ATOMIC CHARGES
----------------------
   0 C :   -0.525284
   1 C :   -0.262672
   2 C :   -0.610950
   3 C :   -0.628607
   4 C :    0.181007
   5 N :    0.039589
   6 N :   -0.021130
   7 Cl:    0.619402
   8 Cl:    0.622799
   9 Cl:    0.601656
  10 H :   -0.004565
  11 H :   -0.006681
  12 H :   -0.004565

  Mayer bond orders larger than 0.100000
B(  0-C ,  1-C ) :   0.6690 B(  0-C ,  2-C ) :   0.1235 B(  0-C ,  4-C ) :   0.1193
B(  0-C ,  5-N ) :   0.1747 B(  0-C ,  6-N ) :  -0.1749 B(  0-C ,  7-Cl) :   1.3116
B(  0-C ,  8-Cl) :  -0.4526 B(  0-C , 10-H ) :  -0.1049 B(  0-C , 12-H ) :  -0.1049
B(  1-C ,  2-C ) :   0.1123 B(  1-C ,  3-C ) :  -0.3054 B(  1-C ,  4-C ) :   1.1761
B(  1-C ,  5-N ) :   0.9984 B(  1-C ,  7-Cl) :  -0.4210 B(  1-C ,  8-Cl) :   0.1800
B(  1-C , 10-H ) :   0.1853 B(  1-C , 11-H ) :   0.3054 B(  1-C , 12-H ) :   0.1853
B(  2-C ,  3-C ) :  -0.4180 B(  2-C ,  6-N ) :   1.2327 B(  2-C ,  7-Cl) :  -0.2302
B(  2-C ,  8-Cl) :   1.3700 B(  3-C ,  5-N ) :   1.3412 B(  3-C ,  6-N ) :   1.3598
B(  3-C ,  9-Cl) :   1.3908 B(  4-C , 10-H ) :   0.8505 B(  4-C , 11-H ) :   0.6883
B(  4-C , 12-H ) :   0.8505 B(  5-N ,  9-Cl) :  -0.1689 B(  6-N ,  9-Cl) :  -0.1328

MP2 TOTAL ENERGY:    -1679.980920314 Eh
FINAL SINGLE POINT ENERGY     -1679.980920313918

DIPOLE MOMENT
-------------
                                X             Y             Z
Electronic contribution:     -4.50726       9.79439       0.00000
Nuclear contribution   :      5.50152     -10.32029       0.00000
                        -----------------------------------------
Total Dipole Moment    :      0.99425      -0.52590       0.00000
                        -----------------------------------------
Magnitude (a.u.)       :      1.12477
Magnitude (Debye)      :      2.85894

Rotational constants in cm-1:     0.040601     0.020714     0.013751
Rotational constants in MHz :  1217.178556   620.982448   412.234056

                             ****ORCA TERMINATED NORMALLY****
TOTAL RUN TIME: 0 days 0 hours 1 minutes 26 seconds 227 msec
