                         Program Version 5.0.3 -  RELEASE  -
|  1> !ri-mp2 aug-cc-pvdz aug-cc-pvdz/c tightscf
|  2> %pal nprocs 16 end
|  3>
|  4> * xyz 0 1
|  5> C      2.838715   -0.210284    0.151499
|  6> C     -1.452331    1.374908    0.194977
|  7> C     -2.150229   -1.037838    0.031809
|  8> C      1.495560    0.356257   -0.307569
|  9> C      0.304604   -0.477105    0.169426
| 10> C     -1.071855   -0.012797   -0.331369
| 11> H      2.897031   -0.252318    1.241150
| 12> H      2.988894   -1.224454   -0.224592
| 13> H      3.671051    0.400513   -0.201048
| 14> H     -0.743775    2.142198   -0.116896
| 15> H     -1.487672    1.377435    1.287781
| 16> H     -2.438033    1.672153   -0.167266
| 17> H     -2.241995   -1.138272    1.116369
| 18> H     -3.126439   -0.741164   -0.355760
| 19> H     -1.914534   -2.023603   -0.373148
| 20> H      1.400426    1.383805    0.050622
| 21> H      1.479386    0.411612   -1.400581
| 22> H      0.457236   -1.513257   -0.149856
| 23> H      0.293963   -0.498723    1.265583
| 24> H     -1.022318    0.045239   -1.424998
| 25> *
| 26>
| 27>                          ****END OF INPUT****

CARTESIAN COORDINATES (ANGSTROEM)
---------------------------------
  C      2.838715   -0.210284    0.151499
  C     -1.452331    1.374908    0.194977
  C     -2.150229   -1.037838    0.031809
  C      1.495560    0.356257   -0.307569
  C      0.304604   -0.477105    0.169426
  C     -1.071855   -0.012797   -0.331369
  H      2.897031   -0.252318    1.241150
  H      2.988894   -1.224454   -0.224592
  H      3.671051    0.400513   -0.201048
  H     -0.743775    2.142198   -0.116896
  H     -1.487672    1.377435    1.287781
  H     -2.438033    1.672153   -0.167266
  H     -2.241995   -1.138272    1.116369
  H     -3.126439   -0.741164   -0.355760
  H     -1.914534   -2.023603   -0.373148
  H      1.400426    1.383805    0.050622
  H      1.479386    0.411612   -1.400581
  H      0.457236   -1.513257   -0.149856
  H      0.293963   -0.498723    1.265583
  H     -1.022318    0.045239   -1.424998

 Total Charge           Charge          ....    0
 Multiplicity           Mult            ....    1
 Number of Electrons    NEL             ....   50
 Basis Dimension        Dim             ....  264

ORBITAL ENERGIES
----------------

  NO   OCC          E(Eh)            E(eV)
   0   2.0000     -11.226401      -305.4859
   1   2.0000     -11.219718      -305.3040
   2   2.0000     -11.216489      -305.2162
   3   2.0000     -11.215540      -305.1904
   4   2.0000     -11.213558      -305.1364
   5   2.0000     -11.213311      -305.1297
   6   2.0000      -1.093628       -29.7591
   7   2.0000      -1.028974       -27.9998
   8   2.0000      -0.926576       -25.2134
   9   2.0000      -0.918486       -24.9933
  10   2.0000      -0.811410       -22.0796
  11   2.0000      -0.760871       -20.7044
  12   2.0000      -0.640637       -17.4326
  13   2.0000      -0.606755       -16.5107
  14   2.0000      -0.599797       -16.3213
  15   2.0000      -0.571865       -15.5612
  16   2.0000      -0.548662       -14.9298
  17   2.0000      -0.530339       -14.4312
  18   2.0000      -0.525505       -14.2997
  19   2.0000      -0.508000       -13.8234
  20   2.0000      -0.487551       -13.2669
  21   2.0000      -0.471151       -12.8207
  22   2.0000      -0.452360       -12.3093
  23   2.0000      -0.447417       -12.1748
  24   2.0000      -0.439199       -11.9512
  25   0.0000       0.037419         1.0182
  26   0.0000       0.042548         1.1578
  27   0.0000       0.045608         1.2410
  28   0.0000       0.046668         1.2699
  29   0.0000       0.062365         1.6970

MULLIKEN ATOMIC CHARGES
-----------------------
   0 C :    0.515326
   1 C :    0.794618
   2 C :    0.873004
   3 C :    0.216997
   4 C :    0.586083
   5 C :   -1.340422
   6 H :   -0.072641
   7 H :   -0.091983
   8 H :   -0.075387
   9 H :   -0.111431
  10 H :   -0.040644
  11 H :   -0.087899
  12 H :   -0.012287
  13 H :   -0.067885
  14 H :   -0.097274
  15 H :   -0.191521
  16 H :   -0.175960
  17 H :   -0.204667
  18 H :   -0.197074
  19 H :   -0.218954
Sum of atomic charges:   -0.0000000

LOEWDIN ATOMIC CHARGES
----------------------
   0 C :    0.132432
   1 C :    0.156343
   2 C :    0.152816
   3 C :   -0.068850
   4 C :   -0.022468
   5 C :   -0.284478
   6 H :   -0.019609
   7 H :   -0.020531
   8 H :   -0.022099
   9 H :   -0.024031
  10 H :   -0.008993
  11 H :   -0.015705
  12 H :   -0.011208
  13 H :   -0.016572
  14 H :   -0.016398
  15 H :    0.002046
  16 H :    0.013942
  17 H :    0.016233
  18 H :    0.021483
  19 H :    0.035647

  Mayer bond orders larger than 0.100000
B(  0-C ,  3-C ) :   1.1924 B(  0-C ,  6-H ) :   0.9228 B(  0-C ,  7-H ) :   0.9059
B(  0-C ,  8-H ) :   0.9004 B(  1-C ,  2-C ) :  -0.1804 B(  1-C ,  4-C ) :  -0.1602
B(  1-C ,  5-C ) :   1.3574 B(  1-C ,  9-H ) :   0.8534 B(  1-C , 10-H ) :   0.8724
B(  1-C , 11-H ) :   0.8138 B(  2-C ,  4-C ) :  -0.1214 B(  2-C ,  5-C ) :   1.3369
B(  2-C , 12-H ) :   0.9006 B(  2-C , 13-H ) :   0.8051 B(  2-C , 14-H ) :   0.7946
B(  3-C ,  4-C ) :   1.1775 B(  3-C ,  8-H ) :   0.1076 B(  3-C , 15-H ) :   0.7327
B(  3-C , 16-H ) :   0.7713 B(  4-C ,  5-C ) :   1.1004 B(  4-C , 10-H ) :  -0.1069
B(  4-C , 15-H ) :   0.1175 B(  4-C , 16-H ) :   0.1053 B(  4-C , 17-H ) :   0.6662
B(  4-C , 18-H ) :   0.8098 B(  5-C , 10-H ) :   0.2029 B(  5-C , 11-H ) :   0.1286
B(  5-C , 12-H ) :   0.1182 B(  5-C , 13-H ) :   0.1542 B(  5-C , 14-H ) :   0.1443
B(  5-C , 17-H ) :   0.1426 B(  5-C , 18-H ) :   0.1293 B(  5-C , 19-H ) :   0.6386
B( 13-H , 14-H ) :  -0.1041 B( 17-H , 18-H ) :  -0.1182

MP2 TOTAL ENERGY:     -236.303409384 Eh
FINAL SINGLE POINT ENERGY      -236.303409383531

DIPOLE MOMENT
-------------
                                X             Y             Z
Electronic contribution:     -0.22478      -0.02752      -0.64650
Nuclear contribution   :      0.23233       0.04485       0.59643
                        -----------------------------------------
Total Dipole Moment    :      0.00756       0.01733      -0.05007
                        -----------------------------------------
Magnitude (a.u.)       :      0.05353
Magnitude (Debye)      :      0.13605

Rotational constants in cm-1:     0.221043     0.056665     0.048779
Rotational constants in MHz :  6626.714039  1698.763836  1462.371455

                             ****ORCA TERMINATED NORMALLY****
TOTAL RUN TIME: 0 days 0 hours 0 minutes 55 seconds 735 msec
