                         Program Version 5.0.3 -  RELEASE  -
|  1> !ri-mp2 aug-cc-pvdz aug-cc-pvdz/c tightscf
|  2> %pal nprocs 16 end
|  3> %maxcore 3800
|  4>
|  5> * xyz 0 1
|  6> C     0.000000     0.705545    3.172599
|  7> C     0.000000    -0.705545    3.172599
|  8> C     0.000000     1.396736    1.988558
|  9> C     0.000000    -1.396736    1.988558
| 10> C     0.000000     1.384878   -0.494217
| 11> C     0.000000    -1.384878   -0.494217
| 12> C     0.000000     0.711893    0.749997
| 13> C     0.000000    -0.711893    0.749997
| 14> C     0.000000     0.714904   -1.692605
| 15> C     0.000000    -0.714904   -1.692605
| 16> C     0.000000     1.476613   -2.990942
| 17> C     0.000000    -1.476613   -2.990942
| 18> H     0.000000     1.240249    4.113143
| 19> H     0.000000    -1.240249    4.113143
| 20> H     0.000000     2.479711    1.986908
| 21> H     0.000000    -2.479711    1.986908
| 22> H     0.000000     2.468780   -0.491189
| 23> H     0.000000    -2.468780   -0.491189
| 24> H    -0.876451     1.238572   -3.598523
| 25> H     0.000000     2.550606   -2.812154
| 26> H     0.876451     1.238572   -3.598523
| 27> H    -0.876451    -1.238572   -3.598523
| 28> H     0.876451    -1.238572   -3.598523
| 29> H     0.000000    -2.550606   -2.812154
| 30> *
| 31>
| 32>                          ****END OF INPUT****

CARTESIAN COORDINATES (ANGSTROEM)
---------------------------------
  C      0.000000    0.705545    3.172599
  C      0.000000   -0.705545    3.172599
  C      0.000000    1.396736    1.988558
  C      0.000000   -1.396736    1.988558
  C      0.000000    1.384878   -0.494217
  C      0.000000   -1.384878   -0.494217
  C      0.000000    0.711893    0.749997
  C      0.000000   -0.711893    0.749997
  C      0.000000    0.714904   -1.692605
  C      0.000000   -0.714904   -1.692605
  C      0.000000    1.476613   -2.990942
  C      0.000000   -1.476613   -2.990942
  H      0.000000    1.240249    4.113143
  H      0.000000   -1.240249    4.113143
  H      0.000000    2.479711    1.986908
  H      0.000000   -2.479711    1.986908
  H      0.000000    2.468780   -0.491189
  H      0.000000   -2.468780   -0.491189
  H     -0.876451    1.238572   -3.598523
  H      0.000000    2.550606   -2.812154
  H      0.876451    1.238572   -3.598523
  H     -0.876451   -1.238572   -3.598523
  H      0.876451   -1.238572   -3.598523
  H      0.000000   -2.550606   -2.812154

 Total Charge           Charge          ....    0
 Multiplicity           Mult            ....    1
 Number of Electrons    NEL             ....   84
 Basis Dimension        Dim             ....  384

ORBITAL ENERGIES
----------------

  NO   OCC          E(Eh)            E(eV)
   0   2.0000     -11.244841      -305.9877
   1   2.0000     -11.243851      -305.9607
   2   2.0000     -11.241507      -305.8969
   3   2.0000     -11.240484      -305.8691
   4   2.0000     -11.237432      -305.7861
   5   2.0000     -11.237137      -305.7781
   6   2.0000     -11.236077      -305.7492
   7   2.0000     -11.235293      -305.7279
   8   2.0000     -11.232826      -305.6607
   9   2.0000     -11.232816      -305.6605
  10   2.0000     -11.230907      -305.6085
  11   2.0000     -11.230899      -305.6083
  12   2.0000      -1.179336       -32.0914
  13   2.0000      -1.123329       -30.5673
  14   2.0000      -1.056427       -28.7468
  15   2.0000      -1.036874       -28.2148
  16   2.0000      -1.008517       -27.4431
  17   2.0000      -0.936540       -25.4845
  18   2.0000      -0.932990       -25.3880
  19   2.0000      -0.830499       -22.5990
  20   2.0000      -0.811825       -22.0909
  21   2.0000      -0.811719       -22.0880
  22   2.0000      -0.699378       -19.0310
  23   2.0000      -0.682998       -18.5853
  24   2.0000      -0.661435       -17.9986
  25   2.0000      -0.618725       -16.8364
  26   2.0000      -0.616423       -16.7737
  27   2.0000      -0.594049       -16.1649
  28   2.0000      -0.580528       -15.7970
  29   2.0000      -0.579568       -15.7708
  30   2.0000      -0.552967       -15.0470
  31   2.0000      -0.545241       -14.8368
  32   2.0000      -0.540361       -14.7040
  33   2.0000      -0.539844       -14.6899
  34   2.0000      -0.521639       -14.1945
  35   2.0000      -0.506392       -13.7796
  36   2.0000      -0.477577       -12.9955
  37   2.0000      -0.468654       -12.7527
  38   2.0000      -0.431467       -11.7408
  39   2.0000      -0.379807       -10.3351
  40   2.0000      -0.306123        -8.3300
  41   2.0000      -0.283168        -7.7054
  42   0.0000       0.035182         0.9574
  43   0.0000       0.036693         0.9985
  44   0.0000       0.036927         1.0048
  45   0.0000       0.047832         1.3016
  46   0.0000       0.051920         1.4128

MULLIKEN ATOMIC CHARGES
-----------------------
   0 C :   -0.098822
   1 C :   -0.098822
   2 C :    0.709207
   3 C :    0.709193
   4 C :    0.747771
   5 C :    0.747768
   6 C :    0.312392
   7 C :    0.312394
   8 C :   -0.593068
   9 C :   -0.593074
  10 C :    0.549129
  11 C :    0.549129
  12 H :   -0.506676
  13 H :   -0.506676
  14 H :   -0.602664
  15 H :   -0.602663
  16 H :   -0.686063
  17 H :   -0.686064
  18 H :    0.203191
  19 H :   -0.237576
  20 H :    0.203191
  21 H :    0.203191
  22 H :    0.203191
  23 H :   -0.237576
Sum of atomic charges:    0.0000000

LOEWDIN ATOMIC CHARGES
----------------------
   0 C :    0.008844
   1 C :    0.008844
   2 C :    0.051246
   3 C :    0.051246
   4 C :    0.084641
   5 C :    0.084641
   6 C :   -0.135465
   7 C :   -0.135465
   8 C :   -0.169358
   9 C :   -0.169358
  10 C :    0.174509
  11 C :    0.174509
  12 H :   -0.001329
  13 H :   -0.001329
  14 H :    0.006523
  15 H :    0.006523
  16 H :    0.010169
  17 H :    0.010169
  18 H :   -0.007509
  19 H :   -0.014762
  20 H :   -0.007509
  21 H :   -0.007509
  22 H :   -0.007509
  23 H :   -0.014762

  Mayer bond orders larger than 0.100000
B(  0-C ,  1-C ) :   2.0748 B(  0-C ,  2-C ) :   1.2488 B(  0-C ,  3-C ) :   0.2854
B(  0-C ,  4-C ) :   0.5632 B(  0-C ,  5-C ) :  -0.2712 B(  0-C ,  6-C ) :  -0.8616
B(  0-C ,  7-C ) :  -0.4126 B(  0-C ,  8-C ) :   0.4809 B(  0-C ,  9-C ) :   0.5796
B(  0-C , 13-H ) :   0.1585 B(  0-C , 14-H ) :   0.3576 B(  0-C , 15-H ) :  -0.1089
B(  1-C ,  2-C ) :   0.2854 B(  1-C ,  3-C ) :   1.2488 B(  1-C ,  4-C ) :  -0.2712
B(  1-C ,  5-C ) :   0.5632 B(  1-C ,  6-C ) :  -0.4126 B(  1-C ,  7-C ) :  -0.8616
B(  1-C ,  8-C ) :   0.5796 B(  1-C ,  9-C ) :   0.4809 B(  1-C , 12-H ) :   0.1585
B(  1-C , 14-H ) :  -0.1089 B(  1-C , 15-H ) :   0.3576 B(  2-C ,  3-C ) :   0.5662
B(  2-C ,  4-C ) :  -1.9379 B(  2-C ,  5-C ) :  -0.2311 B(  2-C ,  6-C ) :   1.3490
B(  2-C ,  7-C ) :  -1.4826 B(  2-C ,  8-C ) :   0.3090 B(  2-C , 11-C ) :   0.1500
B(  2-C , 12-H ) :   0.3803 B(  2-C , 14-H ) :  -0.7039 B(  2-C , 15-H ) :   0.1019
B(  3-C ,  4-C ) :  -0.2311 B(  3-C ,  5-C ) :  -1.9379 B(  3-C ,  6-C ) :  -1.4826
B(  3-C ,  7-C ) :   1.3490 B(  3-C ,  9-C ) :   0.3090 B(  3-C , 10-C ) :   0.1500
B(  3-C , 13-H ) :   0.3803 B(  3-C , 14-H ) :   0.1019 B(  3-C , 15-H ) :  -0.7039
B(  4-C ,  5-C ) :   0.2667 B(  4-C ,  6-C ) :   2.1152 B(  4-C ,  7-C ) :  -0.9636
B(  4-C ,  8-C ) :   2.8171 B(  4-C ,  9-C ) :  -0.3552 B(  4-C , 10-C ) :  -0.4727
B(  4-C , 16-H ) :  -1.3175 B(  4-C , 17-H ) :   0.1416 B(  4-C , 19-H ) :   0.1432
B(  5-C ,  6-C ) :  -0.9636 B(  5-C ,  7-C ) :   2.1152 B(  5-C ,  8-C ) :  -0.3552
B(  5-C ,  9-C ) :   2.8171 B(  5-C , 11-C ) :  -0.4727 B(  5-C , 16-H ) :   0.1416
B(  5-C , 17-H ) :  -1.3175 B(  5-C , 23-H ) :   0.1432 B(  6-C ,  7-C ) :   4.1361
B(  6-C ,  8-C ) :  -1.0960 B(  6-C ,  9-C ) :   0.1969 B(  6-C , 10-C ) :   0.3750
B(  6-C , 12-H ) :   0.4299 B(  6-C , 13-H ) :  -0.2874 B(  6-C , 14-H ) :   1.1214
B(  6-C , 15-H ) :  -0.1930 B(  6-C , 16-H ) :   1.4922 B(  7-C ,  8-C ) :   0.1969
B(  7-C ,  9-C ) :  -1.0960 B(  7-C , 11-C ) :   0.3750 B(  7-C , 12-H ) :  -0.2874
B(  7-C , 13-H ) :   0.4299 B(  7-C , 14-H ) :  -0.1930 B(  7-C , 15-H ) :   1.1214
B(  7-C , 17-H ) :   1.4922 B(  8-C ,  9-C ) :   1.5438 B(  8-C , 10-C ) :   1.3743
B(  8-C , 11-C ) :  -0.1495 B(  8-C , 16-H ) :   0.4569 B(  8-C , 17-H ) :  -0.2253
B(  8-C , 18-H ) :   0.2403 B(  8-C , 19-H ) :   0.5401 B(  8-C , 20-H ) :   0.2403
B(  8-C , 23-H ) :  -0.1070 B(  9-C , 10-C ) :  -0.1495 B(  9-C , 11-C ) :   1.3743
B(  9-C , 16-H ) :  -0.2253 B(  9-C , 17-H ) :   0.4569 B(  9-C , 19-H ) :  -0.1070
B(  9-C , 21-H ) :   0.2403 B(  9-C , 22-H ) :   0.2403 B(  9-C , 23-H ) :   0.5401
B( 10-C , 11-C ) :  -0.1687 B( 10-C , 18-H ) :   0.8223 B( 10-C , 19-H ) :   0.3703
B( 10-C , 20-H ) :   0.8223 B( 10-C , 21-H ) :  -0.1017 B( 10-C , 22-H ) :  -0.1017
B( 11-C , 18-H ) :  -0.1017 B( 11-C , 20-H ) :  -0.1017 B( 11-C , 21-H ) :   0.8223
B( 11-C , 22-H ) :   0.8223 B( 11-C , 23-H ) :   0.3703

MP2 TOTAL ENERGY:     -463.122251442 Eh
FINAL SINGLE POINT ENERGY      -463.122251442357

DIPOLE MOMENT
-------------
                                X             Y             Z
Electronic contribution:      0.00000       0.00000       8.52343
Nuclear contribution   :      0.00000      -0.00000      -8.88687
                        -----------------------------------------
Total Dipole Moment    :      0.00000       0.00000      -0.36344
                        -----------------------------------------
Magnitude (a.u.)       :      0.36344
Magnitude (Debye)      :      0.92380

Rotational constants in cm-1:     0.072692     0.022382     0.017221
Rotational constants in MHz :  2179.256613   670.984065   516.272038

                             ****ORCA TERMINATED NORMALLY****
TOTAL RUN TIME: 0 days 0 hours 3 minutes 21 seconds 73 msec
