                         Program Version 5.0.3 -  RELEASE  -
|  1> !ri-mp2 aug-cc-pvdz aug-cc-pvdz/c tightscf
|  2> %pal nprocs 16 end
|  3>
|  4> * xyz 0 1
|  5> S      2.745348   -0.356309    0.000063
|  6> O     -0.994220   -1.299184    0.000009
|  7> N     -3.011806   -0.267700   -0.000097
|  8> N      0.394126    1.102920   -0.000391
|  9> C     -1.019553    1.122041    0.000287
| 10> C     -1.651289   -0.284113    0.000026
| 11> C      1.362947    0.407332   -0.000131
| 12> H     -1.377130    1.669767   -0.876347
| 13> H     -1.376320    1.668960    0.877770
| 14> H     -3.544575    0.582927   -0.000097
| 15> H     -3.502658   -1.145330   -0.000094
| 16> *
| 17>
| 18>                          ****END OF INPUT****

CARTESIAN COORDINATES (ANGSTROEM)
---------------------------------
  S      2.745348   -0.356309    0.000063
  O     -0.994220   -1.299184    0.000009
  N     -3.011806   -0.267700   -0.000097
  N      0.394126    1.102920   -0.000391
  C     -1.019553    1.122041    0.000287
  C     -1.651289   -0.284113    0.000026
  C      1.362947    0.407332   -0.000131
  H     -1.377130    1.669767   -0.876347
  H     -1.376320    1.668960    0.877770
  H     -3.544575    0.582927   -0.000097
  H     -3.502658   -1.145330   -0.000094

 Total Charge           Charge          ....    0
 Multiplicity           Mult            ....    1
 Number of Electrons    NEL             ....   60
 Basis Dimension        Dim             ....  201

ORBITAL ENERGIES
----------------

  NO   OCC          E(Eh)            E(eV)
   0   2.0000     -91.944334     -2501.9325
   1   2.0000     -20.557171      -559.3891
   2   2.0000     -15.616886      -424.9571
   3   2.0000     -15.612332      -424.8332
   4   2.0000     -11.388764      -309.9040
   5   2.0000     -11.383078      -309.7493
   6   2.0000     -11.331918      -308.3572
   7   2.0000      -8.947812      -243.4823
   8   2.0000      -6.630496      -180.4250
   9   2.0000      -6.626701      -180.3217
  10   2.0000      -6.626397      -180.3134
  11   2.0000      -1.417780       -38.5797
  12   2.0000      -1.298698       -35.3394
  13   2.0000      -1.241727       -33.7891
  14   2.0000      -1.073530       -29.2122
  15   2.0000      -1.004221       -27.3262
  16   2.0000      -0.852110       -23.1871
  17   2.0000      -0.774074       -21.0636
  18   2.0000      -0.713010       -19.4020
  19   2.0000      -0.698894       -19.0179
  20   2.0000      -0.681462       -18.5435
  21   2.0000      -0.633857       -17.2481
  22   2.0000      -0.587479       -15.9861
  23   2.0000      -0.579373       -15.7655
  24   2.0000      -0.536303       -14.5935
  25   2.0000      -0.523486       -14.2448
  26   2.0000      -0.456730       -12.4283
  27   2.0000      -0.439223       -11.9519
  28   2.0000      -0.359933        -9.7943
  29   2.0000      -0.350101        -9.5267
  30   0.0000       0.016762         0.4561
  31   0.0000       0.039858         1.0846
  32   0.0000       0.044783         1.2186
  33   0.0000       0.053193         1.4475
  34   0.0000       0.078340         2.1317

MULLIKEN ATOMIC CHARGES
-----------------------
   0 S :    0.154187
   1 O :   -0.709485
   2 N :   -0.212340
   3 N :   -0.391461
   4 C :    0.829828
   5 C :    0.779822
   6 C :   -0.289304
   7 H :   -0.056029
   8 H :   -0.055618
   9 H :   -0.038089
  10 H :   -0.011510
Sum of atomic charges:    0.0000000

LOEWDIN ATOMIC CHARGES
----------------------
   0 S :    0.604242
   1 O :    0.044348
   2 N :    0.274641
   3 N :   -0.019363
   4 C :    0.033394
   5 C :   -0.349609
   6 C :   -0.624335
   7 H :    0.026002
   8 H :    0.026044
   9 H :   -0.014925
  10 H :   -0.000440

  Mayer bond orders larger than 0.100000
B(  0-S ,  6-C ) :   1.8625 B(  1-O ,  5-C ) :   1.5349 B(  2-N ,  5-C ) :   0.9519
B(  2-N ,  9-H ) :   1.1186 B(  2-N , 10-H ) :   1.0861 B(  3-N ,  4-C ) :   0.6897
B(  3-N ,  6-C ) :   1.9605 B(  4-C ,  5-C ) :   0.9324 B(  4-C ,  6-C ) :  -0.1225
B(  4-C ,  7-H ) :   0.9008 B(  4-C ,  8-H ) :   0.9006 B(  5-C ,  9-H ) :  -0.1047

MP2 TOTAL ENERGY:     -698.350628576 Eh
FINAL SINGLE POINT ENERGY      -698.350628576007

DIPOLE MOMENT
-------------
                                X             Y             Z
Electronic contribution:      7.19595      -1.46839      -0.00076
Nuclear contribution   :     -9.62155       2.68932       0.00119
                        -----------------------------------------
Total Dipole Moment    :     -2.42560       1.22093       0.00043
                        -----------------------------------------
Magnitude (a.u.)       :      2.71555
Magnitude (Debye)      :      6.90237

Rotational constants in cm-1:     0.221957     0.034843     0.030283
Rotational constants in MHz :  6654.116703  1044.569240   907.870851

                             ****ORCA TERMINATED NORMALLY****
TOTAL RUN TIME: 0 days 0 hours 0 minutes 36 seconds 904 msec
