                         Program Version 5.0.3 -  RELEASE  -
|  1> !ri-mp2 aug-cc-pvdz aug-cc-pvdz/c tightscf
|  2> %pal nprocs 16 end
|  3>
|  4> * xyz 0 1
|  5> O      1.710629   -2.268770    0.000000
|  6> C      0.839149   -1.437452    0.000000
|  7> N      1.061346   -0.070202    0.000000
|  8> C      0.000000    0.800619    0.000000
|  9> S      0.108303    2.432861    0.000000
| 10> C     -0.653681   -1.727173    0.000000
| 11> S     -1.508948   -0.111223    0.000000
| 12> H      2.004537    0.291896    0.000000
| 13> H     -0.910734   -2.306252    0.884785
| 14> H     -0.910734   -2.306252   -0.884785
| 15> *
| 16>
| 17>                          ****END OF INPUT****

CARTESIAN COORDINATES (ANGSTROEM)
---------------------------------
  O      1.710629   -2.268770    0.000000
  C      0.839149   -1.437452    0.000000
  N      1.061346   -0.070202    0.000000
  C      0.000000    0.800619    0.000000
  S      0.108303    2.432861    0.000000
  C     -0.653681   -1.727173    0.000000
  S     -1.508948   -0.111223    0.000000
  H      2.004537    0.291896    0.000000
  H     -0.910734   -2.306252    0.884785
  H     -0.910734   -2.306252   -0.884785

 Total Charge           Charge          ....    0
 Multiplicity           Mult            ....    1
 Number of Electrons    NEL             ....   68
 Basis Dimension        Dim             ....  196

ORBITAL ENERGIES
----------------

  NO   OCC          E(Eh)            E(eV)
   0   2.0000     -92.016100     -2503.8854
   1   2.0000     -91.941328     -2501.8507
   2   2.0000     -20.588173      -560.2327
   3   2.0000     -15.663343      -426.2212
   4   2.0000     -11.417289      -310.6802
   5   2.0000     -11.411822      -310.5315
   6   2.0000     -11.319757      -308.0263
   7   2.0000      -9.018434      -245.4041
   8   2.0000      -8.944744      -243.3989
   9   2.0000      -6.699965      -182.3153
  10   2.0000      -6.698725      -182.2816
  11   2.0000      -6.696545      -182.2222
  12   2.0000      -6.626998      -180.3298
  13   2.0000      -6.624301      -180.2564
  14   2.0000      -6.622971      -180.2202
  15   2.0000      -1.447837       -39.3976
  16   2.0000      -1.330985       -36.2180
  17   2.0000      -1.116045       -30.3691
  18   2.0000      -1.073904       -29.2224
  19   2.0000      -0.942658       -25.6510
  20   2.0000      -0.862896       -23.4806
  21   2.0000      -0.837849       -22.7990
  22   2.0000      -0.707299       -19.2466
  23   2.0000      -0.689022       -18.7493
  24   2.0000      -0.652256       -17.7488
  25   2.0000      -0.635318       -17.2879
  26   2.0000      -0.598110       -16.2754
  27   2.0000      -0.548350       -14.9214
  28   2.0000      -0.537069       -14.6144
  29   2.0000      -0.530732       -14.4419
  30   2.0000      -0.466505       -12.6943
  31   2.0000      -0.418691       -11.3932
  32   2.0000      -0.359876        -9.7927
  33   2.0000      -0.358066        -9.7435
  34   0.0000       0.028521         0.7761
  35   0.0000       0.046402         1.2627
  36   0.0000       0.047386         1.2894
  37   0.0000       0.051877         1.4116
  38   0.0000       0.068477         1.8634

MULLIKEN ATOMIC CHARGES
-----------------------
   0 O :   -0.754755
   1 C :    0.839392
   2 N :   -0.515002
   3 C :   -0.137915
   4 S :    0.133085
   5 C :   -0.309228
   6 S :    0.674120
   7 H :   -0.069406
   8 H :    0.069855
   9 H :    0.069855
Sum of atomic charges:   -0.0000000

LOEWDIN ATOMIC CHARGES
----------------------
   0 O :    0.058093
   1 C :   -0.349340
   2 N :    0.024058
   3 C :   -1.018192
   4 S :    0.533098
   5 C :   -0.165714
   6 S :    0.913194
   7 H :    0.033273
   8 H :   -0.014235
   9 H :   -0.014235

  Mayer bond orders larger than 0.100000
B(  0-O ,  1-C ) :   1.3476 B(  1-C ,  2-N ) :   0.9590 B(  1-C ,  3-C ) :  -0.1078
B(  1-C ,  5-C ) :   1.0111 B(  1-C ,  6-S ) :  -0.1008 B(  2-N ,  3-C ) :   0.8939
B(  2-N ,  7-H ) :   1.2400 B(  3-C ,  4-S ) :   1.8670 B(  3-C ,  5-C ) :   0.1208
B(  3-C ,  6-S ) :   1.0218 B(  3-C ,  7-H ) :  -0.1438 B(  5-C ,  6-S ) :   1.0868
B(  5-C ,  8-H ) :   0.9106 B(  5-C ,  9-H ) :   0.9106

MP2 TOTAL ENERGY:    -1040.825374071 Eh
FINAL SINGLE POINT ENERGY     -1040.825374071216

DIPOLE MOMENT
-------------
                                X             Y             Z
Electronic contribution:     -0.73227       3.39560       0.00000
Nuclear contribution   :      0.24882      -4.24641       0.00000
                        -----------------------------------------
Total Dipole Moment    :     -0.48346      -0.85080       0.00000
                        -----------------------------------------
Magnitude (a.u.)       :      0.97857
Magnitude (Debye)      :      2.48732

Rotational constants in cm-1:     0.114781     0.046420     0.033259
Rotational constants in MHz :  3441.062082  1391.632557   997.065858

                             ****ORCA TERMINATED NORMALLY****
TOTAL RUN TIME: 0 days 0 hours 0 minutes 38 seconds 25 msec
