                         Program Version 5.0.3 -  RELEASE  -
|  1> !ri-mp2 aug-cc-pvdz aug-cc-pvdz/c tightscf
|  2> %pal nprocs 16 end
|  3> %maxcore 3800
|  4>
|  5> * xyz 0 1
|  6> O      1.156985    1.267774    1.230191
|  7> S      0.843996    0.000062    0.585576
|  8> C      1.650805   -0.000061   -1.080985
|  9> C      3.089778   -0.000082   -0.968083
| 10> C      4.283059   -0.000104   -0.864662
| 11> O      1.157003   -1.267545    1.230387
| 12> C     -0.900255    0.000015    0.152344
| 13> C     -1.559782   -1.213746   -0.004980
| 14> C     -2.908652   -1.207188   -0.338370
| 15> C     -3.579238   -0.000063   -0.507878
| 16> C     -2.908689    1.207101   -0.338507
| 17> C     -1.559819    1.213738   -0.005118
| 18> H      1.278876    0.889853   -1.588820
| 19> H      1.278846   -0.890027   -1.588706
| 20> H      5.340191   -0.000125   -0.768376
| 21> H     -1.026919   -2.140103    0.154686
| 22> H     -3.436604   -2.143231   -0.457340
| 23> H     -4.629833   -0.000093   -0.764710
| 24> H     -3.436669    2.143114   -0.457585
| 25> H     -1.026981    2.140129    0.154442
| 26> *
| 27>
| 28>                          ****END OF INPUT****

CARTESIAN COORDINATES (ANGSTROEM)
---------------------------------
  O      1.156985    1.267774    1.230191
  S      0.843996    0.000062    0.585576
  C      1.650805   -0.000061   -1.080985
  C      3.089778   -0.000082   -0.968083
  C      4.283059   -0.000104   -0.864662
  O      1.157003   -1.267545    1.230387
  C     -0.900255    0.000015    0.152344
  C     -1.559782   -1.213746   -0.004980
  C     -2.908652   -1.207188   -0.338370
  C     -3.579238   -0.000063   -0.507878
  C     -2.908689    1.207101   -0.338507
  C     -1.559819    1.213738   -0.005118
  H      1.278876    0.889853   -1.588820
  H      1.278846   -0.890027   -1.588706
  H      5.340191   -0.000125   -0.768376
  H     -1.026919   -2.140103    0.154686
  H     -3.436604   -2.143231   -0.457340
  H     -4.629833   -0.000093   -0.764710
  H     -3.436669    2.143114   -0.457585
  H     -1.026981    2.140129    0.154442

 Total Charge           Charge          ....    0
 Multiplicity           Mult            ....    1
 Number of Electrons    NEL             ....   94
 Basis Dimension        Dim             ....  352

ORBITAL ENERGIES
----------------

  NO   OCC          E(Eh)            E(eV)
   0   2.0000     -92.206620     -2509.0697
   1   2.0000     -20.557191      -559.3896
   2   2.0000     -20.557173      -559.3891
   3   2.0000     -11.313884      -307.8664
   4   2.0000     -11.290691      -307.2353
   5   2.0000     -11.277601      -306.8791
   6   2.0000     -11.277528      -306.8771
   7   2.0000     -11.274361      -306.7910
   8   2.0000     -11.268352      -306.6274
   9   2.0000     -11.268221      -306.6239
  10   2.0000     -11.260403      -306.4111
  11   2.0000     -11.252041      -306.1836
  12   2.0000      -9.178579      -249.7618
  13   2.0000      -6.863939      -186.7773
  14   2.0000      -6.862602      -186.7409
  15   2.0000      -6.862240      -186.7310
  16   2.0000      -1.455608       -39.6091
  17   2.0000      -1.342790       -36.5392
  18   2.0000      -1.193281       -32.4708
  19   2.0000      -1.105702       -30.0877
  20   2.0000      -1.065761       -29.0008
  21   2.0000      -1.052421       -28.6378
  22   2.0000      -1.004201       -27.3257
  23   2.0000      -0.906312       -24.6620
  24   2.0000      -0.863327       -23.4923
  25   2.0000      -0.819023       -22.2868
  26   2.0000      -0.743950       -20.2439
  27   2.0000      -0.742202       -20.1963
  28   2.0000      -0.691996       -18.8302
  29   2.0000      -0.681366       -18.5409
  30   2.0000      -0.674254       -18.3474
  31   2.0000      -0.653337       -17.7782
  32   2.0000      -0.652204       -17.7474
  33   2.0000      -0.638958       -17.3869
  34   2.0000      -0.621714       -16.9177
  35   2.0000      -0.615929       -16.7603
  36   2.0000      -0.551617       -15.0103
  37   2.0000      -0.537768       -14.6334
  38   2.0000      -0.527804       -14.3623
  39   2.0000      -0.497480       -13.5371
  40   2.0000      -0.497426       -13.5357
  41   2.0000      -0.471420       -12.8280
  42   2.0000      -0.453005       -12.3269
  43   2.0000      -0.406876       -11.0717
  44   2.0000      -0.397656       -10.8208
  45   2.0000      -0.374879       -10.2010
  46   2.0000      -0.366938        -9.9849
  47   0.0000       0.025989         0.7072
  48   0.0000       0.036332         0.9886
  49   0.0000       0.037600         1.0231
  50   0.0000       0.042546         1.1577
  51   0.0000       0.051857         1.4111

MULLIKEN ATOMIC CHARGES
-----------------------
   0 O :   -1.254181
   1 S :    2.815504
   2 C :   -0.440610
   3 C :   -0.255682
   4 C :    0.959641
   5 O :   -1.254181
   6 C :    1.102549
   7 C :   -0.082313
   8 C :    0.517017
   9 C :    0.377622
  10 C :    0.517039
  11 C :   -0.082323
  12 H :    0.035491
  13 H :    0.035494
  14 H :   -0.544030
  15 H :   -0.568622
  16 H :   -0.437586
  17 H :   -0.434630
  18 H :   -0.437586
  19 H :   -0.568612
Sum of atomic charges:   -0.0000000

LOEWDIN ATOMIC CHARGES
----------------------
   0 O :   -0.380532
   1 S :    0.975522
   2 C :   -0.101906
   3 C :   -0.139529
   4 C :    0.232788
   5 O :   -0.380531
   6 C :   -0.258143
   7 C :    0.018400
   8 C :    0.022832
   9 C :    0.028442
  10 C :    0.022832
  11 C :    0.018401
  12 H :    0.005679
  13 H :    0.005678
  14 H :   -0.095475
  15 H :    0.004184
  16 H :    0.004945
  17 H :    0.007285
  18 H :    0.004944
  19 H :    0.004184

  Mayer bond orders larger than 0.100000
B(  0-O ,  1-S ) :   0.5839 B(  0-O ,  2-C ) :   0.2986 B(  0-O ,  5-O ) :   0.1407
B(  0-O ,  6-C ) :   0.1980 B(  0-O ,  7-C ) :  -0.1132 B(  1-S ,  2-C ) :   0.8321
B(  1-S ,  3-C ) :  -0.1624 B(  1-S ,  5-O ) :   0.5839 B(  1-S ,  6-C ) :   1.2446
B(  1-S ,  7-C ) :  -0.1649 B(  1-S , 11-C ) :  -0.1649 B(  2-C ,  3-C ) :   1.4757
B(  2-C ,  4-C ) :   0.2029 B(  2-C ,  5-O ) :   0.2986 B(  2-C , 12-H ) :   0.8969
B(  2-C , 13-H ) :   0.8969 B(  2-C , 14-H ) :   0.1104 B(  3-C ,  4-C ) :   2.8221
B(  3-C , 14-H ) :   0.7773 B(  4-C ,  6-C ) :  -0.1077 B(  4-C , 14-H ) :  -0.4934
B(  5-O ,  6-C ) :   0.1980 B(  5-O , 11-C ) :  -0.1132 B(  6-C ,  7-C ) :   1.1291
B(  6-C ,  8-C ) :  -0.3186 B(  6-C , 10-C ) :  -0.3186 B(  6-C , 11-C ) :   1.1292
B(  6-C , 12-H ) :  -0.1045 B(  6-C , 13-H ) :  -0.1045 B(  6-C , 15-H ) :   0.3470
B(  6-C , 19-H ) :   0.3470 B(  7-C ,  8-C ) :   2.0005 B(  7-C , 10-C ) :   0.1636
B(  7-C , 11-C ) :  -0.2909 B(  7-C , 15-H ) :   0.1198 B(  7-C , 16-H ) :   0.3293
B(  8-C ,  9-C ) :   1.7242 B(  8-C , 10-C ) :  -0.1288 B(  8-C , 11-C ) :   0.1636
B(  8-C , 15-H ) :   0.2220 B(  8-C , 16-H ) :   0.2466 B(  8-C , 17-H ) :   0.1828
B(  9-C , 10-C ) :   1.7242 B(  9-C , 16-H ) :   0.1723 B(  9-C , 17-H ) :   0.3714
B(  9-C , 18-H ) :   0.1723 B( 10-C , 11-C ) :   2.0005 B( 10-C , 17-H ) :   0.1828
B( 10-C , 18-H ) :   0.2466 B( 10-C , 19-H ) :   0.2220 B( 11-C , 18-H ) :   0.3293
B( 11-C , 19-H ) :   0.1198

MP2 TOTAL ENERGY:     -894.392766802 Eh
FINAL SINGLE POINT ENERGY      -894.392766802068

DIPOLE MOMENT
-------------
                                X             Y             Z
Electronic contribution:      4.18332       0.00032       3.44160
Nuclear contribution   :     -5.53325      -0.00047      -5.18749
                        -----------------------------------------
Total Dipole Moment    :     -1.34993      -0.00015      -1.74590
                        -----------------------------------------
Magnitude (a.u.)       :      2.20691
Magnitude (Debye)      :      5.60953

Rotational constants in cm-1:     0.067888     0.016139     0.015609
Rotational constants in MHz :  2035.227937   483.839398   467.940154

                             ****ORCA TERMINATED NORMALLY****
TOTAL RUN TIME: 0 days 0 hours 2 minutes 23 seconds 30 msec
