                         Program Version 5.0.3 -  RELEASE  -
|  1> !ri-mp2 aug-cc-pvdz aug-cc-pvdz/c tightscf
|  2> %pal nprocs 16 end
|  3>
|  4> * xyz 0 1
|  5> O     -0.777836    0.622205   -0.000066
|  6> O      1.157333    1.699452   -0.000071
|  7> N      2.577306   -0.606933    0.000088
|  8> N      3.695819   -0.545596    0.000118
|  9> C     -1.504219   -0.618985   -0.000007
| 10> C      0.582712    0.639548   -0.000031
| 11> C      1.267948   -0.648464    0.000052
| 12> C     -2.928155   -0.331723   -0.000031
| 13> C     -4.108010   -0.128816   -0.000050
| 14> H     -1.247335   -1.201991   -0.888800
| 15> H     -1.247348   -1.201899    0.888849
| 16> H      0.837583   -1.633315    0.000081
| 17> H     -5.152401    0.062286   -0.000066
| 18> *
| 19>
| 20>                          ****END OF INPUT****

CARTESIAN COORDINATES (ANGSTROEM)
---------------------------------
  O     -0.777836    0.622205   -0.000066
  O      1.157333    1.699452   -0.000071
  N      2.577306   -0.606933    0.000088
  N      3.695819   -0.545596    0.000118
  C     -1.504219   -0.618985   -0.000007
  C      0.582712    0.639548   -0.000031
  C      1.267948   -0.648464    0.000052
  C     -2.928155   -0.331723   -0.000031
  C     -4.108010   -0.128816   -0.000050
  H     -1.247335   -1.201991   -0.888800
  H     -1.247348   -1.201899    0.888849
  H      0.837583   -1.633315    0.000081
  H     -5.152401    0.062286   -0.000066

 Total Charge           Charge          ....    0
 Multiplicity           Mult            ....    1
 Number of Electrons    NEL             ....   64
 Basis Dimension        Dim             ....  243

ORBITAL ENERGIES
----------------

  NO   OCC          E(Eh)            E(eV)
   0   2.0000     -20.625190      -561.2400
   1   2.0000     -20.549247      -559.1734
   2   2.0000     -15.791086      -429.6973
   3   2.0000     -15.726606      -427.9427
   4   2.0000     -11.409121      -310.4580
   5   2.0000     -11.348583      -308.8107
   6   2.0000     -11.305126      -307.6281
   7   2.0000     -11.261087      -306.4297
   8   2.0000     -11.255178      -306.2690
   9   2.0000      -1.522485       -41.4289
  10   2.0000      -1.468208       -39.9520
  11   2.0000      -1.372517       -37.3481
  12   2.0000      -1.173038       -31.9200
  13   2.0000      -1.084792       -29.5187
  14   2.0000      -0.988835       -26.9076
  15   2.0000      -0.896710       -24.4007
  16   2.0000      -0.770440       -20.9647
  17   2.0000      -0.768192       -20.9036
  18   2.0000      -0.741985       -20.1904
  19   2.0000      -0.713855       -19.4250
  20   2.0000      -0.706544       -19.2260
  21   2.0000      -0.692904       -18.8549
  22   2.0000      -0.681592       -18.5471
  23   2.0000      -0.646996       -17.6057
  24   2.0000      -0.615987       -16.7619
  25   2.0000      -0.587855       -15.9964
  26   2.0000      -0.547310       -14.8931
  27   2.0000      -0.475727       -12.9452
  28   2.0000      -0.462265       -12.5789
  29   2.0000      -0.416888       -11.3441
  30   2.0000      -0.408714       -11.1217
  31   2.0000      -0.365568        -9.9476
  32   0.0000       0.025323         0.6891
  33   0.0000       0.035546         0.9673
  34   0.0000       0.046772         1.2727
  35   0.0000       0.055379         1.5069
  36   0.0000       0.071238         1.9385

MULLIKEN ATOMIC CHARGES
-----------------------
   0 O :   -0.859392
   1 O :   -0.819557
   2 N :    0.093743
   3 N :   -0.479133
   4 C :    0.473757
   5 C :    0.945007
   6 C :    1.101834
   7 C :   -0.362327
   8 C :    1.027569
   9 H :   -0.061118
  10 H :   -0.061116
  11 H :   -0.436312
  12 H :   -0.562955
Sum of atomic charges:   -0.0000000

LOEWDIN ATOMIC CHARGES
----------------------
   0 O :    0.082794
   1 O :    0.036574
   2 N :   -0.118457
   3 N :    0.312669
   4 C :   -0.045732
   5 C :   -0.365546
   6 C :    0.041354
   7 C :   -0.081811
   8 C :    0.227603
   9 H :    0.018808
  10 H :    0.018806
  11 H :   -0.030002
  12 H :   -0.097058

  Mayer bond orders larger than 0.100000
B(  0-O ,  4-C ) :   0.6940 B(  0-O ,  5-C ) :   0.5260 B(  0-O ,  6-C ) :   0.1338
B(  1-O ,  5-C ) :   1.4716 B(  2-N ,  3-N ) :   1.8242 B(  2-N ,  6-C ) :   1.0488
B(  3-N ,  6-C ) :  -0.2527 B(  4-C ,  7-C ) :   1.7086 B(  4-C ,  8-C ) :   0.2928
B(  4-C ,  9-H ) :   0.8511 B(  4-C , 10-H ) :   0.8511 B(  4-C , 11-H ) :   0.1033
B(  5-C ,  6-C ) :   1.0188 B(  6-C , 11-H ) :   0.6336 B(  7-C ,  8-C ) :   2.6685
B(  7-C , 12-H ) :   0.9255 B(  8-C , 12-H ) :  -0.6395

MP2 TOTAL ENERGY:     -451.594718041 Eh
FINAL SINGLE POINT ENERGY      -451.594718040896

DIPOLE MOMENT
-------------
                                X             Y             Z
Electronic contribution:      6.13451       1.80458       0.00004
Nuclear contribution   :     -6.55392      -3.82103       0.00006
                        -----------------------------------------
Total Dipole Moment    :     -0.41941      -2.01645       0.00010
                        -----------------------------------------
Magnitude (a.u.)       :      2.05960
Magnitude (Debye)      :      5.23509

Rotational constants in cm-1:     0.198589     0.023961     0.021468
Rotational constants in MHz :  5953.536360   718.325482   643.587134

                             ****ORCA TERMINATED NORMALLY****
TOTAL RUN TIME: 0 days 0 hours 0 minutes 47 seconds 85 msec
