                         Program Version 5.0.3 -  RELEASE  -
|  1> !ri-mp2 aug-cc-pvdz aug-cc-pvdz/c tightscf
|  2> %pal nprocs 16 end
|  3>
|  4> * xyz 0 1
|  5> C      0.000000    0.000000    0.410032
|  6> C      0.000000    1.303082    0.410018
|  7> C      0.000000   -1.303082    0.410018
|  8> C     -0.871882    2.172515   -0.457285
|  9> C      0.871882   -2.172515   -0.457285
| 10> H      0.676863    1.817656    1.088068
| 11> H     -0.676863   -1.817656    1.088068
| 12> H     -1.504967    2.819715    0.154671
| 13> H     -0.264433    2.825078   -1.089145
| 14> H     -1.514184    1.573281   -1.100088
| 15> H      1.504967   -2.819715    0.154671
| 16> H      0.264433   -2.825078   -1.089145
| 17> H      1.514184   -1.573281   -1.100088
| 18> *
| 19>
| 20>                          ****END OF INPUT****

CARTESIAN COORDINATES (ANGSTROEM)
---------------------------------
  C      0.000000    0.000000    0.410032
  C      0.000000    1.303082    0.410018
  C      0.000000   -1.303082    0.410018
  C     -0.871882    2.172515   -0.457285
  C      0.871882   -2.172515   -0.457285
  H      0.676863    1.817656    1.088068
  H     -0.676863   -1.817656    1.088068
  H     -1.504967    2.819715    0.154671
  H     -0.264433    2.825078   -1.089145
  H     -1.514184    1.573281   -1.100088
  H      1.504967   -2.819715    0.154671
  H      0.264433   -2.825078   -1.089145
  H      1.514184   -1.573281   -1.100088

 Total Charge           Charge          ....    0
 Multiplicity           Mult            ....    1
 Number of Electrons    NEL             ....   38
 Basis Dimension        Dim             ....  187

ORBITAL ENERGIES
----------------

  NO   OCC          E(Eh)            E(eV)
   0   2.0000     -11.243976      -305.9641
   1   2.0000     -11.241244      -305.8898
   2   2.0000     -11.240523      -305.8702
   3   2.0000     -11.230899      -305.6083
   4   2.0000     -11.230897      -305.6083
   5   2.0000      -1.093096       -29.7447
   6   2.0000      -1.029411       -28.0117
   7   2.0000      -0.933413       -25.3995
   8   2.0000      -0.862427       -23.4678
   9   2.0000      -0.692521       -18.8445
  10   2.0000      -0.644257       -17.5311
  11   2.0000      -0.581595       -15.8260
  12   2.0000      -0.572831       -15.5875
  13   2.0000      -0.562503       -15.3065
  14   2.0000      -0.556250       -15.1363
  15   2.0000      -0.525416       -14.2973
  16   2.0000      -0.519115       -14.1258
  17   2.0000      -0.353958        -9.6317
  18   2.0000      -0.353793        -9.6272
  19   0.0000       0.036036         0.9806
  20   0.0000       0.042030         1.1437
  21   0.0000       0.049518         1.3475
  22   0.0000       0.049529         1.3478
  23   0.0000       0.065960         1.7949

MULLIKEN ATOMIC CHARGES
-----------------------
   0 C :   -0.429972
   1 C :    0.542553
   2 C :    0.542553
   3 C :    0.196460
   4 C :    0.196460
   5 H :   -0.376869
   6 H :   -0.376869
   7 H :    0.004933
   8 H :    0.012027
   9 H :   -0.164117
  10 H :    0.004933
  11 H :    0.012027
  12 H :   -0.164117
Sum of atomic charges:    0.0000000

LOEWDIN ATOMIC CHARGES
----------------------
   0 C :   -0.032397
   1 C :   -0.052972
   2 C :   -0.052972
   3 C :    0.133356
   4 C :    0.133356
   5 H :   -0.006221
   6 H :   -0.006221
   7 H :   -0.019661
   8 H :   -0.019629
   9 H :   -0.018674
  10 H :   -0.019661
  11 H :   -0.019629
  12 H :   -0.018674

  Mayer bond orders larger than 0.100000
B(  0-C ,  1-C ) :   1.8228 B(  0-C ,  2-C ) :   1.8228 B(  0-C ,  9-H ) :  -0.1092
B(  0-C , 12-H ) :  -0.1092 B(  1-C ,  2-C ) :   0.2840 B(  1-C ,  3-C ) :   1.1578
B(  1-C ,  5-H ) :   0.6809 B(  2-C ,  4-C ) :   1.1578 B(  2-C ,  6-H ) :   0.6809
B(  3-C ,  7-H ) :   0.9293 B(  3-C ,  8-H ) :   0.9385 B(  3-C ,  9-H ) :   0.9696
B(  4-C , 10-H ) :   0.9293 B(  4-C , 11-H ) :   0.9385 B(  4-C , 12-H ) :   0.9696

MP2 TOTAL ENERGY:     -194.661452085 Eh
FINAL SINGLE POINT ENERGY      -194.661452085000

DIPOLE MOMENT
-------------
                                X             Y             Z
Electronic contribution:      0.00000       0.00000       1.89403
Nuclear contribution   :      0.00000      -0.00000      -1.98324
                        -----------------------------------------
Total Dipole Moment    :      0.00000       0.00000      -0.08921
                        -----------------------------------------
Magnitude (a.u.)       :      0.08921
Magnitude (Debye)      :      0.22675

Rotational constants in cm-1:     0.582889     0.074442     0.072004
Rotational constants in MHz : 17474.576992  2231.723176  2158.613742

                             ****ORCA TERMINATED NORMALLY****
TOTAL RUN TIME: 0 days 0 hours 0 minutes 41 seconds 69 msec
