                         Program Version 5.0.3 -  RELEASE  -
|  1> !ri-mp2 aug-cc-pvdz aug-cc-pvdz/c tightscf
|  2> %pal nprocs 16 end
|  3>
|  4> * xyz 0 1
|  5> C      1.587197   -0.663411    0.266045
|  6> C      1.587197    0.663411    0.266045
|  7> C      0.353161   -1.327115   -0.256480
|  8> C      0.353161    1.327115   -0.256480
|  9> O     -1.726065    0.000000    0.869953
| 10> S     -0.946541    0.000000   -0.417329
| 11> H      2.420926   -1.255926    0.620455
| 12> H      2.420926    1.255926    0.620455
| 13> H      0.494961   -1.789128   -1.236410
| 14> H     -0.081439   -2.065993    0.417387
| 15> H     -0.081439    2.065993    0.417387
| 16> H      0.494961    1.789128   -1.236410
| 17> *
| 18>
| 19>                          ****END OF INPUT****

CARTESIAN COORDINATES (ANGSTROEM)
---------------------------------
  C      1.587197   -0.663411    0.266045
  C      1.587197    0.663411    0.266045
  C      0.353161   -1.327115   -0.256480
  C      0.353161    1.327115   -0.256480
  O     -1.726065    0.000000    0.869953
  S     -0.946541    0.000000   -0.417329
  H      2.420926   -1.255926    0.620455
  H      2.420926    1.255926    0.620455
  H      0.494961   -1.789128   -1.236410
  H     -0.081439   -2.065993    0.417387
  H     -0.081439    2.065993    0.417387
  H      0.494961    1.789128   -1.236410

 Total Charge           Charge          ....    0
 Multiplicity           Mult            ....    1
 Number of Electrons    NEL             ....   54
 Basis Dimension        Dim             ....  196

ORBITAL ENERGIES
----------------

  NO   OCC          E(Eh)            E(eV)
   0   2.0000     -92.075703     -2505.5073
   1   2.0000     -20.512564      -558.1752
   2   2.0000     -11.278970      -306.9164
   3   2.0000     -11.278952      -306.9159
   4   2.0000     -11.262965      -306.4808
   5   2.0000     -11.261215      -306.4332
   6   2.0000      -9.064213      -246.6498
   7   2.0000      -6.746400      -183.5789
   8   2.0000      -6.745474      -183.5537
   9   2.0000      -6.743716      -183.5058
  10   2.0000      -1.333955       -36.2988
  11   2.0000      -1.146531       -31.1987
  12   2.0000      -1.005504       -27.3611
  13   2.0000      -0.979208       -26.6456
  14   2.0000      -0.813475       -22.1358
  15   2.0000      -0.765471       -20.8295
  16   2.0000      -0.693882       -18.8815
  17   2.0000      -0.642676       -17.4881
  18   2.0000      -0.609945       -16.5974
  19   2.0000      -0.578814       -15.7503
  20   2.0000      -0.563381       -15.3304
  21   2.0000      -0.550263       -14.9734
  22   2.0000      -0.535345       -14.5675
  23   2.0000      -0.518579       -14.1112
  24   2.0000      -0.405023       -11.0212
  25   2.0000      -0.379457       -10.3255
  26   2.0000      -0.365588        -9.9482
  27   0.0000       0.029334         0.7982
  28   0.0000       0.040386         1.0990
  29   0.0000       0.043006         1.1703
  30   0.0000       0.058303         1.5865
  31   0.0000       0.058714         1.5977

MULLIKEN ATOMIC CHARGES
-----------------------
   0 C :    0.214326
   1 C :    0.214326
   2 C :   -0.184995
   3 C :   -0.184995
   4 O :   -1.159076
   5 S :    1.522024
   6 H :   -0.308961
   7 H :   -0.308961
   8 H :    0.072627
   9 H :    0.025529
  10 H :    0.025529
  11 H :    0.072627
Sum of atomic charges:    0.0000000

LOEWDIN ATOMIC CHARGES
----------------------
   0 C :   -0.054381
   1 C :   -0.054381
   2 C :   -0.140244
   3 C :   -0.140244
   4 O :   -0.571502
   5 S :    1.036529
   6 H :   -0.001328
   7 H :   -0.001328
   8 H :   -0.021927
   9 H :   -0.014633
  10 H :   -0.014633
  11 H :   -0.021927

  Mayer bond orders larger than 0.100000
B(  0-C ,  1-C ) :   2.2519 B(  0-C ,  2-C ) :   1.2127 B(  0-C ,  3-C ) :  -0.1080
B(  0-C ,  6-H ) :   0.6851 B(  0-C ,  8-H ) :   0.1457 B(  1-C ,  2-C ) :  -0.1080
B(  1-C ,  3-C ) :   1.2127 B(  1-C ,  7-H ) :   0.6851 B(  1-C , 11-H ) :   0.1457
B(  2-C ,  3-C ) :   0.1672 B(  2-C ,  5-S ) :   0.9595 B(  2-C ,  8-H ) :   0.8217
B(  2-C ,  9-H ) :   0.8432 B(  3-C ,  5-S ) :   0.9595 B(  3-C , 10-H ) :   0.8432
B(  3-C , 11-H ) :   0.8217 B(  4-O ,  5-S ) :   0.8674 B(  5-S ,  8-H ) :  -0.1028
B(  5-S , 11-H ) :  -0.1028

MP2 TOTAL ENERGY:     -628.215490419 Eh
FINAL SINGLE POINT ENERGY      -628.215490419389

DIPOLE MOMENT
-------------
                                X             Y             Z
Electronic contribution:     -4.01876      -0.00000      -0.56293
Nuclear contribution   :      5.63008       0.00000      -0.36788
                        -----------------------------------------
Total Dipole Moment    :      1.61132      -0.00000      -0.93081
                        -----------------------------------------
Magnitude (a.u.)       :      1.86085
Magnitude (Debye)      :      4.72991

Rotational constants in cm-1:     0.175094     0.095190     0.075577
Rotational constants in MHz :  5249.177546  2853.734958  2265.727977

                             ****ORCA TERMINATED NORMALLY****
TOTAL RUN TIME: 0 days 0 hours 0 minutes 54 seconds 498 msec
