                         Program Version 5.0.3 -  RELEASE  -
|  1> !ri-mp2 aug-cc-pvdz aug-cc-pvdz/c tightscf
|  2> %pal nprocs 16 end
|  3>
|  4> * xyz 0 1
|  5> C     -1.071798    1.395295   -0.516943
|  6> H     -2.097308    1.655846   -0.745207
|  7> H     -0.324065    2.139068   -0.752121
|  8> C     -1.846494   -0.781611    0.354048
|  9> H     -1.822725   -1.041562    1.416022
| 10> H     -2.835490   -0.389471    0.122101
| 11> H     -1.717430   -1.714418   -0.199086
| 12> C     -0.767616    0.217558    0.024788
| 13> C      1.126951   -1.341248   -0.574524
| 14> H      2.119063   -1.686706   -0.279687
| 15> H      0.459313   -2.201864   -0.554699
| 16> H      1.185647   -0.984025   -1.604310
| 17> C      0.651228   -0.212141    0.359200
| 18> H      0.614475   -0.630270    1.372557
| 19> C      1.673172    0.925370    0.370849
| 20> H      1.815739    1.345990   -0.626310
| 21> H      1.368190    1.732615    1.036949
| 22> H      2.641935    0.555459    0.709287
| 23> *
| 24>
| 25>                          ****END OF INPUT****

CARTESIAN COORDINATES (ANGSTROEM)
---------------------------------
  C     -1.071798    1.395295   -0.516943
  H     -2.097308    1.655846   -0.745207
  H     -0.324065    2.139068   -0.752121
  C     -1.846494   -0.781611    0.354048
  H     -1.822725   -1.041562    1.416022
  H     -2.835490   -0.389471    0.122101
  H     -1.717430   -1.714418   -0.199086
  C     -0.767616    0.217558    0.024788
  C      1.126951   -1.341248   -0.574524
  H      2.119063   -1.686706   -0.279687
  H      0.459313   -2.201864   -0.554699
  H      1.185647   -0.984025   -1.604310
  C      0.651228   -0.212141    0.359200
  H      0.614475   -0.630270    1.372557
  C      1.673172    0.925370    0.370849
  H      1.815739    1.345990   -0.626310
  H      1.368190    1.732615    1.036949
  H      2.641935    0.555459    0.709287

 Total Charge           Charge          ....    0
 Multiplicity           Mult            ....    1
 Number of Electrons    NEL             ....   48
 Basis Dimension        Dim             ....  246

ORBITAL ENERGIES
----------------

  NO   OCC          E(Eh)            E(eV)
   0   2.0000     -11.239111      -305.8318
   1   2.0000     -11.235885      -305.7440
   2   2.0000     -11.223588      -305.4094
   3   2.0000     -11.219740      -305.3047
   4   2.0000     -11.216425      -305.2144
   5   2.0000     -11.212537      -305.1087
   6   2.0000      -1.110470       -30.2174
   7   2.0000      -1.020174       -27.7603
   8   2.0000      -0.942016       -25.6336
   9   2.0000      -0.917445       -24.9649
  10   2.0000      -0.828791       -22.5526
  11   2.0000      -0.704391       -19.1675
  12   2.0000      -0.642605       -17.4862
  13   2.0000      -0.616821       -16.7845
  14   2.0000      -0.591239       -16.0884
  15   2.0000      -0.568081       -15.4583
  16   2.0000      -0.557390       -15.1673
  17   2.0000      -0.536314       -14.5939
  18   2.0000      -0.527349       -14.3499
  19   2.0000      -0.511558       -13.9202
  20   2.0000      -0.478067       -13.0089
  21   2.0000      -0.466559       -12.6957
  22   2.0000      -0.454568       -12.3694
  23   2.0000      -0.345861        -9.4114
  24   0.0000       0.036971         1.0060
  25   0.0000       0.043451         1.1824
  26   0.0000       0.045505         1.2383
  27   0.0000       0.049809         1.3554
  28   0.0000       0.061288         1.6677

MULLIKEN ATOMIC CHARGES
-----------------------
   0 C :    1.205157
   1 H :   -0.471050
   2 H :   -0.467575
   3 C :    0.202825
   4 H :    0.042597
   5 H :   -0.187869
   6 H :   -0.006292
   7 C :   -0.404111
   8 C :    0.699513
   9 H :   -0.091587
  10 H :   -0.167582
  11 H :   -0.050377
  12 C :   -0.845035
  13 H :   -0.088858
  14 C :    0.788620
  15 H :    0.046990
  16 H :   -0.047081
  17 H :   -0.158285
Sum of atomic charges:    0.0000000

LOEWDIN ATOMIC CHARGES
----------------------
   0 C :    0.197037
   1 H :   -0.039958
   2 H :   -0.047357
   3 C :    0.167464
   4 H :   -0.007128
   5 H :   -0.015302
   6 H :   -0.019011
   7 C :   -0.257799
   8 C :    0.168226
   9 H :   -0.014180
  10 H :   -0.025544
  11 H :   -0.006770
  12 C :   -0.251627
  13 H :    0.038907
  14 C :    0.149890
  15 H :   -0.012655
  16 H :   -0.009214
  17 H :   -0.014978

  Mayer bond orders larger than 0.100000
B(  0-C ,  1-H ) :   0.4168 B(  0-C ,  2-H ) :   0.2761 B(  0-C ,  3-C ) :  -0.1093
B(  0-C ,  7-C ) :   1.9195 B(  0-C ,  8-C ) :   0.1617 B(  0-C , 12-C ) :  -0.3012
B(  1-H ,  2-H ) :  -0.2228 B(  1-H ,  7-C ) :   0.2304 B(  1-H , 12-C ) :   0.1423
B(  2-H ,  3-C ) :   0.1169 B(  2-H ,  7-C ) :   0.4796 B(  2-H , 12-C ) :  -0.1526
B(  3-C ,  4-H ) :   0.9142 B(  3-C ,  5-H ) :   0.7694 B(  3-C ,  6-H ) :   0.8978
B(  3-C ,  7-C ) :   1.2704 B(  3-C , 12-C ) :  -0.1265 B(  5-H ,  7-C ) :   0.1637
B(  6-H ,  7-C ) :   0.1334 B(  7-C , 12-C ) :   1.2314 B(  7-C , 13-H ) :   0.2216
B(  8-C ,  9-H ) :   0.8121 B(  8-C , 10-H ) :   0.8775 B(  8-C , 11-H ) :   0.9217
B(  8-C , 12-C ) :   1.1955 B(  8-C , 14-C ) :  -0.1716 B( 12-C , 13-H ) :   0.5751
B( 12-C , 14-C ) :   1.2489 B( 12-C , 16-H ) :   0.1637 B( 12-C , 17-H ) :   0.1136
B( 14-C , 15-H ) :   0.9000 B( 14-C , 16-H ) :   0.7799 B( 14-C , 17-H ) :   0.8110
B( 15-H , 16-H ) :  -0.1085 B( 16-H , 17-H ) :  -0.1056

MP2 TOTAL ENERGY:     -235.089579102 Eh
FINAL SINGLE POINT ENERGY      -235.089579101804

DIPOLE MOMENT
-------------
                                X             Y             Z
Electronic contribution:     -1.44047       1.10675       0.21713
Nuclear contribution   :      1.50743      -1.30606      -0.11194
                        -----------------------------------------
Total Dipole Moment    :      0.06696      -0.19930       0.10519
                        -----------------------------------------
Magnitude (a.u.)       :      0.23510
Magnitude (Debye)      :      0.59757

Rotational constants in cm-1:     0.151203     0.096031     0.069341
Rotational constants in MHz :  4532.946703  2878.941830  2078.783552

                             ****ORCA TERMINATED NORMALLY****
TOTAL RUN TIME: 0 days 0 hours 1 minutes 7 seconds 551 msec
