                         Program Version 5.0.3 -  RELEASE  -
|  1> !ri-mp2 aug-cc-pvdz aug-cc-pvdz/c tightscf
|  2> %pal nprocs 16 end
|  3> %maxcore 3800
|  4>
|  5> * xyz 0 1
|  6> C      1.213746   -0.485195   -0.451299
|  7> C     -0.186751    1.291886   -0.452061
|  8> C     -1.025519   -0.809540   -0.451492
|  9> C      3.106193   -1.226077    1.022311
| 10> C     -0.489286    3.302497    1.020270
| 11> C     -2.620272   -2.070057    1.021573
| 12> C      2.607524   -1.040956   -0.418867
| 13> C     -0.402257    2.776850   -0.420576
| 14> C     -2.203885   -1.738495   -0.419487
| 15> N      1.071093    0.842916   -0.451579
| 16> N      0.196001   -1.350037   -0.450873
| 17> N     -1.265574    0.504278   -0.451645
| 18> H      3.118887   -0.274436    1.553900
| 19> H      4.118823   -1.629272    1.024095
| 20> H      2.464865   -1.917378    1.569345
| 21> H     -1.319148    2.838266    1.553364
| 22> H     -0.646245    4.381085    1.021356
| 23> H      0.430754    3.093039    1.566254
| 24> H     -1.805223   -2.554587    1.559462
| 25> H     -3.476138   -2.744948    1.022972
| 26> H     -2.900234   -1.165995    1.562599
| 27> H      2.608917   -2.000696   -0.934359
| 28> H      3.265833   -0.353860   -0.949473
| 29> H      0.427560    3.257459   -0.937555
| 30> H     -1.327118    3.003015   -0.950185
| 31> H     -3.033410   -1.262410   -0.941151
| 32> H     -1.935724   -2.654865   -0.944181
| 33> *
| 34>
| 35>                          ****END OF INPUT****

CARTESIAN COORDINATES (ANGSTROEM)
---------------------------------
  C      1.213746   -0.485195   -0.451299
  C     -0.186751    1.291886   -0.452061
  C     -1.025519   -0.809540   -0.451492
  C      3.106193   -1.226077    1.022311
  C     -0.489286    3.302497    1.020270
  C     -2.620272   -2.070057    1.021573
  C      2.607524   -1.040956   -0.418867
  C     -0.402257    2.776850   -0.420576
  C     -2.203885   -1.738495   -0.419487
  N      1.071093    0.842916   -0.451579
  N      0.196001   -1.350037   -0.450873
  N     -1.265574    0.504278   -0.451645
  H      3.118887   -0.274436    1.553900
  H      4.118823   -1.629272    1.024095
  H      2.464865   -1.917378    1.569345
  H     -1.319148    2.838266    1.553364
  H     -0.646245    4.381085    1.021356
  H      0.430754    3.093039    1.566254
  H     -1.805223   -2.554587    1.559462
  H     -3.476138   -2.744948    1.022972
  H     -2.900234   -1.165995    1.562599
  H      2.608917   -2.000696   -0.934359
  H      3.265833   -0.353860   -0.949473
  H      0.427560    3.257459   -0.937555
  H     -1.327118    3.003015   -0.950185
  H     -3.033410   -1.262410   -0.941151
  H     -1.935724   -2.654865   -0.944181

 Total Charge           Charge          ....    0
 Multiplicity           Mult            ....    1
 Number of Electrons    NEL             ....   90
 Basis Dimension        Dim             ....  411

ORBITAL ENERGIES
----------------

  NO   OCC          E(Eh)            E(eV)
   0   2.0000     -15.565591      -423.5613
   1   2.0000     -15.565581      -423.5610
   2   2.0000     -15.565539      -423.5599
   3   2.0000     -11.331582      -308.3480
   4   2.0000     -11.331578      -308.3479
   5   2.0000     -11.331565      -308.3476
   6   2.0000     -11.236612      -305.7638
   7   2.0000     -11.236607      -305.7636
   8   2.0000     -11.236605      -305.7636
   9   2.0000     -11.228914      -305.5543
  10   2.0000     -11.228912      -305.5542
  11   2.0000     -11.228908      -305.5541
  12   2.0000      -1.349245       -36.7148
  13   2.0000      -1.205841       -32.8126
  14   2.0000      -1.205833       -32.8124
  15   2.0000      -1.053405       -28.6646
  16   2.0000      -1.053377       -28.6639
  17   2.0000      -1.042587       -28.3702
  18   2.0000      -0.920784       -25.0558
  19   2.0000      -0.920741       -25.0546
  20   2.0000      -0.875282       -23.8176
  21   2.0000      -0.805238       -21.9116
  22   2.0000      -0.805189       -21.9103
  23   2.0000      -0.749353       -20.3909
  24   2.0000      -0.670402       -18.2426
  25   2.0000      -0.619506       -16.8576
  26   2.0000      -0.619498       -16.8574
  27   2.0000      -0.613634       -16.6978
  28   2.0000      -0.595398       -16.2016
  29   2.0000      -0.595319       -16.1995
  30   2.0000      -0.595273       -16.1982
  31   2.0000      -0.563754       -15.3405
  32   2.0000      -0.536369       -14.5953
  33   2.0000      -0.536333       -14.5944
  34   2.0000      -0.517600       -14.0846
  35   2.0000      -0.510564       -13.8931
  36   2.0000      -0.510556       -13.8929
  37   2.0000      -0.500265       -13.6129
  38   2.0000      -0.495091       -13.4721
  39   2.0000      -0.495076       -13.4717
  40   2.0000      -0.494150       -13.4465
  41   2.0000      -0.412820       -11.2334
  42   2.0000      -0.412813       -11.2332
  43   2.0000      -0.405884       -11.0447
  44   2.0000      -0.405853       -11.0438
  45   0.0000       0.035786         0.9738
  46   0.0000       0.037580         1.0226
  47   0.0000       0.037581         1.0226
  48   0.0000       0.046062         1.2534
  49   0.0000       0.056081         1.5260

MULLIKEN ATOMIC CHARGES
-----------------------
   0 C :    0.404101
   1 C :    0.402981
   2 C :    0.403883
   3 C :    0.346612
   4 C :    0.346562
   5 C :    0.346554
   6 C :    0.580093
   7 C :    0.580781
   8 C :    0.580319
   9 N :   -0.887360
  10 N :   -0.887214
  11 N :   -0.887507
  12 H :   -0.073895
  13 H :   -0.075862
  14 H :   -0.074482
  15 H :   -0.073967
  16 H :   -0.075917
  17 H :   -0.074470
  18 H :   -0.074097
  19 H :   -0.075873
  20 H :   -0.074322
  21 H :   -0.111790
  22 H :   -0.107135
  23 H :   -0.111560
  24 H :   -0.107497
  25 H :   -0.110252
  26 H :   -0.108688
Sum of atomic charges:   -0.0000000

LOEWDIN ATOMIC CHARGES
----------------------
   0 C :   -0.249300
   1 C :   -0.249312
   2 C :   -0.249289
   3 C :    0.153226
   4 C :    0.153224
   5 C :    0.153232
   6 C :   -0.004719
   7 C :   -0.004716
   8 C :   -0.004712
   9 N :    0.110525
  10 N :    0.110527
  11 N :    0.110512
  12 H :   -0.014527
  13 H :   -0.018171
  14 H :   -0.014484
  15 H :   -0.014524
  16 H :   -0.018171
  17 H :   -0.014485
  18 H :   -0.014508
  19 H :   -0.018174
  20 H :   -0.014504
  21 H :    0.018632
  22 H :    0.018817
  23 H :    0.018646
  24 H :    0.018805
  25 H :    0.018703
  26 H :    0.018747

  Mayer bond orders larger than 0.100000
B(  0-C ,  1-C ) :  -0.1236 B(  0-C ,  2-C ) :  -0.1229 B(  0-C ,  6-C ) :   1.1194
B(  0-C ,  9-N ) :   1.2267 B(  0-C , 10-N ) :   1.2203 B(  0-C , 21-H ) :   0.2014
B(  0-C , 22-H ) :   0.1891 B(  1-C ,  2-C ) :  -0.1240 B(  1-C ,  7-C ) :   1.1189
B(  1-C ,  9-N ) :   1.2200 B(  1-C , 11-N ) :   1.2256 B(  1-C , 23-H ) :   0.2015
B(  1-C , 24-H ) :   0.1906 B(  2-C ,  8-C ) :   1.1192 B(  2-C , 10-N ) :   1.2239
B(  2-C , 11-N ) :   1.2224 B(  2-C , 25-H ) :   0.1974 B(  2-C , 26-H ) :   0.1936
B(  3-C ,  6-C ) :   1.1991 B(  3-C , 12-H ) :   0.9793 B(  3-C , 13-H ) :   0.9113
B(  3-C , 14-H ) :   0.9795 B(  4-C ,  7-C ) :   1.1991 B(  4-C , 15-H ) :   0.9793
B(  4-C , 16-H ) :   0.9113 B(  4-C , 17-H ) :   0.9795 B(  5-C ,  8-C ) :   1.1991
B(  5-C , 18-H ) :   0.9794 B(  5-C , 19-H ) :   0.9113 B(  5-C , 20-H ) :   0.9793
B(  6-C , 21-H ) :   0.6723 B(  6-C , 22-H ) :   0.6791 B(  7-C , 23-H ) :   0.6725
B(  7-C , 24-H ) :   0.6784 B(  8-C , 25-H ) :   0.6745 B(  8-C , 26-H ) :   0.6767
B(  9-N , 10-N ) :   0.1185 B(  9-N , 11-N ) :   0.1188 B( 10-N , 11-N ) :   0.1187

MP2 TOTAL ENERGY:     -514.776007351 Eh
FINAL SINGLE POINT ENERGY      -514.776007350882

DIPOLE MOMENT
-------------
                                X             Y             Z
Electronic contribution:      0.00740      -0.01419      -6.76825
Nuclear contribution   :     -0.00777       0.01473       6.92360
                        -----------------------------------------
Total Dipole Moment    :     -0.00037       0.00054       0.15535
                        -----------------------------------------
Magnitude (a.u.)       :      0.15535
Magnitude (Debye)      :      0.39486

Rotational constants in cm-1:     0.028725     0.028681     0.016708
Rotational constants in MHz :   861.159360   859.827491   500.903831

                             ****ORCA TERMINATED NORMALLY****
TOTAL RUN TIME: 0 days 0 hours 3 minutes 38 seconds 225 msec
