                         Program Version 5.0.3 -  RELEASE  -
|  1> !ri-mp2 aug-cc-pvdz aug-cc-pvdz/c tightscf
|  2> %pal nprocs 16 end
|  3>
|  4> * xyz 0 1
|  5> S     2.376125   -1.341871    -0.155715
|  6> S    -2.376123   -1.341874    -0.155714
|  7> O    -0.000002    2.271956    -1.220927
|  8> O    -0.000002    2.134769     1.026292
|  9> C     0.000000    0.080610    -0.199333
| 10> C     0.000000    1.613145    -0.221280
| 11> C     1.234770   -0.423018     0.519041
| 12> C    -1.234769   -0.423020     0.519042
| 13> H    -0.000002    3.100348     0.941425
| 14> H     0.000000   -0.255540    -1.230687
| 15> H     1.305553   -0.122487     1.562193
| 16> H    -1.305552   -0.122490     1.562194
| 17> *
| 18>
| 19>                          ****END OF INPUT****

CARTESIAN COORDINATES (ANGSTROEM)
---------------------------------
  S      2.376125   -1.341871   -0.155715
  S     -2.376123   -1.341874   -0.155714
  O     -0.000002    2.271956   -1.220927
  O     -0.000002    2.134769    1.026292
  C      0.000000    0.080610   -0.199333
  C      0.000000    1.613145   -0.221280
  C      1.234770   -0.423018    0.519041
  C     -1.234769   -0.423020    0.519042
  H     -0.000002    3.100348    0.941425
  H      0.000000   -0.255540   -1.230687
  H      1.305553   -0.122487    1.562193
  H     -1.305552   -0.122490    1.562194

 Total Charge           Charge          ....    0
 Multiplicity           Mult            ....    1
 Number of Electrons    NEL             ....   76
 Basis Dimension        Dim             ....  228

ORBITAL ENERGIES
----------------

  NO   OCC          E(Eh)            E(eV)
   0   2.0000     -91.972973     -2502.7118
   1   2.0000     -91.972973     -2502.7118
   2   2.0000     -20.656836      -562.1011
   3   2.0000     -20.595456      -560.4309
   4   2.0000     -11.433484      -311.1209
   5   2.0000     -11.353408      -308.9419
   6   2.0000     -11.353407      -308.9419
   7   2.0000     -11.308104      -307.7092
   8   2.0000      -8.975455      -244.2345
   9   2.0000      -8.975453      -244.2345
  10   2.0000      -6.656978      -181.1456
  11   2.0000      -6.656978      -181.1456
  12   2.0000      -6.655843      -181.1147
  13   2.0000      -6.655843      -181.1147
  14   2.0000      -6.653183      -181.0423
  15   2.0000      -6.653183      -181.0423
  16   2.0000      -1.505338       -40.9623
  17   2.0000      -1.404297       -38.2129
  18   2.0000      -1.171874       -31.8883
  19   2.0000      -1.083150       -29.4740
  20   2.0000      -1.010138       -27.4873
  21   2.0000      -0.873098       -23.7582
  22   2.0000      -0.819380       -22.2965
  23   2.0000      -0.814687       -22.1688
  24   2.0000      -0.737078       -20.0569
  25   2.0000      -0.719505       -19.5787
  26   2.0000      -0.676329       -18.4038
  27   2.0000      -0.639392       -17.3987
  28   2.0000      -0.626585       -17.0503
  29   2.0000      -0.600859       -16.3502
  30   2.0000      -0.551246       -15.0002
  31   2.0000      -0.542605       -14.7650
  32   2.0000      -0.517288       -14.0761
  33   2.0000      -0.501170       -13.6375
  34   2.0000      -0.430345       -11.7103
  35   2.0000      -0.422446       -11.4953
  36   2.0000      -0.371777       -10.1166
  37   2.0000      -0.359961        -9.7950
  38   0.0000       0.009640         0.2623
  39   0.0000       0.025638         0.6977
  40   0.0000       0.043833         1.1927
  41   0.0000       0.044441         1.2093
  42   0.0000       0.049892         1.3576

MULLIKEN ATOMIC CHARGES
-----------------------
   0 S :    0.105346
   1 S :    0.105346
   2 O :   -0.709426
   3 O :   -0.734542
   4 C :    0.738583
   5 C :    0.840423
   6 C :    0.096689
   7 C :    0.096690
   8 H :    0.212323
   9 H :   -0.160466
  10 H :   -0.295482
  11 H :   -0.295483
Sum of atomic charges:   -0.0000000

LOEWDIN ATOMIC CHARGES
----------------------
   0 S :    0.681362
   1 S :    0.681362
   2 O :    0.075906
   3 O :    0.204834
   4 C :   -0.299315
   5 C :   -0.325733
   6 C :   -0.473548
   7 C :   -0.473548
   8 H :   -0.006467
   9 H :    0.021942
  10 H :   -0.043398
  11 H :   -0.043398

  Mayer bond orders larger than 0.100000
B(  0-S ,  6-C ) :   1.9191 B(  1-S ,  7-C ) :   1.9191 B(  2-O ,  5-C ) :   1.5046
B(  3-O ,  4-C ) :  -0.1723 B(  3-O ,  5-C ) :   0.6507 B(  3-O ,  8-H ) :   1.0061
B(  4-C ,  5-C ) :   0.2263 B(  4-C ,  6-C ) :   0.6370 B(  4-C ,  7-C ) :   0.6370
B(  4-C ,  9-H ) :   0.3734 B(  4-C , 10-H ) :  -0.1982 B(  4-C , 11-H ) :  -0.1982
B(  5-C ,  6-C ) :   0.4267 B(  5-C ,  7-C ) :   0.4267 B(  5-C ,  9-H ) :   0.2487
B(  5-C , 10-H ) :   0.1017 B(  5-C , 11-H ) :   0.1017 B(  6-C ,  7-C ) :   0.2728
B(  6-C ,  9-H ) :   0.1174 B(  6-C , 10-H ) :   0.9672 B(  7-C ,  9-H ) :   0.1174
B(  7-C , 11-H ) :   0.9672

MP2 TOTAL ENERGY:    -1099.813364584 Eh
FINAL SINGLE POINT ENERGY     -1099.813364583793

DIPOLE MOMENT
-------------
                                X             Y             Z
Electronic contribution:      0.00000      -1.95750      -1.55082
Nuclear contribution   :     -0.00000       2.65070       2.73696
                        -----------------------------------------
Total Dipole Moment    :      0.00000       0.69320       1.18614
                        -----------------------------------------
Magnitude (a.u.)       :      1.37384
Magnitude (Debye)      :      3.49203

Rotational constants in cm-1:     0.045147     0.036717     0.023465
Rotational constants in MHz :  1353.469081  1100.738788   703.450161

                             ****ORCA TERMINATED NORMALLY****
TOTAL RUN TIME: 0 days 0 hours 0 minutes 44 seconds 885 msec
