                         Program Version 5.0.3 -  RELEASE  -
|  1> !ri-mp2 aug-cc-pvdz aug-cc-pvdz/c tightscf
|  2> %pal nprocs 16 end
|  3>
|  4> * xyz 0 1
|  5> C    -1.470654    0.825217    0.180286
|  6> C    -1.553390   -0.662462    0.294602
|  7> C    -0.306511    1.283031   -0.252180
|  8> N    -0.356943   -1.153514   -0.388425
|  9> O     1.719592    0.003041    0.864117
| 10> S     0.944753   -0.019129   -0.414780
| 11> H    -2.309000    1.451695    0.454288
| 12> H    -1.613318   -0.957897    1.349242
| 13> H    -2.442883   -1.050971   -0.208260
| 14> H     0.004141    2.307754   -0.379815
| 15> H    -0.029788   -2.068961   -0.109186
| 16> *
| 17>
| 18>                          ****END OF INPUT****

CARTESIAN COORDINATES (ANGSTROEM)
---------------------------------
  C     -1.470654    0.825217    0.180286
  C     -1.553390   -0.662462    0.294602
  C     -0.306511    1.283031   -0.252180
  N     -0.356943   -1.153514   -0.388425
  O      1.719592    0.003041    0.864117
  S      0.944753   -0.019129   -0.414780
  H     -2.309000    1.451695    0.454288
  H     -1.613318   -0.957897    1.349242
  H     -2.442883   -1.050971   -0.208260
  H      0.004141    2.307754   -0.379815
  H     -0.029788   -2.068961   -0.109186

 Total Charge           Charge          ....    0
 Multiplicity           Mult            ....    1
 Number of Electrons    NEL             ....   54
 Basis Dimension        Dim             ....  187

ORBITAL ENERGIES
----------------

  NO   OCC          E(Eh)            E(eV)
   0   2.0000     -92.108348     -2506.3956
   1   2.0000     -20.522478      -558.4450
   2   2.0000     -15.597839      -424.4388
   3   2.0000     -11.295478      -307.3656
   4   2.0000     -11.280095      -306.9470
   5   2.0000     -11.274823      -306.8035
   6   2.0000      -9.091995      -247.4058
   7   2.0000      -6.774320      -184.3386
   8   2.0000      -6.773436      -184.3146
   9   2.0000      -6.771139      -184.2521
  10   2.0000      -1.358270       -36.9604
  11   2.0000      -1.240921       -33.7672
  12   2.0000      -1.083796       -29.4916
  13   2.0000      -0.995829       -27.0979
  14   2.0000      -0.849200       -23.1079
  15   2.0000      -0.784874       -21.3575
  16   2.0000      -0.726550       -19.7704
  17   2.0000      -0.656902       -17.8752
  18   2.0000      -0.614697       -16.7268
  19   2.0000      -0.601609       -16.3706
  20   2.0000      -0.589839       -16.0503
  21   2.0000      -0.558784       -15.2053
  22   2.0000      -0.549814       -14.9612
  23   2.0000      -0.457595       -12.4518
  24   2.0000      -0.406982       -11.0746
  25   2.0000      -0.397385       -10.8134
  26   2.0000      -0.379414       -10.3244
  27   0.0000       0.028453         0.7743
  28   0.0000       0.040733         1.1084
  29   0.0000       0.047670         1.2972
  30   0.0000       0.052072         1.4170
  31   0.0000       0.062687         1.7058

MULLIKEN ATOMIC CHARGES
-----------------------
   0 C :    0.307651
   1 C :    0.722600
   2 C :   -0.175135
   3 N :   -0.806424
   4 O :   -1.110436
   5 S :    1.702564
   6 H :   -0.246488
   7 H :   -0.021879
   8 H :   -0.052841
   9 H :   -0.278893
  10 H :   -0.040718
Sum of atomic charges:   -0.0000000

LOEWDIN ATOMIC CHARGES
----------------------
   0 C :   -0.046448
   1 C :   -0.077304
   2 C :   -0.137910
   3 N :   -0.168233
   4 O :   -0.558366
   5 S :    1.041023
   6 H :    0.006873
   7 H :    0.020179
   8 H :    0.014530
   9 H :   -0.042658
  10 H :   -0.051684

  Mayer bond orders larger than 0.100000
B(  0-C ,  1-C ) :   1.1512 B(  0-C ,  2-C ) :   2.1296 B(  0-C ,  5-S ) :   0.1032
B(  0-C ,  6-H ) :   0.8059 B(  0-C ,  9-H ) :   0.1280 B(  1-C ,  3-N ) :   0.8959
B(  1-C ,  7-H ) :   0.8038 B(  1-C ,  8-H ) :   0.8584 B(  2-C ,  3-N ) :  -0.1382
B(  2-C ,  4-O ) :   0.1530 B(  2-C ,  5-S ) :   0.8128 B(  2-C ,  9-H ) :   0.8227
B(  3-N ,  4-O ) :   0.1303 B(  3-N ,  5-S ) :   0.6229 B(  3-N , 10-H ) :   1.1649
B(  4-O ,  5-S ) :   0.9399

MP2 TOTAL ENERGY:     -644.233289056 Eh
FINAL SINGLE POINT ENERGY      -644.233289055678

DIPOLE MOMENT
-------------
                                X             Y             Z
Electronic contribution:      4.63893       0.31227      -1.50229
Nuclear contribution   :     -6.28815      -0.31909       1.11153
                        -----------------------------------------
Total Dipole Moment    :     -1.64922      -0.00682      -0.39077
                        -----------------------------------------
Magnitude (a.u.)       :      1.69490
Magnitude (Debye)      :      4.30809

Rotational constants in cm-1:     0.188034     0.098350     0.079060
Rotational constants in MHz :  5637.123709  2948.453800  2370.166294

                             ****ORCA TERMINATED NORMALLY****
TOTAL RUN TIME: 0 days 0 hours 0 minutes 44 seconds 397 msec
