                         Program Version 5.0.3 -  RELEASE  -
|  1> !ri-mp2 aug-cc-pvdz aug-cc-pvdz/c tightscf
|  2> %pal nprocs 16 end
|  3>
|  4> * xyz 0 1
|  5> Cl     3.117903   -0.625315    0.000000
|  6> S      0.125551   -0.848541    0.000000
|  7> O     -4.150489   -0.844343   -0.000002
|  8> N     -2.237269    0.548089    0.000001
|  9> C     -0.101979    1.727519    0.000002
| 10> C     -0.867078    0.598532    0.000001
| 11> C      1.293679    1.456131    0.000001
| 12> C      1.565665    0.124962    0.000000
| 13> C     -3.170305   -0.208471    0.000000
| 14> H     -0.528661    2.718444    0.000002
| 15> H      2.060415    2.214641    0.000002
| 16> *
| 17>
| 18>                          ****END OF INPUT****

CARTESIAN COORDINATES (ANGSTROEM)
---------------------------------
  Cl     3.117903   -0.625315    0.000000
  S      0.125551   -0.848541    0.000000
  O     -4.150489   -0.844343   -0.000002
  N     -2.237269    0.548089    0.000001
  C     -0.101979    1.727519    0.000002
  C     -0.867078    0.598532    0.000001
  C      1.293679    1.456131    0.000001
  C      1.565665    0.124962    0.000000
  C     -3.170305   -0.208471    0.000000
  H     -0.528661    2.718444    0.000002
  H      2.060415    2.214641    0.000002

 Total Charge           Charge          ....    0
 Multiplicity           Mult            ....    1
 Number of Electrons    NEL             ....   80
 Basis Dimension        Dim             ....  233

ORBITAL ENERGIES
----------------

  NO   OCC          E(Eh)            E(eV)
   0   2.0000    -104.866084     -2853.5512
   1   2.0000     -92.016742     -2503.9028
   2   2.0000     -20.640467      -561.6557
   3   2.0000     -15.632421      -425.3798
   4   2.0000     -11.440819      -311.3205
   5   2.0000     -11.351443      -308.8885
   6   2.0000     -11.342466      -308.6442
   7   2.0000     -11.271843      -306.7224
   8   2.0000     -11.268101      -306.6206
   9   2.0000     -10.591684      -288.2144
  10   2.0000      -9.018965      -245.4185
  11   2.0000      -8.059626      -219.3136
  12   2.0000      -8.056033      -219.2158
  13   2.0000      -8.055862      -219.2112
  14   2.0000      -6.700483      -182.3294
  15   2.0000      -6.699666      -182.3072
  16   2.0000      -6.697470      -182.2474
  17   2.0000      -1.487409       -40.4745
  18   2.0000      -1.321702       -35.9653
  19   2.0000      -1.219164       -33.1751
  20   2.0000      -1.143555       -31.1177
  21   2.0000      -1.022874       -27.8338
  22   2.0000      -1.009501       -27.4699
  23   2.0000      -0.874542       -23.7975
  24   2.0000      -0.771530       -20.9944
  25   2.0000      -0.749297       -20.3894
  26   2.0000      -0.731956       -19.9175
  27   2.0000      -0.677980       -18.4488
  28   2.0000      -0.667549       -18.1649
  29   2.0000      -0.643888       -17.5211
  30   2.0000      -0.595292       -16.1987
  31   2.0000      -0.583247       -15.8710
  32   2.0000      -0.581615       -15.8265
  33   2.0000      -0.526411       -14.3244
  34   2.0000      -0.522376       -14.2146
  35   2.0000      -0.476180       -12.9575
  36   2.0000      -0.461971       -12.5709
  37   2.0000      -0.458854       -12.4861
  38   2.0000      -0.378428       -10.2976
  39   2.0000      -0.322139        -8.7659
  40   0.0000       0.030909         0.8411
  41   0.0000       0.046407         1.2628
  42   0.0000       0.059017         1.6059
  43   0.0000       0.064191         1.7467
  44   0.0000       0.072597         1.9755

MULLIKEN ATOMIC CHARGES
-----------------------
   0 Cl:   -0.307217
   1 S :    0.585434
   2 O :   -0.423459
   3 N :   -0.467910
   4 C :    0.538231
   5 C :    0.356913
   6 C :    0.702106
   7 C :   -0.350462
   8 C :    0.016129
   9 H :   -0.384250
  10 H :   -0.265516
Sum of atomic charges:    0.0000000

LOEWDIN ATOMIC CHARGES
----------------------
   0 Cl:    0.540267
   1 S :    0.993085
   2 O :    0.111629
   3 N :    0.031903
   4 C :   -0.033853
   5 C :   -0.489802
   6 C :   -0.107702
   7 C :   -0.891129
   8 C :   -0.153995
   9 H :    0.003452
  10 H :   -0.003856

  Mayer bond orders larger than 0.100000
B(  0-Cl,  4-C ) :   0.1085 B(  0-Cl,  6-C ) :  -0.1245 B(  0-Cl,  7-C ) :   0.7067
B(  1-S ,  4-C ) :   0.1316 B(  1-S ,  5-C ) :   0.8274 B(  1-S ,  7-C ) :   0.9607
B(  2-O ,  8-C ) :   1.9543 B(  3-N ,  4-C ) :  -0.1392 B(  3-N ,  5-C ) :   0.4304
B(  3-N ,  8-C ) :   2.1853 B(  4-C ,  5-C ) :   2.3868 B(  4-C ,  6-C ) :   1.5755
B(  4-C ,  7-C ) :  -0.1254 B(  4-C ,  9-H ) :   0.3747 B(  5-C ,  7-C ) :   0.1595
B(  5-C ,  8-C ) :  -0.4023 B(  5-C ,  9-H ) :   0.4738 B(  6-C ,  7-C ) :   1.8466
B(  6-C , 10-H ) :   0.6617

MP2 TOTAL ENERGY:    -1178.170779998 Eh
FINAL SINGLE POINT ENERGY     -1178.170779998238

DIPOLE MOMENT
-------------
                                X             Y             Z
Electronic contribution:      3.27282      -4.78291      -0.00000
Nuclear contribution   :     -2.83501       5.50163       0.00000
                        -----------------------------------------
Total Dipole Moment    :      0.43781       0.71871       0.00000
                        -----------------------------------------
Magnitude (a.u.)       :      0.84156
Magnitude (Debye)      :      2.13908

Rotational constants in cm-1:     0.128664     0.019269     0.016759
Rotational constants in MHz :  3857.252862   577.679778   502.433105

                             ****ORCA TERMINATED NORMALLY****
TOTAL RUN TIME: 0 days 0 hours 0 minutes 55 seconds 441 msec
