                         Program Version 5.0.3 -  RELEASE  -
|  1> !ri-mp2 aug-cc-pvdz aug-cc-pvdz/c tightscf
|  2> %pal nprocs 16 end
|  3>
|  4> * xyz 0 1
|  5> F    -1.745208   -0.927739   -0.493927
|  6> F    -1.346524    0.380082    1.235265
|  7> O     2.196225   -0.085244    0.474269
|  8> O     0.848450   -1.764507   -0.054074
|  9> N     0.475358    1.931411   -0.401493
| 10> C     0.139589    0.538365   -0.608811
| 11> C    -1.288396    0.325650   -0.123236
| 12> C     1.157136   -0.455672    0.009476
| 13> H    -0.057623   -1.892498   -0.368997
| 14> H     1.337386    2.150616   -0.884107
| 15> H     0.664237    2.091296    0.582030
| 16> H     0.119355    0.341464   -1.684857
| 17> H    -1.972645    1.066109   -0.531789
| 18> *
| 19>
| 20>                          ****END OF INPUT****

CARTESIAN COORDINATES (ANGSTROEM)
---------------------------------
  F     -1.745208   -0.927739   -0.493927
  F     -1.346524    0.380082    1.235265
  O      2.196225   -0.085244    0.474269
  O      0.848450   -1.764507   -0.054074
  N      0.475358    1.931411   -0.401493
  C      0.139589    0.538365   -0.608811
  C     -1.288396    0.325650   -0.123236
  C      1.157136   -0.455672    0.009476
  H     -0.057623   -1.892498   -0.368997
  H      1.337386    2.150616   -0.884107
  H      0.664237    2.091296    0.582030
  H      0.119355    0.341464   -1.684857
  H     -1.972645    1.066109   -0.531789

 Total Charge           Charge          ....    0
 Multiplicity           Mult            ....    1
 Number of Electrons    NEL             ....   64
 Basis Dimension        Dim             ....  229

ORBITAL ENERGIES
----------------

  NO   OCC          E(Eh)            E(eV)
   0   2.0000     -26.359665      -717.2830
   1   2.0000     -26.351295      -717.0552
   2   2.0000     -20.630895      -561.3952
   3   2.0000     -20.572007      -559.7928
   4   2.0000     -15.586905      -424.1412
   5   2.0000     -11.447812      -311.5108
   6   2.0000     -11.409657      -310.4725
   7   2.0000     -11.325566      -308.1843
   8   2.0000      -1.694714       -46.1155
   9   2.0000      -1.634740       -44.4835
  10   2.0000      -1.479025       -40.2463
  11   2.0000      -1.385338       -37.6970
  12   2.0000      -1.236129       -33.6368
  13   2.0000      -1.051367       -28.6092
  14   2.0000      -0.937694       -25.5159
  15   2.0000      -0.850134       -23.1333
  16   2.0000      -0.815509       -22.1911
  17   2.0000      -0.792850       -21.5746
  18   2.0000      -0.776542       -21.1308
  19   2.0000      -0.740047       -20.1377
  20   2.0000      -0.710838       -19.3429
  21   2.0000      -0.687835       -18.7169
  22   2.0000      -0.676252       -18.4017
  23   2.0000      -0.659112       -17.9354
  24   2.0000      -0.643589       -17.5129
  25   2.0000      -0.631198       -17.1758
  26   2.0000      -0.600855       -16.3501
  27   2.0000      -0.587343       -15.9824
  28   2.0000      -0.548515       -14.9258
  29   2.0000      -0.492467       -13.4007
  30   2.0000      -0.476513       -12.9666
  31   2.0000      -0.436159       -11.8685
  32   0.0000       0.028810         0.7840
  33   0.0000       0.043350         1.1796
  34   0.0000       0.045701         1.2436
  35   0.0000       0.054783         1.4907
  36   0.0000       0.074558         2.0288

MULLIKEN ATOMIC CHARGES
-----------------------
   0 F :   -0.682646
   1 F :   -0.633498
   2 O :   -0.687782
   3 O :   -0.735328
   4 N :   -0.368747
   5 C :   -0.160612
   6 C :    1.796485
   7 C :    1.300423
   8 H :    0.246622
   9 H :    0.014272
  10 H :    0.059864
  11 H :    0.004633
  12 H :   -0.153684
Sum of atomic charges:   -0.0000000

LOEWDIN ATOMIC CHARGES
----------------------
   0 F :    0.044948
   1 F :    0.060170
   2 O :    0.065046
   3 O :    0.223881
   4 N :    0.223572
   5 C :   -0.176119
   6 C :   -0.105969
   7 C :   -0.294452
   8 H :   -0.074888
   9 H :   -0.029599
  10 H :   -0.029277
  11 H :    0.057062
  12 H :    0.035626

  Mayer bond orders larger than 0.100000
B(  0-F ,  5-C ) :   0.1055 B(  0-F ,  6-C ) :   0.1965 B(  1-F ,  5-C ) :   0.1241
B(  1-F ,  6-C ) :   0.2569 B(  2-O ,  7-C ) :   1.5809 B(  3-O ,  5-C ) :   0.2238
B(  3-O ,  7-C ) :   0.3511 B(  3-O ,  8-H ) :   0.9528 B(  4-N ,  5-C ) :   0.9239
B(  4-N ,  9-H ) :   1.0173 B(  4-N , 10-H ) :   1.0120 B(  5-C ,  6-C ) :   1.1859
B(  5-C ,  7-C ) :   0.9137 B(  5-C , 11-H ) :   0.8251 B(  5-C , 12-H ) :   0.1217
B(  6-C , 12-H ) :   0.8838

MP2 TOTAL ENERGY:     -521.047137486 Eh
FINAL SINGLE POINT ENERGY      -521.047137486407

DIPOLE MOMENT
-------------
                                X             Y             Z
Electronic contribution:     -3.94171      -3.57587       2.41463
Nuclear contribution   :      3.07027       4.11312      -3.47460
                        -----------------------------------------
Total Dipole Moment    :     -0.87144       0.53725      -1.05997
                        -----------------------------------------
Magnitude (a.u.)       :      1.47363
Magnitude (Debye)      :      3.74567

Rotational constants in cm-1:     0.088365     0.061308     0.045697
Rotational constants in MHz :  2649.119520  1837.975396  1369.966112

                             ****ORCA TERMINATED NORMALLY****
TOTAL RUN TIME: 0 days 0 hours 0 minutes 59 seconds 102 msec
