                         Program Version 5.0.3 -  RELEASE  -
|  1> !ri-mp2 aug-cc-pvdz aug-cc-pvdz/c tightscf
|  2> %pal nprocs 16 end
|  3>
|  4> * xyz 0 1
|  5> C     1.327665    1.176379    0.000000
|  6> C    -1.327665   -1.176379    0.000000
|  7> C     2.119092    0.047739    0.000000
|  8> C    -2.119092   -0.047739    0.000000
|  9> C    -0.008256    0.695795    0.000000
| 10> C     0.008256   -0.695795    0.000000
| 11> N     1.327665   -1.085752    0.000000
| 12> N    -1.327665    1.085752    0.000000
| 13> H     1.685808    2.190986    0.000000
| 14> H    -1.685808   -2.190986    0.000000
| 15> H     3.191771   -0.033733    0.000000
| 16> H    -3.191771    0.033733    0.000000
| 17> H     1.673163   -2.026299    0.000000
| 18> H    -1.673163    2.026299    0.000000
| 19> *
| 20>
| 21>                          ****END OF INPUT****

CARTESIAN COORDINATES (ANGSTROEM)
---------------------------------
  C      1.327665    1.176379    0.000000
  C     -1.327665   -1.176379    0.000000
  C      2.119092    0.047739    0.000000
  C     -2.119092   -0.047739    0.000000
  C     -0.008256    0.695795    0.000000
  C      0.008256   -0.695795    0.000000
  N      1.327665   -1.085752    0.000000
  N     -1.327665    1.085752    0.000000
  H      1.685808    2.190986    0.000000
  H     -1.685808   -2.190986    0.000000
  H      3.191771   -0.033733    0.000000
  H     -3.191771    0.033733    0.000000
  H      1.673163   -2.026299    0.000000
  H     -1.673163    2.026299    0.000000

 Total Charge           Charge          ....    0
 Multiplicity           Mult            ....    1
 Number of Electrons    NEL             ....   56
 Basis Dimension        Dim             ....  238

ORBITAL ENERGIES
----------------

  NO   OCC          E(Eh)            E(eV)
   0   2.0000     -15.602191      -424.5572
   1   2.0000     -15.602188      -424.5571
   2   2.0000     -11.261722      -306.4470
   3   2.0000     -11.261721      -306.4470
   4   2.0000     -11.241194      -305.8884
   5   2.0000     -11.239924      -305.8539
   6   2.0000     -11.219948      -305.3103
   7   2.0000     -11.219945      -305.3102
   8   2.0000      -1.304195       -35.4890
   9   2.0000      -1.256721       -34.1971
  10   2.0000      -1.043133       -28.3851
  11   2.0000      -1.029580       -28.0163
  12   2.0000      -0.949312       -25.8321
  13   2.0000      -0.806394       -21.9431
  14   2.0000      -0.797818       -21.7097
  15   2.0000      -0.777524       -21.1575
  16   2.0000      -0.717369       -19.5206
  17   2.0000      -0.634221       -17.2580
  18   2.0000      -0.621262       -16.9054
  19   2.0000      -0.593853       -16.1596
  20   2.0000      -0.584207       -15.8971
  21   2.0000      -0.571466       -15.5504
  22   2.0000      -0.539033       -14.6678
  23   2.0000      -0.514072       -13.9886
  24   2.0000      -0.504674       -13.7329
  25   2.0000      -0.371861       -10.1188
  26   2.0000      -0.304701        -8.2913
  27   2.0000      -0.255718        -6.9584
  28   0.0000       0.033317         0.9066
  29   0.0000       0.035806         0.9743
  30   0.0000       0.041281         1.1233
  31   0.0000       0.053166         1.4467
  32   0.0000       0.059195         1.6108

MULLIKEN ATOMIC CHARGES
-----------------------
   0 C :    1.486470
   1 C :    1.486470
   2 C :    0.581442
   3 C :    0.581442
   4 C :   -0.531556
   5 C :   -0.531556
   6 N :   -0.641730
   7 N :   -0.641730
   8 H :   -0.404750
   9 H :   -0.404750
  10 H :   -0.325188
  11 H :   -0.325188
  12 H :   -0.164689
  13 H :   -0.164689
Sum of atomic charges:    0.0000000

LOEWDIN ATOMIC CHARGES
----------------------
   0 C :    0.052656
   1 C :    0.052656
   2 C :    0.019862
   3 C :    0.019862
   4 C :   -0.164350
   5 C :   -0.164350
   6 N :    0.101058
   7 N :    0.101058
   8 H :   -0.017648
   9 H :   -0.017648
  10 H :   -0.009766
  11 H :   -0.009766
  12 H :    0.018188
  13 H :    0.018188

  Mayer bond orders larger than 0.100000
B(  0-C ,  2-C ) :   1.3226 B(  0-C ,  4-C ) :   0.8628 B(  0-C ,  7-N ) :  -0.1414
B(  0-C , 10-H ) :  -0.1000 B(  1-C ,  3-C ) :   1.3226 B(  1-C ,  5-C ) :   0.8628
B(  1-C ,  6-N ) :  -0.1414 B(  1-C , 11-H ) :  -0.1000 B(  2-C ,  3-C ) :   0.2214
B(  2-C ,  4-C ) :   0.3730 B(  2-C ,  6-N ) :   0.8239 B(  2-C ,  8-H ) :   0.1059
B(  2-C , 10-H ) :   0.8010 B(  2-C , 12-H ) :  -0.1844 B(  3-C ,  5-C ) :   0.3730
B(  3-C ,  7-N ) :   0.8239 B(  3-C ,  9-H ) :   0.1059 B(  3-C , 11-H ) :   0.8010
B(  3-C , 13-H ) :  -0.1844 B(  4-C ,  5-C ) :   1.6431 B(  4-C ,  7-N ) :   0.9424
B(  4-C ,  8-H ) :   0.8023 B(  4-C , 11-H ) :   0.1138 B(  5-C ,  6-N ) :   0.9424
B(  5-C ,  9-H ) :   0.8023 B(  5-C , 10-H ) :   0.1138 B(  6-N , 12-H ) :   1.2962
B(  7-N , 13-H ) :   1.2962

MP2 TOTAL ENERGY:     -340.761901700 Eh
FINAL SINGLE POINT ENERGY      -340.761901699984

DIPOLE MOMENT
-------------
                                X             Y             Z
Electronic contribution:     -0.00000       0.00000       0.00000
Nuclear contribution   :      0.00000       0.00000       0.00000
                        -----------------------------------------
Total Dipole Moment    :     -0.00000       0.00000       0.00000
                        -----------------------------------------
Magnitude (a.u.)       :      0.00000
Magnitude (Debye)      :      0.00000

Rotational constants in cm-1:     0.175766     0.072817     0.051487
Rotational constants in MHz :  5269.337686  2182.985885  1543.530643

                             ****ORCA TERMINATED NORMALLY****
TOTAL RUN TIME: 0 days 0 hours 0 minutes 52 seconds 317 msec
