                         Program Version 5.0.3 -  RELEASE  -
|  1> !ri-mp2 aug-cc-pvdz aug-cc-pvdz/c tightscf
|  2> %pal nprocs 16 end
|  3>
|  4> * xyz 0 1
|  5> C     1.188334    -1.577198    0.000000
|  6> H     1.793080    -1.322397    0.871672
|  7> H     0.948796    -2.636600    0.000000
|  8> H     1.793080    -1.322397   -0.871672
|  9> C    -1.188334     1.577198    0.000000
| 10> H    -1.793080     1.322397    0.871672
| 11> H    -0.948796     2.636600    0.000000
| 12> H    -1.793080     1.322397   -0.871672
| 13> C     0.078985     0.772271    0.000000
| 14> O     1.188334     1.252788    0.000000
| 15> C    -0.078985    -0.772271    0.000000
| 16> O    -1.188334    -1.252788    0.000000
| 17> *
| 18>
| 19>                          ****END OF INPUT****

CARTESIAN COORDINATES (ANGSTROEM)
---------------------------------
  C      1.188334   -1.577198    0.000000
  H      1.793080   -1.322397    0.871672
  H      0.948796   -2.636600    0.000000
  H      1.793080   -1.322397   -0.871672
  C     -1.188334    1.577198    0.000000
  H     -1.793080    1.322397    0.871672
  H     -0.948796    2.636600    0.000000
  H     -1.793080    1.322397   -0.871672
  C      0.078985    0.772271    0.000000
  O      1.188334    1.252788    0.000000
  C     -0.078985   -0.772271    0.000000
  O     -1.188334   -1.252788    0.000000

 Total Charge           Charge          ....    0
 Multiplicity           Mult            ....    1
 Number of Electrons    NEL             ....   46
 Basis Dimension        Dim             ....  192

ORBITAL ENERGIES
----------------

  NO   OCC          E(Eh)            E(eV)
   0   2.0000     -20.590492      -560.2958
   1   2.0000     -20.590491      -560.2957
   2   2.0000     -11.360746      -309.1416
   3   2.0000     -11.360200      -309.1267
   4   2.0000     -11.249022      -306.1015
   5   2.0000     -11.249022      -306.1015
   6   2.0000      -1.432344       -38.9761
   7   2.0000      -1.414189       -38.4820
   8   2.0000      -1.038427       -28.2570
   9   2.0000      -1.024093       -27.8670
  10   2.0000      -0.871767       -23.7220
  11   2.0000      -0.731199       -19.8969
  12   2.0000      -0.700172       -19.0527
  13   2.0000      -0.665764       -18.1164
  14   2.0000      -0.633345       -17.2342
  15   2.0000      -0.615704       -16.7542
  16   2.0000      -0.592291       -16.1171
  17   2.0000      -0.587383       -15.9835
  18   2.0000      -0.552553       -15.0357
  19   2.0000      -0.522004       -14.2045
  20   2.0000      -0.510765       -13.8986
  21   2.0000      -0.506623       -13.7859
  22   2.0000      -0.408490       -11.1156
  23   0.0000       0.034960         0.9513
  24   0.0000       0.040687         1.1072
  25   0.0000       0.052136         1.4187
  26   0.0000       0.058274         1.5857
  27   0.0000       0.065516         1.7828

MULLIKEN ATOMIC CHARGES
-----------------------
   0 C :    0.448470
   1 H :    0.072297
   2 H :   -0.085963
   3 H :    0.072297
   4 C :    0.448470
   5 H :    0.072297
   6 H :   -0.085963
   7 H :    0.072297
   8 C :    0.276091
   9 O :   -0.783192
  10 C :    0.276091
  11 O :   -0.783192
Sum of atomic charges:    0.0000000

LOEWDIN ATOMIC CHARGES
----------------------
   0 C :    0.194950
   1 H :   -0.001879
   2 H :   -0.007302
   3 H :   -0.001879
   4 C :    0.194950
   5 H :   -0.001879
   6 H :   -0.007302
   7 H :   -0.001879
   8 C :   -0.248668
   9 O :    0.064778
  10 C :   -0.248668
  11 O :    0.064778

  Mayer bond orders larger than 0.100000
B(  0-C ,  1-H ) :   0.9203 B(  0-C ,  2-H ) :   0.8171 B(  0-C ,  3-H ) :   0.9203
B(  0-C , 10-C ) :   1.1083 B(  2-H , 10-C ) :   0.1641 B(  4-C ,  5-H ) :   0.9203
B(  4-C ,  6-H ) :   0.8171 B(  4-C ,  7-H ) :   0.9203 B(  4-C ,  8-C ) :   1.1083
B(  6-H ,  8-C ) :   0.1641 B(  8-C ,  9-O ) :   1.4481 B(  8-C , 10-C ) :   0.9641
B( 10-C , 11-O ) :   1.4481

MP2 TOTAL ENERGY:     -305.672598530 Eh
FINAL SINGLE POINT ENERGY      -305.672598530236

DIPOLE MOMENT
-------------
                                X             Y             Z
Electronic contribution:     -0.00000      -0.00000       0.00000
Nuclear contribution   :      0.00000       0.00000       0.00000
                        -----------------------------------------
Total Dipole Moment    :     -0.00000      -0.00000       0.00000
                        -----------------------------------------
Magnitude (a.u.)       :      0.00000
Magnitude (Debye)      :      0.00000

Rotational constants in cm-1:     0.177401     0.112006     0.070415
Rotational constants in MHz :  5318.359746  3357.866134  2110.986076

                             ****ORCA TERMINATED NORMALLY****
TOTAL RUN TIME: 0 days 0 hours 0 minutes 36 seconds 358 msec
