                         Program Version 5.0.3 -  RELEASE  -
|  1> !ri-mp2 aug-cc-pvdz aug-cc-pvdz/c tightscf
|  2> %pal nprocs 16 end
|  3>
|  4> * xyz 0 1
|  5> Cl     1.481060   -0.246052    0.000891
|  6> N     -2.257610   -0.337290   -0.128337
|  7> C      0.026216    0.722480    0.011202
|  8> C     -1.156808    0.167770    0.008826
|  9> H     -2.756780   -0.587380    0.724562
| 10> H      0.165580    1.789797    0.038481
| 11> *
| 12>
| 13>                          ****END OF INPUT****

CARTESIAN COORDINATES (ANGSTROEM)
---------------------------------
  Cl     1.481060   -0.246052    0.000891
  N     -2.257610   -0.337290   -0.128337
  C      0.026216    0.722480    0.011202
  C     -1.156808    0.167770    0.008826
  H     -2.756780   -0.587380    0.724562
  H      0.165580    1.789797    0.038481

 Total Charge           Charge          ....    0
 Multiplicity           Mult            ....    1
 Number of Electrons    NEL             ....   38
 Basis Dimension        Dim             ....  114

ORBITAL ENERGIES
----------------

  NO   OCC          E(Eh)            E(eV)
   0   2.0000    -104.851154     -2853.1449
   1   2.0000     -15.617776      -424.9813
   2   2.0000     -11.346889      -308.7645
   3   2.0000     -11.308751      -307.7267
   4   2.0000     -10.576364      -287.7975
   5   2.0000      -8.044258      -218.8954
   6   2.0000      -8.040725      -218.7993
   7   2.0000      -8.040519      -218.7937
   8   2.0000      -1.273625       -34.6571
   9   2.0000      -1.158585       -31.5267
  10   2.0000      -0.998291       -27.1649
  11   2.0000      -0.782956       -21.3053
  12   2.0000      -0.708016       -19.2661
  13   2.0000      -0.612940       -16.6789
  14   2.0000      -0.583565       -15.8796
  15   2.0000      -0.503220       -13.6933
  16   2.0000      -0.489743       -13.3266
  17   2.0000      -0.465003       -12.6534
  18   2.0000      -0.354851        -9.6560
  19   0.0000       0.030586         0.8323
  20   0.0000       0.044789         1.2188
  21   0.0000       0.073313         1.9949
  22   0.0000       0.097418         2.6509
  23   0.0000       0.109787         2.9875

MULLIKEN ATOMIC CHARGES
-----------------------
   0 Cl:   -0.181711
   1 N :   -0.271154
   2 C :    0.397252
   3 C :    0.152858
   4 H :    0.120559
   5 H :   -0.217804
Sum of atomic charges:    0.0000000

LOEWDIN ATOMIC CHARGES
----------------------
   0 Cl:    0.495343
   1 N :    0.192914
   2 C :   -0.385790
   3 C :   -0.188050
   4 H :   -0.051565
   5 H :   -0.062851

  Mayer bond orders larger than 0.100000
B(  0-Cl,  2-C ) :   1.0389 B(  0-Cl,  3-C ) :  -0.1936 B(  1-N ,  3-C ) :   2.0879
B(  1-N ,  4-H ) :   0.9095 B(  2-C ,  3-C ) :   1.6495 B(  2-C ,  5-H ) :   0.8500

MP2 TOTAL ENERGY:     -591.383348296 Eh
FINAL SINGLE POINT ENERGY      -591.383348295603

DIPOLE MOMENT
-------------
                                X             Y             Z
Electronic contribution:      4.03690      -1.11398      -0.12573
Nuclear contribution   :     -4.46488       1.46750       0.71937
                        -----------------------------------------
Total Dipole Moment    :     -0.42798       0.35353       0.59365
                        -----------------------------------------
Magnitude (a.u.)       :      0.81275
Magnitude (Debye)      :      2.06585

Rotational constants in cm-1:     1.155346     0.097209     0.090359
Rotational constants in MHz : 34636.413635  2914.253496  2708.894218

                             ****ORCA TERMINATED NORMALLY****
TOTAL RUN TIME: 0 days 0 hours 0 minutes 29 seconds 631 msec
