                         Program Version 5.0.3 -  RELEASE  -
|  1> !ri-mp2 aug-cc-pvdz aug-cc-pvdz/c tightscf
|  2> %pal nprocs 16 end
|  3>
|  4> * xyz 0 1
|  5> C     -2.240901   -0.228900    0.078947
|  6> C      1.357635    0.506201   -0.241163
|  7> C     -0.057727    0.632576    0.286522
|  8> O      1.985166   -0.733246    0.058970
|  9> O     -0.911332   -0.260311   -0.393888
| 10> H     -2.296798   -0.511289    1.137407
| 11> H     -2.810353   -0.945359   -0.509172
| 12> H     -2.687110    0.766333   -0.039775
| 13> H      1.946368    1.347748    0.143838
| 14> H      1.344535    0.574466   -1.328580
| 15> H     -0.397375    1.669916    0.147193
| 16> H     -0.075546    0.427374    1.368715
| 17> H      2.031563   -0.840001    1.013883
| 18> *
| 19>
| 20>                          ****END OF INPUT****

CARTESIAN COORDINATES (ANGSTROEM)
---------------------------------
  C     -2.240901   -0.228900    0.078947
  C      1.357635    0.506201   -0.241163
  C     -0.057727    0.632576    0.286522
  O      1.985166   -0.733246    0.058970
  O     -0.911332   -0.260311   -0.393888
  H     -2.296798   -0.511289    1.137407
  H     -2.810353   -0.945359   -0.509172
  H     -2.687110    0.766333   -0.039775
  H      1.946368    1.347748    0.143838
  H      1.344535    0.574466   -1.328580
  H     -0.397375    1.669916    0.147193
  H     -0.075546    0.427374    1.368715
  H      2.031563   -0.840001    1.013883

 Total Charge           Charge          ....    0
 Multiplicity           Mult            ....    1
 Number of Electrons    NEL             ....   42
 Basis Dimension        Dim             ....  187

ORBITAL ENERGIES
----------------

  NO   OCC          E(Eh)            E(eV)
   0   2.0000     -20.567512      -559.6704
   1   2.0000     -20.565468      -559.6148
   2   2.0000     -11.286775      -307.1288
   3   2.0000     -11.282938      -307.0244
   4   2.0000     -11.279870      -306.9409
   5   2.0000      -1.384206       -37.6662
   6   2.0000      -1.356975       -36.9252
   7   2.0000      -1.020243       -27.7622
   8   2.0000      -0.917068       -24.9547
   9   2.0000      -0.839883       -22.8544
  10   2.0000      -0.693368       -18.8675
  11   2.0000      -0.675364       -18.3776
  12   2.0000      -0.658666       -17.9232
  13   2.0000      -0.627431       -17.0733
  14   2.0000      -0.602360       -16.3910
  15   2.0000      -0.564249       -15.3540
  16   2.0000      -0.535277       -14.5656
  17   2.0000      -0.506087       -13.7713
  18   2.0000      -0.476112       -12.9557
  19   2.0000      -0.443897       -12.0791
  20   2.0000      -0.425883       -11.5889
  21   0.0000       0.033236         0.9044
  22   0.0000       0.043889         1.1943
  23   0.0000       0.046436         1.2636
  24   0.0000       0.054160         1.4738
  25   0.0000       0.066986         1.8228

MULLIKEN ATOMIC CHARGES
-----------------------
   0 C :    0.758588
   1 C :    0.915585
   2 C :    0.715283
   3 O :   -0.688256
   4 O :   -0.861935
   5 H :   -0.059707
   6 H :   -0.261401
   7 H :   -0.057057
   8 H :   -0.090943
   9 H :   -0.163612
  10 H :   -0.140940
  11 H :   -0.192018
  12 H :    0.126412
Sum of atomic charges:    0.0000000

LOEWDIN ATOMIC CHARGES
----------------------
   0 C :    0.122634
   1 C :   -0.048645
   2 C :   -0.062534
   3 O :    0.115150
   4 O :   -0.020583
   5 H :   -0.024564
   6 H :   -0.027704
   7 H :   -0.024242
   8 H :    0.006190
   9 H :    0.007712
  10 H :    0.012790
  11 H :    0.009121
  12 H :   -0.065325

  Mayer bond orders larger than 0.100000
B(  0-C ,  4-O ) :   0.7270 B(  0-C ,  5-H ) :   0.9520 B(  0-C ,  6-H ) :   1.0648
B(  0-C ,  7-H ) :   0.9436 B(  1-C ,  2-C ) :   1.2659 B(  1-C ,  3-O ) :   0.5180
B(  1-C ,  8-H ) :   0.8517 B(  1-C ,  9-H ) :   0.9383 B(  2-C ,  4-O ) :   0.6590
B(  2-C , 10-H ) :   0.8729 B(  2-C , 11-H ) :   0.8943 B(  3-O , 12-H ) :   1.0752

MP2 TOTAL ENERGY:     -268.841631261 Eh
FINAL SINGLE POINT ENERGY      -268.841631261294

DIPOLE MOMENT
-------------
                                X             Y             Z
Electronic contribution:      2.57709      -1.79634      -1.16803
Nuclear contribution   :     -3.03491       2.56402       1.99878
                        -----------------------------------------
Total Dipole Moment    :     -0.45782       0.76769       0.83075
                        -----------------------------------------
Magnitude (a.u.)       :      1.22028
Magnitude (Debye)      :      3.10170

Rotational constants in cm-1:     0.464871     0.084365     0.078400
Rotational constants in MHz : 13936.484865  2529.190047  2350.370753

                             ****ORCA TERMINATED NORMALLY****
TOTAL RUN TIME: 0 days 0 hours 0 minutes 33 seconds 571 msec
