                         Program Version 5.0.3 -  RELEASE  -
|  1> !ri-mp2 aug-cc-pvdz aug-cc-pvdz/c tightscf
|  2> %pal nprocs 16 end
|  3>
|  4> * xyz 0 1
|  5> C     0.655134     1.533738       0.000000
|  6> N     0.655134     0.265229       0.000000
|  7> N    -0.655134    -0.265229       0.000000
|  8> C    -0.655134    -1.533738       0.000000
|  9> H    -0.265958     2.114793       0.000000
| 10> H     1.612147     2.041686       0.000000
| 11> H     0.265958    -2.114793       0.000000
| 12> H    -1.612147    -2.041686       0.000000
| 13> *
| 14>
| 15>                          ****END OF INPUT****

CARTESIAN COORDINATES (ANGSTROEM)
---------------------------------
  C      0.655134    1.533738    0.000000
  N      0.655134    0.265229    0.000000
  N     -0.655134   -0.265229    0.000000
  C     -0.655134   -1.533738    0.000000
  H     -0.265958    2.114793    0.000000
  H      1.612147    2.041686    0.000000
  H      0.265958   -2.114793    0.000000
  H     -1.612147   -2.041686    0.000000

 Total Charge           Charge          ....    0
 Multiplicity           Mult            ....    1
 Number of Electrons    NEL             ....   30
 Basis Dimension        Dim             ....  128

ORBITAL ENERGIES
----------------

  NO   OCC          E(Eh)            E(eV)
   0   2.0000     -15.607375      -424.6983
   1   2.0000     -15.606825      -424.6833
   2   2.0000     -11.287313      -307.1434
   3   2.0000     -11.287310      -307.1433
   4   2.0000      -1.321638       -35.9636
   5   2.0000      -1.144046       -31.1311
   6   2.0000      -0.877879       -23.8883
   7   2.0000      -0.783549       -21.3214
   8   2.0000      -0.687605       -18.7107
   9   2.0000      -0.674162       -18.3449
  10   2.0000      -0.573351       -15.6017
  11   2.0000      -0.540831       -14.7168
  12   2.0000      -0.517613       -14.0850
  13   2.0000      -0.396624       -10.7927
  14   2.0000      -0.387197       -10.5362
  15   0.0000       0.037917         1.0318
  16   0.0000       0.045022         1.2251
  17   0.0000       0.052510         1.4289
  18   0.0000       0.064561         1.7568
  19   0.0000       0.068166         1.8549

MULLIKEN ATOMIC CHARGES
-----------------------
   0 C :    0.699847
   1 N :   -0.399452
   2 N :   -0.399452
   3 C :    0.699847
   4 H :   -0.094658
   5 H :   -0.205737
   6 H :   -0.094658
   7 H :   -0.205737
Sum of atomic charges:   -0.0000000

LOEWDIN ATOMIC CHARGES
----------------------
   0 C :    0.139977
   1 N :   -0.069845
   2 N :   -0.069845
   3 C :    0.139977
   4 H :   -0.031254
   5 H :   -0.038877
   6 H :   -0.031254
   7 H :   -0.038877

  Mayer bond orders larger than 0.100000
B(  0-C ,  1-N ) :   1.7203 B(  0-C ,  2-N ) :  -0.1273 B(  0-C ,  4-H ) :   0.9477
B(  0-C ,  5-H ) :   0.9981 B(  1-N ,  2-N ) :   0.9608 B(  1-N ,  3-C ) :  -0.1273
B(  2-N ,  3-C ) :   1.7203 B(  3-C ,  6-H ) :   0.9477 B(  3-C ,  7-H ) :   0.9981
B(  4-H ,  5-H ) :  -0.1238 B(  6-H ,  7-H ) :  -0.1238

MP2 TOTAL ENERGY:     -187.527582858 Eh
FINAL SINGLE POINT ENERGY      -187.527582857752

DIPOLE MOMENT
-------------
                                X             Y             Z
Electronic contribution:      0.00000       0.00000       0.00000
Nuclear contribution   :      0.00000       0.00000       0.00000
                        -----------------------------------------
Total Dipole Moment    :      0.00000       0.00000       0.00000
                        -----------------------------------------
Magnitude (a.u.)       :      0.00000
Magnitude (Debye)      :      0.00000

Rotational constants in cm-1:     1.733829     0.179543     0.162695
Rotational constants in MHz : 51978.873722  5382.554824  4877.478553

                             ****ORCA TERMINATED NORMALLY****
TOTAL RUN TIME: 0 days 0 hours 0 minutes 39 seconds 618 msec
