                         Program Version 5.0.3 -  RELEASE  -
|  1> !ri-mp2 aug-cc-pvdz aug-cc-pvdz/c tightscf
|  2> %pal nprocs 16 end
|  3>
|  4> * xyz 0 1
|  5> S     -1.667961   -0.117975   -0.000019
|  6> O      2.177698   -0.373093    0.000025
|  7> C     -0.141968    0.236010   -0.000001
|  8> C      1.136462    0.528571    0.000012
|  9> H      1.833657   -1.273070    0.000026
| 10> H      1.465171    1.557929    0.000014
| 11> *
| 12>
| 13>                          ****END OF INPUT****

CARTESIAN COORDINATES (ANGSTROEM)
---------------------------------
  S     -1.667961   -0.117975   -0.000019
  O      2.177698   -0.373093    0.000025
  C     -0.141968    0.236010   -0.000001
  C      1.136462    0.528571    0.000012
  H      1.833657   -1.273070    0.000026
  H      1.465171    1.557929    0.000014

 Total Charge           Charge          ....    0
 Multiplicity           Mult            ....    1
 Number of Electrons    NEL             ....   38
 Basis Dimension        Dim             ....  114

ORBITAL ENERGIES
----------------

  NO   OCC          E(Eh)            E(eV)
   0   2.0000     -91.983447     -2502.9968
   1   2.0000     -20.622863      -561.1766
   2   2.0000     -11.336224      -308.4743
   3   2.0000     -11.329502      -308.2914
   4   2.0000      -8.985456      -244.5067
   5   2.0000      -6.667516      -181.4323
   6   2.0000      -6.665569      -181.3794
   7   2.0000      -6.663273      -181.3169
   8   2.0000      -1.421846       -38.6904
   9   2.0000      -1.108113       -30.1533
  10   2.0000      -0.985414       -26.8145
  11   2.0000      -0.808306       -21.9951
  12   2.0000      -0.671886       -18.2829
  13   2.0000      -0.624271       -16.9873
  14   2.0000      -0.604396       -16.4465
  15   2.0000      -0.570996       -15.5376
  16   2.0000      -0.483861       -13.1665
  17   2.0000      -0.435402       -11.8479
  18   2.0000      -0.315711        -8.5909
  19   0.0000       0.026631         0.7247
  20   0.0000       0.043421         1.1815
  21   0.0000       0.045227         1.2307
  22   0.0000       0.069840         1.9004
  23   0.0000       0.095265         2.5923

MULLIKEN ATOMIC CHARGES
-----------------------
   0 S :    0.066095
   1 O :   -0.636871
   2 C :   -0.425157
   3 C :    1.034243
   4 H :    0.135043
   5 H :   -0.173353
Sum of atomic charges:    0.0000000

LOEWDIN ATOMIC CHARGES
----------------------
   0 S :    0.646247
   1 O :    0.141687
   2 C :   -0.599720
   3 C :   -0.132191
   4 H :   -0.043166
   5 H :   -0.012858

  Mayer bond orders larger than 0.100000
B(  0-S ,  2-C ) :   1.9347 B(  0-S ,  3-C ) :   0.1036 B(  1-O ,  3-C ) :   0.4626
B(  1-O ,  4-H ) :   1.0725 B(  2-C ,  3-C ) :   1.6355 B(  3-C ,  5-H ) :   0.9326

MP2 TOTAL ENERGY:     -549.841840803 Eh
FINAL SINGLE POINT ENERGY      -549.841840803239

DIPOLE MOMENT
-------------
                                X             Y             Z
Electronic contribution:     -3.02605      -0.38176      -0.00003
Nuclear contribution   :      3.25991       0.27220       0.00004
                        -----------------------------------------
Total Dipole Moment    :      0.23387      -0.10955       0.00000
                        -----------------------------------------
Magnitude (a.u.)       :      0.25825
Magnitude (Debye)      :      0.65643

Rotational constants in cm-1:     1.564204     0.090524     0.085572
Rotational constants in MHz : 46893.650861  2713.849971  2565.384889

                             ****ORCA TERMINATED NORMALLY****
TOTAL RUN TIME: 0 days 0 hours 0 minutes 24 seconds 350 msec
