                         Program Version 5.0.3 -  RELEASE  -
|  1> !ri-mp2 aug-cc-pvdz aug-cc-pvdz/c tightscf
|  2> %pal nprocs 16 end
|  3>
|  4> * xyz 0 1
|  5> N      0.000000    0.000000    1.004348
|  6> C      0.000000    0.000000   -1.763705
|  7> C      0.000000    1.116033    0.313567
|  8> C      0.000000   -1.116033    0.313567
|  9> C      0.000000    1.202637   -1.069047
| 10> C      0.000000   -1.202637   -1.069047
| 11> H      0.000000    0.000000   -2.844744
| 12> F      0.000000    2.245286    1.032550
| 13> F      0.000000   -2.245286    1.032550
| 14> H      0.000000    2.162100   -1.561803
| 15> H      0.000000   -2.162100   -1.561803
| 16> *
| 17>
| 18>                          ****END OF INPUT****

CARTESIAN COORDINATES (ANGSTROEM)
---------------------------------
  N      0.000000    0.000000    1.004348
  C      0.000000    0.000000   -1.763705
  C      0.000000    1.116033    0.313567
  C      0.000000   -1.116033    0.313567
  C      0.000000    1.202637   -1.069047
  C      0.000000   -1.202637   -1.069047
  H      0.000000    0.000000   -2.844744
  F      0.000000    2.245286    1.032550
  F      0.000000   -2.245286    1.032550
  H      0.000000    2.162100   -1.561803
  H      0.000000   -2.162100   -1.561803

 Total Charge           Charge          ....    0
 Multiplicity           Mult            ....    1
 Number of Electrons    NEL             ....   58
 Basis Dimension        Dim             ....  211

ORBITAL ENERGIES
----------------

  NO   OCC          E(Eh)            E(eV)
   0   2.0000     -26.342372      -716.8124
   1   2.0000     -26.342371      -716.8124
   2   2.0000     -15.602390      -424.5626
   3   2.0000     -11.398132      -310.1589
   4   2.0000     -11.398125      -310.1588
   5   2.0000     -11.298265      -307.4414
   6   2.0000     -11.268994      -306.6449
   7   2.0000     -11.268952      -306.6438
   8   2.0000      -1.658492       -45.1299
   9   2.0000      -1.656666       -45.0802
  10   2.0000      -1.312179       -35.7062
  11   2.0000      -1.131210       -30.7818
  12   2.0000      -1.062280       -28.9061
  13   2.0000      -0.911170       -24.7942
  14   2.0000      -0.907693       -24.6996
  15   2.0000      -0.801421       -21.8078
  16   2.0000      -0.774393       -21.0723
  17   2.0000      -0.724561       -19.7163
  18   2.0000      -0.710131       -19.3237
  19   2.0000      -0.709572       -19.3084
  20   2.0000      -0.706859       -19.2346
  21   2.0000      -0.686305       -18.6753
  22   2.0000      -0.621382       -16.9087
  23   2.0000      -0.599186       -16.3047
  24   2.0000      -0.584925       -15.9166
  25   2.0000      -0.559059       -15.2128
  26   2.0000      -0.477155       -12.9841
  27   2.0000      -0.419231       -11.4079
  28   2.0000      -0.364791        -9.9265
  29   0.0000       0.026604         0.7239
  30   0.0000       0.039917         1.0862
  31   0.0000       0.049660         1.3513
  32   0.0000       0.079261         2.1568
  33   0.0000       0.084798         2.3075

MULLIKEN ATOMIC CHARGES
-----------------------
   0 N :   -0.538385
   1 C :    0.081511
   2 C :    0.974108
   3 C :    0.974108
   4 C :    0.528081
   5 C :    0.528081
   6 H :   -0.360324
   7 F :   -0.691530
   8 F :   -0.691530
   9 H :   -0.402060
  10 H :   -0.402060
Sum of atomic charges:   -0.0000000

LOEWDIN ATOMIC CHARGES
----------------------
   0 N :    0.104866
   1 C :    0.034436
   2 C :   -0.225816
   3 C :   -0.225816
   4 C :    0.057155
   5 C :    0.057155
   6 H :    0.014838
   7 F :    0.084653
   8 F :    0.084653
   9 H :    0.006937
  10 H :    0.006937

  Mayer bond orders larger than 0.100000
B(  0-N ,  2-C ) :   1.3811 B(  0-N ,  3-C ) :   1.3811 B(  1-C ,  4-C ) :   1.7123
B(  1-C ,  5-C ) :   1.7123 B(  1-C ,  6-H ) :   0.6377 B(  1-C ,  9-H ) :   0.2036
B(  1-C , 10-H ) :   0.2036 B(  2-C ,  4-C ) :   1.2196 B(  3-C ,  5-C ) :   1.2196
B(  4-C ,  7-F ) :   0.2188 B(  4-C ,  9-H ) :   0.6079 B(  5-C ,  8-F ) :   0.2188
B(  5-C , 10-H ) :   0.6079

MP2 TOTAL ENERGY:     -445.693702696 Eh
FINAL SINGLE POINT ENERGY      -445.693702695790

DIPOLE MOMENT
-------------
                                X             Y             Z
Electronic contribution:      0.00000      -0.00000       5.89972
Nuclear contribution   :      0.00000       0.00000      -7.57404
                        -----------------------------------------
Total Dipole Moment    :      0.00000      -0.00000      -1.67432
                        -----------------------------------------
Magnitude (a.u.)       :      1.67432
Magnitude (Debye)      :      4.25579

Rotational constants in cm-1:     0.125483     0.063461     0.042146
Rotational constants in MHz :  3761.888702  1902.513967  1263.512892

                             ****ORCA TERMINATED NORMALLY****
TOTAL RUN TIME: 0 days 0 hours 0 minutes 45 seconds 394 msec
