                         Program Version 5.0.3 -  RELEASE  -
|  1> !ri-mp2 aug-cc-pvdz aug-cc-pvdz/c tightscf
|  2> %pal nprocs 16 end
|  3> %maxcore 3800
|  4>
|  5> * xyz 0 1
|  6> C     -0.868384    3.234895    0.000000
|  7> C     -0.219571   -2.152365    1.263450
|  8> C     -0.219571   -2.152365   -1.263450
|  9> C      0.268040    2.213869    0.000000
| 10> C     -0.219571    0.763488    0.000000
| 11> C      0.930524   -0.247686    0.000000
| 12> C      0.542679   -1.739197    0.000000
| 13> H     -0.486911    4.257021    0.000000
| 14> H     -1.503449    3.118553   -0.880742
| 15> H     -1.503449    3.118553    0.880742
| 16> H     -1.205277   -1.685922    1.310069
| 17> H     -0.370188   -3.233066    1.289312
| 18> H      0.325690   -1.871056    2.166571
| 19> H     -1.205277   -1.685922   -1.310069
| 20> H     -0.370188   -3.233066   -1.289312
| 21> H      0.325690   -1.871056   -2.166571
| 22> H      0.905576    2.378650    0.873933
| 23> H      0.905576    2.378650   -0.873933
| 24> H     -0.856827    0.606146    0.874834
| 25> H     -0.856827    0.606146   -0.874834
| 26> H      1.561967   -0.056811   -0.873944
| 27> H      1.561967   -0.056811    0.873944
| 28> H      1.487050   -2.293848    0.000000
| 29> *
| 30>
| 31>                          ****END OF INPUT****

CARTESIAN COORDINATES (ANGSTROEM)
---------------------------------
  C     -0.868384    3.234895    0.000000
  C     -0.219571   -2.152365    1.263450
  C     -0.219571   -2.152365   -1.263450
  C      0.268040    2.213869    0.000000
  C     -0.219571    0.763488    0.000000
  C      0.930524   -0.247686    0.000000
  C      0.542679   -1.739197    0.000000
  H     -0.486911    4.257021    0.000000
  H     -1.503449    3.118553   -0.880742
  H     -1.503449    3.118553    0.880742
  H     -1.205277   -1.685922    1.310069
  H     -0.370188   -3.233066    1.289312
  H      0.325690   -1.871056    2.166571
  H     -1.205277   -1.685922   -1.310069
  H     -0.370188   -3.233066   -1.289312
  H      0.325690   -1.871056   -2.166571
  H      0.905576    2.378650    0.873933
  H      0.905576    2.378650   -0.873933
  H     -0.856827    0.606146    0.874834
  H     -0.856827    0.606146   -0.874834
  H      1.561967   -0.056811   -0.873944
  H      1.561967   -0.056811    0.873944
  H      1.487050   -2.293848    0.000000

 Total Charge           Charge          ....    0
 Multiplicity           Mult            ....    1
 Number of Electrons    NEL             ....   58
 Basis Dimension        Dim             ....  305

ORBITAL ENERGIES
----------------

  NO   OCC          E(Eh)            E(eV)
   0   2.0000     -11.226640      -305.4924
   1   2.0000     -11.219698      -305.3035
   2   2.0000     -11.216771      -305.2238
   3   2.0000     -11.216020      -305.2034
   4   2.0000     -11.215105      -305.1785
   5   2.0000     -11.213068      -305.1231
   6   2.0000     -11.213041      -305.1224
   7   2.0000      -1.095088       -29.7989
   8   2.0000      -1.049008       -28.5450
   9   2.0000      -0.964945       -26.2575
  10   2.0000      -0.926446       -25.2099
  11   2.0000      -0.871498       -23.7147
  12   2.0000      -0.798542       -21.7294
  13   2.0000      -0.746384       -20.3101
  14   2.0000      -0.640394       -17.4260
  15   2.0000      -0.625614       -17.0238
  16   2.0000      -0.592606       -16.1256
  17   2.0000      -0.585882       -15.9427
  18   2.0000      -0.570379       -15.5208
  19   2.0000      -0.543668       -14.7940
  20   2.0000      -0.532365       -14.4864
  21   2.0000      -0.521997       -14.2043
  22   2.0000      -0.495476       -13.4826
  23   2.0000      -0.491892       -13.3851
  24   2.0000      -0.477348       -12.9893
  25   2.0000      -0.464562       -12.6414
  26   2.0000      -0.450075       -12.2472
  27   2.0000      -0.442458       -12.0399
  28   2.0000      -0.432102       -11.7581
  29   0.0000       0.036378         0.9899
  30   0.0000       0.040727         1.1082
  31   0.0000       0.044753         1.2178
  32   0.0000       0.045150         1.2286
  33   0.0000       0.057823         1.5734

MULLIKEN ATOMIC CHARGES
-----------------------
   0 C :    0.587104
   1 C :    0.849167
   2 C :    0.849167
   3 C :    0.386375
   4 C :    0.293548
   5 C :    0.398263
   6 C :   -1.183265
   7 H :   -0.072277
   8 H :   -0.087460
   9 H :   -0.087460
  10 H :   -0.051653
  11 H :   -0.120399
  12 H :   -0.083125
  13 H :   -0.051653
  14 H :   -0.120399
  15 H :   -0.083125
  16 H :   -0.195731
  17 H :   -0.195731
  18 H :   -0.259098
  19 H :   -0.259098
  20 H :   -0.220486
  21 H :   -0.220486
  22 H :   -0.072181
Sum of atomic charges:    0.0000000

LOEWDIN ATOMIC CHARGES
----------------------
   0 C :    0.131643
   1 C :    0.155076
   2 C :    0.155076
   3 C :   -0.070317
   4 C :   -0.038661
   5 C :   -0.011868
   6 C :   -0.279266
   7 H :   -0.022538
   8 H :   -0.020379
   9 H :   -0.020379
  10 H :   -0.018612
  11 H :   -0.015610
  12 H :   -0.012270
  13 H :   -0.018612
  14 H :   -0.015610
  15 H :   -0.012270
  16 H :    0.011137
  17 H :    0.011137
  18 H :    0.010833
  19 H :    0.010833
  20 H :    0.017735
  21 H :    0.017735
  22 H :    0.035189

  Mayer bond orders larger than 0.100000
B(  0-C ,  3-C ) :   1.1839 B(  0-C ,  7-H ) :   0.8961 B(  0-C ,  8-H ) :   0.9168
B(  0-C ,  9-H ) :   0.9168 B(  1-C ,  2-C ) :  -0.2013 B(  1-C ,  5-C ) :  -0.1258
B(  1-C ,  6-C ) :   1.3623 B(  1-C , 10-H ) :   0.8834 B(  1-C , 11-H ) :   0.7926
B(  1-C , 12-H ) :   0.8081 B(  2-C ,  5-C ) :  -0.1258 B(  2-C ,  6-C ) :   1.3623
B(  2-C , 13-H ) :   0.8834 B(  2-C , 14-H ) :   0.7926 B(  2-C , 15-H ) :   0.8081
B(  3-C ,  4-C ) :   1.2643 B(  3-C , 16-H ) :   0.7513 B(  3-C , 17-H ) :   0.7513
B(  4-C ,  5-C ) :   1.2049 B(  4-C ,  6-C ) :  -0.1503 B(  4-C , 16-H ) :   0.1045
B(  4-C , 17-H ) :   0.1045 B(  4-C , 18-H ) :   0.7209 B(  4-C , 19-H ) :   0.7209
B(  5-C ,  6-C ) :   1.3671 B(  5-C , 20-H ) :   0.7213 B(  5-C , 21-H ) :   0.7213
B(  5-C , 22-H ) :   0.1227 B(  6-C , 10-H ) :   0.1328 B(  6-C , 11-H ) :   0.1395
B(  6-C , 13-H ) :   0.1328 B(  6-C , 14-H ) :   0.1395 B(  6-C , 20-H ) :   0.1684
B(  6-C , 21-H ) :   0.1684 B(  6-C , 22-H ) :   0.6140 B( 11-H , 12-H ) :  -0.1074
B( 14-H , 15-H ) :  -0.1074 B( 20-H , 21-H ) :  -0.1564

MP2 TOTAL ENERGY:     -275.489930499 Eh
FINAL SINGLE POINT ENERGY      -275.489930499221

DIPOLE MOMENT
-------------
                                X             Y             Z
Electronic contribution:      1.45055      -0.53434      -0.00000
Nuclear contribution   :     -1.39673       0.51761       0.00000
                        -----------------------------------------
Total Dipole Moment    :      0.05382      -0.01672      -0.00000
                        -----------------------------------------
Magnitude (a.u.)       :      0.05636
Magnitude (Debye)      :      0.14326

Rotational constants in cm-1:     0.166618     0.035627     0.034151
Rotational constants in MHz :  4995.086912  1068.056329  1023.831679

                             ****ORCA TERMINATED NORMALLY****
TOTAL RUN TIME: 0 days 0 hours 1 minutes 22 seconds 727 msec
