                         Program Version 5.0.3 -  RELEASE  -
|  1> !ri-mp2 aug-cc-pvdz aug-cc-pvdz/c tightscf
|  2> %pal nprocs 16 end
|  3>
|  4> * xyz 0 1
|  5> S    -1.764262   -0.028731    0.281446
|  6> O     0.586821   -1.114709   -0.509303
|  7> N    -0.251683    0.006912   -0.828675
|  8> N     0.614061    1.105043   -0.503142
|  9> C     1.485936   -0.681423    0.451316
| 10> C     1.501411    0.645466    0.492509
| 11> H    -1.126094    0.003515    1.472452
| 12> H     0.064649    1.928199   -0.298450
| 13> H     2.039233   -1.439683    0.972831
| 14> H     2.095103    1.317395    1.084212
| 15> *
| 16>
| 17>                          ****END OF INPUT****

CARTESIAN COORDINATES (ANGSTROEM)
---------------------------------
  S     -1.764262   -0.028731    0.281446
  O      0.586821   -1.114709   -0.509303
  N     -0.251683    0.006912   -0.828675
  N      0.614061    1.105043   -0.503142
  C      1.485936   -0.681423    0.451316
  C      1.501411    0.645466    0.492509
  H     -1.126094    0.003515    1.472452
  H      0.064649    1.928199   -0.298450
  H      2.039233   -1.439683    0.972831
  H      2.095103    1.317395    1.084212

 Total Charge           Charge          ....    0
 Multiplicity           Mult            ....    1
 Number of Electrons    NEL             ....   54
 Basis Dimension        Dim             ....  178

ORBITAL ENERGIES
----------------

  NO   OCC          E(Eh)            E(eV)
   0   2.0000     -91.988889     -2503.1449
   1   2.0000     -20.638459      -561.6010
   2   2.0000     -15.713213      -427.5783
   3   2.0000     -15.628165      -425.2640
   4   2.0000     -11.306102      -307.6547
   5   2.0000     -11.288727      -307.1819
   6   2.0000      -8.987424      -244.5603
   7   2.0000      -6.669080      -181.4749
   8   2.0000      -6.667645      -181.4358
   9   2.0000      -6.665406      -181.3749
  10   2.0000      -1.485561       -40.4242
  11   2.0000      -1.270238       -34.5649
  12   2.0000      -1.116912       -30.3927
  13   2.0000      -0.983805       -26.7707
  14   2.0000      -0.902392       -24.5553
  15   2.0000      -0.834742       -22.7145
  16   2.0000      -0.758938       -20.6518
  17   2.0000      -0.673462       -18.3258
  18   2.0000      -0.636400       -17.3173
  19   2.0000      -0.629239       -17.1225
  20   2.0000      -0.606289       -16.4980
  21   2.0000      -0.564258       -15.3542
  22   2.0000      -0.528316       -14.3762
  23   2.0000      -0.488825       -13.3016
  24   2.0000      -0.437351       -11.9009
  25   2.0000      -0.383088       -10.4244
  26   2.0000      -0.315775        -8.5927
  27   0.0000       0.028966         0.7882
  28   0.0000       0.042323         1.1517
  29   0.0000       0.049553         1.3484
  30   0.0000       0.059027         1.6062
  31   0.0000       0.088928         2.4198

MULLIKEN ATOMIC CHARGES
-----------------------
   0 S :    0.233904
   1 O :   -0.860288
   2 N :   -0.208566
   3 N :   -0.335961
   4 C :    0.812671
   5 C :    0.603882
   6 H :    0.137669
   7 H :    0.063048
   8 H :   -0.230628
   9 H :   -0.215732
Sum of atomic charges:    0.0000000

LOEWDIN ATOMIC CHARGES
----------------------
   0 S :    0.675193
   1 O :   -0.013747
   2 N :   -0.293865
   3 N :   -0.014569
   4 C :   -0.028523
   5 C :   -0.031274
   6 H :   -0.252803
   7 H :   -0.026150
   8 H :   -0.010592
   9 H :   -0.003670

  Mayer bond orders larger than 0.100000
B(  0-S ,  2-N ) :   0.7149 B(  0-S ,  6-H ) :   0.9246 B(  1-O ,  2-N ) :   0.7713
B(  1-O ,  4-C ) :   0.4834 B(  1-O ,  5-C ) :   0.1491 B(  2-N ,  3-N ) :   0.9314
B(  3-N ,  5-C ) :   0.7319 B(  3-N ,  7-H ) :   1.0150 B(  4-C ,  5-C ) :   1.9730
B(  4-C ,  8-H ) :   0.8967 B(  5-C ,  9-H ) :   0.8940

MP2 TOTAL ENERGY:     -660.193966515 Eh
FINAL SINGLE POINT ENERGY      -660.193966514551

DIPOLE MOMENT
-------------
                                X             Y             Z
Electronic contribution:     -2.44573      -1.08664      -1.92806
Nuclear contribution   :      3.05699       1.75242       3.12303
                        -----------------------------------------
Total Dipole Moment    :      0.61126       0.66578       1.19497
                        -----------------------------------------
Magnitude (a.u.)       :      1.49828
Magnitude (Debye)      :      3.80832

Rotational constants in cm-1:     0.199193     0.082477     0.073270
Rotational constants in MHz :  5971.641703  2472.601118  2196.573152

                             ****ORCA TERMINATED NORMALLY****
TOTAL RUN TIME: 0 days 0 hours 0 minutes 33 seconds 288 msec
