                         Program Version 5.0.3 -  RELEASE  -
|  1> !ri-mp2 aug-cc-pvdz aug-cc-pvdz/c tightscf
|  2> %pal nprocs 16 end
|  3>
|  4> * xyz 0 1
|  5> O      0.456164    2.811298    0.519791
|  6> O     -0.456164   -2.811298    0.519791
|  7> O     -1.460125    2.429632   -0.552434
|  8> O      1.460125   -2.429632   -0.552434
|  9> C     -0.456164    2.004868   -0.060552
| 10> C      0.456164   -2.004868   -0.060552
| 11> C     -0.123481    0.588917   -0.035196
| 12> C      0.123481   -0.588917   -0.035196
| 13> H      1.213127    2.300420    0.835627
| 14> H     -1.213127   -2.300420    0.835627
| 15> *
| 16>
| 17>                          ****END OF INPUT****

CARTESIAN COORDINATES (ANGSTROEM)
---------------------------------
  O      0.456164    2.811298    0.519791
  O     -0.456164   -2.811298    0.519791
  O     -1.460125    2.429632   -0.552434
  O      1.460125   -2.429632   -0.552434
  C     -0.456164    2.004868   -0.060552
  C      0.456164   -2.004868   -0.060552
  C     -0.123481    0.588917   -0.035196
  C      0.123481   -0.588917   -0.035196
  H      1.213127    2.300420    0.835627
  H     -1.213127   -2.300420    0.835627

 Total Charge           Charge          ....    0
 Multiplicity           Mult            ....    1
 Number of Electrons    NEL             ....   58
 Basis Dimension        Dim             ....  202

ORBITAL ENERGIES
----------------

  NO   OCC          E(Eh)            E(eV)
   0   2.0000     -20.661477      -562.2274
   1   2.0000     -20.661477      -562.2274
   2   2.0000     -20.601882      -560.6057
   3   2.0000     -20.601881      -560.6057
   4   2.0000     -11.456739      -311.7537
   5   2.0000     -11.456739      -311.7537
   6   2.0000     -11.325698      -308.1879
   7   2.0000     -11.321970      -308.0865
   8   2.0000      -1.508394       -41.0455
   9   2.0000      -1.507859       -41.0309
  10   2.0000      -1.414493       -38.4903
  11   2.0000      -1.414448       -38.4891
  12   2.0000      -1.127829       -30.6898
  13   2.0000      -0.974121       -26.5072
  14   2.0000      -0.905249       -24.6331
  15   2.0000      -0.852378       -23.1944
  16   2.0000      -0.831714       -22.6321
  17   2.0000      -0.707481       -19.2515
  18   2.0000      -0.704740       -19.1770
  19   2.0000      -0.676286       -18.4027
  20   2.0000      -0.671795       -18.2805
  21   2.0000      -0.644210       -17.5299
  22   2.0000      -0.635896       -17.3036
  23   2.0000      -0.529434       -14.4066
  24   2.0000      -0.527436       -14.3523
  25   2.0000      -0.518411       -14.1067
  26   2.0000      -0.507755       -13.8167
  27   2.0000      -0.465523       -12.6675
  28   2.0000      -0.464675       -12.6444
  29   0.0000       0.020809         0.5663
  30   0.0000       0.033549         0.9129
  31   0.0000       0.042373         1.1530
  32   0.0000       0.072954         1.9852
  33   0.0000       0.081124         2.2075

MULLIKEN ATOMIC CHARGES
-----------------------
   0 O :   -0.645577
   1 O :   -0.645577
   2 O :   -0.653340
   3 O :   -0.653340
   4 C :    0.966804
   5 C :    0.966804
   6 C :    0.105452
   7 C :    0.105452
   8 H :    0.226660
   9 H :    0.226660
Sum of atomic charges:    0.0000000

LOEWDIN ATOMIC CHARGES
----------------------
   0 O :    0.222466
   1 O :    0.222466
   2 O :    0.086782
   3 O :    0.086782
   4 C :   -0.381541
   5 C :   -0.381541
   6 C :    0.097287
   7 C :    0.097287
   8 H :   -0.024995
   9 H :   -0.024995

  Mayer bond orders larger than 0.100000
B(  0-O ,  4-C ) :   0.4857 B(  0-O ,  6-C ) :   0.1286 B(  0-O ,  8-H ) :   0.9805
B(  1-O ,  5-C ) :   0.4857 B(  1-O ,  7-C ) :   0.1286 B(  1-O ,  9-H ) :   0.9805
B(  2-O ,  4-C ) :   1.6387 B(  3-O ,  5-C ) :   1.6387 B(  4-C ,  5-C ) :   0.1007
B(  4-C ,  6-C ) :   1.0346 B(  5-C ,  7-C ) :   1.0346 B(  6-C ,  7-C ) :   2.8876

MP2 TOTAL ENERGY:     -453.389413049 Eh
FINAL SINGLE POINT ENERGY      -453.389413049210

DIPOLE MOMENT
-------------
                                X             Y             Z
Electronic contribution:      0.00000      -0.00000      -0.55317
Nuclear contribution   :      0.00000       0.00000       1.59513
                        -----------------------------------------
Total Dipole Moment    :      0.00000      -0.00000       1.04197
                        -----------------------------------------
Magnitude (a.u.)       :      1.04197
Magnitude (Debye)      :      2.64847

Rotational constants in cm-1:     0.195092     0.028382     0.026318
Rotational constants in MHz :  5848.722792   850.863019   788.982775

                             ****ORCA TERMINATED NORMALLY****
TOTAL RUN TIME: 0 days 0 hours 0 minutes 35 seconds 5 msec
