                         Program Version 5.0.3 -  RELEASE  -
|  1> !ri-mp2 aug-cc-pvdz aug-cc-pvdz/c tightscf
|  2> %pal nprocs 16 end
|  3>
|  4> * xyz 0 1
|  5> S     -0.785680    1.458954   -0.000008
|  6> N     -3.431367   -1.222926    0.000007
|  7> N      3.697033   -0.916364    0.000004
|  8> C     -1.052269   -0.263674    0.000002
|  9> C      1.258799   -0.088174    0.000000
| 10> C      0.130306   -0.953110    0.000005
| 11> C      0.907286    1.241520   -0.000007
| 12> C     -2.359652   -0.797434    0.000005
| 13> C      2.606930   -0.544009    0.000002
| 14> H      0.193528   -2.029602    0.000011
| 15> H      1.569280    2.090663   -0.000012
| 16> *
| 17>
| 18>                          ****END OF INPUT****

CARTESIAN COORDINATES (ANGSTROEM)
---------------------------------
  S     -0.785680    1.458954   -0.000008
  N     -3.431367   -1.222926    0.000007
  N      3.697033   -0.916364    0.000004
  C     -1.052269   -0.263674    0.000002
  C      1.258799   -0.088174    0.000000
  C      0.130306   -0.953110    0.000005
  C      0.907286    1.241520   -0.000007
  C     -2.359652   -0.797434    0.000005
  C      2.606930   -0.544009    0.000002
  H      0.193528   -2.029602    0.000011
  H      1.569280    2.090663   -0.000012

 Total Charge           Charge          ....    0
 Multiplicity           Mult            ....    1
 Number of Electrons    NEL             ....   68
 Basis Dimension        Dim             ....  229

ORBITAL ENERGIES
----------------

  NO   OCC          E(Eh)            E(eV)
   0   2.0000     -92.051483     -2504.8482
   1   2.0000     -15.611949      -424.8227
   2   2.0000     -15.607950      -424.7139
   3   2.0000     -11.345281      -308.7208
   4   2.0000     -11.343472      -308.6716
   5   2.0000     -11.326424      -308.2077
   6   2.0000     -11.318054      -307.9799
   7   2.0000     -11.314373      -307.8797
   8   2.0000     -11.309788      -307.7550
   9   2.0000      -9.053272      -246.3521
  10   2.0000      -6.734745      -183.2617
  11   2.0000      -6.733788      -183.2357
  12   2.0000      -6.731957      -183.1859
  13   2.0000      -1.267923       -34.5019
  14   2.0000      -1.252523       -34.0829
  15   2.0000      -1.231633       -33.5144
  16   2.0000      -1.085818       -29.5466
  17   2.0000      -1.064456       -28.9653
  18   2.0000      -0.904445       -24.6112
  19   2.0000      -0.866847       -23.5881
  20   2.0000      -0.786921       -21.4132
  21   2.0000      -0.706715       -19.2307
  22   2.0000      -0.637626       -17.3507
  23   2.0000      -0.629642       -17.1334
  24   2.0000      -0.610562       -16.6142
  25   2.0000      -0.583385       -15.8747
  26   2.0000      -0.582627       -15.8541
  27   2.0000      -0.546512       -14.8713
  28   2.0000      -0.537888       -14.6367
  29   2.0000      -0.497798       -13.5458
  30   2.0000      -0.495846       -13.4927
  31   2.0000      -0.485831       -13.2201
  32   2.0000      -0.401390       -10.9224
  33   2.0000      -0.375149       -10.2083
  34   0.0000       0.024849         0.6762
  35   0.0000       0.027368         0.7447
  36   0.0000       0.037960         1.0329
  37   0.0000       0.056858         1.5472
  38   0.0000       0.072011         1.9595

MULLIKEN ATOMIC CHARGES
-----------------------
   0 S :    0.630840
   1 N :   -0.199747
   2 N :   -0.256999
   3 C :    1.018251
   4 C :    1.441874
   5 C :    0.020240
   6 C :   -0.140867
   7 C :   -0.903252
   8 C :   -0.681789
   9 H :   -0.485232
  10 H :   -0.443318
Sum of atomic charges:    0.0000000

LOEWDIN ATOMIC CHARGES
----------------------
   0 S :    1.074402
   1 N :    0.097628
   2 N :    0.099232
   3 C :   -0.481493
   4 C :   -0.311179
   5 C :    0.035796
   6 C :   -0.197755
   7 C :   -0.193012
   8 C :   -0.123803
   9 H :    0.026535
  10 H :   -0.026349

  Mayer bond orders larger than 0.100000
B(  0-S ,  3-C ) :   0.7176 B(  0-S ,  4-C ) :  -0.1139 B(  0-S ,  6-C ) :   1.1009
B(  0-S , 10-H ) :  -0.1425 B(  1-N ,  7-C ) :   2.4828 B(  2-N ,  8-C ) :   2.4893
B(  3-C ,  4-C ) :   0.1068 B(  3-C ,  5-C ) :   1.9751 B(  3-C ,  7-C ) :  -0.2549
B(  3-C ,  8-C ) :   0.1255 B(  3-C ,  9-H ) :   0.2256 B(  4-C ,  5-C ) :   1.3635
B(  4-C ,  6-C ) :   1.4309 B(  4-C ,  8-C ) :   0.3646 B(  4-C , 10-H ) :   0.1442
B(  5-C ,  6-C ) :  -0.2196 B(  5-C ,  8-C ) :  -0.2363 B(  5-C ,  9-H ) :   0.4572
B(  6-C ,  8-C ) :  -0.3119 B(  6-C , 10-H ) :   0.8184

MP2 TOTAL ENERGY:     -736.051740518 Eh
FINAL SINGLE POINT ENERGY      -736.051740518071

DIPOLE MOMENT
-------------
                                X             Y             Z
Electronic contribution:     -1.55672       1.14316      -0.00001
Nuclear contribution   :      1.70266       0.00332      -0.00000
                        -----------------------------------------
Total Dipole Moment    :      0.14593       1.14648      -0.00001
                        -----------------------------------------
Magnitude (a.u.)       :      1.15573
Magnitude (Debye)      :      2.93763

Rotational constants in cm-1:     0.111615     0.029595     0.023393
Rotational constants in MHz :  3346.120049   887.245190   701.292884

                             ****ORCA TERMINATED NORMALLY****
TOTAL RUN TIME: 0 days 0 hours 0 minutes 52 seconds 181 msec
