                         Program Version 5.0.3 -  RELEASE  -
|  1> !ri-mp2 aug-cc-pvdz aug-cc-pvdz/c tightscf
|  2> %pal nprocs 16 end
|  3>
|  4> * xyz 0 1
|  5> C     -1.876724   -0.056528    0.292117
|  6> C     -1.220756    1.238754   -0.193233
|  7> C      0.269212    1.266716    0.162963
|  8> C      0.993150    0.003566   -0.331778
|  9> N      0.336494   -1.236054    0.101240
| 10> C     -1.093530   -1.276574   -0.206570
| 11> C      2.458080   -0.022920    0.084158
| 12> H     -2.914516   -0.113656   -0.046636
| 13> H     -1.900320   -0.067386    1.387040
| 14> H     -1.331150    1.311007   -1.280554
| 15> H     -1.729106    2.108897    0.227207
| 16> H      0.744092    2.156300   -0.259637
| 17> H      0.385539    1.333833    1.250920
| 18> H      0.947191    0.002171   -1.427861
| 19> H      0.478094   -1.362314    1.097987
| 20> H     -1.506343   -2.198011    0.207370
| 21> H     -1.194856   -1.349044   -1.294590
| 22> H      2.954195   -0.908747   -0.311642
| 23> H      2.551510   -0.040360    1.173496
| 24> H      2.983619    0.861609   -0.277729
| 25> *
| 26>
| 27>                          ****END OF INPUT****

CARTESIAN COORDINATES (ANGSTROEM)
---------------------------------
  C     -1.876724   -0.056528    0.292117
  C     -1.220756    1.238754   -0.193233
  C      0.269212    1.266716    0.162963
  C      0.993150    0.003566   -0.331778
  N      0.336494   -1.236054    0.101240
  C     -1.093530   -1.276574   -0.206570
  C      2.458080   -0.022920    0.084158
  H     -2.914516   -0.113656   -0.046636
  H     -1.900320   -0.067386    1.387040
  H     -1.331150    1.311007   -1.280554
  H     -1.729106    2.108897    0.227207
  H      0.744092    2.156300   -0.259637
  H      0.385539    1.333833    1.250920
  H      0.947191    0.002171   -1.427861
  H      0.478094   -1.362314    1.097987
  H     -1.506343   -2.198011    0.207370
  H     -1.194856   -1.349044   -1.294590
  H      2.954195   -0.908747   -0.311642
  H      2.551510   -0.040360    1.173496
  H      2.983619    0.861609   -0.277729

 Total Charge           Charge          ....    0
 Multiplicity           Mult            ....    1
 Number of Electrons    NEL             ....   56
 Basis Dimension        Dim             ....  278

ORBITAL ENERGIES
----------------

  NO   OCC          E(Eh)            E(eV)
   0   2.0000     -15.540477      -422.8779
   1   2.0000     -11.251270      -306.1626
   2   2.0000     -11.245964      -306.0182
   3   2.0000     -11.221715      -305.3584
   4   2.0000     -11.219203      -305.2900
   5   2.0000     -11.218182      -305.2623
   6   2.0000     -11.214784      -305.1698
   7   2.0000      -1.210675       -32.9441
   8   2.0000      -1.055055       -28.7095
   9   2.0000      -1.037222       -28.2242
  10   2.0000      -0.935616       -25.4594
  11   2.0000      -0.856665       -23.3110
  12   2.0000      -0.812799       -22.1174
  13   2.0000      -0.770961       -20.9789
  14   2.0000      -0.644500       -17.5377
  15   2.0000      -0.622764       -16.9463
  16   2.0000      -0.616778       -16.7834
  17   2.0000      -0.601148       -16.3581
  18   2.0000      -0.577847       -15.7240
  19   2.0000      -0.545089       -14.8326
  20   2.0000      -0.518809       -14.1175
  21   2.0000      -0.510245       -13.8845
  22   2.0000      -0.505981       -13.7684
  23   2.0000      -0.480604       -13.0779
  24   2.0000      -0.471343       -12.8259
  25   2.0000      -0.454622       -12.3709
  26   2.0000      -0.442482       -12.0406
  27   2.0000      -0.351170        -9.5558
  28   0.0000       0.037087         1.0092
  29   0.0000       0.043364         1.1800
  30   0.0000       0.044068         1.1992
  31   0.0000       0.046116         1.2549
  32   0.0000       0.061508         1.6737

MULLIKEN ATOMIC CHARGES
-----------------------
   0 C :    0.301417
   1 C :    0.338065
   2 C :    0.481531
   3 C :   -0.218662
   4 N :   -0.599407
   5 C :    0.623320
   6 C :    0.765409
   7 H :   -0.119102
   8 H :   -0.132938
   9 H :   -0.143389
  10 H :   -0.099818
  11 H :   -0.156495
  12 H :   -0.137964
  13 H :   -0.342474
  14 H :   -0.005049
  15 H :   -0.214122
  16 H :   -0.170177
  17 H :   -0.015783
  18 H :   -0.082226
  19 H :   -0.072135
Sum of atomic charges:   -0.0000000

LOEWDIN ATOMIC CHARGES
----------------------
   0 C :   -0.022613
   1 C :   -0.026477
   2 C :    0.000442
   3 C :   -0.260552
   4 N :    0.054771
   5 C :   -0.031328
   6 C :    0.168124
   7 H :    0.014217
   8 H :    0.015266
   9 H :    0.017038
  10 H :    0.012873
  11 H :    0.018071
  12 H :    0.021045
  13 H :    0.042800
  14 H :   -0.017199
  15 H :    0.013431
  16 H :    0.017292
  17 H :   -0.010692
  18 H :   -0.013113
  19 H :   -0.013394

  Mayer bond orders larger than 0.100000
B(  0-C ,  1-C ) :   1.2682 B(  0-C ,  5-C ) :   1.2209 B(  0-C ,  7-H ) :   0.7770
B(  0-C ,  8-H ) :   0.8095 B(  1-C ,  2-C ) :   1.2702 B(  1-C ,  9-H ) :   0.7639
B(  1-C , 10-H ) :   0.7816 B(  2-C ,  3-C ) :   1.1448 B(  2-C ,  6-C ) :  -0.1878
B(  2-C , 11-H ) :   0.7331 B(  2-C , 12-H ) :   0.7190 B(  2-C , 13-H ) :   0.1263
B(  3-C ,  4-N ) :   0.8599 B(  3-C ,  6-C ) :   1.3884 B(  3-C , 12-H ) :   0.1528
B(  3-C , 13-H ) :   0.5054 B(  3-C , 17-H ) :   0.1586 B(  3-C , 18-H ) :   0.1771
B(  3-C , 19-H ) :   0.1220 B(  4-N ,  5-C ) :   0.9014 B(  4-N ,  6-C ) :  -0.1348
B(  4-N , 14-H ) :   1.0174 B(  5-C , 15-H ) :   0.9675 B(  5-C , 16-H ) :   0.8519
B(  6-C , 17-H ) :   0.8260 B(  6-C , 18-H ) :   0.9102 B(  6-C , 19-H ) :   0.7809
B(  7-H ,  8-H ) :  -0.1316 B(  9-H , 10-H ) :  -0.1379 B( 11-H , 12-H ) :  -0.1327
B( 15-H , 16-H ) :  -0.1682

MP2 TOTAL ENERGY:     -290.328597334 Eh
FINAL SINGLE POINT ENERGY      -290.328597333895

DIPOLE MOMENT
-------------
                                X             Y             Z
Electronic contribution:     -0.70530      -1.48058      -0.27134
Nuclear contribution   :      0.49833       1.83144       0.47292
                        -----------------------------------------
Total Dipole Moment    :     -0.20697       0.35086       0.20158
                        -----------------------------------------
Magnitude (a.u.)       :      0.45451
Magnitude (Debye)      :      1.15526

Rotational constants in cm-1:     0.143765     0.075234     0.054395
Rotational constants in MHz :  4309.972493  2255.467789  1630.721755

                             ****ORCA TERMINATED NORMALLY****
TOTAL RUN TIME: 0 days 0 hours 1 minutes 6 seconds 383 msec
