                         Program Version 5.0.3 -  RELEASE  -
|  1> !ri-mp2 aug-cc-pvdz aug-cc-pvdz/c tightscf
|  2> %pal nprocs 16 end
|  3>
|  4> * xyz 0 1
|  5> C    -1.966141   -0.243997    0.652074
|  6> C     1.427449   -0.406198   -0.004522
|  7> C     0.548506    0.597372   -0.160463
|  8> C     1.159927   -1.840030   -0.373853
|  9> C     2.811134   -0.200827    0.559532
| 10> C     0.786607    2.053943    0.137899
| 11> O    -3.126754   -0.539822    0.672071
| 12> S    -1.103623    0.293545   -0.820783
| 13> H    -1.304658   -0.279475    1.536228
| 14> H     1.992891   -2.231161   -0.963195
| 15> H     1.099429   -2.460899    0.524518
| 16> H     0.242889   -1.970157   -0.939207
| 17> H     2.984133    0.790914    0.963815
| 18> H     3.562165   -0.391258   -0.212287
| 19> H     2.996780   -0.925244    1.356070
| 20> H     0.160197    2.390423    0.967818
| 21> H     1.822753    2.273115    0.382174
| 22> H     0.510533    2.664030   -0.723971
| 23> *
| 24>
| 25>                          ****END OF INPUT****

CARTESIAN COORDINATES (ANGSTROEM)
---------------------------------
  C     -1.966141   -0.243997    0.652074
  C      1.427449   -0.406198   -0.004522
  C      0.548506    0.597372   -0.160463
  C      1.159927   -1.840030   -0.373853
  C      2.811134   -0.200827    0.559532
  C      0.786607    2.053943    0.137899
  O     -3.126754   -0.539822    0.672071
  S     -1.103623    0.293545   -0.820783
  H     -1.304658   -0.279475    1.536228
  H      1.992891   -2.231161   -0.963195
  H      1.099429   -2.460899    0.524518
  H      0.242889   -1.970157   -0.939207
  H      2.984133    0.790914    0.963815
  H      3.562165   -0.391258   -0.212287
  H      2.996780   -0.925244    1.356070
  H      0.160197    2.390423    0.967818
  H      1.822753    2.273115    0.382174
  H      0.510533    2.664030   -0.723971

 Total Charge           Charge          ....    0
 Multiplicity           Mult            ....    1
 Number of Electrons    NEL             ....   70
 Basis Dimension        Dim             ....  278

ORBITAL ENERGIES
----------------

  NO   OCC          E(Eh)            E(eV)
   0   2.0000     -91.973456     -2502.7250
   1   2.0000     -20.576819      -559.9237
   2   2.0000     -11.371514      -309.4346
   3   2.0000     -11.276802      -306.8574
   4   2.0000     -11.272921      -306.7518
   5   2.0000     -11.245396      -306.0028
   6   2.0000     -11.243004      -305.9377
   7   2.0000     -11.239160      -305.8331
   8   2.0000      -8.975988      -244.2490
   9   2.0000      -6.657692      -181.1650
  10   2.0000      -6.656353      -181.1286
  11   2.0000      -6.654729      -181.0844
  12   2.0000      -1.414491       -38.4903
  13   2.0000      -1.140699       -31.0400
  14   2.0000      -1.046526       -28.4774
  15   2.0000      -0.991426       -26.9781
  16   2.0000      -0.953684       -25.9510
  17   2.0000      -0.893113       -24.3028
  18   2.0000      -0.807104       -21.9624
  19   2.0000      -0.708272       -19.2731
  20   2.0000      -0.670053       -18.2331
  21   2.0000      -0.651095       -17.7172
  22   2.0000      -0.626617       -17.0511
  23   2.0000      -0.613642       -16.6980
  24   2.0000      -0.589778       -16.0487
  25   2.0000      -0.572723       -15.5846
  26   2.0000      -0.557044       -15.1579
  27   2.0000      -0.552152       -15.0248
  28   2.0000      -0.550532       -14.9807
  29   2.0000      -0.533298       -14.5118
  30   2.0000      -0.522807       -14.2263
  31   2.0000      -0.461142       -12.5483
  32   2.0000      -0.421987       -11.4828
  33   2.0000      -0.374613       -10.1937
  34   2.0000      -0.355119        -9.6633
  35   0.0000       0.028865         0.7855
  36   0.0000       0.038960         1.0602
  37   0.0000       0.041967         1.1420
  38   0.0000       0.045637         1.2419
  39   0.0000       0.060164         1.6371

MULLIKEN ATOMIC CHARGES
-----------------------
   0 C :    0.606502
   1 C :   -0.933213
   2 C :   -0.249030
   3 C :    0.431999
   4 C :    0.417218
   5 C :    0.296703
   6 O :   -0.685669
   7 S :    0.084460
   8 H :   -0.086266
   9 H :    0.035314
  10 H :    0.070853
  11 H :   -0.058357
  12 H :   -0.202762
  13 H :    0.112134
  14 H :    0.103416
  15 H :    0.080718
  16 H :   -0.119259
  17 H :    0.095238
Sum of atomic charges:    0.0000000

LOEWDIN ATOMIC CHARGES
----------------------
   0 C :   -0.373790
   1 C :   -0.290034
   2 C :   -0.463650
   3 C :    0.151466
   4 C :    0.178573
   5 C :    0.101225
   6 O :   -0.037386
   7 S :    0.930441
   8 H :   -0.032880
   9 H :   -0.006591
  10 H :   -0.003515
  11 H :   -0.050921
  12 H :   -0.033022
  13 H :   -0.000509
  14 H :   -0.003494
  15 H :   -0.012518
  16 H :   -0.036330
  17 H :   -0.017066

  Mayer bond orders larger than 0.100000
B(  0-C ,  1-C ) :  -0.1268 B(  0-C ,  2-C ) :   0.1073 B(  0-C ,  6-O ) :   1.6131
B(  0-C ,  7-S ) :   1.0065 B(  0-C ,  8-H ) :   0.9170 B(  1-C ,  2-C ) :   2.2274
B(  1-C ,  3-C ) :   1.4177 B(  1-C ,  4-C ) :   1.4399 B(  1-C ,  5-C ) :  -0.1261
B(  1-C ,  9-H ) :   0.1687 B(  1-C , 10-H ) :   0.1910 B(  1-C , 11-H ) :   0.4553
B(  1-C , 12-H ) :   0.5393 B(  1-C , 14-H ) :   0.1611 B(  2-C ,  3-C ) :  -0.1160
B(  2-C ,  4-C ) :  -0.3492 B(  2-C ,  5-C ) :   1.4385 B(  2-C ,  7-S ) :   0.8464
B(  2-C , 11-H ) :  -0.2077 B(  2-C , 12-H ) :  -0.2323 B(  2-C , 15-H ) :   0.1138
B(  2-C , 16-H ) :   0.2039 B(  2-C , 17-H ) :   0.1154 B(  3-C ,  4-C ) :  -0.3009
B(  3-C ,  5-C ) :   0.1002 B(  3-C ,  9-H ) :   0.8501 B(  3-C , 10-H ) :   0.9090
B(  3-C , 11-H ) :   0.6515 B(  4-C , 12-H ) :   0.5989 B(  4-C , 13-H ) :   0.9655
B(  4-C , 14-H ) :   0.8439 B(  5-C , 15-H ) :   0.8403 B(  5-C , 16-H ) :   0.8225
B(  5-C , 17-H ) :   0.8276

MP2 TOTAL ENERGY:     -706.638977242 Eh
FINAL SINGLE POINT ENERGY      -706.638977242030

DIPOLE MOMENT
-------------
                                X             Y             Z
Electronic contribution:    -12.24855       0.29994      -2.60829
Nuclear contribution   :     14.18787      -0.15880       2.95622
                        -----------------------------------------
Total Dipole Moment    :      1.93932       0.14114       0.34792
                        -----------------------------------------
Magnitude (a.u.)       :      1.97533
Magnitude (Debye)      :      5.02090

Rotational constants in cm-1:     0.088805     0.035329     0.029591
Rotational constants in MHz :  2662.312258  1059.141772   887.112436

                             ****ORCA TERMINATED NORMALLY****
TOTAL RUN TIME: 0 days 0 hours 1 minutes 18 seconds 833 msec
