                         Program Version 5.0.3 -  RELEASE  -
|  1> !ri-mp2 aug-cc-pvdz aug-cc-pvdz/c tightscf
|  2> %pal nprocs 16 end
|  3>
|  4> * xyz 0 1
|  5> C      0.590555    1.457337    0.129753
|  6> C      1.694739   -0.815651    0.002549
|  7> C     -0.789368   -0.654893    0.262196
|  8> C      0.447978    0.006154   -0.333326
|  9> O     -1.954191    0.041487   -0.185733
| 10> H      1.450174    1.933176   -0.344932
| 11> H      0.740265    1.505313    1.211861
| 12> H     -0.298201    2.037207   -0.113238
| 13> H      2.583805   -0.370690   -0.445730
| 14> H      1.613928   -1.840373   -0.364710
| 15> H      1.858337   -0.858604    1.082387
| 16> H     -0.832465   -1.704406   -0.050526
| 17> H     -0.727572   -0.631330    1.357984
| 18> H      0.314167    0.004019   -1.419727
| 19> H     -2.732335   -0.363889    0.205458
| 20> *
| 21>
| 22>                          ****END OF INPUT****

CARTESIAN COORDINATES (ANGSTROEM)
---------------------------------
  C      0.590555    1.457337    0.129753
  C      1.694739   -0.815651    0.002549
  C     -0.789368   -0.654893    0.262196
  C      0.447978    0.006154   -0.333326
  O     -1.954191    0.041487   -0.185733
  H      1.450174    1.933176   -0.344932
  H      0.740265    1.505313    1.211861
  H     -0.298201    2.037207   -0.113238
  H      2.583805   -0.370690   -0.445730
  H      1.613928   -1.840373   -0.364710
  H      1.858337   -0.858604    1.082387
  H     -0.832465   -1.704406   -0.050526
  H     -0.727572   -0.631330    1.357984
  H      0.314167    0.004019   -1.419727
  H     -2.732335   -0.363889    0.205458

 Total Charge           Charge          ....    0
 Multiplicity           Mult            ....    1
 Number of Electrons    NEL             ....   42
 Basis Dimension        Dim             ....  205

ORBITAL ENERGIES
----------------

  NO   OCC          E(Eh)            E(eV)
   0   2.0000     -20.564268      -559.5822
   1   2.0000     -11.277239      -306.8693
   2   2.0000     -11.228394      -305.5401
   3   2.0000     -11.219449      -305.2967
   4   2.0000     -11.210093      -305.0421
   5   2.0000      -1.357845       -36.9488
   6   2.0000      -1.078374       -29.3440
   7   2.0000      -0.928426       -25.2638
   8   2.0000      -0.914610       -24.8878
   9   2.0000      -0.770556       -20.9679
  10   2.0000      -0.692166       -18.8348
  11   2.0000      -0.648750       -17.6534
  12   2.0000      -0.605529       -16.4773
  13   2.0000      -0.585238       -15.9251
  14   2.0000      -0.541425       -14.7329
  15   2.0000      -0.532615       -14.4932
  16   2.0000      -0.527047       -14.3417
  17   2.0000      -0.475337       -12.9346
  18   2.0000      -0.471056       -12.8181
  19   2.0000      -0.456209       -12.4141
  20   2.0000      -0.438582       -11.9344
  21   0.0000       0.035865         0.9759
  22   0.0000       0.043483         1.1832
  23   0.0000       0.049063         1.3351
  24   0.0000       0.049983         1.3601
  25   0.0000       0.067401         1.8341

MULLIKEN ATOMIC CHARGES
-----------------------
   0 C :    0.805174
   1 C :    0.784086
   2 C :    1.301474
   3 C :   -1.573067
   4 O :   -0.704514
   5 H :   -0.074045
   6 H :   -0.036248
   7 H :   -0.058750
   8 H :   -0.085756
   9 H :   -0.088358
  10 H :   -0.018242
  11 H :   -0.165520
  12 H :   -0.117697
  13 H :   -0.093583
  14 H :    0.125047
Sum of atomic charges:    0.0000000

LOEWDIN ATOMIC CHARGES
----------------------
   0 C :    0.158064
   1 C :    0.154914
   2 C :   -0.035486
   3 C :   -0.297433
   4 O :    0.115876
   5 H :   -0.015906
   6 H :   -0.012230
   7 H :   -0.017457
   8 H :   -0.014832
   9 H :   -0.016720
  10 H :   -0.012390
  11 H :    0.006008
  12 H :    0.010432
  13 H :    0.039521
  14 H :   -0.062361

  Mayer bond orders larger than 0.100000
B(  0-C ,  1-C ) :  -0.1340 B(  0-C ,  3-C ) :   1.3152 B(  0-C ,  5-H ) :   0.8189
B(  0-C ,  6-H ) :   0.8814 B(  0-C ,  7-H ) :   0.8500 B(  1-C ,  2-C ) :  -0.1154
B(  1-C ,  3-C ) :   1.3610 B(  1-C ,  8-H ) :   0.8106 B(  1-C ,  9-H ) :   0.8357
B(  1-C , 10-H ) :   0.9042 B(  2-C ,  3-C ) :   1.2828 B(  2-C ,  4-O ) :   0.4163
B(  2-C , 11-H ) :   0.8111 B(  2-C , 12-H ) :   0.8846 B(  3-C ,  4-O ) :   0.1732
B(  3-C ,  5-H ) :   0.1190 B(  3-C ,  6-H ) :   0.1268 B(  3-C ,  8-H ) :   0.1499
B(  3-C , 10-H ) :   0.1041 B(  3-C , 11-H ) :   0.1218 B(  3-C , 13-H ) :   0.7589
B(  4-O , 14-H ) :   1.1186

MP2 TOTAL ENERGY:     -232.991215327 Eh
FINAL SINGLE POINT ENERGY      -232.991215326505

DIPOLE MOMENT
-------------
                                X             Y             Z
Electronic contribution:     -4.18534      -0.19041      -0.83569
Nuclear contribution   :      4.19206      -0.30746       1.18750
                        -----------------------------------------
Total Dipole Moment    :      0.00672      -0.49787       0.35181
                        -----------------------------------------
Magnitude (a.u.)       :      0.60966
Magnitude (Debye)      :      1.54964

Rotational constants in cm-1:     0.253051     0.117153     0.088440
Rotational constants in MHz :  7586.275560  3512.161150  2651.378020

                             ****ORCA TERMINATED NORMALLY****
TOTAL RUN TIME: 0 days 0 hours 0 minutes 38 seconds 62 msec
