                         Program Version 5.0.3 -  RELEASE  -
|  1> !ri-mp2 aug-cc-pvdz aug-cc-pvdz/c tightscf
|  2> %pal nprocs 16 end
|  3> %maxcore 3800
|  4>
|  5> * xyz 0 1
|  6> C      0.261359    2.728775    1.263761
|  7> C      0.261359    2.728775   -1.263761
|  8> C      0.261359   -2.190212   -1.255251
|  9> C      0.261359   -2.190212    1.255251
| 10> C     -1.897219   -2.110279    0.000000
| 11> C      0.930924    0.602207    0.000000
| 12> C     -0.435871   -0.089408    0.000000
| 13> C      0.902632    2.145688    0.000000
| 14> C     -0.433736   -1.639048    0.000000
| 15> H      0.722844    2.323751    2.166617
| 16> H     -0.807615    2.513614    1.310589
| 17> H      0.375647    3.813898    1.290358
| 18> H     -0.807615    2.513614   -1.310589
| 19> H      0.375647    3.813898   -1.290358
| 20> H      0.722844    2.323751   -2.166617
| 21> H     -0.197356   -1.795095   -2.164364
| 22> H      1.321852   -1.937870   -1.278005
| 23> H      0.183154   -3.278767   -1.290423
| 24> H      1.321852   -1.937870    1.278005
| 25> H     -0.197356   -1.795095    2.164364
| 26> H      0.183154   -3.278767    1.290423
| 27> H     -2.428479   -1.746411   -0.882025
| 28> H     -2.428479   -1.746411    0.882025
| 29> H     -1.958193   -3.200485    0.000000
| 30> H      1.502655    0.279924   -0.874023
| 31> H      1.502655    0.279924    0.874023
| 32> H     -1.005955    0.238235   -0.873903
| 33> H     -1.005955    0.238235    0.873903
| 34> H      1.951716    2.460219    0.000000
| 35> *
| 36>
| 37>                          ****END OF INPUT****

CARTESIAN COORDINATES (ANGSTROEM)
---------------------------------
  C      0.261359    2.728775    1.263761
  C      0.261359    2.728775   -1.263761
  C      0.261359   -2.190212   -1.255251
  C      0.261359   -2.190212    1.255251
  C     -1.897219   -2.110279    0.000000
  C      0.930924    0.602207    0.000000
  C     -0.435871   -0.089408    0.000000
  C      0.902632    2.145688    0.000000
  C     -0.433736   -1.639048    0.000000
  H      0.722844    2.323751    2.166617
  H     -0.807615    2.513614    1.310589
  H      0.375647    3.813898    1.290358
  H     -0.807615    2.513614   -1.310589
  H      0.375647    3.813898   -1.290358
  H      0.722844    2.323751   -2.166617
  H     -0.197356   -1.795095   -2.164364
  H      1.321852   -1.937870   -1.278005
  H      0.183154   -3.278767   -1.290423
  H      1.321852   -1.937870    1.278005
  H     -0.197356   -1.795095    2.164364
  H      0.183154   -3.278767    1.290423
  H     -2.428479   -1.746411   -0.882025
  H     -2.428479   -1.746411    0.882025
  H     -1.958193   -3.200485    0.000000
  H      1.502655    0.279924   -0.874023
  H      1.502655    0.279924    0.874023
  H     -1.005955    0.238235   -0.873903
  H     -1.005955    0.238235    0.873903
  H      1.951716    2.460219    0.000000

 Total Charge           Charge          ....    0
 Multiplicity           Mult            ....    1
 Number of Electrons    NEL             ....   74
 Basis Dimension        Dim             ....  387

ORBITAL ENERGIES
----------------

  NO   OCC          E(Eh)            E(eV)
   0   2.0000     -11.233991      -305.6924
   1   2.0000     -11.226951      -305.5009
   2   2.0000     -11.215646      -305.1932
   3   2.0000     -11.214511      -305.1623
   4   2.0000     -11.213028      -305.1220
   5   2.0000     -11.213001      -305.1213
   6   2.0000     -11.212017      -305.0945
   7   2.0000     -11.211863      -305.0903
   8   2.0000     -11.211841      -305.0897
   9   2.0000      -1.112250       -30.2659
  10   2.0000      -1.075467       -29.2649
  11   2.0000      -0.973682       -26.4952
  12   2.0000      -0.928458       -25.2646
  13   2.0000      -0.927753       -25.2454
  14   2.0000      -0.926113       -25.2008
  15   2.0000      -0.865882       -23.5618
  16   2.0000      -0.755957       -20.5706
  17   2.0000      -0.720633       -19.6094
  18   2.0000      -0.635160       -17.2836
  19   2.0000      -0.627790       -17.0830
  20   2.0000      -0.601678       -16.3725
  21   2.0000      -0.592519       -16.1232
  22   2.0000      -0.591521       -16.0961
  23   2.0000      -0.578024       -15.7288
  24   2.0000      -0.550088       -14.9687
  25   2.0000      -0.541215       -14.7272
  26   2.0000      -0.530514       -14.4360
  27   2.0000      -0.513826       -13.9819
  28   2.0000      -0.508317       -13.8320
  29   2.0000      -0.507072       -13.7981
  30   2.0000      -0.485655       -13.2153
  31   2.0000      -0.473063       -12.8727
  32   2.0000      -0.464186       -12.6311
  33   2.0000      -0.457662       -12.4536
  34   2.0000      -0.442861       -12.0508
  35   2.0000      -0.431105       -11.7310
  36   2.0000      -0.424319       -11.5463
  37   0.0000       0.034995         0.9523
  38   0.0000       0.040481         1.1015
  39   0.0000       0.042861         1.1663
  40   0.0000       0.043963         1.1963
  41   0.0000       0.055836         1.5194

MULLIKEN ATOMIC CHARGES
-----------------------
   0 C :    0.856174
   1 C :    0.856174
   2 C :    1.314836
   3 C :    1.314836
   4 C :    1.501436
   5 C :    0.488260
   6 C :    1.281970
   7 C :   -1.109149
   8 C :   -4.382310
   9 H :   -0.072632
  10 H :   -0.040794
  11 H :   -0.129563
  12 H :   -0.040794
  13 H :   -0.129563
  14 H :   -0.072632
  15 H :   -0.026257
  16 H :   -0.071380
  17 H :   -0.067261
  18 H :   -0.071380
  19 H :   -0.026257
  20 H :   -0.067261
  21 H :   -0.036671
  22 H :   -0.036671
  23 H :   -0.040518
  24 H :   -0.247035
  25 H :   -0.247035
  26 H :   -0.293456
  27 H :   -0.293456
  28 H :   -0.111609
Sum of atomic charges:    0.0000000

LOEWDIN ATOMIC CHARGES
----------------------
   0 C :    0.157029
   1 C :    0.157029
   2 C :    0.173667
   3 C :    0.173667
   4 C :    0.170422
   5 C :   -0.000157
   6 C :    0.008914
   7 C :   -0.271598
   8 C :   -0.486260
   9 H :   -0.011745
  10 H :   -0.018446
  11 H :   -0.015412
  12 H :   -0.018446
  13 H :   -0.015412
  14 H :   -0.011745
  15 H :   -0.004235
  16 H :   -0.016124
  17 H :   -0.008449
  18 H :   -0.016124
  19 H :   -0.004235
  20 H :   -0.008449
  21 H :   -0.007716
  22 H :   -0.007716
  23 H :   -0.009590
  24 H :    0.011858
  25 H :    0.011858
  26 H :    0.015869
  27 H :    0.015869
  28 H :    0.035672

  Mayer bond orders larger than 0.100000
B(  0-C ,  1-C ) :  -0.2003 B(  0-C ,  5-C ) :  -0.1034 B(  0-C ,  7-C ) :   1.3440
B(  0-C ,  9-H ) :   0.7952 B(  0-C , 10-H ) :   0.8829 B(  0-C , 11-H ) :   0.7983
B(  1-C ,  5-C ) :  -0.1034 B(  1-C ,  7-C ) :   1.3440 B(  1-C , 12-H ) :   0.8829
B(  1-C , 13-H ) :   0.7983 B(  1-C , 14-H ) :   0.7952 B(  2-C ,  3-C ) :  -0.1256
B(  2-C ,  8-C ) :   1.2509 B(  2-C , 15-H ) :   0.7021 B(  2-C , 16-H ) :   0.7177
B(  2-C , 17-H ) :   0.6620 B(  3-C ,  8-C ) :   1.2509 B(  3-C , 18-H ) :   0.7177
B(  3-C , 19-H ) :   0.7021 B(  3-C , 20-H ) :   0.6620 B(  4-C ,  8-C ) :   0.9129
B(  4-C , 21-H ) :   0.6907 B(  4-C , 22-H ) :   0.6907 B(  4-C , 23-H ) :   0.7050
B(  5-C ,  6-C ) :   1.0115 B(  5-C ,  7-C ) :   1.2744 B(  5-C ,  8-C ) :   0.2050
B(  5-C , 24-H ) :   0.7121 B(  5-C , 25-H ) :   0.7121 B(  5-C , 28-H ) :   0.1581
B(  6-C ,  7-C ) :  -0.1206 B(  6-C ,  8-C ) :   0.2183 B(  6-C , 26-H ) :   0.5188
B(  6-C , 27-H ) :   0.5188 B(  7-C , 10-H ) :   0.1423 B(  7-C , 11-H ) :   0.1352
B(  7-C , 12-H ) :   0.1423 B(  7-C , 13-H ) :   0.1352 B(  7-C , 24-H ) :   0.1260
B(  7-C , 25-H ) :   0.1260 B(  7-C , 28-H ) :   0.5709 B(  8-C , 15-H ) :   0.2432
B(  8-C , 16-H ) :   0.1622 B(  8-C , 17-H ) :   0.2221 B(  8-C , 18-H ) :   0.1622
B(  8-C , 19-H ) :   0.2432 B(  8-C , 20-H ) :   0.2221 B(  8-C , 21-H ) :   0.2004
B(  8-C , 22-H ) :   0.2004 B(  8-C , 23-H ) :   0.2019 B(  8-C , 26-H ) :   0.3368
B(  8-C , 27-H ) :   0.3368 B(  9-H , 11-H ) :  -0.1099 B( 13-H , 14-H ) :  -0.1099
B( 15-H , 16-H ) :  -0.1108 B( 15-H , 17-H ) :  -0.1154 B( 16-H , 17-H ) :  -0.1097
B( 18-H , 19-H ) :  -0.1108 B( 18-H , 20-H ) :  -0.1097 B( 19-H , 20-H ) :  -0.1154
B( 21-H , 22-H ) :  -0.1074 B( 21-H , 23-H ) :  -0.1107 B( 22-H , 23-H ) :  -0.1107
B( 24-H , 25-H ) :  -0.1797 B( 26-H , 27-H ) :  -0.2135

MP2 TOTAL ENERGY:     -353.873653937 Eh
FINAL SINGLE POINT ENERGY      -353.873653936505

DIPOLE MOMENT
-------------
                                X             Y             Z
Electronic contribution:      0.78447      -0.06959      -0.00000
Nuclear contribution   :     -0.72923       0.08917       0.00000
                        -----------------------------------------
Total Dipole Moment    :      0.05525       0.01958      -0.00000
                        -----------------------------------------
Magnitude (a.u.)       :      0.05861
Magnitude (Debye)      :      0.14898

Rotational constants in cm-1:     0.087484     0.025741     0.024478
Rotational constants in MHz :  2622.708656   771.685710   733.826736

                             ****ORCA TERMINATED NORMALLY****
TOTAL RUN TIME: 0 days 0 hours 2 minutes 37 seconds 568 msec
