                         Program Version 5.0.3 -  RELEASE  -
|  1> !ri-mp2 aug-cc-pvdz aug-cc-pvdz/c tightscf
|  2> %pal nprocs 16 end
|  3>
|  4> * xyz 0 1
|  5> C     -2.338453    1.106760    0.151750
|  6> C     -2.887654   -0.169877    0.191707
|  7> C     -0.990243    1.249733   -0.135297
|  8> C     -2.057419   -1.252130   -0.061697
|  9> C     -0.261460    0.091175   -0.369070
| 10> C      2.022769   -0.010003    0.246139
| 11> C      3.397877   -0.012120   -0.356274
| 12> N     -0.757678   -1.126595   -0.342613
| 13> O      1.751515   -0.164505    1.402471
| 14> O      1.078492    0.204899   -0.727454
| 15> H     -2.950154    1.977738    0.343578
| 16> H     -3.933897   -0.324461    0.412893
| 17> H     -0.509700    2.215713   -0.177084
| 18> H     -2.444289   -2.263759   -0.042752
| 19> H      3.510688   -0.894802   -0.986722
| 20> H      4.140400   -0.030768    0.435030
| 21> H      3.538129    0.862122   -0.990340
| 22> *
| 23>
| 24>                          ****END OF INPUT****

CARTESIAN COORDINATES (ANGSTROEM)
---------------------------------
  C     -2.338453    1.106760    0.151750
  C     -2.887654   -0.169877    0.191707
  C     -0.990243    1.249733   -0.135297
  C     -2.057419   -1.252130   -0.061697
  C     -0.261460    0.091175   -0.369070
  C      2.022769   -0.010003    0.246139
  C      3.397877   -0.012120   -0.356274
  N     -0.757678   -1.126595   -0.342613
  O      1.751515   -0.164505    1.402471
  O      1.078492    0.204899   -0.727454
  H     -2.950154    1.977738    0.343578
  H     -3.933897   -0.324461    0.412893
  H     -0.509700    2.215713   -0.177084
  H     -2.444289   -2.263759   -0.042752
  H      3.510688   -0.894802   -0.986722
  H      4.140400   -0.030768    0.435030
  H      3.538129    0.862122   -0.990340

 Total Charge           Charge          ....    0
 Multiplicity           Mult            ....    1
 Number of Electrons    NEL             ....   72
 Basis Dimension        Dim             ....  293

ORBITAL ENERGIES
----------------

  NO   OCC          E(Eh)            E(eV)
   0   2.0000     -20.622867      -561.1767
   1   2.0000     -20.563263      -559.5548
   2   2.0000     -15.580330      -423.9623
   3   2.0000     -11.399824      -310.2050
   4   2.0000     -11.350062      -308.8509
   5   2.0000     -11.290520      -307.2307
   6   2.0000     -11.273271      -306.7613
   7   2.0000     -11.254512      -306.2508
   8   2.0000     -11.252083      -306.1847
   9   2.0000     -11.250708      -306.1473
  10   2.0000      -1.478807       -40.2404
  11   2.0000      -1.383157       -37.6376
  12   2.0000      -1.272410       -34.6240
  13   2.0000      -1.104239       -30.0479
  14   2.0000      -1.058353       -28.7992
  15   2.0000      -1.015073       -27.6215
  16   2.0000      -0.885193       -24.0873
  17   2.0000      -0.880922       -23.9711
  18   2.0000      -0.800276       -21.7766
  19   2.0000      -0.720085       -19.5945
  20   2.0000      -0.701803       -19.0970
  21   2.0000      -0.693136       -18.8612
  22   2.0000      -0.684192       -18.6178
  23   2.0000      -0.635934       -17.3046
  24   2.0000      -0.634852       -17.2752
  25   2.0000      -0.594847       -16.1866
  26   2.0000      -0.588473       -16.0132
  27   2.0000      -0.574374       -15.6295
  28   2.0000      -0.550790       -14.9878
  29   2.0000      -0.544541       -14.8177
  30   2.0000      -0.536003       -14.5854
  31   2.0000      -0.483550       -13.1581
  32   2.0000      -0.458234       -12.4692
  33   2.0000      -0.433286       -11.7903
  34   2.0000      -0.392788       -10.6883
  35   2.0000      -0.350716        -9.5435
  36   0.0000       0.031591         0.8596
  37   0.0000       0.037306         1.0152
  38   0.0000       0.042232         1.1492
  39   0.0000       0.053108         1.4451
  40   0.0000       0.056887         1.5480

MULLIKEN ATOMIC CHARGES
-----------------------
   0 C :   -0.142028
   1 C :    1.018424
   2 C :    0.922809
   3 C :    0.346002
   4 C :    0.822224
   5 C :    0.621425
   6 C :    0.266303
   7 N :   -0.487126
   8 O :   -0.691043
   9 O :   -1.046734
  10 H :   -0.394788
  11 H :   -0.422704
  12 H :   -0.518905
  13 H :   -0.357562
  14 H :    0.053264
  15 H :   -0.009572
  16 H :    0.020012
Sum of atomic charges:    0.0000000

LOEWDIN ATOMIC CHARGES
----------------------
   0 C :    0.029490
   1 C :    0.020490
   2 C :    0.071793
   3 C :   -0.013746
   4 C :   -0.248493
   5 C :   -0.333733
   6 C :    0.209929
   7 N :    0.081232
   8 O :    0.066851
   9 O :    0.105144
  10 H :    0.010068
  11 H :   -0.001255
  12 H :    0.010213
  13 H :    0.004450
  14 H :   -0.000652
  15 H :   -0.005528
  16 H :   -0.006254

  Mayer bond orders larger than 0.100000
B(  0-C ,  1-C ) :   1.4285 B(  0-C ,  2-C ) :   1.5470 B(  0-C ,  3-C ) :   0.3588
B(  0-C ,  4-C ) :   0.3755 B(  0-C , 10-H ) :   0.5952 B(  0-C , 11-H ) :   0.2538
B(  0-C , 12-H ) :   0.2772 B(  1-C ,  3-C ) :   1.1209 B(  1-C ,  4-C ) :  -0.1356
B(  1-C , 11-H ) :   0.4759 B(  2-C ,  3-C ) :  -0.2059 B(  2-C ,  4-C ) :   0.8443
B(  2-C ,  9-O ) :   0.1954 B(  2-C , 10-H ) :   0.1030 B(  2-C , 12-H ) :   0.3002
B(  3-C ,  4-C ) :   0.3830 B(  3-C ,  7-N ) :   1.1662 B(  3-C , 13-H ) :   0.9536
B(  4-C ,  5-C ) :  -0.1526 B(  4-C ,  7-N ) :   1.3550 B(  4-C ,  9-O ) :  -0.2617
B(  4-C , 12-H ) :   0.1823 B(  5-C ,  6-C ) :   1.0899 B(  5-C ,  8-O ) :   1.5575
B(  5-C ,  9-O ) :   1.0119 B(  5-C , 15-H ) :   0.1137 B(  6-C , 14-H ) :   0.9573
B(  6-C , 15-H ) :   0.8665 B(  6-C , 16-H ) :   0.9619 B(  7-N , 13-H ) :  -0.1512

MP2 TOTAL ENERGY:     -474.899521039 Eh
FINAL SINGLE POINT ENERGY      -474.899521038888

DIPOLE MOMENT
-------------
                                X             Y             Z
Electronic contribution:     -1.73050      -0.80654       0.43441
Nuclear contribution   :      1.37190       1.51434      -0.98284
                        -----------------------------------------
Total Dipole Moment    :     -0.35861       0.70780      -0.54842
                        -----------------------------------------
Magnitude (a.u.)       :      0.96454
Magnitude (Debye)      :      2.45167

Rotational constants in cm-1:     0.123810     0.027423     0.025806
Rotational constants in MHz :  3711.735597   822.131514   773.649786

                             ****ORCA TERMINATED NORMALLY****
TOTAL RUN TIME: 0 days 0 hours 1 minutes 17 seconds 823 msec
