                         Program Version 5.0.3 -  RELEASE  -
|  1> !ri-mp2 aug-cc-pvdz aug-cc-pvdz/c tightscf
|  2> %pal nprocs 16 end
|  3>
|  4> * xyz 0 1
|  5> C      1.153465    1.135016   -0.007007
|  6> C      0.013587   -0.948032   -0.008764
|  7> C     -0.091847    1.747296    0.002284
|  8> C      1.221900   -0.256301   -0.010428
|  9> C     -1.196914   -0.255109    0.000772
| 10> C      2.541088   -0.977755    0.007212
| 11> C     -2.516394   -0.975301    0.001562
| 12> N     -1.245756    1.082383    0.006775
| 13> H      2.053167    1.736401   -0.014432
| 14> H      0.010024   -2.030698   -0.017846
| 15> H     -0.165664    2.829419    0.003732
| 16> H      2.444441   -1.995475   -0.368921
| 17> H      3.285505   -0.457038   -0.595106
| 18> H      2.932172   -1.038201    1.025756
| 19> H     -2.388031   -2.056557   -0.001058
| 20> H     -3.098551   -0.693608    0.880030
| 21> H     -3.102079   -0.689810   -0.873359
| 22> *
| 23>
| 24>                          ****END OF INPUT****

CARTESIAN COORDINATES (ANGSTROEM)
---------------------------------
  C      1.153465    1.135016   -0.007007
  C      0.013587   -0.948032   -0.008764
  C     -0.091847    1.747296    0.002284
  C      1.221900   -0.256301   -0.010428
  C     -1.196914   -0.255109    0.000772
  C      2.541088   -0.977755    0.007212
  C     -2.516394   -0.975301    0.001562
  N     -1.245756    1.082383    0.006775
  H      2.053167    1.736401   -0.014432
  H      0.010024   -2.030698   -0.017846
  H     -0.165664    2.829419    0.003732
  H      2.444441   -1.995475   -0.368921
  H      3.285505   -0.457038   -0.595106
  H      2.932172   -1.038201    1.025756
  H     -2.388031   -2.056557   -0.001058
  H     -3.098551   -0.693608    0.880030
  H     -3.102079   -0.689810   -0.873359

 Total Charge           Charge          ....    0
 Multiplicity           Mult            ....    1
 Number of Electrons    NEL             ....   58
 Basis Dimension        Dim             ....  265

ORBITAL ENERGIES
----------------

  NO   OCC          E(Eh)            E(eV)
   0   2.0000     -15.558188      -423.3598
   1   2.0000     -11.281434      -306.9834
   2   2.0000     -11.274439      -306.7931
   3   2.0000     -11.265923      -306.5614
   4   2.0000     -11.240778      -305.8771
   5   2.0000     -11.232695      -305.6572
   6   2.0000     -11.232628      -305.6554
   7   2.0000     -11.226267      -305.4823
   8   2.0000      -1.257099       -34.2074
   9   2.0000      -1.107591       -30.1391
  10   2.0000      -1.054932       -28.7062
  11   2.0000      -0.970686       -26.4137
  12   2.0000      -0.948053       -25.7978
  13   2.0000      -0.845591       -23.0097
  14   2.0000      -0.798067       -21.7165
  15   2.0000      -0.682297       -18.5663
  16   2.0000      -0.675566       -18.3831
  17   2.0000      -0.633726       -17.2445
  18   2.0000      -0.592546       -16.1240
  19   2.0000      -0.575388       -15.6571
  20   2.0000      -0.574306       -15.6277
  21   2.0000      -0.562311       -15.3013
  22   2.0000      -0.549625       -14.9561
  23   2.0000      -0.530696       -14.4410
  24   2.0000      -0.506443       -13.7810
  25   2.0000      -0.498624       -13.5683
  26   2.0000      -0.406994       -11.0749
  27   2.0000      -0.364575        -9.9206
  28   2.0000      -0.333710        -9.0807
  29   0.0000       0.032857         0.8941
  30   0.0000       0.039901         1.0858
  31   0.0000       0.042574         1.1585
  32   0.0000       0.052433         1.4268
  33   0.0000       0.056257         1.5308

MULLIKEN ATOMIC CHARGES
-----------------------
   0 C :    0.991736
   1 C :    0.999845
   2 C :    0.330278
   3 C :   -0.642262
   4 C :   -0.396296
   5 C :    0.439807
   6 C :    0.480445
   7 N :   -0.804220
   8 H :   -0.557439
   9 H :   -0.577501
  10 H :   -0.350950
  11 H :   -0.109740
  12 H :   -0.019911
  13 H :    0.124923
  14 H :   -0.107156
  15 H :    0.096874
  16 H :    0.101565
Sum of atomic charges:    0.0000000

LOEWDIN ATOMIC CHARGES
----------------------
   0 C :    0.043750
   1 C :    0.076372
   2 C :   -0.028118
   3 C :   -0.213241
   4 C :   -0.256079
   5 C :    0.185237
   6 C :    0.185040
   7 N :    0.054469
   8 H :    0.002140
   9 H :    0.003900
  10 H :    0.002280
  11 H :   -0.012747
  12 H :   -0.009914
  13 H :   -0.002085
  14 H :   -0.017232
  15 H :   -0.006931
  16 H :   -0.006840

  Mayer bond orders larger than 0.100000
B(  0-C ,  2-C ) :   1.0634 B(  0-C ,  3-C ) :   1.4126 B(  0-C ,  5-C ) :  -0.2424
B(  0-C ,  7-N ) :  -0.1579 B(  1-C ,  2-C ) :  -0.2362 B(  1-C ,  3-C ) :   1.7938
B(  1-C ,  4-C ) :   1.3408 B(  1-C ,  5-C ) :  -0.4205 B(  1-C ,  6-C ) :  -0.4217
B(  1-C ,  9-H ) :   0.1173 B(  1-C , 11-H ) :  -0.1810 B(  1-C , 14-H ) :  -0.2455
B(  2-C ,  3-C ) :   0.1869 B(  2-C ,  7-N ) :   1.3913 B(  2-C ,  8-H ) :   0.1313
B(  2-C , 10-H ) :   0.8286 B(  3-C ,  4-C ) :   0.1732 B(  3-C ,  5-C ) :   1.4422
B(  3-C ,  6-C ) :   0.1854 B(  3-C ,  7-N ) :   0.1498 B(  3-C ,  8-H ) :   0.4927
B(  3-C ,  9-H ) :   0.4679 B(  3-C , 11-H ) :   0.4378 B(  3-C , 12-H ) :   0.1544
B(  3-C , 13-H ) :   0.1520 B(  4-C ,  6-C ) :   1.3341 B(  4-C ,  7-N ) :   1.1913
B(  4-C ,  8-H ) :  -0.1044 B(  4-C , 14-H ) :   0.4742 B(  5-C ,  8-H ) :   0.1033
B(  5-C , 11-H ) :   0.6659 B(  5-C , 12-H ) :   0.8477 B(  5-C , 13-H ) :   0.9181
B(  6-C , 14-H ) :   0.6938 B(  6-C , 15-H ) :   0.8842 B(  6-C , 16-H ) :   0.8823

MP2 TOTAL ENERGY:     -325.950253273 Eh
FINAL SINGLE POINT ENERGY      -325.950253273275

DIPOLE MOMENT
-------------
                                X             Y             Z
Electronic contribution:     -1.22417       3.89384      -0.02949
Nuclear contribution   :      1.99615      -4.46181       0.03948
                        -----------------------------------------
Total Dipole Moment    :      0.77198      -0.56797       0.00999
                        -----------------------------------------
Magnitude (a.u.)       :      0.95845
Magnitude (Debye)      :      2.43619

Rotational constants in cm-1:     0.127215     0.059218     0.041020
Rotational constants in MHz :  3813.819786  1775.310780  1229.736122

                             ****ORCA TERMINATED NORMALLY****
TOTAL RUN TIME: 0 days 0 hours 1 minutes 16 seconds 411 msec
