                         Program Version 5.0.3 -  RELEASE  -
|  1> !ri-mp2 aug-cc-pvdz aug-cc-pvdz/c tightscf
|  2> %pal nprocs 16 end
|  3>
|  4> * xyz 0 1
|  5> O     -2.033653    0.612083   -0.561323
|  6> N     -1.365160   -1.096229    0.782146
|  7> N      1.209013    2.325640    0.584750
|  8> N      1.852388   -1.914574   -0.073469
|  9> C      0.319024    0.144506   -0.545846
| 10> C     -1.174935   -0.099455   -0.102612
| 11> C      0.820959    1.367480    0.085232
| 12> C      1.211308   -0.986418   -0.292477
| 13> H      0.261923    0.314072   -1.623641
| 14> H     -0.620032   -1.690702    1.101554
| 15> H     -2.304488   -1.280568    1.092902
| 16> *
| 17>
| 18>                          ****END OF INPUT****

CARTESIAN COORDINATES (ANGSTROEM)
---------------------------------
  O     -2.033653    0.612083   -0.561323
  N     -1.365160   -1.096229    0.782146
  N      1.209013    2.325640    0.584750
  N      1.852388   -1.914574   -0.073469
  C      0.319024    0.144506   -0.545846
  C     -1.174935   -0.099455   -0.102612
  C      0.820959    1.367480    0.085232
  C      1.211308   -0.986418   -0.292477
  H      0.261923    0.314072   -1.623641
  H     -0.620032   -1.690702    1.101554
  H     -2.304488   -1.280568    1.092902

 Total Charge           Charge          ....    0
 Multiplicity           Mult            ....    1
 Number of Electrons    NEL             ....   56
 Basis Dimension        Dim             ....  211

ORBITAL ENERGIES
----------------

  NO   OCC          E(Eh)            E(eV)
   0   2.0000     -20.583680      -560.1104
   1   2.0000     -15.641474      -425.6261
   2   2.0000     -15.635048      -425.4513
   3   2.0000     -15.621004      -425.0691
   4   2.0000     -11.427957      -310.9705
   5   2.0000     -11.380446      -309.6777
   6   2.0000     -11.335027      -308.4418
   7   2.0000     -11.323201      -308.1200
   8   2.0000      -1.446961       -39.3738
   9   2.0000      -1.287653       -35.0388
  10   2.0000      -1.266335       -34.4587
  11   2.0000      -1.262542       -34.3555
  12   2.0000      -1.133322       -30.8392
  13   2.0000      -0.876175       -23.8419
  14   2.0000      -0.814684       -22.1687
  15   2.0000      -0.794774       -21.6269
  16   2.0000      -0.758253       -20.6331
  17   2.0000      -0.695309       -18.9203
  18   2.0000      -0.656322       -17.8594
  19   2.0000      -0.615250       -16.7418
  20   2.0000      -0.608182       -16.5495
  21   2.0000      -0.590616       -16.0715
  22   2.0000      -0.539615       -14.6837
  23   2.0000      -0.521814       -14.1993
  24   2.0000      -0.507502       -13.8098
  25   2.0000      -0.501521       -13.6471
  26   2.0000      -0.464758       -12.6467
  27   2.0000      -0.460303       -12.5255
  28   0.0000       0.022511         0.6126
  29   0.0000       0.034605         0.9416
  30   0.0000       0.055237         1.5031
  31   0.0000       0.070851         1.9280
  32   0.0000       0.083598         2.2748

MULLIKEN ATOMIC CHARGES
-----------------------
   0 O :   -0.775980
   1 N :   -0.208769
   2 N :   -0.297777
   3 N :   -0.314864
   4 C :    0.551569
   5 C :    1.007015
   6 C :   -0.203821
   7 C :    0.035630
   8 H :    0.203395
   9 H :    0.017444
  10 H :   -0.013842
Sum of atomic charges:   -0.0000000

LOEWDIN ATOMIC CHARGES
----------------------
   0 O :    0.061183
   1 N :    0.304739
   2 N :    0.121220
   3 N :    0.122824
   4 C :   -0.139846
   5 C :   -0.324856
   6 C :   -0.095494
   7 C :   -0.111299
   8 H :    0.068092
   9 H :   -0.019402
  10 H :    0.012839

  Mayer bond orders larger than 0.100000
B(  0-O ,  5-C ) :   1.3353 B(  1-N ,  5-C ) :   1.0104 B(  1-N ,  9-H ) :   1.0370
B(  1-N , 10-H ) :   1.1115 B(  2-N ,  4-C ) :  -0.1155 B(  2-N ,  6-C ) :   2.6781
B(  3-N ,  4-C ) :  -0.1535 B(  3-N ,  7-C ) :   2.7922 B(  4-C ,  5-C ) :   0.7747
B(  4-C ,  6-C ) :   0.3351 B(  4-C ,  7-C ) :   0.5202 B(  4-C ,  8-H ) :   0.7957
B(  5-C ,  6-C ) :   0.1929 B(  6-C ,  7-C ) :   0.2952 B(  9-H , 10-H ) :  -0.1011

MP2 TOTAL ENERGY:     -392.682262250 Eh
FINAL SINGLE POINT ENERGY      -392.682262249996

DIPOLE MOMENT
-------------
                                X             Y             Z
Electronic contribution:      1.96245       1.32360      -0.59839
Nuclear contribution   :     -2.58833      -2.55639       0.54911
                        -----------------------------------------
Total Dipole Moment    :     -0.62588      -1.23279      -0.04927
                        -----------------------------------------
Magnitude (a.u.)       :      1.38344
Magnitude (Debye)      :      3.51643

Rotational constants in cm-1:     0.077837     0.070503     0.042223
Rotational constants in MHz :  2333.503935  2113.630633  1265.807245

                             ****ORCA TERMINATED NORMALLY****
TOTAL RUN TIME: 0 days 0 hours 0 minutes 49 seconds 759 msec
