                         Program Version 5.0.3 -  RELEASE  -
|  1> !ri-mp2 aug-cc-pvdz aug-cc-pvdz/c tightscf
|  2> %pal nprocs 16 end
|  3> %maxcore 3800
|  4>
|  5> * xyz 0 1
|  6> C     -1.846468    1.363840   -0.077215
|  7> C     -2.662406   -1.005759   -0.096294
|  8> C      2.238415   -1.049347   -0.534903
|  9> C      1.347049    0.062739    1.517236
| 10> C      1.470851    1.310380   -0.660535
| 11> C     -0.206189   -0.619162   -0.388682
| 12> C     -1.491679   -0.085189    0.274492
| 13> C      1.189357   -0.053191   -0.006364
| 14> H     -1.878530    1.507566   -1.160137
| 15> H     -2.830639    1.621044    0.318884
| 16> H     -1.136791    2.079950    0.332372
| 17> H     -2.842778   -0.992361   -1.174393
| 18> H     -3.583115   -0.688469    0.396236
| 19> H     -2.465759   -2.039230    0.193579
| 20> H      2.126690   -2.027904   -0.064042
| 21> H      3.250825   -0.693599   -0.333918
| 22> H      2.141559   -1.185634   -1.614225
| 23> H      2.366909    0.355952    1.774490
| 24> H      0.675201    0.809842    1.941318
| 25> H      1.141903   -0.890029    2.010264
| 26> H      0.817786    2.095891   -0.286579
| 27> H      2.499514    1.619425   -0.462797
| 28> H      1.343993    1.257474   -1.743806
| 29> H     -0.175142   -1.692454   -0.177183
| 30> H     -0.319174   -0.537597   -1.476057
| 31> H     -1.366031   -0.145726    1.359582
| 32> *
| 33>
| 34>                          ****END OF INPUT****

CARTESIAN COORDINATES (ANGSTROEM)
---------------------------------
  C     -1.846468    1.363840   -0.077215
  C     -2.662406   -1.005759   -0.096294
  C      2.238415   -1.049347   -0.534903
  C      1.347049    0.062739    1.517236
  C      1.470851    1.310380   -0.660535
  C     -0.206189   -0.619162   -0.388682
  C     -1.491679   -0.085189    0.274492
  C      1.189357   -0.053191   -0.006364
  H     -1.878530    1.507566   -1.160137
  H     -2.830639    1.621044    0.318884
  H     -1.136791    2.079950    0.332372
  H     -2.842778   -0.992361   -1.174393
  H     -3.583115   -0.688469    0.396236
  H     -2.465759   -2.039230    0.193579
  H      2.126690   -2.027904   -0.064042
  H      3.250825   -0.693599   -0.333918
  H      2.141559   -1.185634   -1.614225
  H      2.366909    0.355952    1.774490
  H      0.675201    0.809842    1.941318
  H      1.141903   -0.890029    2.010264
  H      0.817786    2.095891   -0.286579
  H      2.499514    1.619425   -0.462797
  H      1.343993    1.257474   -1.743806
  H     -0.175142   -1.692454   -0.177183
  H     -0.319174   -0.537597   -1.476057
  H     -1.366031   -0.145726    1.359582

 Total Charge           Charge          ....    0
 Multiplicity           Mult            ....    1
 Number of Electrons    NEL             ....   66
 Basis Dimension        Dim             ....  346

ORBITAL ENERGIES
----------------

  NO   OCC          E(Eh)            E(eV)
   0   2.0000     -11.235255      -305.7268
   1   2.0000     -11.226933      -305.5004
   2   2.0000     -11.215853      -305.1989
   3   2.0000     -11.213645      -305.1388
   4   2.0000     -11.213138      -305.1250
   5   2.0000     -11.213079      -305.1234
   6   2.0000     -11.212339      -305.1032
   7   2.0000     -11.211042      -305.0680
   8   2.0000      -1.112332       -30.2681
   9   2.0000      -1.059622       -28.8338
  10   2.0000      -0.934570       -25.4309
  11   2.0000      -0.929280       -25.2870
  12   2.0000      -0.921277       -25.0692
  13   2.0000      -0.916137       -24.9293
  14   2.0000      -0.778574       -21.1861
  15   2.0000      -0.723249       -19.6806
  16   2.0000      -0.638007       -17.3610
  17   2.0000      -0.615669       -16.7532
  18   2.0000      -0.609329       -16.5807
  19   2.0000      -0.591164       -16.0864
  20   2.0000      -0.569645       -15.5008
  21   2.0000      -0.553861       -15.0713
  22   2.0000      -0.539854       -14.6902
  23   2.0000      -0.533916       -14.5286
  24   2.0000      -0.525916       -14.3109
  25   2.0000      -0.509116       -13.8538
  26   2.0000      -0.504622       -13.7315
  27   2.0000      -0.489502       -13.3200
  28   2.0000      -0.468071       -12.7369
  29   2.0000      -0.462920       -12.5967
  30   2.0000      -0.444512       -12.0958
  31   2.0000      -0.436078       -11.8663
  32   2.0000      -0.425028       -11.5656
  33   0.0000       0.036054         0.9811
  34   0.0000       0.042319         1.1515
  35   0.0000       0.044325         1.2061
  36   0.0000       0.045251         1.2313
  37   0.0000       0.059538         1.6201

MULLIKEN ATOMIC CHARGES
-----------------------
   0 C :    0.897654
   1 C :    0.792791
   2 C :    1.465726
   3 C :    1.294126
   4 C :    1.242914
   5 C :    1.264072
   6 C :   -1.157608
   7 C :   -4.083304
   8 H :   -0.045964
   9 H :   -0.165246
  10 H :   -0.108366
  11 H :   -0.010358
  12 H :   -0.077075
  13 H :   -0.102017
  14 H :   -0.077028
  15 H :   -0.093411
  16 H :   -0.009006
  17 H :   -0.101364
  18 H :   -0.064789
  19 H :   -0.023601
  20 H :   -0.127098
  21 H :   -0.003286
  22 H :   -0.065178
  23 H :   -0.213235
  24 H :   -0.188016
  25 H :   -0.241334
Sum of atomic charges:    0.0000000

LOEWDIN ATOMIC CHARGES
----------------------
   0 C :    0.160661
   1 C :    0.155750
   2 C :    0.167019
   3 C :    0.171223
   4 C :    0.175613
   5 C :    0.028392
   6 C :   -0.267049
   7 C :   -0.474786
   8 H :   -0.004998
   9 H :   -0.015202
  10 H :   -0.033635
  11 H :   -0.009473
  12 H :   -0.016416
  13 H :   -0.015847
  14 H :   -0.009298
  15 H :   -0.010191
  16 H :   -0.005492
  17 H :   -0.007973
  18 H :   -0.012362
  19 H :   -0.002625
  20 H :   -0.030810
  21 H :   -0.008131
  22 H :   -0.004560
  23 H :    0.016312
  24 H :    0.026314
  25 H :    0.027565

  Mayer bond orders larger than 0.100000
B(  0-C ,  1-C ) :  -0.1995 B(  0-C ,  5-C ) :  -0.1307 B(  0-C ,  6-C ) :   1.3891
B(  0-C ,  7-C ) :   0.1077 B(  0-C ,  8-H ) :   0.8070 B(  0-C ,  9-H ) :   0.7997
B(  0-C , 10-H ) :   0.8118 B(  1-C ,  5-C ) :  -0.1018 B(  1-C ,  6-C ) :   1.4410
B(  1-C , 11-H ) :   0.8622 B(  1-C , 12-H ) :   0.7980 B(  1-C , 13-H ) :   0.7774
B(  2-C ,  3-C ) :  -0.1176 B(  2-C ,  4-C ) :  -0.1550 B(  2-C ,  7-C ) :   1.2274
B(  2-C , 14-H ) :   0.6856 B(  2-C , 15-H ) :   0.6714 B(  2-C , 16-H ) :   0.6985
B(  3-C ,  4-C ) :  -0.1360 B(  3-C ,  7-C ) :   1.3549 B(  3-C , 17-H ) :   0.6737
B(  3-C , 18-H ) :   0.7165 B(  3-C , 19-H ) :   0.6799 B(  4-C ,  7-C ) :   1.5014
B(  4-C , 20-H ) :   0.7489 B(  4-C , 21-H ) :   0.6608 B(  4-C , 22-H ) :   0.6885
B(  5-C ,  6-C ) :   1.0189 B(  5-C ,  7-C ) :   0.4416 B(  5-C , 23-H ) :   0.5610
B(  5-C , 24-H ) :   0.6481 B(  5-C , 25-H ) :   0.1476 B(  6-C ,  8-H ) :   0.2680
B(  6-C , 11-H ) :   0.1651 B(  6-C , 12-H ) :   0.1797 B(  6-C , 13-H ) :   0.1562
B(  6-C , 25-H ) :   0.5023 B(  7-C , 14-H ) :   0.2728 B(  7-C , 15-H ) :   0.2581
B(  7-C , 16-H ) :   0.1977 B(  7-C , 17-H ) :   0.1992 B(  7-C , 18-H ) :   0.1728
B(  7-C , 19-H ) :   0.2377 B(  7-C , 20-H ) :   0.1660 B(  7-C , 21-H ) :   0.2013
B(  7-C , 22-H ) :   0.2830 B(  7-C , 23-H ) :   0.2615 B(  7-C , 24-H ) :   0.1779
B(  8-H ,  9-H ) :  -0.1120 B( 12-H , 13-H ) :  -0.1133 B( 14-H , 15-H ) :  -0.1267
B( 14-H , 16-H ) :  -0.1061 B( 15-H , 16-H ) :  -0.1129 B( 17-H , 18-H ) :  -0.1162
B( 17-H , 19-H ) :  -0.1236 B( 18-H , 19-H ) :  -0.1164 B( 20-H , 22-H ) :  -0.1068
B( 21-H , 22-H ) :  -0.1118 B( 23-H , 24-H ) :  -0.1859

MP2 TOTAL ENERGY:     -314.683523038 Eh
FINAL SINGLE POINT ENERGY      -314.683523038484

DIPOLE MOMENT
-------------
                                X             Y             Z
Electronic contribution:      0.24858      -0.49624       0.22657
Nuclear contribution   :     -0.25346       0.49278      -0.18057
                        -----------------------------------------
Total Dipole Moment    :     -0.00488      -0.00345       0.04599
                        -----------------------------------------
Magnitude (a.u.)       :      0.04638
Magnitude (Debye)      :      0.11789

Rotational constants in cm-1:     0.098465     0.040126     0.036326
Rotational constants in MHz :  2951.909251  1202.936627  1089.025339

                             ****ORCA TERMINATED NORMALLY****
TOTAL RUN TIME: 0 days 0 hours 1 minutes 57 seconds 947 msec
