                         Program Version 5.0.3 -  RELEASE  -
|  1> !ri-mp2 aug-cc-pvdz aug-cc-pvdz/c tightscf
|  2> %pal nprocs 16 end
|  3>
|  4> * xyz 0 1
|  5> C    -1.589968    0.591998    0.318003
|  6> C    -1.482626   -0.731595    0.240541
|  7> C    -0.409779    1.297050   -0.271302
|  8> N    -0.319737   -1.200523   -0.391951
|  9> O     1.667032   -0.003415    0.897793
| 10> S     0.936297    0.011580   -0.400006
| 11> H    -2.429540    1.112221    0.749196
| 12> H    -2.206329   -1.457624    0.580961
| 13> H    -0.583145    1.663910   -1.286760
| 14> H     0.010173    2.099326    0.334185
| 15> H     0.024228   -2.116844   -0.139614
| 16> *
| 17>
| 18>                          ****END OF INPUT****

CARTESIAN COORDINATES (ANGSTROEM)
---------------------------------
  C     -1.589968    0.591998    0.318003
  C     -1.482626   -0.731595    0.240541
  C     -0.409779    1.297050   -0.271302
  N     -0.319737   -1.200523   -0.391951
  O      1.667032   -0.003415    0.897793
  S      0.936297    0.011580   -0.400006
  H     -2.429540    1.112221    0.749196
  H     -2.206329   -1.457624    0.580961
  H     -0.583145    1.663910   -1.286760
  H      0.010173    2.099326    0.334185
  H      0.024228   -2.116844   -0.139614

 Total Charge           Charge          ....    0
 Multiplicity           Mult            ....    1
 Number of Electrons    NEL             ....   54
 Basis Dimension        Dim             ....  187

ORBITAL ENERGIES
----------------

  NO   OCC          E(Eh)            E(eV)
   0   2.0000     -92.111758     -2506.4884
   1   2.0000     -20.530022      -558.6503
   2   2.0000     -15.609700      -424.7615
   3   2.0000     -11.295782      -307.3739
   4   2.0000     -11.282375      -307.0090
   5   2.0000     -11.244616      -305.9815
   6   2.0000      -9.095823      -247.5099
   7   2.0000      -6.778110      -184.4418
   8   2.0000      -6.776946      -184.4101
   9   2.0000      -6.774846      -184.3529
  10   2.0000      -1.366773       -37.1918
  11   2.0000      -1.253189       -34.1010
  12   2.0000      -1.072950       -29.1965
  13   2.0000      -0.997846       -27.1528
  14   2.0000      -0.843427       -22.9508
  15   2.0000      -0.791066       -21.5260
  16   2.0000      -0.730836       -19.8871
  17   2.0000      -0.643577       -17.5126
  18   2.0000      -0.615289       -16.7429
  19   2.0000      -0.603132       -16.4120
  20   2.0000      -0.585029       -15.9194
  21   2.0000      -0.564689       -15.3660
  22   2.0000      -0.546915       -14.8823
  23   2.0000      -0.502962       -13.6863
  24   2.0000      -0.433193       -11.7878
  25   2.0000      -0.384131       -10.4527
  26   2.0000      -0.339914        -9.2495
  27   0.0000       0.030965         0.8426
  28   0.0000       0.040573         1.1041
  29   0.0000       0.046757         1.2723
  30   0.0000       0.056569         1.5393
  31   0.0000       0.063635         1.7316

MULLIKEN ATOMIC CHARGES
-----------------------
   0 C :    0.511567
   1 C :    0.533822
   2 C :   -0.266496
   3 N :   -0.802445
   4 O :   -1.126415
   5 S :    1.702066
   6 H :   -0.300057
   7 H :   -0.266119
   8 H :    0.076489
   9 H :   -0.001844
  10 H :   -0.060568
Sum of atomic charges:   -0.0000000

LOEWDIN ATOMIC CHARGES
----------------------
   0 C :   -0.058591
   1 C :   -0.080839
   2 C :   -0.138915
   3 N :   -0.154387
   4 O :   -0.551493
   5 S :    1.070223
   6 H :   -0.013502
   7 H :    0.006992
   8 H :   -0.018613
   9 H :   -0.015314
  10 H :   -0.045561

  Mayer bond orders larger than 0.100000
B(  0-C ,  1-C ) :   1.8500 B(  0-C ,  2-C ) :   1.1183 B(  0-C ,  6-H ) :   0.7423
B(  1-C ,  3-N ) :   0.8758 B(  1-C ,  7-H ) :   0.8668 B(  2-C ,  5-S ) :   1.0569
B(  2-C ,  8-H ) :   0.8559 B(  2-C ,  9-H ) :   0.8401 B(  3-N ,  4-O ) :   0.1095
B(  3-N ,  5-S ) :   0.6329 B(  3-N , 10-H ) :   1.1830 B(  4-O ,  5-S ) :   0.9572

MP2 TOTAL ENERGY:     -644.243058075 Eh
FINAL SINGLE POINT ENERGY      -644.243058074797

DIPOLE MOMENT
-------------
                                X             Y             Z
Electronic contribution:      3.85981      -1.31894      -0.88801
Nuclear contribution   :     -5.10241       1.27192       0.25778
                        -----------------------------------------
Total Dipole Moment    :     -1.24260      -0.04702      -0.63022
                        -----------------------------------------
Magnitude (a.u.)       :      1.39408
Magnitude (Debye)      :      3.54347

Rotational constants in cm-1:     0.183660     0.099529     0.080290
Rotational constants in MHz :  5505.979745  2983.809703  2407.023537

                             ****ORCA TERMINATED NORMALLY****
TOTAL RUN TIME: 0 days 0 hours 0 minutes 39 seconds 279 msec
