                         Program Version 5.0.3 -  RELEASE  -
|  1> !ri-mp2 aug-cc-pvdz aug-cc-pvdz/c tightscf
|  2> %pal nprocs 16 end
|  3>
|  4> * xyz 0 1
|  5> N     -1.254654    0.394118    0.000000
|  6> C      0.000000    1.081090    0.000000
|  7> C      1.244764    0.286621    0.000000
|  8> C      1.223615   -1.045676    0.000000
|  9> C     -0.067291   -1.783582    0.000000
| 10> C     -1.258745   -0.878361    0.000000
| 11> O      0.015804    2.291171    0.000000
| 12> H      2.166216    0.852058    0.000000
| 13> H      2.142475   -1.619589    0.000000
| 14> H     -0.136811   -2.456207    0.864752
| 15> H     -2.232984   -1.368807    0.000000
| 16> H     -0.136811   -2.456207   -0.864752
| 17> *
| 18>
| 19>                          ****END OF INPUT****

CARTESIAN COORDINATES (ANGSTROEM)
---------------------------------
  N     -1.254654    0.394118    0.000000
  C      0.000000    1.081090    0.000000
  C      1.244764    0.286621    0.000000
  C      1.223615   -1.045676    0.000000
  C     -0.067291   -1.783582    0.000000
  C     -1.258745   -0.878361    0.000000
  O      0.015804    2.291171    0.000000
  H      2.166216    0.852058    0.000000
  H      2.142475   -1.619589    0.000000
  H     -0.136811   -2.456207    0.864752
  H     -2.232984   -1.368807    0.000000
  H     -0.136811   -2.456207   -0.864752

 Total Charge           Charge          ....    0
 Multiplicity           Mult            ....    1
 Number of Electrons    NEL             ....   50
 Basis Dimension        Dim             ....  206

ORBITAL ENERGIES
----------------

  NO   OCC          E(Eh)            E(eV)
   0   2.0000     -20.552191      -559.2535
   1   2.0000     -15.585320      -424.0981
   2   2.0000     -11.362402      -309.1867
   3   2.0000     -11.326868      -308.2198
   4   2.0000     -11.284822      -307.0756
   5   2.0000     -11.282080      -307.0010
   6   2.0000     -11.260388      -306.4107
   7   2.0000      -1.398831       -38.0641
   8   2.0000      -1.261123       -34.3169
   9   2.0000      -1.117187       -30.4002
  10   2.0000      -1.030314       -28.0363
  11   2.0000      -0.873985       -23.7824
  12   2.0000      -0.859039       -23.3756
  13   2.0000      -0.711729       -19.3671
  14   2.0000      -0.701920       -19.1002
  15   2.0000      -0.675890       -18.3919
  16   2.0000      -0.639731       -17.4080
  17   2.0000      -0.610930       -16.6242
  18   2.0000      -0.602582       -16.3971
  19   2.0000      -0.560147       -15.2424
  20   2.0000      -0.551033       -14.9944
  21   2.0000      -0.466717       -12.7000
  22   2.0000      -0.443434       -12.0664
  23   2.0000      -0.406920       -11.0728
  24   2.0000      -0.392368       -10.6769
  25   0.0000       0.022232         0.6050
  26   0.0000       0.035711         0.9717
  27   0.0000       0.043618         1.1869
  28   0.0000       0.048763         1.3269
  29   0.0000       0.060610         1.6493

MULLIKEN ATOMIC CHARGES
-----------------------
   0 N :   -0.579375
   1 C :    0.709408
   2 C :    0.777360
   3 C :    0.045618
   4 C :    0.015327
   5 C :    0.653689
   6 O :   -0.740402
   7 H :   -0.427934
   8 H :   -0.351045
   9 H :    0.095091
  10 H :   -0.292829
  11 H :    0.095091
Sum of atomic charges:   -0.0000000

LOEWDIN ATOMIC CHARGES
----------------------
   0 N :    0.074739
   1 C :   -0.331722
   2 C :    0.061152
   3 C :    0.033571
   4 C :   -0.004371
   5 C :    0.009961
   6 O :    0.050430
   7 H :    0.007922
   8 H :    0.010741
   9 H :    0.034855
  10 H :    0.017866
  11 H :    0.034855

  Mayer bond orders larger than 0.100000
B(  0-N ,  1-C ) :   0.7788 B(  0-N ,  2-C ) :  -0.1114 B(  0-N ,  5-C ) :   1.7928
B(  0-N , 10-H ) :  -0.1120 B(  1-C ,  2-C ) :   0.7208 B(  1-C ,  6-O ) :   1.4770
B(  2-C ,  3-C ) :   2.1522 B(  2-C ,  4-C ) :  -0.2434 B(  2-C ,  5-C ) :   0.2955
B(  2-C ,  6-O ) :  -0.2133 B(  2-C ,  7-H ) :   0.5643 B(  3-C ,  4-C ) :   1.3977
B(  3-C ,  5-C ) :  -0.1636 B(  3-C ,  6-O ) :   0.1370 B(  3-C ,  7-H ) :   0.2109
B(  3-C ,  8-H ) :   0.7068 B(  4-C ,  5-C ) :   1.0616 B(  4-C ,  9-H ) :   0.8475
B(  4-C , 11-H ) :   0.8475 B(  5-C , 10-H ) :   0.9149

MP2 TOTAL ENERGY:     -322.602768034 Eh
FINAL SINGLE POINT ENERGY      -322.602768033586

DIPOLE MOMENT
-------------
                                X             Y             Z
Electronic contribution:     -1.17325       4.36451       0.00000
Nuclear contribution   :      1.77237      -6.92206       0.00000
                        -----------------------------------------
Total Dipole Moment    :      0.59912      -2.55755       0.00000
                        -----------------------------------------
Magnitude (a.u.)       :      2.62679
Magnitude (Debye)      :      6.67676

Rotational constants in cm-1:     0.180056     0.093538     0.062244
Rotational constants in MHz :  5397.949787  2804.205894  1866.031348

                             ****ORCA TERMINATED NORMALLY****
TOTAL RUN TIME: 0 days 0 hours 0 minutes 46 seconds 966 msec
