                         Program Version 5.0.3 -  RELEASE  -
|  1> !ri-mp2 aug-cc-pvdz aug-cc-pvdz/c tightscf
|  2> %pal nprocs 16 end
|  3>
|  4> * xyz 0 1
|  5> C      2.666741    0.979974    0.000000
|  6> C      1.486493    0.014956    0.000000
|  7> C     -1.390067   -1.170055    1.269098
|  8> C     -1.390067   -1.170055   -1.269098
|  9> S     -0.074320    0.976753    0.000000
| 10> C     -1.390067   -0.320258    0.000000
| 11> H      3.605889    0.424701    0.000000
| 12> H     -2.287687    0.301951    0.000000
| 13> H     -1.434533   -0.547568    2.161409
| 14> H     -1.434533   -0.547568   -2.161409
| 15> H      2.652471    1.620505    0.882058
| 16> H      2.652471    1.620505   -0.882058
| 17> H      1.518737   -0.621415   -0.883489
| 18> H      1.518737   -0.621415    0.883489
| 19> H     -2.253602   -1.839615    1.272426
| 20> H     -2.253602   -1.839615   -1.272426
| 21> H     -0.496721   -1.792940    1.332175
| 22> H     -0.496721   -1.792940   -1.332175
| 23> *
| 24>
| 25>                          ****END OF INPUT****

CARTESIAN COORDINATES (ANGSTROEM)
---------------------------------
  C      2.666741    0.979974    0.000000
  C      1.486493    0.014956    0.000000
  C     -1.390067   -1.170055    1.269098
  C     -1.390067   -1.170055   -1.269098
  S     -0.074320    0.976753    0.000000
  C     -1.390067   -0.320258    0.000000
  H      3.605889    0.424701    0.000000
  H     -2.287687    0.301951    0.000000
  H     -1.434533   -0.547568    2.161409
  H     -1.434533   -0.547568   -2.161409
  H      2.652471    1.620505    0.882058
  H      2.652471    1.620505   -0.882058
  H      1.518737   -0.621415   -0.883489
  H      1.518737   -0.621415    0.883489
  H     -2.253602   -1.839615    1.272426
  H     -2.253602   -1.839615   -1.272426
  H     -0.496721   -1.792940    1.332175
  H     -0.496721   -1.792940   -1.332175

 Total Charge           Charge          ....    0
 Multiplicity           Mult            ....    1
 Number of Electrons    NEL             ....   58
 Basis Dimension        Dim             ....  250

ORBITAL ENERGIES
----------------

  NO   OCC          E(Eh)            E(eV)
   0   2.0000     -91.934814     -2501.6735
   1   2.0000     -11.266974      -306.5899
   2   2.0000     -11.258169      -306.3504
   3   2.0000     -11.227777      -305.5233
   4   2.0000     -11.226156      -305.4792
   5   2.0000     -11.226136      -305.4787
   6   2.0000      -8.936395      -243.1717
   7   2.0000      -6.618411      -180.0961
   8   2.0000      -6.616888      -180.0547
   9   2.0000      -6.615053      -180.0048
  10   2.0000      -1.096976       -29.8502
  11   2.0000      -1.044432       -28.4204
  12   2.0000      -0.939785       -25.5728
  13   2.0000      -0.923925       -25.1413
  14   2.0000      -0.833866       -22.6906
  15   2.0000      -0.754099       -20.5201
  16   2.0000      -0.627784       -17.0829
  17   2.0000      -0.624546       -16.9948
  18   2.0000      -0.611067       -16.6280
  19   2.0000      -0.570611       -15.5271
  20   2.0000      -0.565077       -15.3765
  21   2.0000      -0.542902       -14.7731
  22   2.0000      -0.524262       -14.2659
  23   2.0000      -0.503747       -13.7076
  24   2.0000      -0.502710       -13.6794
  25   2.0000      -0.490731       -13.3535
  26   2.0000      -0.444105       -12.0847
  27   2.0000      -0.409602       -11.1458
  28   2.0000      -0.330588        -8.9958
  29   0.0000       0.035197         0.9578
  30   0.0000       0.041100         1.1184
  31   0.0000       0.047808         1.3009
  32   0.0000       0.048864         1.3297
  33   0.0000       0.061449         1.6721

MULLIKEN ATOMIC CHARGES
-----------------------
   0 C :    0.405176
   1 C :   -0.115778
   2 C :    0.636690
   3 C :    0.636690
   4 S :    0.308880
   5 C :   -0.727709
   6 H :   -0.059864
   7 H :   -0.139120
   8 H :   -0.082748
   9 H :   -0.082748
  10 H :   -0.057099
  11 H :   -0.057099
  12 H :   -0.142195
  13 H :   -0.142195
  14 H :   -0.083910
  15 H :   -0.083910
  16 H :   -0.106531
  17 H :   -0.106531
Sum of atomic charges:   -0.0000000

LOEWDIN ATOMIC CHARGES
----------------------
   0 C :    0.066083
   1 C :   -0.322950
   2 C :    0.099558
   3 C :    0.099558
   4 S :    0.867987
   5 C :   -0.524134
   6 H :   -0.022691
   7 H :   -0.011110
   8 H :   -0.017856
   9 H :   -0.017856
  10 H :   -0.025502
  11 H :   -0.025502
  12 H :   -0.040718
  13 H :   -0.040718
  14 H :   -0.016150
  15 H :   -0.016150
  16 H :   -0.025925
  17 H :   -0.025925

  Mayer bond orders larger than 0.100000
B(  0-C ,  1-C ) :   1.2721 B(  0-C ,  6-H ) :   0.9247 B(  0-C , 10-H ) :   0.9356
B(  0-C , 11-H ) :   0.9356 B(  1-C ,  4-S ) :   1.0619 B(  1-C , 12-H ) :   0.8813
B(  1-C , 13-H ) :   0.8813 B(  2-C ,  3-C ) :  -0.1168 B(  2-C ,  5-C ) :   1.4147
B(  2-C ,  8-H ) :   0.8463 B(  2-C , 14-H ) :   0.8164 B(  2-C , 16-H ) :   0.9410
B(  3-C ,  5-C ) :   1.4147 B(  3-C ,  9-H ) :   0.8463 B(  3-C , 15-H ) :   0.8164
B(  3-C , 17-H ) :   0.9410 B(  4-S ,  5-C ) :   0.8647 B(  5-C ,  7-H ) :   0.7389
B(  5-C ,  8-H ) :   0.1152 B(  5-C ,  9-H ) :   0.1152 B(  5-C , 14-H ) :   0.1042
B(  5-C , 15-H ) :   0.1042

MP2 TOTAL ENERGY:     -594.785369399 Eh
FINAL SINGLE POINT ENERGY      -594.785369398529

DIPOLE MOMENT
-------------
                                X             Y             Z
Electronic contribution:     -1.28976       5.19743      -0.00000
Nuclear contribution   :      1.35174      -5.92201       0.00000
                        -----------------------------------------
Total Dipole Moment    :      0.06198      -0.72458      -0.00000
                        -----------------------------------------
Magnitude (a.u.)       :      0.72723
Magnitude (Debye)      :      1.84847

Rotational constants in cm-1:     0.157134     0.051078     0.049736
Rotational constants in MHz :  4710.765123  1531.281551  1491.061803

                             ****ORCA TERMINATED NORMALLY****
TOTAL RUN TIME: 0 days 0 hours 0 minutes 55 seconds 81 msec
