                         Program Version 5.0.3 -  RELEASE  -
|  1> !ri-mp2 aug-cc-pvdz aug-cc-pvdz/c tightscf
|  2> %pal nprocs 16 end
|  3>
|  4> * xyz 0 1
|  5> S     -1.746638   -0.491801   -0.024174
|  6> N      1.069100   -1.539005    0.070067
|  7> N     -0.321863    1.747667    0.040754
|  8> N      2.022193    0.634247   -0.054121
|  9> C      1.041264   -0.187875   -0.000463
| 10> C     -0.357714    0.420697    0.009753
| 11> H      0.188021   -2.026997    0.000787
| 12> H      1.927591   -2.037227   -0.074943
| 13> H      0.590765    2.186653    0.033004
| 14> H     -1.174968    2.277579    0.029518
| 15> H      2.927486    0.171511   -0.054209
| 16> *
| 17>
| 18>                          ****END OF INPUT****

CARTESIAN COORDINATES (ANGSTROEM)
---------------------------------
  S     -1.746638   -0.491801   -0.024174
  N      1.069100   -1.539005    0.070067
  N     -0.321863    1.747667    0.040754
  N      2.022193    0.634247   -0.054121
  C      1.041264   -0.187875   -0.000463
  C     -0.357714    0.420697    0.009753
  H      0.188021   -2.026997    0.000787
  H      1.927591   -2.037227   -0.074943
  H      0.590765    2.186653    0.033004
  H     -1.174968    2.277579    0.029518
  H      2.927486    0.171511   -0.054209

 Total Charge           Charge          ....    0
 Multiplicity           Mult            ....    1
 Number of Electrons    NEL             ....   54
 Basis Dimension        Dim             ....  187

ORBITAL ENERGIES
----------------

  NO   OCC          E(Eh)            E(eV)
   0   2.0000     -91.916643     -2501.1790
   1   2.0000     -15.619094      -425.0172
   2   2.0000     -15.597938      -424.4415
   3   2.0000     -15.559349      -423.3914
   4   2.0000     -11.368855      -309.3623
   5   2.0000     -11.356242      -309.0190
   6   2.0000      -8.920138      -242.7293
   7   2.0000      -6.602426      -179.6612
   8   2.0000      -6.599785      -179.5893
   9   2.0000      -6.598753      -179.5612
  10   2.0000      -1.311147       -35.6781
  11   2.0000      -1.259257       -34.2661
  12   2.0000      -1.166675       -31.7469
  13   2.0000      -1.017168       -27.6785
  14   2.0000      -0.888667       -24.1818
  15   2.0000      -0.791782       -21.5455
  16   2.0000      -0.758536       -20.6408
  17   2.0000      -0.724813       -19.7232
  18   2.0000      -0.693707       -18.8767
  19   2.0000      -0.623232       -16.9590
  20   2.0000      -0.584078       -15.8936
  21   2.0000      -0.515325       -14.0227
  22   2.0000      -0.511555       -13.9201
  23   2.0000      -0.464580       -12.6419
  24   2.0000      -0.385424       -10.4879
  25   2.0000      -0.344180        -9.3656
  26   2.0000      -0.342029        -9.3071
  27   0.0000       0.028445         0.7740
  28   0.0000       0.038400         1.0449
  29   0.0000       0.049683         1.3519
  30   0.0000       0.056209         1.5295
  31   0.0000       0.069793         1.8992

MULLIKEN ATOMIC CHARGES
-----------------------
   0 S :   -0.093089
   1 N :   -0.240791
   2 N :   -0.371675
   3 N :   -0.494811
   4 C :    0.641713
   5 C :    0.556925
   6 H :    0.030759
   7 H :   -0.062508
   8 H :    0.062476
   9 H :   -0.001556
  10 H :   -0.027442
Sum of atomic charges:    0.0000000

LOEWDIN ATOMIC CHARGES
----------------------
   0 S :    0.563705
   1 N :    0.253259
   2 N :    0.225962
   3 N :    0.169037
   4 C :   -0.356475
   5 C :   -0.631416
   6 H :   -0.087323
   7 H :   -0.011074
   8 H :   -0.039651
   9 H :   -0.004886
  10 H :   -0.081138

  Mayer bond orders larger than 0.100000
B(  0-S ,  5-C ) :   1.6042 B(  1-N ,  4-C ) :   0.9050 B(  1-N ,  6-H ) :   1.0888
B(  1-N ,  7-H ) :   1.1460 B(  2-N ,  5-C ) :   1.0801 B(  2-N ,  8-H ) :   1.1065
B(  2-N ,  9-H ) :   1.1169 B(  3-N ,  4-C ) :   1.4887 B(  3-N ,  5-C ) :   0.1128
B(  3-N , 10-H ) :   0.9882 B(  4-C ,  5-C ) :   0.9519 B(  4-C ,  6-H ) :  -0.1205
B(  5-C ,  8-H ) :  -0.1203 B(  8-H ,  9-H ) :  -0.1015

MP2 TOTAL ENERGY:     -640.512056189 Eh
FINAL SINGLE POINT ENERGY      -640.512056189446

DIPOLE MOMENT
-------------
                                X             Y             Z
Electronic contribution:     -3.42007      -0.51861      -0.00461
Nuclear contribution   :      4.45321       0.58174      -0.06368
                        -----------------------------------------
Total Dipole Moment    :      1.03314       0.06313      -0.06829
                        -----------------------------------------
Magnitude (a.u.)       :      1.03732
Magnitude (Debye)      :      2.63666

Rotational constants in cm-1:     0.153019     0.083649     0.054140
Rotational constants in MHz :  4587.395693  2507.741473  1623.082193

                             ****ORCA TERMINATED NORMALLY****
TOTAL RUN TIME: 0 days 0 hours 0 minutes 52 seconds 758 msec
