                         Program Version 5.0.3 -  RELEASE  -
|  1> !ri-mp2 aug-cc-pvdz aug-cc-pvdz/c tightscf
|  2> %pal nprocs 16 end
|  3>
|  4> * xyz 0 1
|  5> C      2.068952   -0.029590    0.114749
|  6> C     -1.781327   -0.695111    0.003653
|  7> C      0.738327   -0.671951   -0.270753
|  8> C     -0.478716    0.030019    0.319827
|  9> O     -0.490635    1.363576   -0.211065
| 10> H      2.209786   -0.036654    1.197896
| 11> H      2.114065    1.005156   -0.221346
| 12> H      2.905645   -0.568790   -0.331134
| 13> H     -1.921866   -0.773729   -1.075400
| 14> H     -1.779793   -1.700291    0.428681
| 15> H     -2.637934   -0.160756    0.420748
| 16> H      0.719889   -1.714419    0.057213
| 17> H      0.628666   -0.681241   -1.358792
| 18> H     -0.354839    0.083409    1.410162
| 19> H     -1.241958    1.838511    0.155634
| 20> *
| 21>
| 22>                          ****END OF INPUT****

CARTESIAN COORDINATES (ANGSTROEM)
---------------------------------
  C      2.068952   -0.029590    0.114749
  C     -1.781327   -0.695111    0.003653
  C      0.738327   -0.671951   -0.270753
  C     -0.478716    0.030019    0.319827
  O     -0.490635    1.363576   -0.211065
  H      2.209786   -0.036654    1.197896
  H      2.114065    1.005156   -0.221346
  H      2.905645   -0.568790   -0.331134
  H     -1.921866   -0.773729   -1.075400
  H     -1.779793   -1.700291    0.428681
  H     -2.637934   -0.160756    0.420748
  H      0.719889   -1.714419    0.057213
  H      0.628666   -0.681241   -1.358792
  H     -0.354839    0.083409    1.410162
  H     -1.241958    1.838511    0.155634

 Total Charge           Charge          ....    0
 Multiplicity           Mult            ....    1
 Number of Electrons    NEL             ....   42
 Basis Dimension        Dim             ....  205

ORBITAL ENERGIES
----------------

  NO   OCC          E(Eh)            E(eV)
   0   2.0000     -20.561512      -559.5072
   1   2.0000     -11.282793      -307.0204
   2   2.0000     -11.223309      -305.4018
   3   2.0000     -11.221316      -305.3475
   4   2.0000     -11.211275      -305.0743
   5   2.0000      -1.357030       -36.9267
   6   2.0000      -1.061043       -28.8724
   7   2.0000      -0.984903       -26.8006
   8   2.0000      -0.868852       -23.6427
   9   2.0000      -0.786749       -21.4085
  10   2.0000      -0.697809       -18.9883
  11   2.0000      -0.622901       -16.9500
  12   2.0000      -0.598045       -16.2736
  13   2.0000      -0.580221       -15.7886
  14   2.0000      -0.561838       -15.2884
  15   2.0000      -0.537453       -14.6248
  16   2.0000      -0.509112       -13.8536
  17   2.0000      -0.494724       -13.4621
  18   2.0000      -0.479287       -13.0421
  19   2.0000      -0.456158       -12.4127
  20   2.0000      -0.434142       -11.8136
  21   0.0000       0.035380         0.9627
  22   0.0000       0.044353         1.2069
  23   0.0000       0.047866         1.3025
  24   0.0000       0.050775         1.3817
  25   0.0000       0.066823         1.8183

MULLIKEN ATOMIC CHARGES
-----------------------
   0 C :    0.415717
   1 C :    0.495467
   2 C :    0.253898
   3 C :    0.281743
   4 O :   -0.785662
   5 H :   -0.088897
   6 H :   -0.032389
   7 H :   -0.064152
   8 H :    0.004311
   9 H :   -0.041960
  10 H :   -0.098482
  11 H :   -0.122718
  12 H :   -0.129266
  13 H :   -0.201911
  14 H :    0.114301
Sum of atomic charges:    0.0000000

LOEWDIN ATOMIC CHARGES
----------------------
   0 C :    0.138888
   1 C :    0.158979
   2 C :   -0.053317
   3 C :   -0.276194
   4 O :    0.130685
   5 H :   -0.019715
   6 H :   -0.020671
   7 H :   -0.022080
   8 H :   -0.008625
   9 H :   -0.012909
  10 H :   -0.018833
  11 H :    0.015038
  12 H :    0.019120
  13 H :    0.030910
  14 H :   -0.061276

  Mayer bond orders larger than 0.100000
B(  0-C ,  2-C ) :   1.1574 B(  0-C ,  5-H ) :   0.9364 B(  0-C ,  6-H ) :   0.9447
B(  0-C ,  7-H ) :   0.8930 B(  1-C ,  2-C ) :  -0.1032 B(  1-C ,  3-C ) :   1.2742
B(  1-C ,  8-H ) :   0.9112 B(  1-C ,  9-H ) :   0.8575 B(  1-C , 10-H ) :   0.8572
B(  2-C ,  3-C ) :   1.3380 B(  2-C , 11-H ) :   0.7719 B(  2-C , 12-H ) :   0.7369
B(  3-C ,  4-O ) :   0.2842 B(  3-C , 10-H ) :   0.1558 B(  3-C , 12-H ) :   0.1801
B(  3-C , 13-H ) :   0.6824 B(  4-O , 14-H ) :   1.0997 B(  8-H , 10-H ) :  -0.1001

MP2 TOTAL ENERGY:     -232.994446844 Eh
FINAL SINGLE POINT ENERGY      -232.994446843525

DIPOLE MOMENT
-------------
                                X             Y             Z
Electronic contribution:     -1.11399       2.56994      -0.32142
Nuclear contribution   :      0.67460      -2.85974       0.72399
                        -----------------------------------------
Total Dipole Moment    :     -0.43939      -0.28980       0.40256
                        -----------------------------------------
Magnitude (a.u.)       :      0.66265
Magnitude (Debye)      :      1.68433

Rotational constants in cm-1:     0.269222     0.114573     0.088814
Rotational constants in MHz :  8071.076606  3434.799118  2662.589117

                             ****ORCA TERMINATED NORMALLY****
TOTAL RUN TIME: 0 days 0 hours 0 minutes 44 seconds 962 msec
