                         Program Version 5.0.3 -  RELEASE  -
|  1> !ri-mp2 aug-cc-pvdz aug-cc-pvdz/c tightscf
|  2> %pal nprocs 16 end
|  3>
|  4> * xyz 0 1
|  5> C     0.000000     0.000000    1.108167
|  6> C     0.000000     1.252736    0.329165
|  7> C     0.000000     1.253135   -1.006331
|  8> C     0.000000     0.000000   -1.814407
|  9> C     0.000000    -1.253135   -1.006331
| 10> C     0.000000    -1.252736    0.329165
| 11> O     0.000000     0.000000    2.331070
| 12> H     0.000000     2.170549    0.902157
| 13> H     0.000000     2.189815   -1.551879
| 14> H    -0.863698     0.000000   -2.492840
| 15> H     0.863698     0.000000   -2.492840
| 16> H     0.000000    -2.189815   -1.551879
| 17> H     0.000000    -2.170549    0.902157
| 18> *
| 19>
| 20>                          ****END OF INPUT****

CARTESIAN COORDINATES (ANGSTROEM)
---------------------------------
  C      0.000000    0.000000    1.108167
  C      0.000000    1.252736    0.329165
  C      0.000000    1.253135   -1.006331
  C      0.000000    0.000000   -1.814407
  C      0.000000   -1.253135   -1.006331
  C      0.000000   -1.252736    0.329165
  O      0.000000    0.000000    2.331070
  H      0.000000    2.170549    0.902157
  H      0.000000    2.189815   -1.551879
  H     -0.863698    0.000000   -2.492840
  H      0.863698    0.000000   -2.492840
  H      0.000000   -2.189815   -1.551879
  H      0.000000   -2.170549    0.902157

 Total Charge           Charge          ....    0
 Multiplicity           Mult            ....    1
 Number of Electrons    NEL             ....   50
 Basis Dimension        Dim             ....  215

ORBITAL ENERGIES
----------------

  NO   OCC          E(Eh)            E(eV)
   0   2.0000     -20.545564      -559.0732
   1   2.0000     -11.334349      -308.4233
   2   2.0000     -11.274633      -306.7984
   3   2.0000     -11.274604      -306.7976
   4   2.0000     -11.268865      -306.6414
   5   2.0000     -11.247628      -306.0635
   6   2.0000     -11.247608      -306.0630
   7   2.0000      -1.377609       -37.4867
   8   2.0000      -1.154648       -31.4196
   9   2.0000      -1.049600       -28.5611
  10   2.0000      -1.003439       -27.3050
  11   2.0000      -0.838215       -22.8090
  12   2.0000      -0.836385       -22.7592
  13   2.0000      -0.706440       -19.2232
  14   2.0000      -0.666121       -18.1261
  15   2.0000      -0.663593       -18.0573
  16   2.0000      -0.619209       -16.8495
  17   2.0000      -0.610855       -16.6222
  18   2.0000      -0.594118       -16.1668
  19   2.0000      -0.540517       -14.7082
  20   2.0000      -0.538384       -14.6502
  21   2.0000      -0.516909       -14.0658
  22   2.0000      -0.413497       -11.2518
  23   2.0000      -0.386949       -10.5294
  24   2.0000      -0.377330       -10.2677
  25   0.0000       0.026826         0.7300
  26   0.0000       0.037113         1.0099
  27   0.0000       0.047814         1.3011
  28   0.0000       0.047980         1.3056
  29   0.0000       0.059658         1.6234

MULLIKEN ATOMIC CHARGES
-----------------------
   0 C :    0.201855
   1 C :    0.579338
   2 C :    0.485822
   3 C :   -0.020837
   4 C :    0.485822
   5 C :    0.579338
   6 O :   -0.857232
   7 H :   -0.431707
   8 H :   -0.407288
   9 H :    0.111943
  10 H :    0.111943
  11 H :   -0.407288
  12 H :   -0.431707
Sum of atomic charges:   -0.0000000

LOEWDIN ATOMIC CHARGES
----------------------
   0 C :   -0.301520
   1 C :    0.060974
   2 C :    0.038417
   3 C :   -0.022298
   4 C :    0.038417
   5 C :    0.060974
   6 O :    0.024843
   7 H :    0.007115
   8 H :    0.010215
   9 H :    0.032768
  10 H :    0.032768
  11 H :    0.010215
  12 H :    0.007115

  Mayer bond orders larger than 0.100000
B(  0-C ,  1-C ) :   1.1708 B(  0-C ,  2-C ) :  -0.1803 B(  0-C ,  3-C ) :   0.1765
B(  0-C ,  4-C ) :  -0.1803 B(  0-C ,  5-C ) :   1.1708 B(  0-C ,  6-O ) :   1.3492
B(  0-C ,  7-H ) :   0.1185 B(  0-C , 12-H ) :   0.1185 B(  1-C ,  2-C ) :   1.9954
B(  1-C ,  5-C ) :   0.1777 B(  1-C ,  7-H ) :   0.4393 B(  1-C ,  8-H ) :   0.1999
B(  2-C ,  3-C ) :   1.1605 B(  2-C ,  7-H ) :   0.1587 B(  2-C ,  8-H ) :   0.5993
B(  3-C ,  4-C ) :   1.1605 B(  3-C ,  9-H ) :   0.7474 B(  3-C , 10-H ) :   0.7474
B(  4-C ,  5-C ) :   1.9954 B(  4-C , 11-H ) :   0.5993 B(  4-C , 12-H ) :   0.1587
B(  5-C , 11-H ) :   0.1999 B(  5-C , 12-H ) :   0.4393

MP2 TOTAL ENERGY:     -306.575203482 Eh
FINAL SINGLE POINT ENERGY      -306.575203481805

DIPOLE MOMENT
-------------
                                X             Y             Z
Electronic contribution:     -0.00000      -0.00000       4.17967
Nuclear contribution   :      0.00000       0.00000      -6.23448
                        -----------------------------------------
Total Dipole Moment    :     -0.00000      -0.00000      -2.05481
                        -----------------------------------------
Magnitude (a.u.)       :      2.05481
Magnitude (Debye)      :      5.22291

Rotational constants in cm-1:     0.175434     0.089537     0.059915
Rotational constants in MHz :  5259.390502  2684.251902  1796.209689

                             ****ORCA TERMINATED NORMALLY****
TOTAL RUN TIME: 0 days 0 hours 0 minutes 49 seconds 910 msec
