                         Program Version 5.0.3 -  RELEASE  -
|  1> !ri-mp2 aug-cc-pvdz aug-cc-pvdz/c tightscf
|  2> %pal nprocs 16 end
|  3>
|  4> * xyz 0 1
|  5> S      2.378504   -0.996830   -0.060055
|  6> S      1.032305    1.615124   -0.000766
|  7> O     -3.857822   -0.222967   -0.090876
|  8> N     -1.504533   -0.005601    0.047838
|  9> C      0.996939   -0.123544    0.017628
| 10> C     -0.336437   -0.850557    0.141815
| 11> C     -2.693129   -0.177700   -0.020459
| 12> H     -0.301843    1.818938    0.055450
| 13> H     -0.325396   -1.359868    1.107578
| 14> H     -0.355645   -1.618027   -0.631648
| 15> *
| 16>
| 17>                          ****END OF INPUT****

CARTESIAN COORDINATES (ANGSTROEM)
---------------------------------
  S      2.378504   -0.996830   -0.060055
  S      1.032305    1.615124   -0.000766
  O     -3.857822   -0.222967   -0.090876
  N     -1.504533   -0.005601    0.047838
  C      0.996939   -0.123544    0.017628
  C     -0.336437   -0.850557    0.141815
  C     -2.693129   -0.177700   -0.020459
  H     -0.301843    1.818938    0.055450
  H     -0.325396   -1.359868    1.107578
  H     -0.355645   -1.618027   -0.631648

 Total Charge           Charge          ....    0
 Multiplicity           Mult            ....    1
 Number of Electrons    NEL             ....   68
 Basis Dimension        Dim             ....  196

ORBITAL ENERGIES
----------------

  NO   OCC          E(Eh)            E(eV)
   0   2.0000     -92.006647     -2503.6281
   1   2.0000     -91.946546     -2501.9927
   2   2.0000     -20.643534      -561.7391
   3   2.0000     -15.624615      -425.1674
   4   2.0000     -11.439856      -311.2943
   5   2.0000     -11.378457      -309.6236
   6   2.0000     -11.343948      -308.6845
   7   2.0000      -9.009146      -245.1513
   8   2.0000      -8.949729      -243.5345
   9   2.0000      -6.690911      -182.0689
  10   2.0000      -6.689462      -182.0295
  11   2.0000      -6.687689      -181.9813
  12   2.0000      -6.631704      -180.4578
  13   2.0000      -6.629599      -180.4006
  14   2.0000      -6.627874      -180.3536
  15   2.0000      -1.491234       -40.5785
  16   2.0000      -1.310591       -35.6630
  17   2.0000      -1.151723       -31.3400
  18   2.0000      -1.020447       -27.7678
  19   2.0000      -0.982187       -26.7267
  20   2.0000      -0.785511       -21.3749
  21   2.0000      -0.748519       -20.3682
  22   2.0000      -0.731874       -19.9153
  23   2.0000      -0.699474       -19.0336
  24   2.0000      -0.685169       -18.6444
  25   2.0000      -0.640362       -17.4251
  26   2.0000      -0.630348       -17.1526
  27   2.0000      -0.537977       -14.6391
  28   2.0000      -0.507471       -13.8090
  29   2.0000      -0.480769       -13.0824
  30   2.0000      -0.477003       -12.9799
  31   2.0000      -0.448786       -12.2121
  32   2.0000      -0.358751        -9.7621
  33   2.0000      -0.355316        -9.6686
  34   0.0000       0.028171         0.7666
  35   0.0000       0.032643         0.8883
  36   0.0000       0.046173         1.2564
  37   0.0000       0.057371         1.5612
  38   0.0000       0.065491         1.7821

MULLIKEN ATOMIC CHARGES
-----------------------
   0 S :   -0.085501
   1 S :    0.277308
   2 O :   -0.439729
   3 N :   -0.271403
   4 C :   -0.518539
   5 C :    0.684997
   6 C :    0.097164
   7 H :    0.191318
   8 H :    0.047304
   9 H :    0.017081
Sum of atomic charges:    0.0000000

LOEWDIN ATOMIC CHARGES
----------------------
   0 S :    0.559472
   1 S :    0.826215
   2 O :    0.109869
   3 N :    0.020453
   4 C :   -1.054896
   5 C :   -0.110283
   6 C :   -0.165435
   7 H :   -0.221434
   8 H :    0.021329
   9 H :    0.014711

  Mayer bond orders larger than 0.100000
B(  0-S ,  4-C ) :   1.8649 B(  1-S ,  4-C ) :   1.1065 B(  1-S ,  7-H ) :   0.8811
B(  2-O ,  6-C ) :   1.9485 B(  3-N ,  5-C ) :   0.5963 B(  3-N ,  6-C ) :   2.0567
B(  4-C ,  5-C ) :   1.3751 B(  5-C ,  6-C ) :  -0.1372 B(  5-C ,  8-H ) :   0.8592
B(  5-C ,  9-H ) :   0.8606

MP2 TOTAL ENERGY:    -1040.787155048 Eh
FINAL SINGLE POINT ENERGY     -1040.787155048487

DIPOLE MOMENT
-------------
                                X             Y             Z
Electronic contribution:      0.55239       1.16077      -0.35627
Nuclear contribution   :     -1.11019      -1.13302       0.51023
                        -----------------------------------------
Total Dipole Moment    :     -0.55779       0.02775       0.15396
                        -----------------------------------------
Magnitude (a.u.)       :      0.57932
Magnitude (Debye)      :      1.47251

Rotational constants in cm-1:     0.124379     0.028657     0.023431
Rotational constants in MHz :  3728.796001   859.121873   702.454422

                             ****ORCA TERMINATED NORMALLY****
TOTAL RUN TIME: 0 days 0 hours 0 minutes 38 seconds 147 msec
