                         Program Version 5.0.3 -  RELEASE  -
|  1> !ri-mp2 aug-cc-pvdz aug-cc-pvdz/c tightscf
|  2> %pal nprocs 16 end
|  3>
|  4> * xyz 0 1
|  5> C      1.117724   -1.621803        0.000000
|  6> C     -0.134070   -2.228093        0.000000
|  7> C      1.198783   -0.239009        0.000000
|  8> C     -1.256435   -1.414617        0.000000
|  9> C      0.000000    0.468958        0.000000
| 10> N     -1.193392   -0.079209        0.000000
| 11> Cl     0.066001    2.226123        0.000000
| 12> H      2.020758   -2.217277        0.000000
| 13> H     -0.237807   -3.303639        0.000000
| 14> H      2.145204    0.279330        0.000000
| 15> H     -2.252452   -1.840652        0.000000
| 16> *
| 17>
| 18>                          ****END OF INPUT****

CARTESIAN COORDINATES (ANGSTROEM)
---------------------------------
  C      1.117724   -1.621803    0.000000
  C     -0.134070   -2.228093    0.000000
  C      1.198783   -0.239009    0.000000
  C     -1.256435   -1.414617    0.000000
  C      0.000000    0.468958    0.000000
  N     -1.193392   -0.079209    0.000000
  Cl     0.066001    2.226123    0.000000
  H      2.020758   -2.217277    0.000000
  H     -0.237807   -3.303639    0.000000
  H      2.145204    0.279330    0.000000
  H     -2.252452   -1.840652    0.000000

 Total Charge           Charge          ....    0
 Multiplicity           Mult            ....    1
 Number of Electrons    NEL             ....   58
 Basis Dimension        Dim             ....  201

ORBITAL ENERGIES
----------------

  NO   OCC          E(Eh)            E(eV)
   0   2.0000    -104.839792     -2852.8358
   1   2.0000     -15.591695      -424.2716
   2   2.0000     -11.352307      -308.9120
   3   2.0000     -11.299067      -307.4632
   4   2.0000     -11.281536      -306.9862
   5   2.0000     -11.266003      -306.5635
   6   2.0000     -11.260485      -306.4134
   7   2.0000     -10.566014      -287.5159
   8   2.0000      -8.033772      -218.6100
   9   2.0000      -8.030361      -218.5172
  10   2.0000      -8.030361      -218.5172
  11   2.0000      -1.298655       -35.3382
  12   2.0000      -1.138483       -30.9797
  13   2.0000      -1.112854       -30.2823
  14   2.0000      -1.025746       -27.9120
  15   2.0000      -0.885935       -24.1075
  16   2.0000      -0.855669       -23.2839
  17   2.0000      -0.725246       -19.7349
  18   2.0000      -0.691016       -18.8035
  19   2.0000      -0.660813       -17.9816
  20   2.0000      -0.606052       -16.4915
  21   2.0000      -0.591007       -16.0821
  22   2.0000      -0.582165       -15.8415
  23   2.0000      -0.537329       -14.6215
  24   2.0000      -0.477920       -13.0049
  25   2.0000      -0.459782       -12.5113
  26   2.0000      -0.439018       -11.9463
  27   2.0000      -0.401065       -10.9135
  28   2.0000      -0.352828        -9.6009
  29   0.0000       0.028734         0.7819
  30   0.0000       0.039058         1.0628
  31   0.0000       0.047917         1.3039
  32   0.0000       0.061009         1.6601
  33   0.0000       0.079771         2.1707

MULLIKEN ATOMIC CHARGES
-----------------------
   0 C :   -0.163261
   1 C :    0.978784
   2 C :    1.512860
   3 C :    0.331231
   4 C :   -0.531023
   5 N :   -0.448356
   6 Cl:   -0.236644
   7 H :   -0.386971
   8 H :   -0.403494
   9 H :   -0.352703
  10 H :   -0.300423
Sum of atomic charges:   -0.0000000

LOEWDIN ATOMIC CHARGES
----------------------
   0 C :    0.021866
   1 C :    0.020612
   2 C :   -0.005446
   3 C :   -0.022318
   4 C :   -0.585315
   5 N :    0.002421
   6 Cl:    0.556369
   7 H :    0.010656
   8 H :    0.000072
   9 H :   -0.003660
  10 H :    0.004743

  Mayer bond orders larger than 0.100000
B(  0-C ,  1-C ) :   1.4163 B(  0-C ,  2-C ) :   1.5287 B(  0-C ,  3-C ) :   0.3584
B(  0-C ,  4-C ) :   0.3771 B(  0-C ,  6-Cl) :   0.1063 B(  0-C ,  7-H ) :   0.6405
B(  0-C ,  8-H ) :   0.1973 B(  0-C ,  9-H ) :   0.2091 B(  1-C ,  2-C ) :   0.1597
B(  1-C ,  3-C ) :   1.0668 B(  1-C ,  4-C ) :  -0.3442 B(  1-C ,  8-H ) :   0.5753
B(  2-C ,  3-C ) :  -0.1065 B(  2-C ,  4-C ) :   0.2132 B(  2-C ,  5-N ) :  -0.1440
B(  2-C ,  6-Cl) :  -0.4528 B(  2-C ,  9-H ) :   0.5529 B(  3-C ,  4-C ) :   0.2659
B(  3-C ,  5-N ) :   1.2829 B(  3-C , 10-H ) :   0.9529 B(  4-C ,  5-N ) :   1.2177
B(  4-C ,  6-Cl) :   1.3789 B(  5-N ,  6-Cl) :  -0.1697

MP2 TOTAL ENERGY:     -706.630946975 Eh
FINAL SINGLE POINT ENERGY      -706.630946975390

DIPOLE MOMENT
-------------
                                X             Y             Z
Electronic contribution:     -0.81549       8.57446       0.00000
Nuclear contribution   :      1.51024      -9.84986       0.00000
                        -----------------------------------------
Total Dipole Moment    :      0.69475      -1.27540       0.00000
                        -----------------------------------------
Magnitude (a.u.)       :      1.45235
Magnitude (Debye)      :      3.69158

Rotational constants in cm-1:     0.197845     0.053834     0.042319
Rotational constants in MHz :  5931.239868  1613.909376  1268.693743

                             ****ORCA TERMINATED NORMALLY****
TOTAL RUN TIME: 0 days 0 hours 0 minutes 37 seconds 895 msec
