                         Program Version 5.0.3 -  RELEASE  -
|  1> !ri-mp2 aug-cc-pvdz aug-cc-pvdz/c tightscf
|  2> %pal nprocs 16 end
|  3>
|  4> * xyz 0 1
|  5> C      1.015957    1.451343    0.163935
|  6> H      0.123868    2.040690   -0.046686
|  7> H      1.188253    1.483529    1.242634
|  8> H      1.861449    1.938979   -0.323138
|  9> S     -1.912944    0.066947   -0.125366
| 10> H     -2.706994   -0.873776    0.415091
| 11> C      2.163432   -0.784591   -0.063963
| 12> H      2.089609   -1.805448   -0.442007
| 13> H      3.013177   -0.307136   -0.553827
| 14> H      2.384593   -0.837208    1.004776
| 15> C     -0.305593   -0.718329    0.333908
| 16> H     -0.334382   -1.754724    0.003227
| 17> H     -0.203516   -0.701401    1.419378
| 18> C      0.875283    0.005676   -0.319616
| 19> H      0.696575    0.020737   -1.399165
| 20> *
| 21>
| 22>                          ****END OF INPUT****

CARTESIAN COORDINATES (ANGSTROEM)
---------------------------------
  C      1.015957    1.451343    0.163935
  H      0.123868    2.040690   -0.046686
  H      1.188253    1.483529    1.242634
  H      1.861449    1.938979   -0.323138
  S     -1.912944    0.066947   -0.125366
  H     -2.706994   -0.873776    0.415091
  C      2.163432   -0.784591   -0.063963
  H      2.089609   -1.805448   -0.442007
  H      3.013177   -0.307136   -0.553827
  H      2.384593   -0.837208    1.004776
  C     -0.305593   -0.718329    0.333908
  H     -0.334382   -1.754724    0.003227
  H     -0.203516   -0.701401    1.419378
  C      0.875283    0.005676   -0.319616
  H      0.696575    0.020737   -1.399165

 Total Charge           Charge          ....    0
 Multiplicity           Mult            ....    1
 Number of Electrons    NEL             ....   50
 Basis Dimension        Dim             ....  209

ORBITAL ENERGIES
----------------

  NO   OCC          E(Eh)            E(eV)
   0   2.0000     -91.950284     -2502.0944
   1   2.0000     -11.264700      -306.5281
   2   2.0000     -11.243140      -305.9414
   3   2.0000     -11.225744      -305.4680
   4   2.0000     -11.220655      -305.3296
   5   2.0000      -8.951840      -243.5920
   6   2.0000      -6.633953      -180.5190
   7   2.0000      -6.632604      -180.4823
   8   2.0000      -6.630498      -180.4250
   9   2.0000      -1.104833       -30.0640
  10   2.0000      -1.001230       -27.2449
  11   2.0000      -0.937008       -25.4973
  12   2.0000      -0.873244       -23.7622
  13   2.0000      -0.773236       -21.0408
  14   2.0000      -0.642993       -17.4967
  15   2.0000      -0.613797       -16.7023
  16   2.0000      -0.593159       -16.1407
  17   2.0000      -0.559996       -15.2383
  18   2.0000      -0.540926       -14.7193
  19   2.0000      -0.526816       -14.3354
  20   2.0000      -0.489674       -13.3247
  21   2.0000      -0.473469       -12.8837
  22   2.0000      -0.470007       -12.7896
  23   2.0000      -0.438814       -11.9407
  24   2.0000      -0.352106        -9.5813
  25   0.0000       0.035750         0.9728
  26   0.0000       0.042893         1.1672
  27   0.0000       0.048464         1.3188
  28   0.0000       0.049957         1.3594
  29   0.0000       0.065671         1.7870

MULLIKEN ATOMIC CHARGES
-----------------------
   0 C :    0.765113
   1 H :   -0.095866
   2 H :   -0.030739
   3 H :   -0.068625
   4 S :    0.226820
   5 H :    0.071791
   6 C :    0.754127
   7 H :   -0.091402
   8 H :   -0.082385
   9 H :   -0.011411
  10 C :    0.318518
  11 H :   -0.194030
  12 H :   -0.135726
  13 C :   -1.263748
  14 H :   -0.162437
Sum of atomic charges:    0.0000000

LOEWDIN ATOMIC CHARGES
----------------------
   0 C :    0.139444
   1 H :   -0.035768
   2 H :   -0.010521
   3 H :   -0.014877
   4 S :    0.719341
   5 H :   -0.234062
   6 C :    0.152341
   7 H :   -0.015727
   8 H :   -0.014050
   9 H :   -0.010938
  10 C :   -0.285422
  11 H :   -0.032598
  12 H :   -0.028223
  13 C :   -0.357951
  14 H :    0.029011

  Mayer bond orders larger than 0.100000
B(  0-C ,  1-H ) :   0.8394 B(  0-C ,  2-H ) :   0.9076 B(  0-C ,  3-H ) :   0.8118
B(  0-C ,  6-C ) :  -0.1525 B(  0-C , 13-C ) :   1.3718 B(  1-H , 13-C ) :   0.1001
B(  2-H , 13-C ) :   0.1452 B(  3-H , 13-C ) :   0.1219 B(  4-S ,  5-H ) :   0.9615
B(  4-S , 10-C ) :   1.2506 B(  4-S , 12-H ) :  -0.1073 B(  4-S , 13-C ) :  -0.1643
B(  6-C ,  7-H ) :   0.8200 B(  6-C ,  8-H ) :   0.8238 B(  6-C ,  9-H ) :   0.9092
B(  6-C , 10-C ) :  -0.1025 B(  6-C , 13-C ) :   1.3764 B(  7-H ,  8-H ) :  -0.1001
B(  7-H , 13-C ) :   0.1159 B(  8-H , 13-C ) :   0.1535 B( 10-C , 11-H ) :   0.8248
B( 10-C , 12-H ) :   0.9267 B( 10-C , 13-C ) :   1.1270 B( 11-H , 13-C ) :   0.2196
B( 13-C , 14-H ) :   0.7417

MP2 TOTAL ENERGY:     -555.600077479 Eh
FINAL SINGLE POINT ENERGY      -555.600077479281

DIPOLE MOMENT
-------------
                                X             Y             Z
Electronic contribution:     -8.02851       0.38048      -1.14495
Nuclear contribution   :      8.50870      -0.83073       1.37876
                        -----------------------------------------
Total Dipole Moment    :      0.48019      -0.45025       0.23381
                        -----------------------------------------
Magnitude (a.u.)       :      0.69855
Magnitude (Debye)      :      1.77557

Rotational constants in cm-1:     0.246294     0.070658     0.059051
Rotational constants in MHz :  7383.703205  2118.264680  1770.308955

                             ****ORCA TERMINATED NORMALLY****
TOTAL RUN TIME: 0 days 0 hours 0 minutes 40 seconds 533 msec
