                         Program Version 5.0.3 -  RELEASE  -
|  1> !ri-mp2 aug-cc-pvdz aug-cc-pvdz/c tightscf
|  2> %pal nprocs 16 end
|  3>
|  4> * xyz 0 1
|  5> C     1.447868    1.099623    0.000000
|  6> C    -1.447868   -1.099623    0.000000
|  7> C     2.286737    0.027705    0.000000
|  8> C    -2.286737   -0.027705    0.000000
|  9> C     0.088213    0.687881    0.000000
| 10> C    -0.088213   -0.687881    0.000000
| 11> S     1.447868   -1.498577    0.000000
| 12> S    -1.447868    1.498577    0.000000
| 13> H     1.786562    2.124058    0.000000
| 14> H    -1.786562   -2.124058    0.000000
| 15> H     3.363551    0.035733    0.000000
| 16> H    -3.363551   -0.035733    0.000000
| 17> *
| 18>
| 19>                          ****END OF INPUT****

CARTESIAN COORDINATES (ANGSTROEM)
---------------------------------
  C      1.447868    1.099623    0.000000
  C     -1.447868   -1.099623    0.000000
  C      2.286737    0.027705    0.000000
  C     -2.286737   -0.027705    0.000000
  C      0.088213    0.687881    0.000000
  C     -0.088213   -0.687881    0.000000
  S      1.447868   -1.498577    0.000000
  S     -1.447868    1.498577    0.000000
  H      1.786562    2.124058    0.000000
  H     -1.786562   -2.124058    0.000000
  H      3.363551    0.035733    0.000000
  H     -3.363551   -0.035733    0.000000

 Total Charge           Charge          ....    0
 Multiplicity           Mult            ....    1
 Number of Electrons    NEL             ....   72
 Basis Dimension        Dim             ....  228

ORBITAL ENERGIES
----------------

  NO   OCC          E(Eh)            E(eV)
   0   2.0000     -91.991418     -2503.2137
   1   2.0000     -91.991418     -2503.2137
   2   2.0000     -11.278713      -306.9094
   3   2.0000     -11.278712      -306.9094
   4   2.0000     -11.274422      -306.7926
   5   2.0000     -11.273140      -306.7577
   6   2.0000     -11.258554      -306.3608
   7   2.0000     -11.258551      -306.3608
   8   2.0000      -8.993198      -244.7174
   9   2.0000      -8.993196      -244.7173
  10   2.0000      -6.674865      -181.6323
  11   2.0000      -6.674864      -181.6323
  12   2.0000      -6.674083      -181.6110
  13   2.0000      -6.674083      -181.6110
  14   2.0000      -6.672049      -181.5557
  15   2.0000      -6.672048      -181.5557
  16   2.0000      -1.212184       -32.9852
  17   2.0000      -1.124620       -30.6025
  18   2.0000      -1.027249       -27.9529
  19   2.0000      -0.968782       -26.3619
  20   2.0000      -0.949798       -25.8453
  21   2.0000      -0.804995       -21.9050
  22   2.0000      -0.767403       -20.8821
  23   2.0000      -0.719819       -19.5873
  24   2.0000      -0.670535       -18.2462
  25   2.0000      -0.643665       -17.5150
  26   2.0000      -0.568238       -15.4625
  27   2.0000      -0.564111       -15.3502
  28   2.0000      -0.538040       -14.6408
  29   2.0000      -0.532662       -14.4945
  30   2.0000      -0.500229       -13.6119
  31   2.0000      -0.468917       -12.7599
  32   2.0000      -0.462852       -12.5948
  33   2.0000      -0.389736       -10.6052
  34   2.0000      -0.322800        -8.7838
  35   2.0000      -0.301995        -8.2177
  36   0.0000       0.035941         0.9780
  37   0.0000       0.036711         0.9990
  38   0.0000       0.047386         1.2894
  39   0.0000       0.051850         1.4109
  40   0.0000       0.080989         2.2038

MULLIKEN ATOMIC CHARGES
-----------------------
   0 C :    0.249208
   1 C :    0.249208
   2 C :   -0.084190
   3 C :   -0.084190
   4 C :   -0.227435
   5 C :   -0.227435
   6 S :    0.726105
   7 S :    0.726105
   8 H :   -0.303374
   9 H :   -0.303374
  10 H :   -0.360314
  11 H :   -0.360314
Sum of atomic charges:   -0.0000000

LOEWDIN ATOMIC CHARGES
----------------------
   0 C :   -0.100936
   1 C :   -0.100936
   2 C :   -0.275706
   3 C :   -0.275706
   4 C :   -0.537914
   5 C :   -0.537914
   6 S :    0.979823
   7 S :    0.979823
   8 H :   -0.008806
   9 H :   -0.008806
  10 H :   -0.056461
  11 H :   -0.056461

  Mayer bond orders larger than 0.100000
B(  0-C ,  1-C ) :   0.4183 B(  0-C ,  2-C ) :   2.0605 B(  0-C ,  3-C ) :   0.2035
B(  0-C ,  4-C ) :   1.4180 B(  0-C ,  8-H ) :   0.5633 B(  0-C , 10-H ) :   0.1640
B(  1-C ,  2-C ) :   0.2035 B(  1-C ,  3-C ) :   2.0605 B(  1-C ,  5-C ) :   1.4180
B(  1-C ,  9-H ) :   0.5633 B(  1-C , 11-H ) :   0.1640 B(  2-C ,  3-C ) :   0.1226
B(  2-C ,  4-C ) :  -0.1389 B(  2-C ,  5-C ) :  -0.1268 B(  2-C ,  6-S ) :   0.7088
B(  2-C ,  8-H ) :  -0.1009 B(  2-C , 10-H ) :   0.8524 B(  3-C ,  4-C ) :  -0.1268
B(  3-C ,  5-C ) :  -0.1389 B(  3-C ,  7-S ) :   0.7088 B(  3-C ,  9-H ) :  -0.1009
B(  3-C , 11-H ) :   0.8524 B(  4-C ,  5-C ) :   2.7113 B(  4-C ,  7-S ) :   0.8260
B(  4-C ,  8-H ) :   0.2609 B(  5-C ,  6-S ) :   0.8260 B(  5-C ,  9-H ) :   0.2609
B(  6-S , 10-H ) :  -0.1724 B(  7-S , 11-H ) :  -0.1724

MP2 TOTAL ENERGY:    -1025.693015961 Eh
FINAL SINGLE POINT ENERGY     -1025.693015961267

DIPOLE MOMENT
-------------
                                X             Y             Z
Electronic contribution:      0.00000      -0.00000       0.00000
Nuclear contribution   :      0.00000       0.00000       0.00000
                        -----------------------------------------
Total Dipole Moment    :      0.00000      -0.00000       0.00000
                        -----------------------------------------
Magnitude (a.u.)       :      0.00000
Magnitude (Debye)      :      0.00000

Rotational constants in cm-1:     0.111868     0.044055     0.031607
Rotational constants in MHz :  3353.724472  1320.725729   947.566025

                             ****ORCA TERMINATED NORMALLY****
TOTAL RUN TIME: 0 days 0 hours 1 minutes 9 seconds 613 msec
