                         Program Version 5.0.3 -  RELEASE  -
|  1> !ri-mp2 aug-cc-pvdz aug-cc-pvdz/c tightscf
|  2> %pal nprocs 16 end
|  3>
|  4> * xyz 0 1
|  5> C      0.000000    1.243074    0.098143
|  6> C      0.000000   -1.243074    0.098143
|  7> C      1.350214    1.778331   -0.300826
|  8> C     -1.350214   -1.778331   -0.300826
|  9> C      0.000000    0.000000    0.994477
| 10> O     -1.040368    1.730141   -0.279145
| 11> O      1.040368   -1.730141   -0.279145
| 12> H      1.852898    2.184930    0.580181
| 13> H      1.978873    0.968481   -0.675930
| 14> H      1.241245    2.557857   -1.049844
| 15> H     -1.241245   -2.557857   -1.049844
| 16> H     -1.852898   -2.184930    0.580181
| 17> H     -1.978873   -0.968481   -0.675930
| 18> H     -0.895614    0.031398    1.611420
| 19> H      0.895614   -0.031398    1.611420
| 20> *
| 21>
| 22>                          ****END OF INPUT****

CARTESIAN COORDINATES (ANGSTROEM)
---------------------------------
  C      0.000000    1.243074    0.098143
  C      0.000000   -1.243074    0.098143
  C      1.350214    1.778331   -0.300826
  C     -1.350214   -1.778331   -0.300826
  C      0.000000    0.000000    0.994477
  O     -1.040368    1.730141   -0.279145
  O      1.040368   -1.730141   -0.279145
  H      1.852898    2.184930    0.580181
  H      1.978873    0.968481   -0.675930
  H      1.241245    2.557857   -1.049844
  H     -1.241245   -2.557857   -1.049844
  H     -1.852898   -2.184930    0.580181
  H     -1.978873   -0.968481   -0.675930
  H     -0.895614    0.031398    1.611420
  H      0.895614   -0.031398    1.611420

 Total Charge           Charge          ....    0
 Multiplicity           Mult            ....    1
 Number of Electrons    NEL             ....   54
 Basis Dimension        Dim             ....  233

ORBITAL ENERGIES
----------------

  NO   OCC          E(Eh)            E(eV)
   0   2.0000     -20.571725      -559.7851
   1   2.0000     -20.571724      -559.7851
   2   2.0000     -11.357106      -309.0426
   3   2.0000     -11.357104      -309.0425
   4   2.0000     -11.261013      -306.4277
   5   2.0000     -11.246881      -306.0432
   6   2.0000     -11.246881      -306.0432
   7   2.0000      -1.412431       -38.4342
   8   2.0000      -1.406211       -38.2649
   9   2.0000      -1.078293       -29.3419
  10   2.0000      -1.024310       -27.8729
  11   2.0000      -0.977101       -26.5883
  12   2.0000      -0.783665       -21.3246
  13   2.0000      -0.740823       -20.1588
  14   2.0000      -0.673013       -18.3136
  15   2.0000      -0.664999       -18.0955
  16   2.0000      -0.664784       -18.0897
  17   2.0000      -0.628870       -17.1124
  18   2.0000      -0.602110       -16.3843
  19   2.0000      -0.595421       -16.2022
  20   2.0000      -0.574457       -15.6318
  21   2.0000      -0.556996       -15.1566
  22   2.0000      -0.538624       -14.6567
  23   2.0000      -0.512504       -13.9459
  24   2.0000      -0.509094       -13.8531
  25   2.0000      -0.434082       -11.8120
  26   2.0000      -0.414033       -11.2664
  27   0.0000       0.032151         0.8749
  28   0.0000       0.040793         1.1100
  29   0.0000       0.044865         1.2208
  30   0.0000       0.056252         1.5307
  31   0.0000       0.062322         1.6959

MULLIKEN ATOMIC CHARGES
-----------------------
   0 C :    0.223981
   1 C :    0.223981
   2 C :    0.364743
   3 C :    0.364743
   4 C :    0.666793
   5 O :   -0.822012
   6 O :   -0.822012
   7 H :    0.088670
   8 H :    0.015932
   9 H :   -0.075653
  10 H :   -0.075653
  11 H :    0.088670
  12 H :    0.015932
  13 H :   -0.129057
  14 H :   -0.129057
Sum of atomic charges:   -0.0000000

LOEWDIN ATOMIC CHARGES
----------------------
   0 C :   -0.303106
   1 C :   -0.303106
   2 C :    0.201202
   3 C :    0.201202
   4 C :    0.075213
   5 O :    0.050983
   6 O :    0.050983
   7 H :   -0.002128
   8 H :   -0.002578
   9 H :   -0.005557
  10 H :   -0.005557
  11 H :   -0.002128
  12 H :   -0.002578
  13 H :    0.023578
  14 H :    0.023578

  Mayer bond orders larger than 0.100000
B(  0-C ,  2-C ) :   1.2048 B(  0-C ,  4-C ) :   1.0235 B(  0-C ,  5-O ) :   1.3637
B(  0-C ,  9-H ) :   0.1698 B(  1-C ,  3-C ) :   1.2048 B(  1-C ,  4-C ) :   1.0235
B(  1-C ,  6-O ) :   1.3637 B(  1-C , 10-H ) :   0.1698 B(  2-C ,  7-H ) :   0.9332
B(  2-C ,  8-H ) :   0.9512 B(  2-C ,  9-H ) :   0.8203 B(  3-C , 10-H ) :   0.8203
B(  3-C , 11-H ) :   0.9332 B(  3-C , 12-H ) :   0.9512 B(  4-C , 13-H ) :   0.7950
B(  4-C , 14-H ) :   0.7950

MP2 TOTAL ENERGY:     -344.866561139 Eh
FINAL SINGLE POINT ENERGY      -344.866561139145

DIPOLE MOMENT
-------------
                                X             Y             Z
Electronic contribution:     -0.00000       0.00000      -0.22786
Nuclear contribution   :      0.00000      -0.00000       0.93483
                        -----------------------------------------
Total Dipole Moment    :     -0.00000       0.00000       0.70697
                        -----------------------------------------
Magnitude (a.u.)       :      0.70697
Magnitude (Debye)      :      1.79696

Rotational constants in cm-1:     0.138945     0.064374     0.050846
Rotational constants in MHz :  4165.473102  1929.891375  1524.319733

                             ****ORCA TERMINATED NORMALLY****
TOTAL RUN TIME: 0 days 0 hours 1 minutes 1 seconds 753 msec
