                         Program Version 5.0.3 -  RELEASE  -
|  1> !ri-mp2 aug-cc-pvdz aug-cc-pvdz/c tightscf
|  2> %pal nprocs 16 end
|  3>
|  4> * xyz 0 1
|  5> Cl    -2.599175   -0.886996   -0.000001
|  6> Cl     2.613285   -0.893714    0.000000
|  7> N      0.001967   -0.687993    0.000000
|  8> N     -1.233601    1.339871    0.000000
|  9> C     -1.116676    0.025543    0.000000
| 10> C      1.121365    0.005739    0.000000
| 11> C      1.154461    1.395274    0.000000
| 12> C     -0.082104    2.017431    0.000000
| 13> H      2.080180    1.947300    0.000000
| 14> H     -0.160883    3.097694    0.000002
| 15> *
| 16>
| 17>                          ****END OF INPUT****

CARTESIAN COORDINATES (ANGSTROEM)
---------------------------------
  Cl    -2.599175   -0.886996   -0.000001
  Cl     2.613285   -0.893714    0.000000
  N      0.001967   -0.687993    0.000000
  N     -1.233601    1.339871    0.000000
  C     -1.116676    0.025543    0.000000
  C      1.121365    0.005739    0.000000
  C      1.154461    1.395274    0.000000
  C     -0.082104    2.017431    0.000000
  H      2.080180    1.947300    0.000000
  H     -0.160883    3.097694    0.000002

 Total Charge           Charge          ....    0
 Multiplicity           Mult            ....    1
 Number of Electrons    NEL             ....   74
 Basis Dimension        Dim             ....  210

ORBITAL ENERGIES
----------------

  NO   OCC          E(Eh)            E(eV)
   0   2.0000    -104.867996     -2853.6032
   1   2.0000    -104.854926     -2853.2476
   2   2.0000     -15.616494      -424.9464
   3   2.0000     -15.611065      -424.7987
   4   2.0000     -11.407485      -310.4135
   5   2.0000     -11.392434      -310.0039
   6   2.0000     -11.336967      -308.4945
   7   2.0000     -11.283651      -307.0438
   8   2.0000     -10.594303      -288.2856
   9   2.0000     -10.581447      -287.9358
  10   2.0000      -8.062094      -219.3807
  11   2.0000      -8.058567      -219.2847
  12   2.0000      -8.058483      -219.2825
  13   2.0000      -8.049244      -219.0311
  14   2.0000      -8.045700      -218.9346
  15   2.0000      -8.045535      -218.9301
  16   2.0000      -1.372696       -37.3529
  17   2.0000      -1.254278       -34.1306
  18   2.0000      -1.182481       -32.1770
  19   2.0000      -1.135127       -30.8884
  20   2.0000      -1.070422       -29.1277
  21   2.0000      -0.919677       -25.0257
  22   2.0000      -0.893156       -24.3040
  23   2.0000      -0.756601       -20.5882
  24   2.0000      -0.729753       -19.8576
  25   2.0000      -0.666362       -18.1326
  26   2.0000      -0.639157       -17.3923
  27   2.0000      -0.620315       -16.8796
  28   2.0000      -0.599796       -16.3213
  29   2.0000      -0.534448       -14.5431
  30   2.0000      -0.511046       -13.9063
  31   2.0000      -0.487315       -13.2605
  32   2.0000      -0.486486       -13.2380
  33   2.0000      -0.476208       -12.9583
  34   2.0000      -0.447115       -12.1666
  35   2.0000      -0.440027       -11.9737
  36   2.0000      -0.387073       -10.5328
  37   0.0000       0.027389         0.7453
  38   0.0000       0.046183         1.2567
  39   0.0000       0.059749         1.6259
  40   0.0000       0.069917         1.9025
  41   0.0000       0.073820         2.0088

MULLIKEN ATOMIC CHARGES
-----------------------
   0 Cl:   -0.000888
   1 Cl:   -0.155080
   2 N :   -0.440942
   3 N :   -0.482312
   4 C :   -0.022672
   5 C :   -0.163959
   6 C :    1.403730
   7 C :    0.425854
   8 H :   -0.296926
   9 H :   -0.266805
Sum of atomic charges:    0.0000000

LOEWDIN ATOMIC CHARGES
----------------------
   0 Cl:    0.597824
   1 Cl:    0.606510
   2 N :   -0.018388
   3 N :    0.011043
   4 C :   -0.632297
   5 C :   -0.586344
   6 C :    0.011073
   7 C :   -0.003425
   8 H :   -0.001596
   9 H :    0.015600

  Mayer bond orders larger than 0.100000
B(  0-Cl,  2-N ) :  -0.1370 B(  0-Cl,  3-N ) :  -0.1388 B(  0-Cl,  4-C ) :   1.3280
B(  1-Cl,  2-N ) :  -0.1177 B(  1-Cl,  5-C ) :   1.2929 B(  1-Cl,  6-C ) :  -0.3303
B(  2-N ,  4-C ) :   1.3175 B(  2-N ,  5-C ) :   1.1647 B(  2-N ,  6-C ) :  -0.1110
B(  3-N ,  4-C ) :   1.3118 B(  3-N ,  7-C ) :   1.1441 B(  4-C ,  5-C ) :  -0.1290
B(  4-C ,  7-C ) :  -0.1729 B(  5-C ,  6-C ) :   0.5476 B(  5-C ,  7-C ) :   0.3427
B(  6-C ,  7-C ) :   1.1472 B(  6-C ,  8-H ) :   0.6969 B(  7-C ,  9-H ) :   0.9209

MP2 TOTAL ENERGY:    -1181.722077434 Eh
FINAL SINGLE POINT ENERGY     -1181.722077434083

DIPOLE MOMENT
-------------
                                X             Y             Z
Electronic contribution:     -0.96271      -5.99222      -0.00000
Nuclear contribution   :      1.76486       7.08638       0.00000
                        -----------------------------------------
Total Dipole Moment    :      0.80215       1.09416       0.00000
                        -----------------------------------------
Magnitude (a.u.)       :      1.35670
Magnitude (Debye)      :      3.44845

Rotational constants in cm-1:     0.097252     0.030456     0.023193
Rotational constants in MHz :  2915.545460   913.040938   695.299018

                             ****ORCA TERMINATED NORMALLY****
TOTAL RUN TIME: 0 days 0 hours 0 minutes 42 seconds 438 msec
