                         Program Version 5.0.3 -  RELEASE  -
|  1> !ri-mp2 aug-cc-pvdz aug-cc-pvdz/c tightscf
|  2> %pal nprocs 16 end
|  3>
|  4> * xyz 0 1
|  5> O      2.314952   -0.784408    0.074091
|  6> N      0.623911    0.847435   -0.202435
|  7> N     -2.202485   -1.136869   -0.048234
|  8> C     -0.767680    1.044455    0.111907
|  9> C      1.438243   -0.023374   -0.027656
| 10> C     -1.574416   -0.177183    0.019351
| 11> H     -1.175339    1.782439   -0.578436
| 12> H     -0.871142    1.455478    1.118785
| 13> *
| 14>
| 15>                          ****END OF INPUT****

CARTESIAN COORDINATES (ANGSTROEM)
---------------------------------
  O      2.314952   -0.784408    0.074091
  N      0.623911    0.847435   -0.202435
  N     -2.202485   -1.136869   -0.048234
  C     -0.767680    1.044455    0.111907
  C      1.438243   -0.023374   -0.027656
  C     -1.574416   -0.177183    0.019351
  H     -1.175339    1.782439   -0.578436
  H     -0.871142    1.455478    1.118785

 Total Charge           Charge          ....    0
 Multiplicity           Mult            ....    1
 Number of Electrons    NEL             ....   42
 Basis Dimension        Dim             ....  156

ORBITAL ENERGIES
----------------

  NO   OCC          E(Eh)            E(eV)
   0   2.0000     -20.643024      -561.7252
   1   2.0000     -15.625764      -425.1986
   2   2.0000     -15.608823      -424.7377
   3   2.0000     -11.439897      -311.2954
   4   2.0000     -11.370592      -309.4095
   5   2.0000     -11.306951      -307.6778
   6   2.0000      -1.491412       -40.5834
   7   2.0000      -1.314009       -35.7560
   8   2.0000      -1.249300       -33.9952
   9   2.0000      -1.070987       -29.1430
  10   2.0000      -0.813791       -22.1444
  11   2.0000      -0.748836       -20.3769
  12   2.0000      -0.722792       -19.6682
  13   2.0000      -0.706476       -19.2242
  14   2.0000      -0.654808       -17.8182
  15   2.0000      -0.641224       -17.4486
  16   2.0000      -0.583442       -15.8763
  17   2.0000      -0.507657       -13.8141
  18   2.0000      -0.495498       -13.4832
  19   2.0000      -0.472449       -12.8560
  20   2.0000      -0.450699       -12.2641
  21   0.0000       0.024176         0.6579
  22   0.0000       0.043700         1.1891
  23   0.0000       0.064791         1.7630
  24   0.0000       0.067931         1.8485
  25   0.0000       0.097841         2.6624

MULLIKEN ATOMIC CHARGES
-----------------------
   0 O :   -0.412501
   1 N :   -0.392840
   2 N :   -0.320574
   3 C :    1.011810
   4 C :    0.255792
   5 C :   -0.094148
   6 H :   -0.061916
   7 H :    0.014376
Sum of atomic charges:    0.0000000

LOEWDIN ATOMIC CHARGES
----------------------
   0 O :    0.119934
   1 N :    0.051031
   2 N :    0.086385
   3 C :   -0.027017
   4 C :   -0.163829
   5 C :   -0.122554
   6 H :    0.025170
   7 H :    0.030881

  Mayer bond orders larger than 0.100000
B(  0-O ,  4-C ) :   1.9469 B(  1-N ,  3-C ) :   0.7225 B(  1-N ,  4-C ) :   2.0491
B(  2-N ,  5-C ) :   2.7016 B(  3-C ,  4-C ) :  -0.1628 B(  3-C ,  5-C ) :   0.8289
B(  3-C ,  6-H ) :   0.9183 B(  3-C ,  7-H ) :   0.8785

MP2 TOTAL ENERGY:     -299.460540735 Eh
FINAL SINGLE POINT ENERGY      -299.460540734955

DIPOLE MOMENT
-------------
                                X             Y             Z
Electronic contribution:      1.81885      -1.61823      -0.25998
Nuclear contribution   :     -1.94093       3.09881       0.51910
                        -----------------------------------------
Total Dipole Moment    :     -0.12208       1.48058       0.25912
                        -----------------------------------------
Magnitude (a.u.)       :      1.50804
Magnitude (Debye)      :      3.83312

Rotational constants in cm-1:     0.285294     0.074770     0.060280
Rotational constants in MHz :  8552.900152  2241.541131  1807.144534

                             ****ORCA TERMINATED NORMALLY****
TOTAL RUN TIME: 0 days 0 hours 0 minutes 29 seconds 176 msec
