                         Program Version 5.0.3 -  RELEASE  -
|  1> !ri-mp2 aug-cc-pvdz aug-cc-pvdz/c tightscf
|  2> %pal nprocs 16 end
|  3>
|  4> * xyz 0 1
|  5> C      2.099858    0.369973    0.299455
|  6> S      0.769670   -0.705032   -0.323442
|  7> C     -0.727952    0.124983    0.364432
|  8> C     -0.985167    1.492597   -0.260375
|  9> C     -1.906973   -0.823775    0.163596
| 10> H      3.037274   -0.105810    0.018885
| 11> H      2.064635    1.361496   -0.147229
| 12> H      2.058488    0.449131    1.385117
| 13> H     -0.544665    0.242009    1.434900
| 14> H     -0.145508    2.172003   -0.117608
| 15> H     -1.738088   -1.779969    0.657497
| 16> H     -1.166779    1.398813   -1.331795
| 17> H     -1.863937    1.955096    0.196475
| 18> H     -2.816392   -0.380971    0.573674
| 19> H     -2.078342   -1.013952   -0.897490
| 20> *
| 21>
| 22>                          ****END OF INPUT****

CARTESIAN COORDINATES (ANGSTROEM)
---------------------------------
  C      2.099858    0.369973    0.299455
  S      0.769670   -0.705032   -0.323442
  C     -0.727952    0.124983    0.364432
  C     -0.985167    1.492597   -0.260375
  C     -1.906973   -0.823775    0.163596
  H      3.037274   -0.105810    0.018885
  H      2.064635    1.361496   -0.147229
  H      2.058488    0.449131    1.385117
  H     -0.544665    0.242009    1.434900
  H     -0.145508    2.172003   -0.117608
  H     -1.738088   -1.779969    0.657497
  H     -1.166779    1.398813   -1.331795
  H     -1.863937    1.955096    0.196475
  H     -2.816392   -0.380971    0.573674
  H     -2.078342   -1.013952   -0.897490

 Total Charge           Charge          ....    0
 Multiplicity           Mult            ....    1
 Number of Electrons    NEL             ....   50
 Basis Dimension        Dim             ....  209

ORBITAL ENERGIES
----------------

  NO   OCC          E(Eh)            E(eV)
   0   2.0000     -91.939002     -2501.7874
   1   2.0000     -11.267192      -306.5959
   2   2.0000     -11.255494      -306.2776
   3   2.0000     -11.227014      -305.5026
   4   2.0000     -11.226620      -305.4919
   5   2.0000      -8.940522      -243.2840
   6   2.0000      -6.622539      -180.2084
   7   2.0000      -6.621071      -180.1685
   8   2.0000      -6.619143      -180.1160
   9   2.0000      -1.096176       -29.8285
  10   2.0000      -1.006392       -27.3853
  11   2.0000      -0.940563       -25.5940
  12   2.0000      -0.864956       -23.5366
  13   2.0000      -0.764385       -20.8000
  14   2.0000      -0.629570       -17.1315
  15   2.0000      -0.610819       -16.6212
  16   2.0000      -0.587016       -15.9735
  17   2.0000      -0.576993       -15.7008
  18   2.0000      -0.555629       -15.1194
  19   2.0000      -0.542133       -14.7522
  20   2.0000      -0.499319       -13.5872
  21   2.0000      -0.492960       -13.4141
  22   2.0000      -0.463195       -12.6042
  23   2.0000      -0.414878       -11.2894
  24   2.0000      -0.332625        -9.0512
  25   0.0000       0.036152         0.9837
  26   0.0000       0.043446         1.1822
  27   0.0000       0.049137         1.3371
  28   0.0000       0.050617         1.3774
  29   0.0000       0.064262         1.7487

MULLIKEN ATOMIC CHARGES
-----------------------
   0 C :    0.128758
   1 S :    0.340118
   2 C :   -0.866154
   3 C :    0.548675
   4 C :    0.665911
   5 H :   -0.107942
   6 H :   -0.062290
   7 H :   -0.093790
   8 H :   -0.150510
   9 H :   -0.178435
  10 H :   -0.086916
  11 H :   -0.021863
  12 H :   -0.036242
  13 H :   -0.048947
  14 H :   -0.030374
Sum of atomic charges:   -0.0000000

LOEWDIN ATOMIC CHARGES
----------------------
   0 C :   -0.137666
   1 S :    0.826979
   2 C :   -0.534019
   3 C :    0.098427
   4 C :    0.087950
   5 H :   -0.072379
   6 H :   -0.076501
   7 H :   -0.066260
   8 H :   -0.008893
   9 H :   -0.032373
  10 H :   -0.021948
  11 H :   -0.013844
  12 H :   -0.014723
  13 H :   -0.016795
  14 H :   -0.017955

  Mayer bond orders larger than 0.100000
B(  0-C ,  1-S ) :   1.0260 B(  0-C ,  5-H ) :   0.9914 B(  0-C ,  6-H ) :   0.9790
B(  0-C ,  7-H ) :   1.0003 B(  1-S ,  2-C ) :   0.8747 B(  2-C ,  3-C ) :   1.3555
B(  2-C ,  4-C ) :   1.3100 B(  2-C ,  8-H ) :   0.8070 B(  2-C , 10-H ) :   0.1420
B(  3-C ,  4-C ) :  -0.1109 B(  3-C ,  9-H ) :   0.9197 B(  3-C , 11-H ) :   0.9439
B(  3-C , 12-H ) :   0.8499 B(  4-C , 10-H ) :   0.8430 B(  4-C , 13-H ) :   0.8515
B(  4-C , 14-H ) :   0.9535

MP2 TOTAL ENERGY:     -555.597281700 Eh
FINAL SINGLE POINT ENERGY      -555.597281700337

DIPOLE MOMENT
-------------
                                X             Y             Z
Electronic contribution:      3.22328      -3.90908      -1.43918
Nuclear contribution   :     -3.34975       4.49776       1.85592
                        -----------------------------------------
Total Dipole Moment    :     -0.12647       0.58868       0.41674
                        -----------------------------------------
Magnitude (a.u.)       :      0.73227
Magnitude (Debye)      :      1.86128

Rotational constants in cm-1:     0.200731     0.090299     0.069767
Rotational constants in MHz :  6017.770668  2707.094575  2091.566419

                             ****ORCA TERMINATED NORMALLY****
TOTAL RUN TIME: 0 days 0 hours 0 minutes 36 seconds 350 msec
