                         Program Version 5.0.3 -  RELEASE  -
|  1> !ri-mp2 aug-cc-pvdz aug-cc-pvdz/c tightscf
|  2> %pal nprocs 16 end
|  3>
|  4> * xyz 0 1
|  5> C     -1.431534   -1.031992    0.000000
|  6> C     -1.295454    0.385519    0.000000
|  7> C     -0.233038   -1.675211    0.000000
|  8> C      0.000000    0.813659    0.000000
|  9> C      0.515874    2.217453    0.000000
| 10> S      1.080231   -0.550999    0.000000
| 11> H     -2.381672   -1.545414    0.000000
| 12> H     -2.133617    1.068000    0.000000
| 13> H     -0.039022   -2.734092    0.000000
| 14> H     -0.319300    2.917141    0.000000
| 15> H      1.127412    2.426894    0.879789
| 16> H      1.127412    2.426894   -0.879789
| 17> *
| 18>
| 19>                          ****END OF INPUT****

CARTESIAN COORDINATES (ANGSTROEM)
---------------------------------
  C     -1.431534   -1.031992    0.000000
  C     -1.295454    0.385519    0.000000
  C     -0.233038   -1.675211    0.000000
  C      0.000000    0.813659    0.000000
  C      0.515874    2.217453    0.000000
  S      1.080231   -0.550999    0.000000
  H     -2.381672   -1.545414    0.000000
  H     -2.133617    1.068000    0.000000
  H     -0.039022   -2.734092    0.000000
  H     -0.319300    2.917141    0.000000
  H      1.127412    2.426894    0.879789
  H      1.127412    2.426894   -0.879789

 Total Charge           Charge          ....    0
 Multiplicity           Mult            ....    1
 Number of Electrons    NEL             ....   52
 Basis Dimension        Dim             ....  196

ORBITAL ENERGIES
----------------

  NO   OCC          E(Eh)            E(eV)
   0   2.0000     -91.977646     -2502.8390
   1   2.0000     -11.272408      -306.7378
   2   2.0000     -11.262418      -306.4660
   3   2.0000     -11.242991      -305.9373
   4   2.0000     -11.240515      -305.8700
   5   2.0000     -11.235150      -305.7240
   6   2.0000      -8.980431      -244.3700
   7   2.0000      -6.662096      -181.2848
   8   2.0000      -6.661213      -181.2608
   9   2.0000      -6.659378      -181.2109
  10   2.0000      -1.173618       -31.9358
  11   2.0000      -1.034479       -28.1496
  12   2.0000      -0.981741       -26.7145
  13   2.0000      -0.923133       -25.1197
  14   2.0000      -0.760419       -20.6921
  15   2.0000      -0.726408       -19.7666
  16   2.0000      -0.678312       -18.4578
  17   2.0000      -0.588314       -16.0088
  18   2.0000      -0.587239       -15.9796
  19   2.0000      -0.564571       -15.3628
  20   2.0000      -0.533685       -14.5223
  21   2.0000      -0.503679       -13.7058
  22   2.0000      -0.503111       -13.6903
  23   2.0000      -0.464527       -12.6404
  24   2.0000      -0.343338        -9.3427
  25   2.0000      -0.315916        -8.5965
  26   0.0000       0.035925         0.9776
  27   0.0000       0.039858         1.0846
  28   0.0000       0.046963         1.2779
  29   0.0000       0.057890         1.5753
  30   0.0000       0.059908         1.6302

MULLIKEN ATOMIC CHARGES
-----------------------
   0 C :    0.093921
   1 C :    0.684887
   2 C :    0.046288
   3 C :   -0.560499
   4 C :    0.352294
   5 S :    0.535692
   6 H :   -0.320646
   7 H :   -0.460846
   8 H :   -0.362823
   9 H :   -0.116718
  10 H :    0.054225
  11 H :    0.054225
Sum of atomic charges:   -0.0000000

LOEWDIN ATOMIC CHARGES
----------------------
   0 C :   -0.103982
   1 C :   -0.066799
   2 C :   -0.290486
   3 C :   -0.508296
   4 C :    0.112455
   5 S :    0.978922
   6 H :   -0.010933
   7 H :   -0.005698
   8 H :   -0.059722
   9 H :   -0.014577
  10 H :   -0.015443
  11 H :   -0.015443

  Mayer bond orders larger than 0.100000
B(  0-C ,  1-C ) :   1.3602 B(  0-C ,  2-C ) :   2.0109 B(  0-C ,  4-C ) :   0.2434
B(  0-C ,  5-S ) :  -0.1084 B(  0-C ,  6-H ) :   0.7787 B(  0-C ,  8-H ) :   0.1687
B(  1-C ,  2-C ) :  -0.1824 B(  1-C ,  3-C ) :   2.1391 B(  1-C ,  4-C ) :  -0.1790
B(  1-C ,  7-H ) :   0.2599 B(  1-C ,  9-H ) :  -0.1063 B(  2-C ,  3-C ) :   0.1371
B(  2-C ,  4-C ) :   0.1070 B(  2-C ,  5-S ) :   0.9012 B(  2-C ,  8-H ) :   0.8410
B(  3-C ,  4-C ) :   1.2887 B(  3-C ,  5-S ) :   0.9364 B(  3-C ,  7-H ) :   0.3124
B(  3-C ,  9-H ) :   0.1958 B(  3-C , 10-H ) :   0.1665 B(  3-C , 11-H ) :   0.1665
B(  4-C ,  9-H ) :   0.8596 B(  4-C , 10-H ) :   0.8249 B(  4-C , 11-H ) :   0.8249
B(  5-S ,  8-H ) :  -0.1633

MP2 TOTAL ENERGY:     -591.209349508 Eh
FINAL SINGLE POINT ENERGY      -591.209349508064

DIPOLE MOMENT
-------------
                                X             Y             Z
Electronic contribution:      2.37274      -4.30833      -0.00000
Nuclear contribution   :     -2.63852       4.55296       0.00000
                        -----------------------------------------
Total Dipole Moment    :     -0.26579       0.24463      -0.00000
                        -----------------------------------------
Magnitude (a.u.)       :      0.36123
Magnitude (Debye)      :      0.91817

Rotational constants in cm-1:     0.176191     0.103588     0.066032
Rotational constants in MHz :  5282.071328  3105.501270  1979.596108

                             ****ORCA TERMINATED NORMALLY****
TOTAL RUN TIME: 0 days 0 hours 0 minutes 41 seconds 781 msec
