                         Program Version 5.0.3 -  RELEASE  -
|  1> !ri-mp2 aug-cc-pvdz aug-cc-pvdz/c tightscf
|  2> %pal nprocs 16 end
|  3> %maxcore 3800
|  4>
|  5> * xyz 0 1
|  6> C     4.003632    0.781182   -0.318561
|  7> C     2.827443    1.218501    0.371503
|  8> C    -2.371864    1.192790   -0.026218
|  9> C     3.730184   -0.458141   -0.785971
| 10> C    -4.074244   -0.047206   -0.382089
| 11> C    -1.871478   -0.079363   -0.130780
| 12> C     1.920234    0.210847    0.273998
| 13> C     0.008227   -1.281057    1.209323
| 14> C    -0.510143   -0.639727   -0.057973
| 15> C     0.549025    0.058342    0.769007
| 16> N    -3.738614    1.201606   -0.180938
| 17> N    -2.984446   -0.866017   -0.361682
| 18> O     2.461749   -0.825836   -0.433788
| 19> H     4.925307    1.321844   -0.446217
| 20> H     2.677596    2.159109    0.872631
| 21> H    -1.821739    2.102483    0.144386
| 22> H     4.287911   -1.179392   -1.354371
| 23> H    -5.072787   -0.417046   -0.546593
| 24> H    -0.640952   -1.290605    2.073149
| 25> H     0.657884   -2.137778    1.105053
| 26> H    -0.139037   -1.085527   -0.973867
| 27> H     0.211409    0.911932    1.338833
| 28> H    -2.984259   -1.864464   -0.477790
| 29> *
| 30>
| 31>                          ****END OF INPUT****

CARTESIAN COORDINATES (ANGSTROEM)
---------------------------------
  C      4.003632    0.781182   -0.318561
  C      2.827443    1.218501    0.371503
  C     -2.371864    1.192790   -0.026218
  C      3.730184   -0.458141   -0.785971
  C     -4.074244   -0.047206   -0.382089
  C     -1.871478   -0.079363   -0.130780
  C      1.920234    0.210847    0.273998
  C      0.008227   -1.281057    1.209323
  C     -0.510143   -0.639727   -0.057973
  C      0.549025    0.058342    0.769007
  N     -3.738614    1.201606   -0.180938
  N     -2.984446   -0.866017   -0.361682
  O      2.461749   -0.825836   -0.433788
  H      4.925307    1.321844   -0.446217
  H      2.677596    2.159109    0.872631
  H     -1.821739    2.102483    0.144386
  H      4.287911   -1.179392   -1.354371
  H     -5.072787   -0.417046   -0.546593
  H     -0.640952   -1.290605    2.073149
  H      0.657884   -2.137778    1.105053
  H     -0.139037   -1.085527   -0.973867
  H      0.211409    0.911932    1.338833
  H     -2.984259   -1.864464   -0.477790

 Total Charge           Charge          ....    0
 Multiplicity           Mult            ....    1
 Number of Electrons    NEL             ....   92
 Basis Dimension        Dim             ....  389

ORBITAL ENERGIES
----------------

  NO   OCC          E(Eh)            E(eV)
   0   2.0000     -20.631732      -561.4180
   1   2.0000     -15.624476      -425.1636
   2   2.0000     -15.550585      -423.1529
   3   2.0000     -11.302969      -307.5694
   4   2.0000     -11.300580      -307.5044
   5   2.0000     -11.292158      -307.2752
   6   2.0000     -11.270905      -306.6969
   7   2.0000     -11.261630      -306.4445
   8   2.0000     -11.260554      -306.4153
   9   2.0000     -11.247767      -306.0673
  10   2.0000     -11.244187      -305.9699
  11   2.0000     -11.236816      -305.7693
  12   2.0000     -11.230879      -305.6078
  13   2.0000      -1.462809       -39.8051
  14   2.0000      -1.343865       -36.5684
  15   2.0000      -1.181024       -32.1373
  16   2.0000      -1.163007       -31.6470
  17   2.0000      -1.088191       -29.6112
  18   2.0000      -1.029870       -28.0242
  19   2.0000      -1.002429       -27.2775
  20   2.0000      -0.874438       -23.7947
  21   2.0000      -0.856712       -23.3123
  22   2.0000      -0.823833       -22.4176
  23   2.0000      -0.813474       -22.1357
  24   2.0000      -0.791820       -21.5465
  25   2.0000      -0.760666       -20.6988
  26   2.0000      -0.734742       -19.9933
  27   2.0000      -0.725302       -19.7365
  28   2.0000      -0.646496       -17.5920
  29   2.0000      -0.642554       -17.4848
  30   2.0000      -0.637175       -17.3384
  31   2.0000      -0.610195       -16.6042
  32   2.0000      -0.596743       -16.2382
  33   2.0000      -0.581375       -15.8200
  34   2.0000      -0.569820       -15.5056
  35   2.0000      -0.564710       -15.3665
  36   2.0000      -0.548340       -14.9211
  37   2.0000      -0.544672       -14.8213
  38   2.0000      -0.535269       -14.5654
  39   2.0000      -0.464825       -12.6485
  40   2.0000      -0.458293       -12.4708
  41   2.0000      -0.425148       -11.5689
  42   2.0000      -0.397216       -10.8088
  43   2.0000      -0.395961       -10.7747
  44   2.0000      -0.311837        -8.4855
  45   2.0000      -0.303858        -8.2684
  46   0.0000       0.028333         0.7710
  47   0.0000       0.033911         0.9228
  48   0.0000       0.039988         1.0881
  49   0.0000       0.044799         1.2190
  50   0.0000       0.050926         1.3858

MULLIKEN ATOMIC CHARGES
-----------------------
   0 C :    0.427549
   1 C :    0.948759
   2 C :    0.888395
   3 C :    0.753681
   4 C :    0.838007
   5 C :   -0.344933
   6 C :   -0.618698
   7 C :    0.898783
   8 C :    1.135802
   9 C :    1.184793
  10 N :   -0.906667
  11 N :   -0.578898
  12 O :   -0.929700
  13 H :   -0.331853
  14 H :   -0.438752
  15 H :   -0.357586
  16 H :   -0.403418
  17 H :   -0.207728
  18 H :   -0.418938
  19 H :   -0.418440
  20 H :   -0.520552
  21 H :   -0.464608
  22 H :   -0.134998
Sum of atomic charges:    0.0000000

LOEWDIN ATOMIC CHARGES
----------------------
   0 C :   -0.001143
   1 C :    0.043331
   2 C :   -0.001533
   3 C :    0.011952
   4 C :   -0.030402
   5 C :   -0.154283
   6 C :   -0.169846
   7 C :    0.131594
   8 C :   -0.075919
   9 C :   -0.081753
  10 N :    0.015030
  11 N :    0.109760
  12 O :    0.095638
  13 H :   -0.008687
  14 H :   -0.003377
  15 H :   -0.005665
  16 H :   -0.012277
  17 H :    0.003068
  18 H :    0.009513
  19 H :    0.008102
  20 H :    0.039797
  21 H :    0.042164
  22 H :    0.034935

  Mayer bond orders larger than 0.100000
B(  0-C ,  1-C ) :   1.3052 B(  0-C ,  3-C ) :   1.7379 B(  0-C , 13-H ) :   0.6318
B(  0-C , 14-H ) :   0.1263 B(  0-C , 16-H ) :  -0.1371 B(  1-C ,  6-C ) :   1.3700
B(  1-C , 21-H ) :  -0.2308 B(  2-C ,  4-C ) :  -0.1680 B(  2-C ,  5-C ) :   1.4993
B(  2-C ,  6-C ) :   0.1902 B(  2-C ,  7-C ) :   0.1827 B(  2-C ,  9-C ) :  -0.1627
B(  2-C , 10-N ) :   0.7046 B(  2-C , 15-H ) :   0.3423 B(  3-C ,  6-C ) :   0.1011
B(  3-C ,  9-C ) :   0.1094 B(  3-C , 12-O ) :   0.6346 B(  3-C , 16-H ) :   0.9235
B(  4-C , 10-N ) :   1.5179 B(  4-C , 11-N ) :   1.0154 B(  4-C , 17-H ) :   0.9705
B(  4-C , 22-H ) :  -0.1142 B(  5-C ,  6-C ) :   0.2188 B(  5-C ,  8-C ) :   0.7174
B(  5-C ,  9-C ) :  -0.2349 B(  5-C , 10-N ) :   0.3039 B(  5-C , 11-N ) :   0.8195
B(  5-C , 15-H ) :   0.2559 B(  5-C , 17-H ) :   0.1569 B(  5-C , 19-H ) :   0.1163
B(  5-C , 20-H ) :   0.6757 B(  5-C , 21-H ) :   0.1163 B(  5-C , 22-H ) :  -0.1139
B(  6-C ,  7-C ) :   0.1884 B(  6-C ,  8-C ) :  -0.2021 B(  6-C ,  9-C ) :   0.8041
B(  6-C , 12-O ) :   0.5388 B(  6-C , 13-H ) :   0.1870 B(  6-C , 14-H ) :   0.6915
B(  6-C , 16-H ) :   0.1599 B(  6-C , 18-H ) :   0.1075 B(  6-C , 20-H ) :   0.1275
B(  6-C , 21-H ) :   0.8140 B(  7-C ,  8-C ) :   0.8271 B(  7-C ,  9-C ) :   0.8376
B(  7-C , 18-H ) :   0.7376 B(  7-C , 19-H ) :   0.6251 B(  8-C ,  9-C ) :   1.0145
B(  8-C , 15-H ) :   0.1215 B(  8-C , 20-H ) :  -0.1802 B(  9-C , 20-H ) :  -0.1820
B(  9-C , 21-H ) :  -0.1333 B( 11-N , 17-H ) :  -0.1846 B( 11-N , 22-H ) :   1.2106
B( 12-O , 16-H ) :  -0.1809 B( 18-H , 19-H ) :  -0.2028

MP2 TOTAL ENERGY:     -570.171732638 Eh
FINAL SINGLE POINT ENERGY      -570.171732638122

DIPOLE MOMENT
-------------
                                X             Y             Z
Electronic contribution:     -1.54261       0.23644      -1.68751
Nuclear contribution   :      2.08355      -1.47834       1.71112
                        -----------------------------------------
Total Dipole Moment    :      0.54094      -1.24190       0.02362
                        -----------------------------------------
Magnitude (a.u.)       :      1.35480
Magnitude (Debye)      :      3.44363

Rotational constants in cm-1:     0.088367     0.012238     0.011557
Rotational constants in MHz :  2649.175028   366.880849   346.476543

                             ****ORCA TERMINATED NORMALLY****
TOTAL RUN TIME: 0 days 0 hours 2 minutes 54 seconds 80 msec
