                         Program Version 5.0.3 -  RELEASE  -
|  1> !ri-mp2 aug-cc-pvdz aug-cc-pvdz/c tightscf
|  2> %pal nprocs 16 end
|  3>
|  4> * xyz 0 1
|  5> C      0.295502    2.961166    0.000000
|  6> H      1.366295    2.756811    0.000000
|  7> H      0.066568    3.574997    0.875789
|  8> H      0.066568    3.574997   -0.875789
|  9> C      1.035454   -2.497577    0.000000
| 10> H      1.764853   -1.690390    0.000000
| 11> H      1.228827   -3.123576   -0.875540
| 12> H      1.228827   -3.123576    0.875540
| 13> C     -0.380018   -2.011080    0.000000
| 14> H     -1.135032   -2.790309    0.000000
| 15> C     -0.810657   -0.742182    0.000000
| 16> H     -1.883957   -0.578533    0.000000
| 17> C      0.000000    0.461923    0.000000
| 18> H      1.078980    0.347754    0.000000
| 19> C     -0.506126    1.700221    0.000000
| 20> H     -1.586860    1.816991    0.000000
| 21> *
| 22>
| 23>                          ****END OF INPUT****

CARTESIAN COORDINATES (ANGSTROEM)
---------------------------------
  C      0.295502    2.961166    0.000000
  H      1.366295    2.756811    0.000000
  H      0.066568    3.574997    0.875789
  H      0.066568    3.574997   -0.875789
  C      1.035454   -2.497577    0.000000
  H      1.764853   -1.690390    0.000000
  H      1.228827   -3.123576   -0.875540
  H      1.228827   -3.123576    0.875540
  C     -0.380018   -2.011080    0.000000
  H     -1.135032   -2.790309    0.000000
  C     -0.810657   -0.742182    0.000000
  H     -1.883957   -0.578533    0.000000
  C      0.000000    0.461923    0.000000
  H      1.078980    0.347754    0.000000
  C     -0.506126    1.700221    0.000000
  H     -1.586860    1.816991    0.000000

 Total Charge           Charge          ....    0
 Multiplicity           Mult            ....    1
 Number of Electrons    NEL             ....   46
 Basis Dimension        Dim             ....  228

ORBITAL ENERGIES
----------------

  NO   OCC          E(Eh)            E(eV)
   0   2.0000     -11.236935      -305.7725
   1   2.0000     -11.234192      -305.6979
   2   2.0000     -11.229998      -305.5838
   3   2.0000     -11.229166      -305.5611
   4   2.0000     -11.228426      -305.5410
   5   2.0000     -11.227026      -305.5029
   6   2.0000      -1.101603       -29.9761
   7   2.0000      -1.048734       -28.5375
   8   2.0000      -0.966788       -26.3077
   9   2.0000      -0.904804       -24.6210
  10   2.0000      -0.779752       -21.2181
  11   2.0000      -0.730122       -19.8676
  12   2.0000      -0.647409       -17.6169
  13   2.0000      -0.617012       -16.7897
  14   2.0000      -0.569344       -15.4926
  15   2.0000      -0.567349       -15.4384
  16   2.0000      -0.563573       -15.3356
  17   2.0000      -0.538881       -14.6637
  18   2.0000      -0.517366       -14.0782
  19   2.0000      -0.507903       -13.8208
  20   2.0000      -0.471241       -12.8231
  21   2.0000      -0.422911       -11.5080
  22   2.0000      -0.300551        -8.1784
  23   0.0000       0.035780         0.9736
  24   0.0000       0.040416         1.0998
  25   0.0000       0.043638         1.1874
  26   0.0000       0.056920         1.5489
  27   0.0000       0.060572         1.6482

MULLIKEN ATOMIC CHARGES
-----------------------
   0 C :    0.182546
   1 H :   -0.161618
   2 H :    0.093580
   3 H :    0.093580
   4 C :    0.336625
   5 H :   -0.178898
   6 H :    0.098308
   7 H :    0.098308
   8 C :   -0.136593
   9 H :   -0.457883
  10 C :    0.547766
  11 H :   -0.565594
  12 C :    1.193030
  13 H :   -0.557513
  14 C :   -0.108409
  15 H :   -0.477235
Sum of atomic charges:   -0.0000000

LOEWDIN ATOMIC CHARGES
----------------------
   0 C :    0.130846
   1 H :   -0.018443
   2 H :   -0.017077
   3 H :   -0.017077
   4 C :    0.136186
   5 H :   -0.031720
   6 H :   -0.014643
   7 H :   -0.014643
   8 C :   -0.039524
   9 H :   -0.008114
  10 C :   -0.033086
  11 H :   -0.000780
  12 C :   -0.024319
  13 H :   -0.008575
  14 C :   -0.037380
  15 H :   -0.001648

  Mayer bond orders larger than 0.100000
B(  0-C ,  1-H ) :   0.9483 B(  0-C ,  2-H ) :   0.8881 B(  0-C ,  3-H ) :   0.8881
B(  0-C , 12-C ) :  -0.3118 B(  0-C , 13-H ) :  -0.1014 B(  0-C , 14-C ) :   1.3041
B(  0-C , 15-H ) :  -0.1336 B(  1-H , 12-C ) :  -0.1577 B(  1-H , 14-C ) :   0.1586
B(  4-C ,  5-H ) :   0.9867 B(  4-C ,  6-H ) :   0.8589 B(  4-C ,  7-H ) :   0.8589
B(  4-C ,  8-C ) :   1.2729 B(  4-C ,  9-H ) :  -0.1396 B(  4-C , 10-C ) :  -0.2520
B(  4-C , 14-C ) :   0.1435 B(  8-C ,  9-H ) :   0.5582 B(  8-C , 10-C ) :   1.8463
B(  8-C , 11-H ) :   0.1760 B(  8-C , 12-C ) :  -0.2778 B(  8-C , 14-C ) :   0.2839
B(  9-H , 10-C ) :   0.3410 B( 10-C , 11-H ) :   0.2026 B( 10-C , 12-C ) :   1.3619
B( 10-C , 13-H ) :   0.2867 B( 11-H , 12-C ) :   0.2943 B( 12-C , 13-H ) :   0.1555
B( 12-C , 14-C ) :   1.8762 B( 12-C , 15-H ) :   0.2489 B( 14-C , 15-H ) :   0.4912

MP2 TOTAL ENERGY:     -233.874933000 Eh
FINAL SINGLE POINT ENERGY      -233.874932999960

DIPOLE MOMENT
-------------
                                X             Y             Z
Electronic contribution:     -2.20443      -0.73059       0.00000
Nuclear contribution   :      2.30851       0.80471       0.00000
                        -----------------------------------------
Total Dipole Moment    :      0.10408       0.07412       0.00000
                        -----------------------------------------
Magnitude (a.u.)       :      0.12778
Magnitude (Debye)      :      0.32479

Rotational constants in cm-1:     0.373861     0.048912     0.043951
Rotational constants in MHz : 11208.067508  1466.345943  1317.603548

                             ****ORCA TERMINATED NORMALLY****
TOTAL RUN TIME: 0 days 0 hours 0 minutes 39 seconds 935 msec
