                         Program Version 5.0.3 -  RELEASE  -
|  1> !ri-mp2 aug-cc-pvdz aug-cc-pvdz/c tightscf
|  2> %pal nprocs 16 end
|  3>
|  4> * xyz 0 1
|  5> S    -0.132326   -1.067056   -0.000002
|  6> S     2.794229   -0.264794   -0.000005
|  7> N     0.642381    1.397235    0.000001
|  8> N    -3.851613   -0.306271    0.000006
|  9> C    -1.339600    0.198368    0.000002
| 10> C     1.094765    0.176601   -0.000002
| 11> C    -0.717729    1.417421    0.000003
| 12> C    -2.720759   -0.076305    0.000004
| 13> H     3.213634    1.014221   -0.000004
| 14> H    -1.239521    2.362120    0.000006
| 15> *
| 16>
| 17>                          ****END OF INPUT****

CARTESIAN COORDINATES (ANGSTROEM)
---------------------------------
  S     -0.132326   -1.067056   -0.000002
  S      2.794229   -0.264794   -0.000005
  N      0.642381    1.397235    0.000001
  N     -3.851613   -0.306271    0.000006
  C     -1.339600    0.198368    0.000002
  C      1.094765    0.176601   -0.000002
  C     -0.717729    1.417421    0.000003
  C     -2.720759   -0.076305    0.000004
  H      3.213634    1.014221   -0.000004
  H     -1.239521    2.362120    0.000006

 Total Charge           Charge          ....    0
 Multiplicity           Mult            ....    1
 Number of Electrons    NEL             ....   72
 Basis Dimension        Dim             ....  210

ORBITAL ENERGIES
----------------

  NO   OCC          E(Eh)            E(eV)
   0   2.0000     -92.037099     -2504.4568
   1   2.0000     -92.016608     -2503.8992
   2   2.0000     -15.612856      -424.8474
   3   2.0000     -15.599149      -424.4744
   4   2.0000     -11.389102      -309.9132
   5   2.0000     -11.328356      -308.2602
   6   2.0000     -11.324436      -308.1536
   7   2.0000     -11.304072      -307.5994
   8   2.0000      -9.039226      -245.9698
   9   2.0000      -9.018929      -245.4175
  10   2.0000      -6.720646      -182.8781
  11   2.0000      -6.719766      -182.8541
  12   2.0000      -6.717698      -182.7978
  13   2.0000      -6.700989      -182.3432
  14   2.0000      -6.699515      -182.3031
  15   2.0000      -6.697312      -182.2431
  16   2.0000      -1.333737       -36.2928
  17   2.0000      -1.241647       -33.7869
  18   2.0000      -1.120465       -30.4894
  19   2.0000      -1.096880       -29.8476
  20   2.0000      -0.999308       -27.1925
  21   2.0000      -0.891285       -24.2531
  22   2.0000      -0.789624       -21.4868
  23   2.0000      -0.752911       -20.4877
  24   2.0000      -0.666445       -18.1349
  25   2.0000      -0.617240       -16.7959
  26   2.0000      -0.608214       -16.5503
  27   2.0000      -0.570920       -15.5355
  28   2.0000      -0.559197       -15.2165
  29   2.0000      -0.537536       -14.6271
  30   2.0000      -0.525046       -14.2872
  31   2.0000      -0.483459       -13.1556
  32   2.0000      -0.459767       -12.5109
  33   2.0000      -0.443854       -12.0779
  34   2.0000      -0.424873       -11.5614
  35   2.0000      -0.346053        -9.4166
  36   0.0000       0.031626         0.8606
  37   0.0000       0.042631         1.1600
  38   0.0000       0.044233         1.2037
  39   0.0000       0.061978         1.6865
  40   0.0000       0.071827         1.9545

MULLIKEN ATOMIC CHARGES
-----------------------
   0 S :    0.294221
   1 S :    0.326357
   2 N :   -0.851487
   3 N :   -0.259398
   4 C :    0.764036
   5 C :   -0.189559
   6 C :    0.741068
   7 C :   -0.753965
   8 H :    0.184849
   9 H :   -0.256123
Sum of atomic charges:    0.0000000

LOEWDIN ATOMIC CHARGES
----------------------
   0 S :    1.006046
   1 S :    0.791823
   2 N :   -0.082781
   3 N :    0.087719
   4 C :   -0.505778
   5 C :   -0.864434
   6 C :   -0.059258
   7 C :   -0.206583
   8 H :   -0.180227
   9 H :    0.013471

  Mayer bond orders larger than 0.100000
B(  0-S ,  4-C ) :   0.9911 B(  0-S ,  5-C ) :   1.0820 B(  0-S ,  7-C ) :  -0.1315
B(  1-S ,  5-C ) :   1.0633 B(  1-S ,  8-H ) :   0.9053 B(  2-N ,  5-C ) :   1.6461
B(  2-N ,  6-C ) :   0.9294 B(  3-N ,  7-C ) :   2.5217 B(  4-C ,  5-C ) :   0.1386
B(  4-C ,  6-C ) :   1.4114 B(  4-C ,  9-H ) :  -0.1018 B(  5-C ,  6-C ) :  -0.2587
B(  6-C ,  9-H ) :   0.9380

MP2 TOTAL ENERGY:    -1057.739790780 Eh
FINAL SINGLE POINT ENERGY     -1057.739790779683

DIPOLE MOMENT
-------------
                                X             Y             Z
Electronic contribution:     -0.18003      -2.91929      -0.00001
Nuclear contribution   :      1.78129       3.25595       0.00000
                        -----------------------------------------
Total Dipole Moment    :      1.60125       0.33666      -0.00000
                        -----------------------------------------
Magnitude (a.u.)       :      1.63626
Magnitude (Debye)      :      4.15904

Rotational constants in cm-1:     0.170213     0.027752     0.023862
Rotational constants in MHz :  5102.853976   831.992534   715.357407

                             ****ORCA TERMINATED NORMALLY****
TOTAL RUN TIME: 0 days 0 hours 0 minutes 40 seconds 72 msec
