                         Program Version 5.0.3 -  RELEASE  -
|  1> !ri-mp2 aug-cc-pvdz aug-cc-pvdz/c tightscf
|  2> %pal nprocs 16 end
|  3>
|  4> * xyz 0 1
|  5> O      1.035246   -0.245795    0.000000
|  6> C      0.000000    0.646987    0.000000
|  7> C      0.492364   -1.497390    0.000000
|  8> C     -1.179136   -0.026476    0.000000
|  9> C     -0.858244   -1.422573    0.000000
| 10> C      0.358496    2.086650    0.000000
| 11> H      1.190884   -2.314077    0.000000
| 12> H     -2.160525    0.415739    0.000000
| 13> H     -1.544479   -2.251632    0.000000
| 14> H     -0.545250    2.693073    0.000000
| 15> H      0.948262    2.350033    0.880725
| 16> H      0.948262    2.350033   -0.880725
| 17> *
| 18>
| 19>                          ****END OF INPUT****

CARTESIAN COORDINATES (ANGSTROEM)
---------------------------------
  O      1.035246   -0.245795    0.000000
  C      0.000000    0.646987    0.000000
  C      0.492364   -1.497390    0.000000
  C     -1.179136   -0.026476    0.000000
  C     -0.858244   -1.422573    0.000000
  C      0.358496    2.086650    0.000000
  H      1.190884   -2.314077    0.000000
  H     -2.160525    0.415739    0.000000
  H     -1.544479   -2.251632    0.000000
  H     -0.545250    2.693073    0.000000
  H      0.948262    2.350033    0.880725
  H      0.948262    2.350033   -0.880725

 Total Charge           Charge          ....    0
 Multiplicity           Mult            ....    1
 Number of Electrons    NEL             ....   44
 Basis Dimension        Dim             ....  192

ORBITAL ENERGIES
----------------

  NO   OCC          E(Eh)            E(eV)
   0   2.0000     -20.624268      -561.2149
   1   2.0000     -11.295778      -307.3738
   2   2.0000     -11.286885      -307.1317
   3   2.0000     -11.240662      -305.8740
   4   2.0000     -11.231276      -305.6185
   5   2.0000     -11.225926      -305.4730
   6   2.0000      -1.455950       -39.6184
   7   2.0000      -1.083707       -29.4892
   8   2.0000      -1.049005       -28.5449
   9   2.0000      -0.933988       -25.4151
  10   2.0000      -0.805647       -21.9228
  11   2.0000      -0.760550       -20.6956
  12   2.0000      -0.709063       -19.2946
  13   2.0000      -0.639475       -17.4010
  14   2.0000      -0.606021       -16.4907
  15   2.0000      -0.564712       -15.3666
  16   2.0000      -0.561179       -15.2705
  17   2.0000      -0.558766       -15.2048
  18   2.0000      -0.554415       -15.0864
  19   2.0000      -0.521901       -14.2017
  20   2.0000      -0.392977       -10.6934
  21   2.0000      -0.307315        -8.3625
  22   0.0000       0.035816         0.9746
  23   0.0000       0.040702         1.1076
  24   0.0000       0.045230         1.2308
  25   0.0000       0.057852         1.5742
  26   0.0000       0.061572         1.6754

MULLIKEN ATOMIC CHARGES
-----------------------
   0 O :   -0.928285
   1 C :   -0.154412
   2 C :    0.743912
   3 C :    0.633216
   4 C :    0.296523
   5 C :    0.322933
   6 H :   -0.317360
   7 H :   -0.379813
   8 H :   -0.309968
   9 H :   -0.023464
  10 H :    0.058359
  11 H :    0.058359
Sum of atomic charges:   -0.0000000

LOEWDIN ATOMIC CHARGES
----------------------
   0 O :    0.088236
   1 C :   -0.239940
   2 C :    0.005815
   3 C :    0.025300
   4 C :   -0.008314
   5 C :    0.181948
   6 H :   -0.012893
   7 H :   -0.007680
   8 H :   -0.011310
   9 H :   -0.008102
  10 H :   -0.006530
  11 H :   -0.006530

  Mayer bond orders larger than 0.100000
B(  0-O ,  1-C ) :   0.5784 B(  0-O ,  2-C ) :   0.6359 B(  0-O ,  5-C ) :   0.1287
B(  1-C ,  2-C ) :   0.1916 B(  1-C ,  3-C ) :   1.6814 B(  1-C ,  5-C ) :   1.3021
B(  1-C ,  6-H ) :   0.1318 B(  1-C ,  7-H ) :   0.2222 B(  1-C ,  9-H ) :   0.3159
B(  1-C , 10-H ) :   0.1585 B(  1-C , 11-H ) :   0.1585 B(  2-C ,  3-C ) :  -0.1017
B(  2-C ,  4-C ) :   1.7265 B(  2-C ,  6-H ) :   0.9155 B(  3-C ,  4-C ) :   1.3669
B(  3-C ,  5-C ) :  -0.1546 B(  3-C ,  7-H ) :   0.4068 B(  3-C ,  9-H ) :  -0.1392
B(  4-C ,  5-C ) :   0.2768 B(  4-C ,  7-H ) :   0.1179 B(  4-C ,  8-H ) :   0.6714
B(  5-C ,  7-H ) :   0.1011 B(  5-C ,  9-H ) :   0.8245 B(  5-C , 10-H ) :   0.8273
B(  5-C , 11-H ) :   0.8273

MP2 TOTAL ENERGY:     -268.586207302 Eh
FINAL SINGLE POINT ENERGY      -268.586207301500

DIPOLE MOMENT
-------------
                                X             Y             Z
Electronic contribution:      0.90781      -3.10282       0.00000
Nuclear contribution   :     -1.15397       3.26033       0.00000
                        -----------------------------------------
Total Dipole Moment    :     -0.24616       0.15751       0.00000
                        -----------------------------------------
Magnitude (a.u.)       :      0.29224
Magnitude (Debye)      :      0.74282

Rotational constants in cm-1:     0.295760     0.118339     0.085867
Rotational constants in MHz :  8866.672580  3547.702245  2574.227927

                             ****ORCA TERMINATED NORMALLY****
TOTAL RUN TIME: 0 days 0 hours 0 minutes 38 seconds 890 msec
