                         Program Version 5.0.3 -  RELEASE  -
|  1> !ri-mp2 aug-cc-pvdz aug-cc-pvdz/c tightscf
|  2> %pal nprocs 16 end
|  3> %maxcore 3800
|  4>
|  5> * xyz 0 1
|  6> C     2.997773    0.483515    0.000057
|  7> C     1.557720    0.984322    0.000121
|  8> S     0.416742   -0.436191   -0.000065
|  9> O     0.613609   -1.153289    1.261894
| 10> O     0.613589   -1.152943   -1.262224
| 11> C    -1.319656    0.252037    0.000043
| 12> C    -1.530669    1.078796   -1.268848
| 13> C    -2.218473   -0.990363   -0.000134
| 14> C    -1.530653    1.078424    1.269179
| 15> H     3.200853   -0.118000    0.883955
| 16> H     3.200858   -0.117760   -0.884004
| 17> H     3.675634    1.337082    0.000174
| 18> H     1.333115    1.569196   -0.889556
| 19> H     1.333115    1.568964    0.889950
| 20> H    -1.294421    0.500665   -2.160245
| 21> H    -2.578720    1.378917   -1.323741
| 22> H    -0.931778    1.989640   -1.272598
| 23> H    -2.047743   -1.601398    0.884308
| 24> H    -3.260021   -0.665474   -0.000085
| 25> H    -2.047745   -1.601141   -0.884754
| 26> H    -0.931790    1.989286    1.273173
| 27> H    -2.578712    1.378497    1.324194
| 28> H    -1.294359    0.500043    2.160402
| 29> *
| 30>
| 31>                          ****END OF INPUT****

CARTESIAN COORDINATES (ANGSTROEM)
---------------------------------
  C      2.997773    0.483515    0.000057
  C      1.557720    0.984322    0.000121
  S      0.416742   -0.436191   -0.000065
  O      0.613609   -1.153289    1.261894
  O      0.613589   -1.152943   -1.262224
  C     -1.319656    0.252037    0.000043
  C     -1.530669    1.078796   -1.268848
  C     -2.218473   -0.990363   -0.000134
  C     -1.530653    1.078424    1.269179
  H      3.200853   -0.118000    0.883955
  H      3.200858   -0.117760   -0.884004
  H      3.675634    1.337082    0.000174
  H      1.333115    1.569196   -0.889556
  H      1.333115    1.568964    0.889950
  H     -1.294421    0.500665   -2.160245
  H     -2.578720    1.378917   -1.323741
  H     -0.931778    1.989640   -1.272598
  H     -2.047743   -1.601398    0.884308
  H     -3.260021   -0.665474   -0.000085
  H     -2.047745   -1.601141   -0.884754
  H     -0.931790    1.989286    1.273173
  H     -2.578712    1.378497    1.324194
  H     -1.294359    0.500043    2.160402

 Total Charge           Charge          ....    0
 Multiplicity           Mult            ....    1
 Number of Electrons    NEL             ....   82
 Basis Dimension        Dim             ....  337

ORBITAL ENERGIES
----------------

  NO   OCC          E(Eh)            E(eV)
   0   2.0000     -92.176759     -2508.2571
   1   2.0000     -20.540313      -558.9303
   2   2.0000     -20.540295      -558.9298
   3   2.0000     -11.295562      -307.3679
   4   2.0000     -11.281533      -306.9861
   5   2.0000     -11.245378      -306.0023
   6   2.0000     -11.245360      -306.0018
   7   2.0000     -11.241737      -305.9032
   8   2.0000     -11.236217      -305.7530
   9   2.0000      -9.151213      -249.0172
  10   2.0000      -6.836282      -186.0247
  11   2.0000      -6.834874      -185.9864
  12   2.0000      -6.834501      -185.9762
  13   2.0000      -1.434757       -39.0417
  14   2.0000      -1.321501       -35.9599
  15   2.0000      -1.129265       -30.7289
  16   2.0000      -1.073907       -29.2225
  17   2.0000      -0.963681       -26.2231
  18   2.0000      -0.958102       -26.0713
  19   2.0000      -0.927489       -25.2383
  20   2.0000      -0.842704       -22.9311
  21   2.0000      -0.753279       -20.4978
  22   2.0000      -0.691804       -18.8250
  23   2.0000      -0.660075       -17.9616
  24   2.0000      -0.656852       -17.8739
  25   2.0000      -0.631999       -17.1976
  26   2.0000      -0.624450       -16.9921
  27   2.0000      -0.604575       -16.4513
  28   2.0000      -0.582031       -15.8379
  29   2.0000      -0.565888       -15.3986
  30   2.0000      -0.562495       -15.3063
  31   2.0000      -0.545984       -14.8570
  32   2.0000      -0.539484       -14.6801
  33   2.0000      -0.538922       -14.6648
  34   2.0000      -0.521678       -14.1956
  35   2.0000      -0.498244       -13.5579
  36   2.0000      -0.497904       -13.5487
  37   2.0000      -0.479370       -13.0443
  38   2.0000      -0.463411       -12.6101
  39   2.0000      -0.451350       -12.2819
  40   2.0000      -0.403311       -10.9746
  41   0.0000       0.028013         0.7623
  42   0.0000       0.036281         0.9872
  43   0.0000       0.044131         1.2009
  44   0.0000       0.047529         1.2933
  45   0.0000       0.058036         1.5792

MULLIKEN ATOMIC CHARGES
-----------------------
   0 C :    0.450559
   1 C :   -0.275604
   2 S :    2.939761
   3 O :   -1.312123
   4 O :   -1.312123
   5 C :   -3.300905
   6 C :    1.061652
   7 C :    1.341339
   8 C :    1.061646
   9 H :   -0.029884
  10 H :   -0.029882
  11 H :   -0.046434
  12 H :   -0.100328
  13 H :   -0.100331
  14 H :    0.000081
  15 H :   -0.016410
  16 H :   -0.132788
  17 H :   -0.006024
  18 H :   -0.037058
  19 H :   -0.006025
  20 H :   -0.132782
  21 H :   -0.016418
  22 H :    0.000083
Sum of atomic charges:   -0.0000000

LOEWDIN ATOMIC CHARGES
----------------------
   0 C :    0.120639
   1 C :   -0.114473
   2 S :    0.995720
   3 O :   -0.396899
   4 O :   -0.396899
   5 C :   -0.531822
   6 C :    0.155914
   7 C :    0.157318
   8 C :    0.155913
   9 H :   -0.015738
  10 H :   -0.015737
  11 H :   -0.015571
  12 H :   -0.011629
  13 H :   -0.011629
  14 H :   -0.006966
  15 H :   -0.002290
  16 H :   -0.018475
  17 H :   -0.007805
  18 H :   -0.004033
  19 H :   -0.007806
  20 H :   -0.018474
  21 H :   -0.002290
  22 H :   -0.006967

  Mayer bond orders larger than 0.100000
B(  0-C ,  1-C ) :   1.2435 B(  0-C ,  9-H ) :   0.9278 B(  0-C , 10-H ) :   0.9278
B(  0-C , 11-H ) :   0.9146 B(  1-C ,  2-S ) :   0.9982 B(  1-C ,  3-O ) :   0.1187
B(  1-C ,  4-O ) :   0.1187 B(  1-C , 12-H ) :   0.8420 B(  1-C , 13-H ) :   0.8420
B(  2-S ,  3-O ) :   0.5652 B(  2-S ,  4-O ) :   0.5652 B(  2-S ,  6-C ) :   0.1024
B(  2-S ,  8-C ) :   0.1024 B(  3-O ,  4-O ) :   0.1292 B(  3-O ,  5-C ) :   0.1948
B(  4-O ,  5-C ) :   0.1948 B(  5-C ,  6-C ) :   1.6926 B(  5-C ,  7-C ) :   1.5730
B(  5-C ,  8-C ) :   1.6926 B(  5-C , 14-H ) :   0.2536 B(  5-C , 15-H ) :   0.2480
B(  5-C , 16-H ) :   0.1696 B(  5-C , 17-H ) :   0.2874 B(  5-C , 18-H ) :   0.1639
B(  5-C , 19-H ) :   0.2874 B(  5-C , 20-H ) :   0.1696 B(  5-C , 21-H ) :   0.2479
B(  5-C , 22-H ) :   0.2536 B(  6-C ,  7-C ) :  -0.1580 B(  6-C ,  8-C ) :  -0.1120
B(  6-C , 14-H ) :   0.7223 B(  6-C , 15-H ) :   0.6860 B(  6-C , 16-H ) :   0.7542
B(  7-C ,  8-C ) :  -0.1580 B(  7-C , 17-H ) :   0.6802 B(  7-C , 18-H ) :   0.7318
B(  7-C , 19-H ) :   0.6802 B(  8-C , 20-H ) :   0.7542 B(  8-C , 21-H ) :   0.6861
B(  8-C , 22-H ) :   0.7223 B( 14-H , 15-H ) :  -0.1112 B( 14-H , 16-H ) :  -0.1192
B( 15-H , 16-H ) :  -0.1048 B( 17-H , 18-H ) :  -0.1035 B( 17-H , 19-H ) :  -0.1052
B( 18-H , 19-H ) :  -0.1035 B( 20-H , 21-H ) :  -0.1048 B( 20-H , 22-H ) :  -0.1192
B( 21-H , 22-H ) :  -0.1112

MP2 TOTAL ENERGY:     -784.064700792 Eh
FINAL SINGLE POINT ENERGY      -784.064700792125

DIPOLE MOMENT
-------------
                                X             Y             Z
Electronic contribution:      3.70329      -6.36354      -0.00093
Nuclear contribution   :     -4.32089       8.28831       0.00120
                        -----------------------------------------
Total Dipole Moment    :     -0.61760       1.92477       0.00027
                        -----------------------------------------
Magnitude (a.u.)       :      2.02143
Magnitude (Debye)      :      5.13806

Rotational constants in cm-1:     0.070713     0.035330     0.034102
Rotational constants in MHz :  2119.926187  1059.160177  1022.355102

                             ****ORCA TERMINATED NORMALLY****
TOTAL RUN TIME: 0 days 0 hours 2 minutes 10 seconds 247 msec
