                         Program Version 5.0.3 -  RELEASE  -
|  1> !ri-mp2 aug-cc-pvdz aug-cc-pvdz/c tightscf
|  2> %pal nprocs 16 end
|  3>
|  4> * xyz 0 1
|  5> C      0.000000    2.369897    0.648656
|  6> C      1.795861    1.149187   -0.648464
|  7> C      0.000000   -2.369897    0.648656
|  8> C     -1.795861   -1.149187   -0.648464
|  9> C      0.328511    1.169473   -0.225250
| 10> C     -0.328511   -1.169473   -0.225250
| 11> O      0.000000    0.000000    0.530194
| 12> H      0.237389    3.300652    0.131809
| 13> H     -1.057482    2.376595    0.910750
| 14> H      0.579665    2.331751    1.572195
| 15> H      2.036399    2.028649   -1.248423
| 16> H      2.027144    0.266481   -1.245332
| 17> H      2.440231    1.144037    0.231844
| 18> H     -0.237389   -3.300652    0.131809
| 19> H      1.057482   -2.376595    0.910750
| 20> H     -0.579665   -2.331751    1.572195
| 21> H     -2.036399   -2.028649   -1.248423
| 22> H     -2.027144   -0.266481   -1.245332
| 23> H     -2.440231   -1.144037    0.231844
| 24> H     -0.300157    1.205375   -1.123271
| 25> H      0.300157   -1.205375   -1.123271
| 26> *
| 27>
| 28>                          ****END OF INPUT****

CARTESIAN COORDINATES (ANGSTROEM)
---------------------------------
  C      0.000000    2.369897    0.648656
  C      1.795861    1.149187   -0.648464
  C      0.000000   -2.369897    0.648656
  C     -1.795861   -1.149187   -0.648464
  C      0.328511    1.169473   -0.225250
  C     -0.328511   -1.169473   -0.225250
  O      0.000000    0.000000    0.530194
  H      0.237389    3.300652    0.131809
  H     -1.057482    2.376595    0.910750
  H      0.579665    2.331751    1.572195
  H      2.036399    2.028649   -1.248423
  H      2.027144    0.266481   -1.245332
  H      2.440231    1.144037    0.231844
  H     -0.237389   -3.300652    0.131809
  H      1.057482   -2.376595    0.910750
  H     -0.579665   -2.331751    1.572195
  H     -2.036399   -2.028649   -1.248423
  H     -2.027144   -0.266481   -1.245332
  H     -2.440231   -1.144037    0.231844
  H     -0.300157    1.205375   -1.123271
  H      0.300157   -1.205375   -1.123271

 Total Charge           Charge          ....    0
 Multiplicity           Mult            ....    1
 Number of Electrons    NEL             ....   58
 Basis Dimension        Dim             ....  287

ORBITAL ENERGIES
----------------

  NO   OCC          E(Eh)            E(eV)
   0   2.0000     -20.551012      -559.2215
   1   2.0000     -11.280600      -306.9607
   2   2.0000     -11.280580      -306.9602
   3   2.0000     -11.217159      -305.2344
   4   2.0000     -11.217159      -305.2344
   5   2.0000     -11.214617      -305.1652
   6   2.0000     -11.214616      -305.1652
   7   2.0000      -1.363183       -37.0941
   8   2.0000      -1.070399       -29.1270
   9   2.0000      -1.014175       -27.5971
  10   2.0000      -0.936974       -25.4964
  11   2.0000      -0.933526       -25.4025
  12   2.0000      -0.812749       -22.1160
  13   2.0000      -0.778707       -21.1897
  14   2.0000      -0.677709       -18.4414
  15   2.0000      -0.631281       -17.1780
  16   2.0000      -0.621162       -16.9027
  17   2.0000      -0.578858       -15.7515
  18   2.0000      -0.577124       -15.7043
  19   2.0000      -0.560329       -15.2473
  20   2.0000      -0.536544       -14.6001
  21   2.0000      -0.535661       -14.5761
  22   2.0000      -0.516072       -14.0430
  23   2.0000      -0.511462       -13.9176
  24   2.0000      -0.506055       -13.7704
  25   2.0000      -0.482684       -13.1345
  26   2.0000      -0.473214       -12.8768
  27   2.0000      -0.445943       -12.1347
  28   2.0000      -0.404689       -11.0122
  29   0.0000       0.036325         0.9884
  30   0.0000       0.044196         1.2026
  31   0.0000       0.046387         1.2623
  32   0.0000       0.047573         1.2945
  33   0.0000       0.062412         1.6983

MULLIKEN ATOMIC CHARGES
-----------------------
   0 C :    0.579868
   1 C :    0.575964
   2 C :    0.579868
   3 C :    0.575964
   4 C :   -0.161202
   5 C :   -0.161202
   6 O :   -1.087372
   7 H :   -0.048448
   8 H :   -0.077937
   9 H :   -0.030763
  10 H :   -0.060278
  11 H :   -0.151432
  12 H :    0.008792
  13 H :   -0.048448
  14 H :   -0.077937
  15 H :   -0.030763
  16 H :   -0.060278
  17 H :   -0.151432
  18 H :    0.008792
  19 H :   -0.090878
  20 H :   -0.090878
Sum of atomic charges:    0.0000000

LOEWDIN ATOMIC CHARGES
----------------------
   0 C :    0.160494
   1 C :    0.163903
   2 C :    0.160494
   3 C :    0.163903
   4 C :   -0.288822
   5 C :   -0.288822
   6 O :    0.034375
   7 H :   -0.013229
   8 H :   -0.012264
   9 H :   -0.009255
  10 H :   -0.012556
  11 H :   -0.023597
  12 H :   -0.007674
  13 H :   -0.013229
  14 H :   -0.012264
  15 H :   -0.009255
  16 H :   -0.012556
  17 H :   -0.023597
  18 H :   -0.007674
  19 H :    0.025812
  20 H :    0.025812

  Mayer bond orders larger than 0.100000
B(  0-C ,  1-C ) :  -0.1846 B(  0-C ,  4-C ) :   1.4148 B(  0-C ,  7-H ) :   0.8282
B(  0-C ,  8-H ) :   0.8474 B(  0-C ,  9-H ) :   0.9166 B(  1-C ,  4-C ) :   1.3450
B(  1-C , 10-H ) :   0.8513 B(  1-C , 11-H ) :   0.8870 B(  1-C , 12-H ) :   0.8673
B(  2-C ,  3-C ) :  -0.1846 B(  2-C ,  5-C ) :   1.4148 B(  2-C , 13-H ) :   0.8282
B(  2-C , 14-H ) :   0.8474 B(  2-C , 15-H ) :   0.9166 B(  3-C ,  5-C ) :   1.3450
B(  3-C , 16-H ) :   0.8513 B(  3-C , 17-H ) :   0.8870 B(  3-C , 18-H ) :   0.8673
B(  4-C ,  6-O ) :   0.4144 B(  4-C ,  8-H ) :   0.1493 B(  4-C ,  9-H ) :   0.1473
B(  4-C , 11-H ) :   0.1172 B(  4-C , 12-H ) :   0.1194 B(  4-C , 19-H ) :   0.6767
B(  5-C ,  6-O ) :   0.4144 B(  5-C , 14-H ) :   0.1493 B(  5-C , 15-H ) :   0.1473
B(  5-C , 17-H ) :   0.1172 B(  5-C , 18-H ) :   0.1194 B(  5-C , 20-H ) :   0.6767

MP2 TOTAL ENERGY:     -311.360365184 Eh
FINAL SINGLE POINT ENERGY      -311.360365184061

DIPOLE MOMENT
-------------
                                X             Y             Z
Electronic contribution:     -0.00000      -0.00000       1.09460
Nuclear contribution   :      0.00000      -0.00000      -1.63376
                        -----------------------------------------
Total Dipole Moment    :     -0.00000      -0.00000      -0.53915
                        -----------------------------------------
Magnitude (a.u.)       :      0.53915
Magnitude (Debye)      :      1.37041

Rotational constants in cm-1:     0.136332     0.051219     0.045591
Rotational constants in MHz :  4087.116510  1535.495082  1366.789478

                             ****ORCA TERMINATED NORMALLY****
TOTAL RUN TIME: 0 days 0 hours 1 minutes 5 seconds 384 msec
