                         Program Version 5.0.3 -  RELEASE  -
|  1> !ri-mp2 aug-cc-pvdz aug-cc-pvdz/c tightscf
|  2> %pal nprocs 16 end
|  3>
|  4> * xyz 0 1
|  5> C      1.592286   -1.728677        0.000000
|  6> C      2.181509   -0.467693        0.000000
|  7> C      0.212578   -1.863151        0.000000
|  8> C      1.379088    0.665360        0.000000
|  9> C     -0.604239   -0.733979        0.000000
| 10> C      0.000000    0.525088        0.000000
| 11> O     -1.948598   -0.906903        0.000000
| 12> Cl    -1.036509    1.945558        0.000000
| 13> H      2.211530   -2.615032        0.000000
| 14> H      3.256995   -0.363392        0.000000
| 15> H     -0.258879   -2.835831        0.000000
| 16> H      1.812238    1.655014        0.000000
| 17> H     -2.379775   -0.041703        0.000000
| 18> *
| 19>
| 20>                          ****END OF INPUT****

CARTESIAN COORDINATES (ANGSTROEM)
---------------------------------
  C      1.592286   -1.728677    0.000000
  C      2.181509   -0.467693    0.000000
  C      0.212578   -1.863151    0.000000
  C      1.379088    0.665360    0.000000
  C     -0.604239   -0.733979    0.000000
  C      0.000000    0.525088    0.000000
  O     -1.948598   -0.906903    0.000000
  Cl    -1.036509    1.945558    0.000000
  H      2.211530   -2.615032    0.000000
  H      3.256995   -0.363392    0.000000
  H     -0.258879   -2.835831    0.000000
  H      1.812238    1.655014    0.000000
  H     -2.379775   -0.041703    0.000000

 Total Charge           Charge          ....    0
 Multiplicity           Mult            ....    1
 Number of Electrons    NEL             ....   66
 Basis Dimension        Dim             ....  233

ORBITAL ENERGIES
----------------

  NO   OCC          E(Eh)            E(eV)
   0   2.0000    -104.854698     -2853.2414
   1   2.0000     -20.610392      -560.8373
   2   2.0000     -11.328048      -308.2518
   3   2.0000     -11.309653      -307.7513
   4   2.0000     -11.264822      -306.5314
   5   2.0000     -11.258093      -306.3483
   6   2.0000     -11.249229      -306.1071
   7   2.0000     -11.248563      -306.0890
   8   2.0000     -10.580578      -287.9122
   9   2.0000      -8.048317      -219.0058
  10   2.0000      -8.045268      -218.9229
  11   2.0000      -8.044898      -218.9128
  12   2.0000      -1.425225       -38.7823
  13   2.0000      -1.193369       -32.4732
  14   2.0000      -1.131572       -30.7916
  15   2.0000      -1.032749       -28.1025
  16   2.0000      -1.004772       -27.3412
  17   2.0000      -0.854189       -23.2437
  18   2.0000      -0.843647       -22.9568
  19   2.0000      -0.749682       -20.3999
  20   2.0000      -0.700935       -19.0734
  21   2.0000      -0.664511       -18.0823
  22   2.0000      -0.625906       -17.0318
  23   2.0000      -0.610946       -16.6247
  24   2.0000      -0.597719       -16.2648
  25   2.0000      -0.586743       -15.9661
  26   2.0000      -0.539852       -14.6901
  27   2.0000      -0.524440       -14.2707
  28   2.0000      -0.511432       -13.9168
  29   2.0000      -0.476635       -12.9699
  30   2.0000      -0.474163       -12.9026
  31   2.0000      -0.350724        -9.5437
  32   2.0000      -0.327303        -8.9064
  33   0.0000       0.034540         0.9399
  34   0.0000       0.041968         1.1420
  35   0.0000       0.044710         1.2166
  36   0.0000       0.058827         1.6008
  37   0.0000       0.063091         1.7168

MULLIKEN ATOMIC CHARGES
-----------------------
   0 C :    0.383293
   1 C :    0.825553
   2 C :    1.040648
   3 C :    0.449255
   4 C :    0.502626
   5 C :   -0.300609
   6 O :   -0.864051
   7 Cl:   -0.500046
   8 H :   -0.431297
   9 H :   -0.437522
  10 H :   -0.501846
  11 H :   -0.377569
  12 H :    0.211565
Sum of atomic charges:   -0.0000000

LOEWDIN ATOMIC CHARGES
----------------------
   0 C :    0.013455
   1 C :    0.000905
   2 C :    0.053966
   3 C :   -0.016052
   4 C :   -0.259788
   5 C :   -0.488935
   6 O :    0.184903
   7 Cl:    0.593669
   8 H :    0.004251
   9 H :   -0.002132
  10 H :    0.010293
  11 H :    0.001438
  12 H :   -0.095973

  Mayer bond orders larger than 0.100000
B(  0-C ,  1-C ) :   1.7241 B(  0-C ,  2-C ) :   1.7425 B(  0-C ,  5-C ) :   0.2805
B(  0-C ,  8-H ) :   0.4010 B(  0-C ,  9-H ) :   0.2231 B(  0-C , 10-H ) :   0.1449
B(  1-C ,  3-C ) :   1.6214 B(  1-C ,  4-C ) :   0.1058 B(  1-C ,  5-C ) :  -0.1954
B(  1-C ,  7-Cl) :   0.1001 B(  1-C ,  8-H ) :   0.1501 B(  1-C ,  9-H ) :   0.2442
B(  1-C , 10-H ) :  -0.1045 B(  2-C ,  3-C ) :   0.2717 B(  2-C ,  4-C ) :   1.7040
B(  2-C ,  5-C ) :  -0.2535 B(  2-C ,  7-Cl) :   0.1449 B(  2-C ,  8-H ) :   0.1958
B(  2-C , 10-H ) :  -0.2160 B(  3-C ,  4-C ) :  -0.1500 B(  3-C ,  5-C ) :   1.6639
B(  3-C ,  7-Cl) :  -0.3474 B(  3-C ,  9-H ) :   0.3043 B(  3-C , 10-H ) :   0.1364
B(  3-C , 11-H ) :   0.3092 B(  4-C ,  5-C ) :   1.3489 B(  4-C ,  7-Cl) :  -0.3611
B(  4-C , 10-H ) :   0.8080 B(  5-C ,  6-O ) :   0.2824 B(  5-C ,  7-Cl) :   0.9962
B(  5-C ,  9-H ) :  -0.1009 B(  5-C , 10-H ) :  -0.1067 B(  5-C , 11-H ) :   0.4657
B(  6-O , 12-H ) :   1.0203

MP2 TOTAL ENERGY:     -765.677843678 Eh
FINAL SINGLE POINT ENERGY      -765.677843677770

DIPOLE MOMENT
-------------
                                X             Y             Z
Electronic contribution:     -5.36400       6.68917       0.00000
Nuclear contribution   :      5.87597      -6.74796       0.00000
                        -----------------------------------------
Total Dipole Moment    :      0.51197      -0.05879       0.00000
                        -----------------------------------------
Magnitude (a.u.)       :      0.51534
Magnitude (Debye)      :      1.30988

Rotational constants in cm-1:     0.099799     0.051097     0.033794
Rotational constants in MHz :  2991.893072  1531.835209  1013.121670

                             ****ORCA TERMINATED NORMALLY****
TOTAL RUN TIME: 0 days 0 hours 0 minutes 51 seconds 590 msec
