                         Program Version 5.0.3 -  RELEASE  -
|  1> !ri-mp2 aug-cc-pvdz aug-cc-pvdz/c tightscf
|  2> %pal nprocs 16 end
|  3>
|  4> * xyz 0 1
|  5> C      1.713767    0.184314   -0.006094
|  6> C      2.992613   -0.627337    0.018624
|  7> C     -3.398174    0.257813    0.014447
|  8> C      0.415711   -0.605242   -0.018955
|  9> C     -2.129427   -0.592675   -0.013892
| 10> C     -0.849467    0.243536    0.010725
| 11> O      1.732799    1.394734   -0.012565
| 12> H      3.048893   -1.205545    0.943733
| 13> H      3.010172   -1.344276   -0.804455
| 14> H      3.853628    0.032351   -0.047922
| 15> H     -3.440169    0.930013   -0.844742
| 16> H     -4.294888   -0.362918   -0.005028
| 17> H     -3.439164    0.873178    0.915292
| 18> H      0.440487   -1.300663    0.827754
| 19> H      0.432242   -1.246871   -0.907744
| 20> H     -2.134229   -1.223254   -0.908517
| 21> H     -2.132488   -1.278680    0.838933
| 22> H     -0.837342    0.875293    0.901856
| 23> H     -0.839678    0.931040   -0.837776
| 24> *
| 25>
| 26>                          ****END OF INPUT****

CARTESIAN COORDINATES (ANGSTROEM)
---------------------------------
  C      1.713767    0.184314   -0.006094
  C      2.992613   -0.627337    0.018624
  C     -3.398174    0.257813    0.014447
  C      0.415711   -0.605242   -0.018955
  C     -2.129427   -0.592675   -0.013892
  C     -0.849467    0.243536    0.010725
  O      1.732799    1.394734   -0.012565
  H      3.048893   -1.205545    0.943733
  H      3.010172   -1.344276   -0.804455
  H      3.853628    0.032351   -0.047922
  H     -3.440169    0.930013   -0.844742
  H     -4.294888   -0.362918   -0.005028
  H     -3.439164    0.873178    0.915292
  H      0.440487   -1.300663    0.827754
  H      0.432242   -1.246871   -0.907744
  H     -2.134229   -1.223254   -0.908517
  H     -2.132488   -1.278680    0.838933
  H     -0.837342    0.875293    0.901856
  H     -0.839678    0.931040   -0.837776

 Total Charge           Charge          ....    0
 Multiplicity           Mult            ....    1
 Number of Electrons    NEL             ....   56
 Basis Dimension        Dim             ....  269

ORBITAL ENERGIES
----------------

  NO   OCC          E(Eh)            E(eV)
   0   2.0000     -20.553539      -559.2902
   1   2.0000     -11.335892      -308.4653
   2   2.0000     -11.241787      -305.9046
   3   2.0000     -11.239876      -305.8526
   4   2.0000     -11.227155      -305.5064
   5   2.0000     -11.224588      -305.4366
   6   2.0000     -11.218946      -305.2830
   7   2.0000      -1.390394       -37.8345
   8   2.0000      -1.087523       -29.5930
   9   2.0000      -1.031978       -28.0816
  10   2.0000      -0.984619       -26.7928
  11   2.0000      -0.887033       -24.1374
  12   2.0000      -0.800748       -21.7894
  13   2.0000      -0.734201       -19.9786
  14   2.0000      -0.654494       -17.8097
  15   2.0000      -0.649987       -17.6870
  16   2.0000      -0.626787       -17.0557
  17   2.0000      -0.609576       -16.5874
  18   2.0000      -0.580391       -15.7932
  19   2.0000      -0.567698       -15.4479
  20   2.0000      -0.554777       -15.0963
  21   2.0000      -0.529380       -14.4052
  22   2.0000      -0.508622       -13.8403
  23   2.0000      -0.484919       -13.1953
  24   2.0000      -0.478555       -13.0222
  25   2.0000      -0.473214       -12.8768
  26   2.0000      -0.466609       -12.6971
  27   2.0000      -0.406120       -11.0511
  28   0.0000       0.032043         0.8719
  29   0.0000       0.038829         1.0566
  30   0.0000       0.044366         1.2073
  31   0.0000       0.049715         1.3528
  32   0.0000       0.057321         1.5598

MULLIKEN ATOMIC CHARGES
-----------------------
   0 C :    0.162349
   1 C :    0.460798
   2 C :    0.525556
   3 C :    0.075927
   4 C :    0.419156
   5 C :    0.272370
   6 O :   -0.809984
   7 H :    0.045285
   8 H :    0.027897
   9 H :   -0.080466
  10 H :   -0.087732
  11 H :   -0.071389
  12 H :   -0.087568
  13 H :   -0.058749
  14 H :   -0.045749
  15 H :   -0.186576
  16 H :   -0.190732
  17 H :   -0.189072
  18 H :   -0.181320
Sum of atomic charges:    0.0000000

LOEWDIN ATOMIC CHARGES
----------------------
   0 C :   -0.302099
   1 C :    0.195352
   2 C :    0.132880
   3 C :    0.008937
   4 C :   -0.072784
   5 C :   -0.033530
   6 O :    0.046751
   7 H :   -0.008363
   8 H :   -0.010171
   9 H :   -0.009646
  10 H :   -0.018851
  11 H :   -0.021838
  12 H :   -0.018913
  13 H :    0.024983
  14 H :    0.025330
  15 H :    0.010115
  16 H :    0.010053
  17 H :    0.021195
  18 H :    0.020600

  Mayer bond orders larger than 0.100000
B(  0-C ,  1-C ) :   1.0494 B(  0-C ,  3-C ) :   1.1206 B(  0-C ,  6-O ) :   1.4014
B(  0-C ,  9-H ) :   0.1513 B(  1-C ,  7-H ) :   0.9203 B(  1-C ,  8-H ) :   0.9296
B(  1-C ,  9-H ) :   0.8295 B(  2-C ,  4-C ) :   1.1963 B(  2-C , 10-H ) :   0.9165
B(  2-C , 11-H ) :   0.9060 B(  2-C , 12-H ) :   0.9143 B(  3-C ,  4-C ) :  -0.1431
B(  3-C ,  5-C ) :   1.2513 B(  3-C , 13-H ) :   0.8743 B(  3-C , 14-H ) :   0.9041
B(  4-C ,  5-C ) :   1.1961 B(  4-C , 15-H ) :   0.7484 B(  4-C , 16-H ) :   0.7405
B(  5-C , 17-H ) :   0.8239 B(  5-C , 18-H ) :   0.8211

MP2 TOTAL ENERGY:     -310.177924117 Eh
FINAL SINGLE POINT ENERGY      -310.177924116997

DIPOLE MOMENT
-------------
                                X             Y             Z
Electronic contribution:      6.53859       3.25686      -0.06589
Nuclear contribution   :     -6.62067      -4.51339       0.07475
                        -----------------------------------------
Total Dipole Moment    :     -0.08208      -1.25653       0.00886
                        -----------------------------------------
Magnitude (a.u.)       :      1.25924
Magnitude (Debye)      :      3.20074

Rotational constants in cm-1:     0.252114     0.034459     0.031181
Rotational constants in MHz :  7558.177167  1033.047633   934.797385

                             ****ORCA TERMINATED NORMALLY****
TOTAL RUN TIME: 0 days 0 hours 1 minutes 23 seconds 313 msec
