                         Program Version 5.0.3 -  RELEASE  -
|  1> !ri-mp2 aug-cc-pvdz aug-cc-pvdz/c tightscf
|  2> %pal nprocs 16 end
|  3>
|  4> * xyz 0 1
|  5> S     -1.312415   -1.115521   -0.000006
|  6> N      1.348922   -0.797364    0.000029
|  7> N      2.371560   -0.112910   -0.000008
|  8> N      3.375724    0.402319   -0.000020
|  9> C      0.117911   -0.130110    0.000011
| 10> C     -0.182896    1.205002    0.000013
| 11> C     -2.320123    0.290783   -0.000010
| 12> C     -1.585097    1.436766    0.000000
| 13> H      0.562508    1.986411    0.000024
| 14> H     -3.390599    0.180287   -0.000019
| 15> H     -2.025487    2.422671    0.000000
| 16> *
| 17>
| 18>                          ****END OF INPUT****

CARTESIAN COORDINATES (ANGSTROEM)
---------------------------------
  S     -1.312415   -1.115521   -0.000006
  N      1.348922   -0.797364    0.000029
  N      2.371560   -0.112910   -0.000008
  N      3.375724    0.402319   -0.000020
  C      0.117911   -0.130110    0.000011
  C     -0.182896    1.205002    0.000013
  C     -2.320123    0.290783   -0.000010
  C     -1.585097    1.436766    0.000000
  H      0.562508    1.986411    0.000024
  H     -3.390599    0.180287   -0.000019
  H     -2.025487    2.422671    0.000000

 Total Charge           Charge          ....    0
 Multiplicity           Mult            ....    1
 Number of Electrons    NEL             ....   64
 Basis Dimension        Dim             ....  215

ORBITAL ENERGIES
----------------

  NO   OCC          E(Eh)            E(eV)
   0   2.0000     -91.995397     -2503.3220
   1   2.0000     -15.813943      -430.3193
   2   2.0000     -15.704507      -427.3413
   3   2.0000     -15.643843      -425.6906
   4   2.0000     -11.329019      -308.2783
   5   2.0000     -11.272466      -306.7394
   6   2.0000     -11.254870      -306.2606
   7   2.0000     -11.250032      -306.1289
   8   2.0000      -8.997846      -244.8438
   9   2.0000      -6.679440      -181.7568
  10   2.0000      -6.678589      -181.7336
  11   2.0000      -6.676605      -181.6797
  12   2.0000      -1.536297       -41.8048
  13   2.0000      -1.331974       -36.2449
  14   2.0000      -1.183473       -32.2039
  15   2.0000      -1.018504       -27.7149
  16   2.0000      -1.001504       -27.2523
  17   2.0000      -0.871569       -23.7166
  18   2.0000      -0.783708       -21.3258
  19   2.0000      -0.727057       -19.7842
  20   2.0000      -0.725548       -19.7432
  21   2.0000      -0.719104       -19.5678
  22   2.0000      -0.691501       -18.8167
  23   2.0000      -0.632647       -17.2152
  24   2.0000      -0.572845       -15.5879
  25   2.0000      -0.548701       -14.9309
  26   2.0000      -0.547326       -14.8935
  27   2.0000      -0.487374       -13.2621
  28   2.0000      -0.470663       -12.8074
  29   2.0000      -0.445940       -12.1346
  30   2.0000      -0.359329        -9.7778
  31   2.0000      -0.305874        -8.3233
  32   0.0000       0.034619         0.9420
  33   0.0000       0.042880         1.1668
  34   0.0000       0.053164         1.4467
  35   0.0000       0.071769         1.9529
  36   0.0000       0.081838         2.2269

MULLIKEN ATOMIC CHARGES
-----------------------
   0 S :    0.651415
   1 N :   -0.685781
   2 N :    0.342593
   3 N :   -0.292948
   4 C :    0.253541
   5 C :    0.651121
   6 C :   -0.098030
   7 C :    0.235955
   8 H :   -0.406260
   9 H :   -0.347149
  10 H :   -0.304459
Sum of atomic charges:    0.0000000

LOEWDIN ATOMIC CHARGES
----------------------
   0 S :    0.999012
   1 N :    0.014905
   2 N :   -0.252082
   3 N :    0.283732
   4 C :   -0.522114
   5 C :   -0.054918
   6 C :   -0.286158
   7 C :   -0.103370
   8 H :   -0.011417
   9 H :   -0.059391
  10 H :   -0.008200

  Mayer bond orders larger than 0.100000
B(  0-S ,  1-N ) :  -0.1180 B(  0-S ,  4-C ) :   1.0205 B(  0-S ,  6-C ) :   0.8820
B(  0-S ,  9-H ) :  -0.1816 B(  1-N ,  2-N ) :   1.1712 B(  1-N ,  3-N ) :   0.1908
B(  1-N ,  4-C ) :   0.7377 B(  2-N ,  3-N ) :   1.8149 B(  2-N ,  4-C ) :  -0.1288
B(  4-C ,  5-C ) :   2.0777 B(  4-C ,  6-C ) :   0.1124 B(  4-C ,  8-H ) :   0.2022
B(  5-C ,  7-C ) :   1.5558 B(  5-C ,  8-H ) :   0.5360 B(  6-C ,  7-C ) :   2.0368
B(  6-C ,  9-H ) :   0.8916 B(  7-C ,  9-H ) :   0.1309 B(  7-C , 10-H ) :   0.7202

MP2 TOTAL ENERGY:     -715.225877108 Eh
FINAL SINGLE POINT ENERGY      -715.225877107954

DIPOLE MOMENT
-------------
                                X             Y             Z
Electronic contribution:      4.25641      -3.85123      -0.00002
Nuclear contribution   :     -4.58262       4.43796       0.00000
                        -----------------------------------------
Total Dipole Moment    :     -0.32620       0.58673      -0.00001
                        -----------------------------------------
Magnitude (a.u.)       :      0.67131
Magnitude (Debye)      :      1.70633

Rotational constants in cm-1:     0.161482     0.039164     0.031520
Rotational constants in MHz :  4841.122160  1174.116454   944.940268

                             ****ORCA TERMINATED NORMALLY****
TOTAL RUN TIME: 0 days 0 hours 1 minutes 4 seconds 311 msec
