                         Program Version 5.0.3 -  RELEASE  -
|  1> !ri-mp2 aug-cc-pvdz aug-cc-pvdz/c tightscf
|  2> %pal nprocs 16 end
|  3>
|  4> * xyz 0 1
|  5> Cl    1.404145    1.587201    0.000000
|  6> Cl    1.404145   -1.587200    0.000000
|  7> C    -0.099467    0.708116    0.000000
|  8> C    -0.099467   -0.708116    0.000000
|  9> C    -1.288023    1.457987    0.000000
| 10> C    -1.288023   -1.457988    0.000000
| 11> C    -2.378023    0.619733    0.000000
| 12> C    -2.378023   -0.619734    0.000000
| 13> H    -1.277395    2.536568    0.000000
| 14> H    -1.277395   -2.536568    0.000000
| 15> *
| 16>
| 17>                          ****END OF INPUT****

CARTESIAN COORDINATES (ANGSTROEM)
---------------------------------
  Cl     1.404145    1.587201    0.000000
  Cl     1.404145   -1.587200    0.000000
  C     -0.099467    0.708116    0.000000
  C     -0.099467   -0.708116    0.000000
  C     -1.288023    1.457987    0.000000
  C     -1.288023   -1.457988    0.000000
  C     -2.378023    0.619733    0.000000
  C     -2.378023   -0.619734    0.000000
  H     -1.277395    2.536568    0.000000
  H     -1.277395   -2.536568    0.000000

 Total Charge           Charge          ....    0
 Multiplicity           Mult            ....    1
 Number of Electrons    NEL             ....   72
 Basis Dimension        Dim             ....  210

ORBITAL ENERGIES
----------------

  NO   OCC          E(Eh)            E(eV)
   0   2.0000    -104.856852     -2853.3000
   1   2.0000    -104.856851     -2853.3000
   2   2.0000     -11.343885      -308.6828
   3   2.0000     -11.342811      -308.6536
   4   2.0000     -11.309348      -307.7430
   5   2.0000     -11.309334      -307.7426
   6   2.0000     -11.284170      -307.0579
   7   2.0000     -11.281081      -306.9738
   8   2.0000     -10.582898      -287.9753
   9   2.0000     -10.582881      -287.9748
  10   2.0000      -8.050732      -219.0716
  11   2.0000      -8.050731      -219.0715
  12   2.0000      -8.047236      -218.9764
  13   2.0000      -8.047235      -218.9764
  14   2.0000      -8.047126      -218.9734
  15   2.0000      -8.047125      -218.9734
  16   2.0000      -1.241835       -33.7921
  17   2.0000      -1.153659       -31.3926
  18   2.0000      -1.152028       -31.3483
  19   2.0000      -1.044459       -28.4212
  20   2.0000      -0.998964       -27.1832
  21   2.0000      -0.882807       -24.0224
  22   2.0000      -0.792672       -21.5697
  23   2.0000      -0.697169       -18.9709
  24   2.0000      -0.687066       -18.6960
  25   2.0000      -0.675334       -18.3768
  26   2.0000      -0.592418       -16.1205
  27   2.0000      -0.577860       -15.7244
  28   2.0000      -0.577279       -15.7086
  29   2.0000      -0.501594       -13.6491
  30   2.0000      -0.498099       -13.5540
  31   2.0000      -0.491016       -13.3612
  32   2.0000      -0.460389       -12.5278
  33   2.0000      -0.401651       -10.9295
  34   2.0000      -0.373608       -10.1664
  35   2.0000      -0.360344        -9.8055
  36   0.0000       0.025641         0.6977
  37   0.0000       0.036860         1.0030
  38   0.0000       0.044880         1.2213
  39   0.0000       0.065088         1.7711
  40   0.0000       0.068967         1.8767

MULLIKEN ATOMIC CHARGES
-----------------------
   0 Cl:   -0.310085
   1 Cl:   -0.310085
   2 C :    0.198788
   3 C :    0.198786
   4 C :    0.575340
   5 C :    0.575345
   6 C :   -0.169216
   7 C :   -0.169217
   8 H :   -0.294827
   9 H :   -0.294829
Sum of atomic charges:    0.0000000

LOEWDIN ATOMIC CHARGES
----------------------
   0 Cl:    0.579357
   1 Cl:    0.579358
   2 C :   -0.570272
   3 C :   -0.570272
   4 C :   -0.028393
   5 C :   -0.028392
   6 C :    0.026796
   7 C :    0.026796
   8 H :   -0.007489
   9 H :   -0.007490

  Mayer bond orders larger than 0.100000
B(  0-Cl,  2-C ) :   1.0767 B(  0-Cl,  3-C ) :  -0.1510 B(  0-Cl,  4-C ) :  -0.3486
B(  0-Cl,  5-C ) :   0.1463 B(  1-Cl,  2-C ) :  -0.1510 B(  1-Cl,  3-C ) :   1.0767
B(  1-Cl,  4-C ) :   0.1463 B(  1-Cl,  5-C ) :  -0.3486 B(  2-C ,  3-C ) :   1.1841
B(  2-C ,  4-C ) :   1.6945 B(  2-C ,  5-C ) :  -0.2758 B(  2-C ,  6-C ) :   0.1632
B(  2-C ,  8-H ) :   0.3146 B(  3-C ,  4-C ) :  -0.2758 B(  3-C ,  5-C ) :   1.6945
B(  3-C ,  7-C ) :   0.1632 B(  3-C ,  9-H ) :   0.3146 B(  4-C ,  5-C ) :   0.5117
B(  4-C ,  6-C ) :   1.2006 B(  4-C ,  8-H ) :   0.4606 B(  5-C ,  7-C ) :   1.2006
B(  5-C ,  9-H ) :   0.4606 B(  6-C ,  7-C ) :   1.6237

MP2 TOTAL ENERGY:    -1148.351099630 Eh
FINAL SINGLE POINT ENERGY     -1148.351099629680

DIPOLE MOMENT
-------------
                                X             Y             Z
Electronic contribution:      5.72822       0.00000      -0.00000
Nuclear contribution   :     -6.12975      -0.00000       0.00000
                        -----------------------------------------
Total Dipole Moment    :     -0.40153      -0.00000      -0.00000
                        -----------------------------------------
Magnitude (a.u.)       :      0.40153
Magnitude (Debye)      :      1.02060

Rotational constants in cm-1:     0.063871     0.052890     0.028932
Rotational constants in MHz :  1914.796806  1585.605144   867.360866

                             ****ORCA TERMINATED NORMALLY****
TOTAL RUN TIME: 0 days 0 hours 0 minutes 51 seconds 197 msec
