                         Program Version 5.0.3 -  RELEASE  -
|  1> !ri-mp2 aug-cc-pvdz aug-cc-pvdz/c tightscf
|  2> %pal nprocs 16 end
|  3>
|  4> * xyz 0 1
|  5> C     0.671348     0.000000    0.000000
|  6> C    -0.671348     0.000000    0.000000
|  7> C     1.522644     1.246022    0.000000
|  8> C     1.522644    -1.246022    0.000000
|  9> C    -1.522644    -1.246022    0.000000
| 10> C    -1.522644     1.246022    0.000000
| 11> H     2.179680     1.256485    0.874962
| 12> H     2.179680     1.256485   -0.874962
| 13> H     0.958985     2.173276    0.000000
| 14> H     2.179680    -1.256485    0.874962
| 15> H     0.958985    -2.173276    0.000000
| 16> H     2.179680    -1.256485   -0.874962
| 17> H    -2.179680    -1.256485   -0.874962
| 18> H    -2.179680    -1.256485    0.874962
| 19> H    -0.958985    -2.173276    0.000000
| 20> H    -2.179680     1.256485   -0.874962
| 21> H    -2.179680     1.256485    0.874962
| 22> H    -0.958985     2.173276    0.000000
| 23> *
| 24>
| 25>                          ****END OF INPUT****

CARTESIAN COORDINATES (ANGSTROEM)
---------------------------------
  C      0.671348    0.000000    0.000000
  C     -0.671348    0.000000    0.000000
  C      1.522644    1.246022    0.000000
  C      1.522644   -1.246022    0.000000
  C     -1.522644   -1.246022    0.000000
  C     -1.522644    1.246022    0.000000
  H      2.179680    1.256485    0.874962
  H      2.179680    1.256485   -0.874962
  H      0.958985    2.173276    0.000000
  H      2.179680   -1.256485    0.874962
  H      0.958985   -2.173276    0.000000
  H      2.179680   -1.256485   -0.874962
  H     -2.179680   -1.256485   -0.874962
  H     -2.179680   -1.256485    0.874962
  H     -0.958985   -2.173276    0.000000
  H     -2.179680    1.256485   -0.874962
  H     -2.179680    1.256485    0.874962
  H     -0.958985    2.173276    0.000000

 Total Charge           Charge          ....    0
 Multiplicity           Mult            ....    1
 Number of Electrons    NEL             ....   48
 Basis Dimension        Dim             ....  246

ORBITAL ENERGIES
----------------

  NO   OCC          E(Eh)            E(eV)
   0   2.0000     -11.228973      -305.5559
   1   2.0000     -11.227375      -305.5124
   2   2.0000     -11.218364      -305.2672
   3   2.0000     -11.218352      -305.2669
   4   2.0000     -11.218321      -305.2660
   5   2.0000     -11.218318      -305.2659
   6   2.0000      -1.105541       -30.0833
   7   2.0000      -1.012056       -27.5394
   8   2.0000      -0.947521       -25.7834
   9   2.0000      -0.916032       -24.9265
  10   2.0000      -0.855287       -23.2735
  11   2.0000      -0.672786       -18.3074
  12   2.0000      -0.638802       -17.3827
  13   2.0000      -0.597420       -16.2566
  14   2.0000      -0.595852       -16.2139
  15   2.0000      -0.568589       -15.4721
  16   2.0000      -0.533764       -14.5244
  17   2.0000      -0.528099       -14.3703
  18   2.0000      -0.523693       -14.2504
  19   2.0000      -0.520997       -14.1771
  20   2.0000      -0.507541       -13.8109
  21   2.0000      -0.498089       -13.5537
  22   2.0000      -0.449970       -12.2443
  23   2.0000      -0.319963        -8.7066
  24   0.0000       0.037145         1.0108
  25   0.0000       0.042137         1.1466
  26   0.0000       0.046802         1.2735
  27   0.0000       0.054484         1.4826
  28   0.0000       0.055845         1.5196

MULLIKEN ATOMIC CHARGES
-----------------------
   0 C :   -0.827882
   1 C :   -0.827882
   2 C :    0.420246
   3 C :    0.420246
   4 C :    0.420246
   5 C :    0.420246
   6 H :    0.113045
   7 H :    0.113045
   8 H :   -0.232395
   9 H :    0.113045
  10 H :   -0.232395
  11 H :    0.113045
  12 H :    0.113045
  13 H :    0.113045
  14 H :   -0.232395
  15 H :    0.113045
  16 H :    0.113045
  17 H :   -0.232395
Sum of atomic charges:    0.0000000

LOEWDIN ATOMIC CHARGES
----------------------
   0 C :   -0.227185
   1 C :   -0.227185
   2 C :    0.168912
   3 C :    0.168912
   4 C :    0.168912
   5 C :    0.168912
   6 H :   -0.008197
   7 H :   -0.008197
   8 H :   -0.038925
   9 H :   -0.008197
  10 H :   -0.038925
  11 H :   -0.008197
  12 H :   -0.008197
  13 H :   -0.008197
  14 H :   -0.038925
  15 H :   -0.008197
  16 H :   -0.008197
  17 H :   -0.038925

  Mayer bond orders larger than 0.100000
B(  0-C ,  1-C ) :   1.8818 B(  0-C ,  2-C ) :   1.6492 B(  0-C ,  3-C ) :   1.6492
B(  0-C ,  4-C ) :  -0.4085 B(  0-C ,  5-C ) :  -0.4085 B(  0-C ,  6-H ) :   0.1627
B(  0-C ,  7-H ) :   0.1627 B(  0-C ,  8-H ) :   0.6187 B(  0-C ,  9-H ) :   0.1627
B(  0-C , 10-H ) :   0.6187 B(  0-C , 11-H ) :   0.1627 B(  0-C , 14-H ) :  -0.2626
B(  0-C , 17-H ) :  -0.2626 B(  1-C ,  2-C ) :  -0.4085 B(  1-C ,  3-C ) :  -0.4085
B(  1-C ,  4-C ) :   1.6492 B(  1-C ,  5-C ) :   1.6492 B(  1-C ,  8-H ) :  -0.2626
B(  1-C , 10-H ) :  -0.2626 B(  1-C , 12-H ) :   0.1627 B(  1-C , 13-H ) :   0.1627
B(  1-C , 14-H ) :   0.6187 B(  1-C , 15-H ) :   0.1627 B(  1-C , 16-H ) :   0.1627
B(  1-C , 17-H ) :   0.6187 B(  2-C ,  3-C ) :  -0.3502 B(  2-C ,  5-C ) :   0.2466
B(  2-C ,  6-H ) :   0.8529 B(  2-C ,  7-H ) :   0.8529 B(  2-C ,  8-H ) :   0.5818
B(  3-C ,  4-C ) :   0.2466 B(  3-C ,  9-H ) :   0.8529 B(  3-C , 10-H ) :   0.5818
B(  3-C , 11-H ) :   0.8529 B(  4-C ,  5-C ) :  -0.3502 B(  4-C , 12-H ) :   0.8529
B(  4-C , 13-H ) :   0.8529 B(  4-C , 14-H ) :   0.5818 B(  5-C , 15-H ) :   0.8529
B(  5-C , 16-H ) :   0.8529 B(  5-C , 17-H ) :   0.5818

MP2 TOTAL ENERGY:     -235.089461522 Eh
FINAL SINGLE POINT ENERGY      -235.089461521647

DIPOLE MOMENT
-------------
                                X             Y             Z
Electronic contribution:      0.00000       0.00000       0.00000
Nuclear contribution   :     -0.00000      -0.00000       0.00000
                        -----------------------------------------
Total Dipole Moment    :      0.00000       0.00000       0.00000
                        -----------------------------------------
Magnitude (a.u.)       :      0.00000
Magnitude (Debye)      :      0.00000

Rotational constants in cm-1:     0.149793     0.098925     0.062297
Rotational constants in MHz :  4490.669048  2965.704948  1867.619666

                             ****ORCA TERMINATED NORMALLY****
TOTAL RUN TIME: 0 days 0 hours 0 minutes 53 seconds 9 msec
