                         Program Version 5.0.3 -  RELEASE  -
|  1> !ri-mp2 aug-cc-pvdz aug-cc-pvdz/c tightscf
|  2> %pal nprocs 16 end
|  3>
|  4> * xyz 0 1
|  5> C      1.353431    1.270810    0.013760
|  6> H      0.841398    2.180726   -0.302096
|  7> H      1.417446    1.279075    1.101271
|  8> H      2.364879    1.292140   -0.393745
|  9> C      1.362786   -1.262502   -0.056829
| 10> H      0.858541   -2.157090   -0.424699
| 11> H      1.425064   -1.331889    1.028585
| 12> C      0.615424    0.013505   -0.461515
| 13> H      0.538032    0.043857   -1.552099
| 14> N     -1.818851    0.026866   -0.759937
| 15> H     -2.762329    0.014931   -0.411347
| 16> H     -1.665858    0.059091   -1.750368
| 17> C     -0.791440   -0.007396    0.135988
| 18> O     -0.987670   -0.050347    1.337337
| 19> H      2.374939   -1.252626   -0.463060
| 20> *
| 21>
| 22>                          ****END OF INPUT****

CARTESIAN COORDINATES (ANGSTROEM)
---------------------------------
  C      1.353431    1.270810    0.013760
  H      0.841398    2.180726   -0.302096
  H      1.417446    1.279075    1.101271
  H      2.364879    1.292140   -0.393745
  C      1.362786   -1.262502   -0.056829
  H      0.858541   -2.157090   -0.424699
  H      1.425064   -1.331889    1.028585
  C      0.615424    0.013505   -0.461515
  H      0.538032    0.043857   -1.552099
  N     -1.818851    0.026866   -0.759937
  H     -2.762329    0.014931   -0.411347
  H     -1.665858    0.059091   -1.750368
  C     -0.791440   -0.007396    0.135988
  O     -0.987670   -0.050347    1.337337
  H      2.374939   -1.252626   -0.463060

 Total Charge           Charge          ....    0
 Multiplicity           Mult            ....    1
 Number of Electrons    NEL             ....   48
 Basis Dimension        Dim             ....  219

ORBITAL ENERGIES
----------------

  NO   OCC          E(Eh)            E(eV)
   0   2.0000     -20.524835      -558.5092
   1   2.0000     -15.593125      -424.3105
   2   2.0000     -11.354658      -308.9760
   3   2.0000     -11.251138      -306.1590
   4   2.0000     -11.226884      -305.4990
   5   2.0000     -11.226648      -305.4926
   6   2.0000      -1.382689       -37.6249
   7   2.0000      -1.212866       -33.0038
   8   2.0000      -1.081207       -29.4211
   9   2.0000      -0.939033       -25.5524
  10   2.0000      -0.872784       -23.7497
  11   2.0000      -0.774547       -21.0765
  12   2.0000      -0.713973       -19.4282
  13   2.0000      -0.683466       -18.5980
  14   2.0000      -0.607565       -16.5327
  15   2.0000      -0.605965       -16.4891
  16   2.0000      -0.595710       -16.2101
  17   2.0000      -0.546272       -14.8648
  18   2.0000      -0.529126       -14.3983
  19   2.0000      -0.522859       -14.2277
  20   2.0000      -0.485201       -13.2030
  21   2.0000      -0.483398       -13.1539
  22   2.0000      -0.414370       -11.2756
  23   2.0000      -0.411918       -11.2089
  24   0.0000       0.027620         0.7516
  25   0.0000       0.040658         1.1064
  26   0.0000       0.047609         1.2955
  27   0.0000       0.050935         1.3860
  28   0.0000       0.064735         1.7615

MULLIKEN ATOMIC CHARGES
-----------------------
   0 C :    0.798927
   1 H :   -0.084305
   2 H :    0.010118
   3 H :   -0.064262
   4 C :    0.798566
   5 H :   -0.083793
   6 H :    0.009787
   7 C :   -1.098782
   8 H :   -0.179248
   9 N :   -0.182455
  10 H :   -0.046588
  11 H :   -0.028092
  12 C :    1.016071
  13 O :   -0.802326
  14 H :   -0.063617
Sum of atomic charges:   -0.0000000

LOEWDIN ATOMIC CHARGES
----------------------
   0 C :    0.170840
   1 H :   -0.010742
   2 H :   -0.006178
   3 H :   -0.012924
   4 C :    0.170661
   5 H :   -0.010711
   6 H :   -0.006337
   7 C :   -0.228866
   8 H :    0.027745
   9 N :    0.275491
  10 H :   -0.005660
  11 H :   -0.023043
  12 C :   -0.348210
  13 O :    0.020888
  14 H :   -0.012952

  Mayer bond orders larger than 0.100000
B(  0-C ,  1-H ) :   0.8666 B(  0-C ,  2-H ) :   0.8736 B(  0-C ,  3-H ) :   0.8111
B(  0-C ,  4-C ) :  -0.1623 B(  0-C ,  7-C ) :   1.3115 B(  2-H ,  7-C ) :   0.1374
B(  3-H ,  7-C ) :   0.1283 B(  4-C ,  5-H ) :   0.8648 B(  4-C ,  6-H ) :   0.8738
B(  4-C ,  7-C ) :   1.3143 B(  4-C , 14-H ) :   0.8111 B(  6-H ,  7-C ) :   0.1397
B(  7-C ,  8-H ) :   0.6954 B(  7-C , 12-C ) :   0.9421 B(  7-C , 14-H ) :   0.1298
B(  9-N , 10-H ) :   1.1147 B(  9-N , 11-H ) :   1.0539 B(  9-N , 12-C ) :   0.8716
B( 12-C , 13-O ) :   1.3709

MP2 TOTAL ENERGY:     -287.047120335 Eh
FINAL SINGLE POINT ENERGY      -287.047120335382

DIPOLE MOMENT
-------------
                                X             Y             Z
Electronic contribution:     -5.49413      -0.07675       1.69534
Nuclear contribution   :      5.55221       0.13201      -3.26036
                        -----------------------------------------
Total Dipole Moment    :      0.05808       0.05526      -1.56502
                        -----------------------------------------
Magnitude (a.u.)       :      1.56707
Magnitude (Debye)      :      3.98318

Rotational constants in cm-1:     0.164138     0.087047     0.084062
Rotational constants in MHz :  4920.725429  2609.604625  2520.107980

                             ****ORCA TERMINATED NORMALLY****
TOTAL RUN TIME: 0 days 0 hours 0 minutes 38 seconds 522 msec
