                         Program Version 5.0.3 -  RELEASE  -
|  1> !ri-mp2 aug-cc-pvdz aug-cc-pvdz/c tightscf
|  2> %pal nprocs 16 end
|  3>
|  4> * xyz 0 1
|  5> F      2.232197   -0.973360        0.000000
|  6> F     -2.243497   -1.002072        0.000000
|  7> N     -0.001263   -1.004142        0.000000
|  8> N      1.229175    1.028037        0.000001
|  9> C      1.103378   -0.278453        0.000000
| 10> C     -1.109868   -0.306047        0.000000
| 11> C     -1.160118    1.080797        0.000001
| 12> C      0.074651    1.704920        0.000001
| 13> H     -2.093703    1.619545        0.000001
| 14> H      0.151768    2.784779        0.000002
| 15> *
| 16>
| 17>                          ****END OF INPUT****

CARTESIAN COORDINATES (ANGSTROEM)
---------------------------------
  F      2.232197   -0.973360    0.000000
  F     -2.243497   -1.002072    0.000000
  N     -0.001263   -1.004142    0.000000
  N      1.229175    1.028037    0.000001
  C      1.103378   -0.278453    0.000000
  C     -1.109868   -0.306047    0.000000
  C     -1.160118    1.080797    0.000001
  C      0.074651    1.704920    0.000001
  H     -2.093703    1.619545    0.000001
  H      0.151768    2.784779    0.000002

 Total Charge           Charge          ....    0
 Multiplicity           Mult            ....    1
 Number of Electrons    NEL             ....   58
 Basis Dimension        Dim             ....  202

ORBITAL ENERGIES
----------------

  NO   OCC          E(Eh)            E(eV)
   0   2.0000     -26.364721      -717.4205
   1   2.0000     -26.352737      -717.0944
   2   2.0000     -15.614662      -424.8965
   3   2.0000     -15.607626      -424.7051
   4   2.0000     -11.439779      -311.2922
   5   2.0000     -11.425340      -310.8993
   6   2.0000     -11.341828      -308.6268
   7   2.0000     -11.279917      -306.9421
   8   2.0000      -1.682371       -45.7796
   9   2.0000      -1.675022       -45.5797
  10   2.0000      -1.361024       -37.0353
  11   2.0000      -1.249196       -33.9924
  12   2.0000      -1.109385       -30.1879
  13   2.0000      -0.946691       -25.7608
  14   2.0000      -0.940942       -25.6043
  15   2.0000      -0.825675       -22.4678
  16   2.0000      -0.807063       -21.9613
  17   2.0000      -0.744815       -20.2675
  18   2.0000      -0.731667       -19.9097
  19   2.0000      -0.726594       -19.7716
  20   2.0000      -0.712061       -19.3762
  21   2.0000      -0.690975       -18.8024
  22   2.0000      -0.645599       -17.5677
  23   2.0000      -0.621399       -16.9091
  24   2.0000      -0.590944       -16.0804
  25   2.0000      -0.533697       -14.5226
  26   2.0000      -0.460563       -12.5326
  27   2.0000      -0.458777       -12.4839
  28   2.0000      -0.400993       -10.9116
  29   0.0000       0.026182         0.7124
  30   0.0000       0.043870         1.1938
  31   0.0000       0.067064         1.8249
  32   0.0000       0.072128         1.9627
  33   0.0000       0.082938         2.2569

MULLIKEN ATOMIC CHARGES
-----------------------
   0 F :   -0.646212
   1 F :   -0.678202
   2 N :   -0.642447
   3 N :   -0.665467
   4 C :    1.031388
   5 C :    1.013311
   6 C :    0.666480
   7 C :    0.521371
   8 H :   -0.351907
   9 H :   -0.248314
Sum of atomic charges:    0.0000000

LOEWDIN ATOMIC CHARGES
----------------------
   0 F :    0.107342
   1 F :    0.102931
   2 N :    0.111364
   3 N :    0.070414
   4 C :   -0.272068
   5 C :   -0.221707
   6 C :    0.070409
   7 C :    0.007272
   8 H :    0.007299
   9 H :    0.016743

  Mayer bond orders larger than 0.100000
B(  0-F ,  4-C ) :   0.3114 B(  1-F ,  6-C ) :   0.2007 B(  2-N ,  4-C ) :   1.3644
B(  2-N ,  5-C ) :   1.2765 B(  3-N ,  4-C ) :   1.4923 B(  3-N ,  7-C ) :   1.1221
B(  4-C ,  5-C ) :  -0.1635 B(  4-C ,  6-C ) :   0.1156 B(  4-C ,  7-C ) :  -0.1364
B(  5-C ,  6-C ) :   1.2048 B(  5-C ,  7-C ) :   0.1794 B(  6-C ,  7-C ) :   1.3955
B(  6-C ,  8-H ) :   0.7160 B(  7-C ,  9-H ) :   0.9040

MP2 TOTAL ENERGY:     -461.722758492 Eh
FINAL SINGLE POINT ENERGY      -461.722758491641

DIPOLE MOMENT
-------------
                                X             Y             Z
Electronic contribution:      0.97492      -4.73646      -0.00000
Nuclear contribution   :     -1.80521       5.96434       0.00000
                        -----------------------------------------
Total Dipole Moment    :     -0.83029       1.22787      -0.00000
                        -----------------------------------------
Magnitude (a.u.)       :      1.48225
Magnitude (Debye)      :      3.76758

Rotational constants in cm-1:     0.132688     0.064446     0.043377
Rotational constants in MHz :  3977.887130  1932.030844  1300.424247

                             ****ORCA TERMINATED NORMALLY****
TOTAL RUN TIME: 0 days 0 hours 0 minutes 39 seconds 634 msec
