                         Program Version 5.0.3 -  RELEASE  -
|  1> !ri-mp2 aug-cc-pvdz aug-cc-pvdz/c tightscf
|  2> %pal nprocs 16 end
|  3>
|  4> * xyz 0 1
|  5> O     -1.068209    2.068569   -0.000013
|  6> O     -1.835661   -1.349617    0.000009
|  7> N      2.746608   -0.160912    0.000000
|  8> C      0.178758   -0.075978    0.000000
|  9> C     -0.472691    1.094157   -0.000007
| 10> C     -0.632050   -1.322264    0.000009
| 11> C      1.595368   -0.094455    0.000000
| 12> H     -0.011614   -2.233995    0.000017
| 13> *
| 14>
| 15>                          ****END OF INPUT****

CARTESIAN COORDINATES (ANGSTROEM)
---------------------------------
  O     -1.068209    2.068569   -0.000013
  O     -1.835661   -1.349617    0.000009
  N      2.746608   -0.160912    0.000000
  C      0.178758   -0.075978    0.000000
  C     -0.472691    1.094157   -0.000007
  C     -0.632050   -1.322264    0.000009
  C      1.595368   -0.094455    0.000000
  H     -0.011614   -2.233995    0.000017

 Total Charge           Charge          ....    0
 Multiplicity           Mult            ....    1
 Number of Electrons    NEL             ....   48
 Basis Dimension        Dim             ....  170

ORBITAL ENERGIES
----------------

  NO   OCC          E(Eh)            E(eV)
   0   2.0000     -20.726970      -564.0095
   1   2.0000     -20.602985      -560.6357
   2   2.0000     -15.613142      -424.8552
   3   2.0000     -11.480915      -312.4116
   4   2.0000     -11.396516      -310.1150
   5   2.0000     -11.332037      -308.3604
   6   2.0000     -11.322333      -308.0963
   7   2.0000      -1.570667       -42.7400
   8   2.0000      -1.441221       -39.2176
   9   2.0000      -1.259962       -34.2853
  10   2.0000      -1.159294       -31.5460
  11   2.0000      -0.924770       -25.1643
  12   2.0000      -0.855556       -23.2809
  13   2.0000      -0.809261       -22.0211
  14   2.0000      -0.737108       -20.0577
  15   2.0000      -0.721298       -19.6275
  16   2.0000      -0.681611       -18.5476
  17   2.0000      -0.665141       -18.0994
  18   2.0000      -0.594388       -16.1741
  19   2.0000      -0.587370       -15.9831
  20   2.0000      -0.537246       -14.6192
  21   2.0000      -0.510243       -13.8844
  22   2.0000      -0.469430       -12.7738
  23   2.0000      -0.405204       -11.0262
  24   0.0000       0.033187         0.9031
  25   0.0000       0.049368         1.3434
  26   0.0000       0.055732         1.5166
  27   0.0000       0.063177         1.7191
  28   0.0000       0.071696         1.9510

MULLIKEN ATOMIC CHARGES
-----------------------
   0 O :   -0.332163
   1 O :   -0.703394
   2 N :   -0.261200
   3 C :    1.704184
   4 C :   -0.294314
   5 C :    0.830728
   6 C :   -0.816654
   7 H :   -0.127186
Sum of atomic charges:    0.0000000

LOEWDIN ATOMIC CHARGES
----------------------
   0 O :    0.215304
   1 O :    0.035436
   2 N :    0.100960
   3 C :   -0.207516
   4 C :    0.059102
   5 C :   -0.066176
   6 C :   -0.164829
   7 H :    0.027720

  Mayer bond orders larger than 0.100000
B(  0-O ,  3-C ) :  -0.2755 B(  0-O ,  4-C ) :   2.3418 B(  1-O ,  5-C ) :   1.5562
B(  2-N ,  3-C ) :  -0.1314 B(  2-N ,  6-C ) :   2.6073 B(  3-C ,  4-C ) :   0.2457
B(  3-C ,  5-C ) :   1.0144 B(  3-C ,  6-C ) :   0.1050 B(  4-C ,  5-C ) :  -0.2159
B(  4-C ,  6-C ) :   0.1638 B(  5-C ,  6-C ) :  -0.1914 B(  5-C ,  7-H ) :   0.8037

MP2 TOTAL ENERGY:     -357.277987071 Eh
FINAL SINGLE POINT ENERGY      -357.277987070698

DIPOLE MOMENT
-------------
                                X             Y             Z
Electronic contribution:     -0.24271       2.30586      -0.00002
Nuclear contribution   :     -0.03914      -2.10876       0.00002
                        -----------------------------------------
Total Dipole Moment    :     -0.28185       0.19710      -0.00000
                        -----------------------------------------
Magnitude (a.u.)       :      0.34393
Magnitude (Debye)      :      0.87419

Rotational constants in cm-1:     0.121717     0.077947     0.047517
Rotational constants in MHz :  3648.986536  2336.797942  1424.532450

                             ****ORCA TERMINATED NORMALLY****
TOTAL RUN TIME: 0 days 0 hours 0 minutes 35 seconds 994 msec
