                         Program Version 5.0.3 -  RELEASE  -
|  1> !ri-mp2 aug-cc-pvdz aug-cc-pvdz/c tightscf
|  2> %pal nprocs 16 end
|  3>
|  4> * xyz 0 1
|  5> C     -0.213058    2.110789   -0.000013
|  6> C      1.042586    1.522127    0.000007
|  7> C     -1.349117    1.314820   -0.000027
|  8> C      1.187094    0.132469   -0.000047
|  9> C      0.046570   -0.684289   -0.000161
| 10> C     -1.210519   -0.067972   -0.000041
| 11> C      2.574664   -0.460211    0.000086
| 12> C      0.106756   -2.189188   -0.000088
| 13> O     -2.303561   -0.899154    0.000146
| 14> H     -0.310027    3.188042    0.000026
| 15> H      1.926806    2.145506    0.000092
| 16> H     -2.337118    1.760334    0.000039
| 17> H      2.748533   -1.085830    0.877800
| 18> H      2.749167   -1.084718   -0.878307
| 19> H      3.326642    0.326983    0.000827
| 20> H     -0.398378   -2.599980    0.876317
| 21> H     -0.408082   -2.600325   -0.870566
| 22> H      1.128274   -2.557539   -0.005554
| 23> H     -3.107182   -0.370501   -0.000145
| 24> *
| 25>
| 26>                          ****END OF INPUT****

CARTESIAN COORDINATES (ANGSTROEM)
---------------------------------
  C     -0.213058    2.110789   -0.000013
  C      1.042586    1.522127    0.000007
  C     -1.349117    1.314820   -0.000027
  C      1.187094    0.132469   -0.000047
  C      0.046570   -0.684289   -0.000161
  C     -1.210519   -0.067972   -0.000041
  C      2.574664   -0.460211    0.000086
  C      0.106756   -2.189188   -0.000088
  O     -2.303561   -0.899154    0.000146
  H     -0.310027    3.188042    0.000026
  H      1.926806    2.145506    0.000092
  H     -2.337118    1.760334    0.000039
  H      2.748533   -1.085830    0.877800
  H      2.749167   -1.084718   -0.878307
  H      3.326642    0.326983    0.000827
  H     -0.398378   -2.599980    0.876317
  H     -0.408082   -2.600325   -0.870566
  H      1.128274   -2.557539   -0.005554
  H     -3.107182   -0.370501   -0.000145

 Total Charge           Charge          ....    0
 Multiplicity           Mult            ....    1
 Number of Electrons    NEL             ....   66
 Basis Dimension        Dim             ....  297

ORBITAL ENERGIES
----------------

  NO   OCC          E(Eh)            E(eV)
   0   2.0000     -20.597118      -560.4761
   1   2.0000     -11.300675      -307.5070
   2   2.0000     -11.245720      -306.0116
   3   2.0000     -11.239069      -305.8306
   4   2.0000     -11.234616      -305.7094
   5   2.0000     -11.231761      -305.6317
   6   2.0000     -11.228327      -305.5383
   7   2.0000     -11.223513      -305.4073
   8   2.0000     -11.220883      -305.3357
   9   2.0000      -1.405409       -38.2431
  10   2.0000      -1.154553       -31.4170
  11   2.0000      -1.055152       -28.7122
  12   2.0000      -1.026515       -27.9329
  13   2.0000      -0.948563       -25.8117
  14   2.0000      -0.918391       -24.9907
  15   2.0000      -0.824542       -22.4369
  16   2.0000      -0.800007       -21.7693
  17   2.0000      -0.710084       -19.3224
  18   2.0000      -0.674115       -18.3436
  19   2.0000      -0.656546       -17.8655
  20   2.0000      -0.602058       -16.3828
  21   2.0000      -0.600861       -16.3503
  22   2.0000      -0.570124       -15.5139
  23   2.0000      -0.568597       -15.4723
  24   2.0000      -0.560389       -15.2490
  25   2.0000      -0.543428       -14.7874
  26   2.0000      -0.543381       -14.7861
  27   2.0000      -0.529979       -14.4215
  28   2.0000      -0.494646       -13.4600
  29   2.0000      -0.476307       -12.9610
  30   2.0000      -0.466889       -12.7047
  31   2.0000      -0.322658        -8.7800
  32   2.0000      -0.307043        -8.3551
  33   0.0000       0.032914         0.8956
  34   0.0000       0.039636         1.0786
  35   0.0000       0.041641         1.1331
  36   0.0000       0.052434         1.4268
  37   0.0000       0.055990         1.5236

MULLIKEN ATOMIC CHARGES
-----------------------
   0 C :    0.013762
   1 C :    0.688930
   2 C :    0.479205
   3 C :    0.317691
   4 C :   -0.566770
   5 C :    0.508987
   6 C :    0.196384
   7 C :    0.655618
   8 O :   -0.998829
   9 H :   -0.463972
  10 H :   -0.624803
  11 H :   -0.625383
  12 H :    0.235009
  13 H :    0.235174
  14 H :   -0.279833
  15 H :    0.135124
  16 H :    0.133438
  17 H :   -0.242626
  18 H :    0.202894
Sum of atomic charges:   -0.0000000

LOEWDIN ATOMIC CHARGES
----------------------
   0 C :    0.004839
   1 C :    0.026280
   2 C :    0.036101
   3 C :   -0.171950
   4 C :   -0.137893
   5 C :   -0.188598
   6 C :    0.171960
   7 C :    0.182112
   8 O :    0.187927
   9 H :    0.001423
  10 H :   -0.003249
  11 H :   -0.001365
  12 H :   -0.005413
  13 H :   -0.005463
  14 H :   -0.017882
  15 H :   -0.003306
  16 H :   -0.003581
  17 H :   -0.031441
  18 H :   -0.040503

  Mayer bond orders larger than 0.100000
B(  0-C ,  1-C ) :   1.2680 B(  0-C ,  2-C ) :   1.9956 B(  0-C ,  3-C ) :  -0.3280
B(  0-C ,  4-C ) :   0.4210 B(  0-C ,  5-C ) :  -0.1150 B(  0-C ,  6-C ) :   0.5555
B(  0-C ,  9-H ) :   0.2244 B(  0-C , 10-H ) :   0.3059 B(  0-C , 11-H ) :   0.2411
B(  1-C ,  2-C ) :   0.2776 B(  1-C ,  3-C ) :   1.6257 B(  1-C ,  4-C ) :  -0.7633
B(  1-C ,  5-C ) :   0.1394 B(  1-C ,  6-C ) :  -0.7989 B(  1-C ,  7-C ) :   0.2467
B(  1-C ,  9-H ) :   0.1653 B(  1-C , 10-H ) :  -0.4551 B(  1-C , 11-H ) :  -0.1294
B(  1-C , 12-H ) :   0.1101 B(  1-C , 13-H ) :   0.1100 B(  2-C ,  3-C ) :  -0.3602
B(  2-C ,  4-C ) :   0.3309 B(  2-C ,  5-C ) :   1.4141 B(  2-C ,  8-O ) :   0.2598
B(  2-C ,  9-H ) :   0.2624 B(  2-C , 10-H ) :  -0.1089 B(  2-C , 11-H ) :  -0.4354
B(  2-C , 18-H ) :   0.1392 B(  3-C ,  4-C ) :   2.0945 B(  3-C ,  5-C ) :  -0.4877
B(  3-C ,  6-C ) :   1.3540 B(  3-C ,  7-C ) :  -0.4554 B(  3-C , 10-H ) :   0.6880
B(  3-C , 12-H ) :   0.1702 B(  3-C , 13-H ) :   0.1698 B(  3-C , 14-H ) :   0.4524
B(  4-C ,  5-C ) :   1.3602 B(  4-C ,  6-C ) :  -0.1407 B(  4-C ,  7-C ) :   1.4873
B(  4-C ,  8-O ) :   0.4189 B(  4-C , 17-H ) :   0.4367 B(  5-C ,  7-C ) :  -0.1503
B(  5-C ,  8-O ) :  -0.4683 B(  5-C , 11-H ) :   0.8915 B(  5-C , 18-H ) :  -0.1660
B(  6-C ,  7-C ) :  -0.1965 B(  6-C , 12-H ) :   0.7974 B(  6-C , 13-H ) :   0.7980
B(  6-C , 14-H ) :   0.5526 B(  6-C , 17-H ) :   0.1945 B(  7-C , 15-H ) :   0.8204
B(  7-C , 16-H ) :   0.8196 B(  7-C , 17-H ) :   0.4342 B(  8-O , 18-H ) :   1.0243
B( 12-H , 13-H ) :  -0.1030

MP2 TOTAL ENERGY:     -384.993931067 Eh
FINAL SINGLE POINT ENERGY      -384.993931066942

DIPOLE MOMENT
-------------
                                X             Y             Z
Electronic contribution:     -5.47264       3.19343      -0.00061
Nuclear contribution   :      5.35954      -2.93448       0.00054
                        -----------------------------------------
Total Dipole Moment    :     -0.11310       0.25894      -0.00006
                        -----------------------------------------
Magnitude (a.u.)       :      0.28257
Magnitude (Debye)      :      0.71823

Rotational constants in cm-1:     0.075121     0.059124     0.033491
Rotational constants in MHz :  2252.083400  1772.507113  1004.048127

                             ****ORCA TERMINATED NORMALLY****
TOTAL RUN TIME: 0 days 0 hours 1 minutes 39 seconds 552 msec
