                         Program Version 5.0.3 -  RELEASE  -
|  1> !ri-mp2 aug-cc-pvdz aug-cc-pvdz/c tightscf
|  2> %pal nprocs 16 end
|  3>
|  4> * xyz 0 1
|  5> C      2.394338   -0.198378    0.010397
|  6> C     -1.213963    0.512011   -0.011820
|  7> C      0.040704   -0.342423    0.060690
|  8> N     -2.400419   -0.343513    0.068122
|  9> O      1.170345    0.499841   -0.068361
| 10> H      3.193257    0.531998   -0.100922
| 11> H      2.481000   -0.946782   -0.786913
| 12> H      2.505379   -0.705551    0.976378
| 13> H     -1.223477    1.192544    0.840371
| 14> H     -1.165713    1.129196   -0.917074
| 15> H      0.034198   -1.091761   -0.745001
| 16> H      0.066402   -0.885403    1.013302
| 17> H     -2.543778   -0.851532   -0.796036
| 18> H     -3.233572    0.205897    0.230329
| 19> *
| 20>
| 21>                          ****END OF INPUT****

CARTESIAN COORDINATES (ANGSTROEM)
---------------------------------
  C      2.394338   -0.198378    0.010397
  C     -1.213963    0.512011   -0.011820
  C      0.040704   -0.342423    0.060690
  N     -2.400419   -0.343513    0.068122
  O      1.170345    0.499841   -0.068361
  H      3.193257    0.531998   -0.100922
  H      2.481000   -0.946782   -0.786913
  H      2.505379   -0.705551    0.976378
  H     -1.223477    1.192544    0.840371
  H     -1.165713    1.129196   -0.917074
  H      0.034198   -1.091761   -0.745001
  H      0.066402   -0.885403    1.013302
  H     -2.543778   -0.851532   -0.796036
  H     -3.233572    0.205897    0.230329

 Total Charge           Charge          ....    0
 Multiplicity           Mult            ....    1
 Number of Electrons    NEL             ....   42
 Basis Dimension        Dim             ....  196

ORBITAL ENERGIES
----------------

  NO   OCC          E(Eh)            E(eV)
   0   2.0000     -20.563016      -559.5481
   1   2.0000     -15.550909      -423.1617
   2   2.0000     -11.275790      -306.8299
   3   2.0000     -11.274753      -306.8016
   4   2.0000     -11.252254      -306.1894
   5   2.0000      -1.375134       -37.4193
   6   2.0000      -1.180811       -32.1315
   7   2.0000      -0.997327       -27.1386
   8   2.0000      -0.900845       -24.5132
   9   2.0000      -0.822518       -22.3819
  10   2.0000      -0.682581       -18.5740
  11   2.0000      -0.662928       -18.0392
  12   2.0000      -0.646279       -17.5861
  13   2.0000      -0.618469       -16.8294
  14   2.0000      -0.590325       -16.0636
  15   2.0000      -0.563251       -15.3268
  16   2.0000      -0.514436       -13.9985
  17   2.0000      -0.497856       -13.5474
  18   2.0000      -0.474213       -12.9040
  19   2.0000      -0.419709       -11.4209
  20   2.0000      -0.392351       -10.6764
  21   0.0000       0.035981         0.9791
  22   0.0000       0.042679         1.1614
  23   0.0000       0.049264         1.3405
  24   0.0000       0.053902         1.4667
  25   0.0000       0.065616         1.7855

MULLIKEN ATOMIC CHARGES
-----------------------
   0 C :    0.756884
   1 C :    0.652229
   2 C :    0.806937
   3 N :   -0.388785
   4 O :   -0.884356
   5 H :   -0.266593
   6 H :   -0.058275
   7 H :   -0.060992
   8 H :   -0.158887
   9 H :   -0.089046
  10 H :   -0.171854
  11 H :   -0.108130
  12 H :   -0.000167
  13 H :   -0.028964
Sum of atomic charges:    0.0000000

LOEWDIN ATOMIC CHARGES
----------------------
   0 C :    0.120240
   1 C :   -0.069961
   2 C :   -0.054613
   3 N :    0.178585
   4 O :   -0.026706
   5 H :   -0.029288
   6 H :   -0.024565
   7 H :   -0.024043
   8 H :    0.012156
   9 H :    0.008059
  10 H :    0.008493
  11 H :    0.011454
  12 H :   -0.054749
  13 H :   -0.055063

  Mayer bond orders larger than 0.100000
B(  0-C ,  4-O ) :   0.7291 B(  0-C ,  5-H ) :   1.0601 B(  0-C ,  6-H ) :   0.9470
B(  0-C ,  7-H ) :   0.9509 B(  1-C ,  2-C ) :   1.3119 B(  1-C ,  3-N ) :   0.8989
B(  1-C ,  8-H ) :   0.8088 B(  1-C ,  9-H ) :   0.8896 B(  2-C ,  4-O ) :   0.5910
B(  2-C , 10-H ) :   0.8701 B(  2-C , 11-H ) :   0.8884 B(  3-N , 12-H ) :   1.0667
B(  3-N , 13-H ) :   1.0782

MP2 TOTAL ENERGY:     -248.993956068 Eh
FINAL SINGLE POINT ENERGY      -248.993956067945

DIPOLE MOMENT
-------------
                                X             Y             Z
Electronic contribution:     -0.20531       1.30292      -0.00563
Nuclear contribution   :      0.12398      -1.48654      -0.30060
                        -----------------------------------------
Total Dipole Moment    :     -0.08133      -0.18363      -0.30623
                        -----------------------------------------
Magnitude (a.u.)       :      0.36621
Magnitude (Debye)      :      0.93084

Rotational constants in cm-1:     0.721038     0.070943     0.067478
Rotational constants in MHz : 21616.178111  2126.819788  2022.945870

                             ****ORCA TERMINATED NORMALLY****
TOTAL RUN TIME: 0 days 0 hours 0 minutes 33 seconds 650 msec
