                         Program Version 5.0.3 -  RELEASE  -
|  1> !ri-mp2 aug-cc-pvdz aug-cc-pvdz/c tightscf
|  2> %pal nprocs 16 end
|  3>
|  4> * xyz 0 1
|  5> C     -0.858750    0.493126    0.000000
|  6> C      0.656851    0.425801    0.000000
|  7> F      1.143435   -0.195496    1.084579
|  8> F      1.143435    1.687623    0.000000
|  9> F      1.143435   -0.195496   -1.084579
| 10> Cl    -1.605455   -1.130914    0.000000
| 11> H     -1.184311    1.021148    0.890634
| 12> H     -1.184311    1.021148   -0.890634
| 13> *
| 14>
| 15>                          ****END OF INPUT****

CARTESIAN COORDINATES (ANGSTROEM)
---------------------------------
  C     -0.858750    0.493126    0.000000
  C      0.656851    0.425801    0.000000
  F      1.143435   -0.195496    1.084579
  F      1.143435    1.687623    0.000000
  F      1.143435   -0.195496   -1.084579
  Cl    -1.605455   -1.130914    0.000000
  H     -1.184311    1.021148    0.890634
  H     -1.184311    1.021148   -0.890634

 Total Charge           Charge          ....    0
 Multiplicity           Mult            ....    1
 Number of Electrons    NEL             ....   58
 Basis Dimension        Dim             ....  160

ORBITAL ENERGIES
----------------

  NO   OCC          E(Eh)            E(eV)
   0   2.0000    -104.855335     -2853.2587
   1   2.0000     -26.365301      -717.4363
   2   2.0000     -26.363573      -717.3893
   3   2.0000     -26.363552      -717.3887
   4   2.0000     -11.536502      -313.9242
   5   2.0000     -11.344761      -308.7066
   6   2.0000     -10.581175      -287.9284
   7   2.0000      -8.048937      -219.0227
   8   2.0000      -8.045502      -218.9292
   9   2.0000      -8.045385      -218.9261
  10   2.0000      -1.746280       -47.5187
  11   2.0000      -1.651791       -44.9475
  12   2.0000      -1.651186       -44.9310
  13   2.0000      -1.177028       -32.0286
  14   2.0000      -1.038631       -28.2626
  15   2.0000      -0.928313       -25.2607
  16   2.0000      -0.839470       -22.8431
  17   2.0000      -0.836612       -22.7654
  18   2.0000      -0.795144       -21.6370
  19   2.0000      -0.725237       -19.7347
  20   2.0000      -0.722369       -19.6567
  21   2.0000      -0.681609       -18.5475
  22   2.0000      -0.676124       -18.3983
  23   2.0000      -0.660354       -17.9691
  24   2.0000      -0.645003       -17.5514
  25   2.0000      -0.609204       -16.5773
  26   2.0000      -0.575843       -15.6695
  27   2.0000      -0.469646       -12.7797
  28   2.0000      -0.465307       -12.6616
  29   0.0000       0.034100         0.9279
  30   0.0000       0.050150         1.3647
  31   0.0000       0.072769         1.9802
  32   0.0000       0.079985         2.1765
  33   0.0000       0.111713         3.0399

MULLIKEN ATOMIC CHARGES
-----------------------
   0 C :   -0.374172
   1 C :    2.043695
   2 F :   -0.594831
   3 F :   -0.618126
   4 F :   -0.594831
   5 Cl:   -0.083384
   6 H :    0.110824
   7 H :    0.110824
Sum of atomic charges:    0.0000000

LOEWDIN ATOMIC CHARGES
----------------------
   0 C :   -0.281209
   1 C :   -0.432714
   2 F :    0.079434
   3 F :    0.075551
   4 F :    0.079434
   5 Cl:    0.512700
   6 H :   -0.016598
   7 H :   -0.016598

  Mayer bond orders larger than 0.100000
B(  0-C ,  1-C ) :   1.2136 B(  0-C ,  3-F ) :   0.1277 B(  0-C ,  5-Cl) :   1.2205
B(  0-C ,  6-H ) :   0.8844 B(  0-C ,  7-H ) :   0.8844 B(  1-C ,  2-F ) :   0.3264
B(  1-C ,  3-F ) :   0.2812 B(  1-C ,  4-F ) :   0.3264 B(  1-C ,  5-Cl) :  -0.1091

MP2 TOTAL ENERGY:     -835.813919743 Eh
FINAL SINGLE POINT ENERGY      -835.813919742583

DIPOLE MOMENT
-------------
                                X             Y             Z
Electronic contribution:      2.57508      -1.58211       0.00000
Nuclear contribution   :     -3.18047       2.18776       0.00000
                        -----------------------------------------
Total Dipole Moment    :     -0.60539       0.60565       0.00000
                        -----------------------------------------
Magnitude (a.u.)       :      0.85633
Magnitude (Debye)      :      2.17662

Rotational constants in cm-1:     0.176208     0.058607     0.057986
Rotational constants in MHz :  5282.580036  1756.988957  1738.371767

                             ****ORCA TERMINATED NORMALLY****
TOTAL RUN TIME: 0 days 0 hours 0 minutes 31 seconds 758 msec
