                         Program Version 5.0.3 -  RELEASE  -
|  1> !ri-mp2 aug-cc-pvdz aug-cc-pvdz/c tightscf
|  2> %pal nprocs 16 end
|  3>
|  4> * xyz 0 1
|  5> F     -0.375818    1.697446    0.222764
|  6> O      0.626983    0.220870   -1.127340
|  7> O     -2.388585    0.216606   -0.155235
|  8> O     -1.228699   -1.610380    0.030610
|  9> N     -1.359931   -0.402241   -0.018206
| 10> C     -0.021614    0.404745    0.085285
| 11> C      0.896960   -0.092476    1.209348
| 12> C      1.920548   -0.209156   -0.846755
| 13> C      2.155262   -0.394312    0.440990
| 14> H      0.482254   -0.975565    1.692874
| 15> H      1.010076    0.694126    1.955231
| 16> H      2.540130   -0.330936   -1.718095
| 17> H      3.084893   -0.718520    0.875072
| 18> *
| 19>
| 20>                          ****END OF INPUT****

CARTESIAN COORDINATES (ANGSTROEM)
---------------------------------
  F     -0.375818    1.697446    0.222764
  O      0.626983    0.220870   -1.127340
  O     -2.388585    0.216606   -0.155235
  O     -1.228699   -1.610380    0.030610
  N     -1.359931   -0.402241   -0.018206
  C     -0.021614    0.404745    0.085285
  C      0.896960   -0.092476    1.209348
  C      1.920548   -0.209156   -0.846755
  C      2.155262   -0.394312    0.440990
  H      0.482254   -0.975565    1.692874
  H      1.010076    0.694126    1.955231
  H      2.540130   -0.330936   -1.718095
  H      3.084893   -0.718520    0.875072

 Total Charge           Charge          ....    0
 Multiplicity           Mult            ....    1
 Number of Electrons    NEL             ....   68
 Basis Dimension        Dim             ....  243

ORBITAL ENERGIES
----------------

  NO   OCC          E(Eh)            E(eV)
   0   2.0000     -26.356409      -717.1944
   1   2.0000     -20.648395      -561.8714
   2   2.0000     -20.633849      -561.4756
   3   2.0000     -20.626155      -561.2662
   4   2.0000     -15.868150      -431.7943
   5   2.0000     -11.477656      -312.3229
   6   2.0000     -11.335424      -308.4526
   7   2.0000     -11.289152      -307.1935
   8   2.0000     -11.269719      -306.6647
   9   2.0000      -1.683156       -45.8010
  10   2.0000      -1.626310       -44.2542
  11   2.0000      -1.478729       -40.2383
  12   2.0000      -1.427582       -38.8465
  13   2.0000      -1.128703       -30.7136
  14   2.0000      -1.090204       -29.6660
  15   2.0000      -0.965854       -26.2822
  16   2.0000      -0.874201       -23.7882
  17   2.0000      -0.845307       -23.0020
  18   2.0000      -0.816366       -22.2145
  19   2.0000      -0.782135       -21.2830
  20   2.0000      -0.741111       -20.1667
  21   2.0000      -0.729329       -19.8461
  22   2.0000      -0.717451       -19.5228
  23   2.0000      -0.701286       -19.0830
  24   2.0000      -0.670800       -18.2534
  25   2.0000      -0.636914       -17.3313
  26   2.0000      -0.608431       -16.5562
  27   2.0000      -0.596110       -16.2210
  28   2.0000      -0.574714       -15.6388
  29   2.0000      -0.560738       -15.2585
  30   2.0000      -0.511694       -13.9239
  31   2.0000      -0.491946       -13.3865
  32   2.0000      -0.466676       -12.6989
  33   2.0000      -0.381925       -10.3927
  34   0.0000       0.026351         0.7171
  35   0.0000       0.037902         1.0314
  36   0.0000       0.047464         1.2916
  37   0.0000       0.053855         1.4655
  38   0.0000       0.076184         2.0731

MULLIKEN ATOMIC CHARGES
-----------------------
   0 F :   -0.735916
   1 O :   -0.983130
   2 O :   -0.720610
   3 O :   -0.803891
   4 N :    0.598621
   5 C :    2.049997
   6 C :    0.061448
   7 C :    0.612553
   8 C :    0.488798
   9 H :   -0.003043
  10 H :   -0.017152
  11 H :   -0.270003
  12 H :   -0.277672
Sum of atomic charges:   -0.0000000

LOEWDIN ATOMIC CHARGES
----------------------
   0 F :    0.099150
   1 O :    0.082166
   2 O :    0.116711
   3 O :    0.096153
   4 N :   -0.324152
   5 C :   -0.249236
   6 C :    0.058930
   7 C :    0.037616
   8 C :    0.033182
   9 H :    0.016413
  10 H :    0.029074
  11 H :    0.006759
  12 H :   -0.002767

  Mayer bond orders larger than 0.100000
B(  0-F ,  4-N ) :   0.1219 B(  0-F ,  5-C ) :  -0.1247 B(  0-F ,  6-C ) :   0.1238
B(  1-O ,  4-N ) :   0.2035 B(  1-O ,  5-C ) :   0.5179 B(  1-O ,  7-C ) :   0.4633
B(  1-O , 11-H ) :  -0.1115 B(  2-O ,  3-O ) :   0.1979 B(  2-O ,  4-N ) :   1.2413
B(  3-O ,  4-N ) :   1.1226 B(  4-N ,  5-C ) :   0.3076 B(  5-C ,  6-C ) :   1.0826
B(  5-C , 10-H ) :   0.1035 B(  6-C ,  8-C ) :   1.1949 B(  6-C ,  9-H ) :   0.8518
B(  6-C , 10-H ) :   0.8106 B(  7-C ,  8-C ) :   1.8654 B(  7-C , 11-H ) :   0.9823
B(  8-C , 12-H ) :   0.7259

MP2 TOTAL ENERGY:     -533.716170509 Eh
FINAL SINGLE POINT ENERGY      -533.716170509280

DIPOLE MOMENT
-------------
                                X             Y             Z
Electronic contribution:     -5.24803       2.87504      -1.85927
Nuclear contribution   :      7.13349      -2.90596       2.46174
                        -----------------------------------------
Total Dipole Moment    :      1.88545      -0.03092       0.60247
                        -----------------------------------------
Magnitude (a.u.)       :      1.97961
Magnitude (Debye)      :      5.03177

Rotational constants in cm-1:     0.100834     0.049909     0.043952
Rotational constants in MHz :  3022.934413  1496.245461  1317.652943

                             ****ORCA TERMINATED NORMALLY****
TOTAL RUN TIME: 0 days 0 hours 0 minutes 50 seconds 612 msec
