                         Program Version 5.0.3 -  RELEASE  -
|  1> !ri-mp2 aug-cc-pvdz aug-cc-pvdz/c tightscf
|  2> %pal nprocs 16 end
|  3>
|  4> * xyz 0 1
|  5> C      2.147973   -1.066945    0.000000
|  6> H      2.507268   -2.095782    0.000000
|  7> H      2.554206   -0.572788    0.882885
|  8> H      2.554206   -0.572788   -0.882885
|  9> C      0.621595   -1.051458    0.000000
| 10> H      0.241625   -1.595107   -0.869387
| 11> H      0.241625   -1.595107    0.869387
| 12> C      0.604486    1.490130    0.000000
| 13> H      1.683307    1.546561    0.000000
| 14> C      0.000000    0.312724    0.000000
| 15> Cl    -1.769241    0.256602    0.000000
| 16> H      0.050536    2.416069    0.000000
| 17> *
| 18>
| 19>                          ****END OF INPUT****

CARTESIAN COORDINATES (ANGSTROEM)
---------------------------------
  C      2.147973   -1.066945    0.000000
  H      2.507268   -2.095782    0.000000
  H      2.554206   -0.572788    0.882885
  H      2.554206   -0.572788   -0.882885
  C      0.621595   -1.051458    0.000000
  H      0.241625   -1.595107   -0.869387
  H      0.241625   -1.595107    0.869387
  C      0.604486    1.490130    0.000000
  H      1.683307    1.546561    0.000000
  C      0.000000    0.312724    0.000000
  Cl    -1.769241    0.256602    0.000000
  H      0.050536    2.416069    0.000000

 Total Charge           Charge          ....    0
 Multiplicity           Mult            ....    1
 Number of Electrons    NEL             ....   48
 Basis Dimension        Dim             ....  182

ORBITAL ENERGIES
----------------

  NO   OCC          E(Eh)            E(eV)
   0   2.0000    -104.830737     -2852.5894
   1   2.0000     -11.310046      -307.7620
   2   2.0000     -11.251609      -306.1718
   3   2.0000     -11.241720      -305.9027
   4   2.0000     -11.235097      -305.7225
   5   2.0000     -10.556882      -287.2674
   6   2.0000      -8.024580      -218.3599
   7   2.0000      -8.021388      -218.2731
   8   2.0000      -8.021305      -218.2708
   9   2.0000      -1.163439       -31.6588
  10   2.0000      -1.056325       -28.7441
  11   2.0000      -0.995067       -27.0772
  12   2.0000      -0.887622       -24.1534
  13   2.0000      -0.733625       -19.9629
  14   2.0000      -0.654322       -17.8050
  15   2.0000      -0.631555       -17.1855
  16   2.0000      -0.610465       -16.6116
  17   2.0000      -0.562576       -15.3085
  18   2.0000      -0.526577       -14.3289
  19   2.0000      -0.514185       -13.9917
  20   2.0000      -0.499418       -13.5899
  21   2.0000      -0.476084       -12.9549
  22   2.0000      -0.445375       -12.1193
  23   2.0000      -0.363324        -9.8866
  24   0.0000       0.035154         0.9566
  25   0.0000       0.042720         1.1625
  26   0.0000       0.051262         1.3949
  27   0.0000       0.051635         1.4051
  28   0.0000       0.067492         1.8366

MULLIKEN ATOMIC CHARGES
-----------------------
   0 C :    0.527498
   1 H :   -0.138550
   2 H :   -0.012920
   3 H :   -0.012920
   4 C :    0.100300
   5 H :    0.031553
   6 H :    0.031553
   7 C :    1.059851
   8 H :   -0.306998
   9 C :   -0.585277
  10 Cl:   -0.369751
  11 H :   -0.324339
Sum of atomic charges:    0.0000000

LOEWDIN ATOMIC CHARGES
----------------------
   0 C :    0.133339
   1 H :   -0.017344
   2 H :   -0.014903
   3 H :   -0.014903
   4 C :   -0.107962
   5 H :    0.013911
   6 H :    0.013911
   7 C :    0.139364
   8 H :   -0.043899
   9 C :   -0.592628
  10 Cl:    0.533485
  11 H :   -0.042370

  Mayer bond orders larger than 0.100000
B(  0-C ,  1-H ) :   0.9204 B(  0-C ,  2-H ) :   0.9062 B(  0-C ,  3-H ) :   0.9062
B(  0-C ,  4-C ) :   1.2237 B(  0-C ,  8-H ) :   0.1073 B(  0-C ,  9-C ) :  -0.1283
B(  4-C ,  5-H ) :   0.8031 B(  4-C ,  6-H ) :   0.8031 B(  4-C ,  9-C ) :   1.1923
B(  4-C , 11-H ) :   0.1108 B(  5-H ,  9-C ) :   0.1288 B(  6-H ,  9-C ) :   0.1288
B(  7-C ,  8-H ) :   0.6418 B(  7-C ,  9-C ) :   1.7856 B(  7-C , 10-Cl) :  -0.2517
B(  7-C , 11-H ) :   0.6220 B(  8-H ,  9-C ) :   0.1080 B(  8-H , 11-H ) :  -0.1903
B(  9-C , 10-Cl) :   1.1785 B(  9-C , 11-H ) :   0.1735

MP2 TOTAL ENERGY:     -615.777198152 Eh
FINAL SINGLE POINT ENERGY      -615.777198152447

DIPOLE MOMENT
-------------
                                X             Y             Z
Electronic contribution:    -11.49730       2.66915       0.00000
Nuclear contribution   :     12.30858      -2.82335       0.00000
                        -----------------------------------------
Total Dipole Moment    :      0.81129      -0.15420       0.00000
                        -----------------------------------------
Magnitude (a.u.)       :      0.82581
Magnitude (Debye)      :      2.09904

Rotational constants in cm-1:     0.268505     0.078341     0.062028
Rotational constants in MHz :  8049.567123  2348.600494  1859.542311

                             ****ORCA TERMINATED NORMALLY****
TOTAL RUN TIME: 0 days 0 hours 0 minutes 37 seconds 13 msec
