                         Program Version 5.0.3 -  RELEASE  -
|  1> !ri-mp2 aug-cc-pvdz aug-cc-pvdz/c tightscf
|  2> %pal nprocs 16 end
|  3>
|  4> * xyz 0 1
|  5> S     0.000000     0.000000    2.851009
|  6> C     0.000000     0.000000    1.185615
|  7> C     0.000000     1.206883    0.400792
|  8> C     0.000000     2.352278   -1.861101
|  9> C     0.000000     1.178354   -0.946461
| 10> O     0.000000     0.000000   -1.631977
| 11> C     0.000000    -1.206883    0.400792
| 12> C     0.000000    -1.178354   -0.946461
| 13> C     0.000000    -2.352278   -1.861101
| 14> H     0.000000     2.159035    0.909125
| 15> H    -0.879753     2.334551   -2.507116
| 16> H     0.879753     2.334551   -2.507116
| 17> H     0.000000     3.277663   -1.291277
| 18> H     0.000000    -2.159035    0.909125
| 19> H    -0.879753    -2.334551   -2.507116
| 20> H     0.000000    -3.277663   -1.291277
| 21> H     0.879753    -2.334551   -2.507116
| 22> *
| 23>
| 24>                          ****END OF INPUT****

CARTESIAN COORDINATES (ANGSTROEM)
---------------------------------
  S      0.000000    0.000000    2.851009
  C      0.000000    0.000000    1.185615
  C      0.000000    1.206883    0.400792
  C      0.000000    2.352278   -1.861101
  C      0.000000    1.178354   -0.946461
  O      0.000000    0.000000   -1.631977
  C      0.000000   -1.206883    0.400792
  C      0.000000   -1.178354   -0.946461
  C      0.000000   -2.352278   -1.861101
  H      0.000000    2.159035    0.909125
  H     -0.879753    2.334551   -2.507116
  H      0.879753    2.334551   -2.507116
  H      0.000000    3.277663   -1.291277
  H      0.000000   -2.159035    0.909125
  H     -0.879753   -2.334551   -2.507116
  H      0.000000   -3.277663   -1.291277
  H      0.879753   -2.334551   -2.507116

 Total Charge           Charge          ....    0
 Multiplicity           Mult            ....    1
 Number of Electrons    NEL             ....   74
 Basis Dimension        Dim             ....  283

ORBITAL ENERGIES
----------------

  NO   OCC          E(Eh)            E(eV)
   0   2.0000     -91.899360     -2500.7087
   1   2.0000     -20.662109      -562.2446
   2   2.0000     -11.352492      -308.9170
   3   2.0000     -11.352460      -308.9161
   4   2.0000     -11.317477      -307.9642
   5   2.0000     -11.264037      -306.5100
   6   2.0000     -11.264036      -306.5100
   7   2.0000     -11.251649      -306.1729
   8   2.0000     -11.251633      -306.1725
   9   2.0000      -8.901767      -242.2294
  10   2.0000      -6.583892      -179.1568
  11   2.0000      -6.581768      -179.0990
  12   2.0000      -6.580212      -179.0567
  13   2.0000      -1.490960       -40.5711
  14   2.0000      -1.143875       -31.1264
  15   2.0000      -1.130465       -30.7615
  16   2.0000      -1.036026       -28.1917
  17   2.0000      -0.972757       -26.4701
  18   2.0000      -0.959583       -26.1116
  19   2.0000      -0.878724       -23.9113
  20   2.0000      -0.797137       -21.6912
  21   2.0000      -0.724479       -19.7141
  22   2.0000      -0.720094       -19.5947
  23   2.0000      -0.682950       -18.5840
  24   2.0000      -0.646361       -17.5884
  25   2.0000      -0.609074       -16.5738
  26   2.0000      -0.606262       -16.4972
  27   2.0000      -0.589146       -16.0315
  28   2.0000      -0.573957       -15.6182
  29   2.0000      -0.573269       -15.5995
  30   2.0000      -0.570253       -15.5174
  31   2.0000      -0.536606       -14.6018
  32   2.0000      -0.484705       -13.1895
  33   2.0000      -0.469765       -12.7830
  34   2.0000      -0.383706       -10.4412
  35   2.0000      -0.314505        -8.5581
  36   2.0000      -0.305748        -8.3198
  37   0.0000       0.025080         0.6825
  38   0.0000       0.032408         0.8819
  39   0.0000       0.042804         1.1648
  40   0.0000       0.048175         1.3109
  41   0.0000       0.051418         1.3992

MULLIKEN ATOMIC CHARGES
-----------------------
   0 S :   -0.060209
   1 C :   -0.973273
   2 C :    0.993248
   3 C :    0.349958
   4 C :    0.037791
   5 O :   -1.077227
   6 C :    0.993248
   7 C :    0.037791
   8 C :    0.349958
   9 H :   -0.498788
  10 H :    0.118630
  11 H :    0.118630
  12 H :   -0.064114
  13 H :   -0.498788
  14 H :    0.118630
  15 H :   -0.064114
  16 H :    0.118630
Sum of atomic charges:    0.0000000

LOEWDIN ATOMIC CHARGES
----------------------
   0 S :    0.531642
   1 C :   -0.691072
   2 C :    0.003403
   3 C :    0.203272
   4 C :   -0.195749
   5 O :    0.129213
   6 C :    0.003403
   7 C :   -0.195749
   8 C :    0.203272
   9 H :    0.002120
  10 H :    0.002350
  11 H :    0.002350
  12 H :   -0.002637
  13 H :    0.002120
  14 H :    0.002350
  15 H :   -0.002637
  16 H :    0.002350

  Mayer bond orders larger than 0.100000
B(  0-S ,  1-C ) :   1.9809 B(  0-S ,  2-C ) :  -0.1422 B(  0-S ,  6-C ) :  -0.1422
B(  1-C ,  2-C ) :   1.2079 B(  1-C ,  3-C ) :   0.2447 B(  1-C ,  6-C ) :   1.2079
B(  1-C ,  8-C ) :   0.2447 B(  1-C ,  9-H ) :   0.1961 B(  1-C , 13-H ) :   0.1961
B(  2-C ,  3-C ) :  -0.1621 B(  2-C ,  4-C ) :   1.6437 B(  2-C ,  6-C ) :   0.3176
B(  2-C ,  7-C ) :  -0.1791 B(  2-C ,  9-H ) :   0.3545 B(  2-C , 12-H ) :  -0.1574
B(  3-C ,  4-C ) :   1.2175 B(  3-C , 10-H ) :   0.8343 B(  3-C , 11-H ) :   0.8343
B(  3-C , 12-H ) :   0.7142 B(  4-C ,  5-O ) :   0.4412 B(  4-C ,  6-C ) :  -0.1791
B(  4-C ,  7-C ) :   0.1936 B(  4-C , 10-H ) :   0.1655 B(  4-C , 11-H ) :   0.1655
B(  4-C , 12-H ) :   0.4127 B(  5-O ,  7-C ) :   0.4412 B(  6-C ,  7-C ) :   1.6437
B(  6-C ,  8-C ) :  -0.1621 B(  6-C , 13-H ) :   0.3545 B(  6-C , 15-H ) :  -0.1574
B(  7-C ,  8-C ) :   1.2175 B(  7-C , 14-H ) :   0.1655 B(  7-C , 15-H ) :   0.4127
B(  7-C , 16-H ) :   0.1655 B(  8-C , 14-H ) :   0.8343 B(  8-C , 15-H ) :   0.7142
B(  8-C , 16-H ) :   0.8343

MP2 TOTAL ENERGY:     -743.450812374 Eh
FINAL SINGLE POINT ENERGY      -743.450812374155

DIPOLE MOMENT
-------------
                                X             Y             Z
Electronic contribution:      0.00000      -0.00000       8.23500
Nuclear contribution   :      0.00000       0.00000     -10.81136
                        -----------------------------------------
Total Dipole Moment    :      0.00000      -0.00000      -2.57636
                        -----------------------------------------
Magnitude (a.u.)       :      2.57636
Magnitude (Debye)      :      6.54859

Rotational constants in cm-1:     0.065488     0.036542     0.023660
Rotational constants in MHz :  1963.290869  1095.501115   709.308648

                             ****ORCA TERMINATED NORMALLY****
TOTAL RUN TIME: 0 days 0 hours 1 minutes 38 seconds 839 msec
