                         Program Version 5.0.3 -  RELEASE  -
|  1> !ri-mp2 aug-cc-pvdz aug-cc-pvdz/c tightscf
|  2> %pal nprocs 16 end
|  3> %maxcore 3800
|  4>
|  5> * xyz 0 1
|  6> C      1.734839   -1.077796   -1.065905
|  7> C      2.632719    0.591958    0.605922
|  8> C     -1.734840   -1.077794    1.065906
|  9> C     -2.632718    0.591958   -0.605923
| 10> C      1.441089   -0.271419    0.195238
| 11> C     -1.441089   -0.271419   -0.195238
| 12> S      0.000000    0.866458    0.000000
| 13> H      2.591479   -1.736141   -0.899071
| 14> H      0.892872   -1.704377   -1.358644
| 15> H      1.969701   -0.415640   -1.900083
| 16> H      3.513715   -0.035344    0.754087
| 17> H      2.435115    1.129802    1.532456
| 18> H      2.869539    1.323680   -0.168464
| 19> H     -2.591478   -1.736141    0.899071
| 20> H     -0.892872   -1.704375    1.358647
| 21> H     -1.969704   -0.415638    1.900082
| 22> H     -3.513714   -0.035344   -0.754090
| 23> H     -2.435113    1.129802   -1.532458
| 24> H     -2.869540    1.323680    0.168462
| 25> H      1.204385   -0.950113    1.015660
| 26> H     -1.204384   -0.950114   -1.015659
| 27> *
| 28>
| 29>                          ****END OF INPUT****

CARTESIAN COORDINATES (ANGSTROEM)
---------------------------------
  C      1.734839   -1.077796   -1.065905
  C      2.632719    0.591958    0.605922
  C     -1.734840   -1.077794    1.065906
  C     -2.632718    0.591958   -0.605923
  C      1.441089   -0.271419    0.195238
  C     -1.441089   -0.271419   -0.195238
  S      0.000000    0.866458    0.000000
  H      2.591479   -1.736141   -0.899071
  H      0.892872   -1.704377   -1.358644
  H      1.969701   -0.415640   -1.900083
  H      3.513715   -0.035344    0.754087
  H      2.435115    1.129802    1.532456
  H      2.869539    1.323680   -0.168464
  H     -2.591478   -1.736141    0.899071
  H     -0.892872   -1.704375    1.358647
  H     -1.969704   -0.415638    1.900082
  H     -3.513714   -0.035344   -0.754090
  H     -2.435113    1.129802   -1.532458
  H     -2.869540    1.323680    0.168462
  H      1.204385   -0.950113    1.015660
  H     -1.204384   -0.950114   -1.015659

 Total Charge           Charge          ....    0
 Multiplicity           Mult            ....    1
 Number of Electrons    NEL             ....   66
 Basis Dimension        Dim             ....  291

ORBITAL ENERGIES
----------------

  NO   OCC          E(Eh)            E(eV)
   0   2.0000     -91.932251     -2501.6037
   1   2.0000     -11.264951      -306.5349
   2   2.0000     -11.264941      -306.5346
   3   2.0000     -11.225388      -305.4583
   4   2.0000     -11.225387      -305.4583
   5   2.0000     -11.225350      -305.4573
   6   2.0000     -11.225349      -305.4573
   7   2.0000      -8.933970      -243.1057
   8   2.0000      -6.615908      -180.0280
   9   2.0000      -6.614463      -179.9887
  10   2.0000      -6.612656      -179.9395
  11   2.0000      -1.104789       -30.0628
  12   2.0000      -1.065761       -29.0008
  13   2.0000      -0.939677       -25.5699
  14   2.0000      -0.938251       -25.5311
  15   2.0000      -0.919743       -25.0275
  16   2.0000      -0.800759       -21.7897
  17   2.0000      -0.749489       -20.3946
  18   2.0000      -0.641429       -17.4542
  19   2.0000      -0.626591       -17.0504
  20   2.0000      -0.602951       -16.4071
  21   2.0000      -0.577194       -15.7062
  22   2.0000      -0.562759       -15.3134
  23   2.0000      -0.562457       -15.3052
  24   2.0000      -0.540815       -14.7163
  25   2.0000      -0.540660       -14.7121
  26   2.0000      -0.497264       -13.5312
  27   2.0000      -0.493797       -13.4369
  28   2.0000      -0.493211       -13.4210
  29   2.0000      -0.484485       -13.1835
  30   2.0000      -0.436793       -11.8858
  31   2.0000      -0.405466       -11.0333
  32   2.0000      -0.330096        -8.9824
  33   0.0000       0.035136         0.9561
  34   0.0000       0.041362         1.1255
  35   0.0000       0.047218         1.2849
  36   0.0000       0.047938         1.3045
  37   0.0000       0.060746         1.6530

MULLIKEN ATOMIC CHARGES
-----------------------
   0 C :    0.524073
   1 C :    0.738453
   2 C :    0.524072
   3 C :    0.738450
   4 C :   -0.839739
   5 C :   -0.839738
   6 S :    0.399949
   7 H :   -0.065769
   8 H :   -0.203482
   9 H :   -0.019761
  10 H :   -0.052779
  11 H :   -0.097295
  12 H :   -0.027292
  13 H :   -0.065770
  14 H :   -0.203478
  15 H :   -0.019765
  16 H :   -0.052779
  17 H :   -0.097292
  18 H :   -0.027293
  19 H :   -0.156383
  20 H :   -0.156382
Sum of atomic charges:    0.0000000

LOEWDIN ATOMIC CHARGES
----------------------
   0 C :    0.103354
   1 C :    0.090811
   2 C :    0.103354
   3 C :    0.090811
   4 C :   -0.520090
   5 C :   -0.520090
   6 S :    0.917089
   7 H :   -0.014023
   8 H :   -0.031292
   9 H :   -0.013147
  10 H :   -0.016539
  11 H :   -0.021410
  12 H :   -0.018001
  13 H :   -0.014023
  14 H :   -0.031291
  15 H :   -0.013148
  16 H :   -0.016539
  17 H :   -0.021409
  18 H :   -0.018001
  19 H :   -0.018208
  20 H :   -0.018208

  Mayer bond orders larger than 0.100000
B(  0-C ,  1-C ) :  -0.1362 B(  0-C ,  4-C ) :   1.3543 B(  0-C ,  7-H ) :   0.8469
B(  0-C ,  8-H ) :   0.9239 B(  0-C ,  9-H ) :   0.9311 B(  1-C ,  4-C ) :   1.3525
B(  1-C , 10-H ) :   0.8643 B(  1-C , 11-H ) :   0.8214 B(  1-C , 12-H ) :   0.9278
B(  2-C ,  3-C ) :  -0.1362 B(  2-C ,  5-C ) :   1.3543 B(  2-C , 13-H ) :   0.8469
B(  2-C , 14-H ) :   0.9239 B(  2-C , 15-H ) :   0.9311 B(  3-C ,  5-C ) :   1.3525
B(  3-C , 16-H ) :   0.8643 B(  3-C , 17-H ) :   0.8214 B(  3-C , 18-H ) :   0.9278
B(  4-C ,  6-S ) :   0.8245 B(  4-C , 11-H ) :   0.1660 B(  4-C , 19-H ) :   0.7549
B(  5-C ,  6-S ) :   0.8245 B(  5-C , 17-H ) :   0.1660 B(  5-C , 20-H ) :   0.7549
B( 10-H , 11-H ) :  -0.1007 B( 16-H , 17-H ) :  -0.1006

MP2 TOTAL ENERGY:     -633.978986278 Eh
FINAL SINGLE POINT ENERGY      -633.978986277914

DIPOLE MOMENT
-------------
                                X             Y             Z
Electronic contribution:     -0.00000       4.30036       0.00000
Nuclear contribution   :      0.00000      -5.03514      -0.00000
                        -----------------------------------------
Total Dipole Moment    :     -0.00000      -0.73479       0.00000
                        -----------------------------------------
Magnitude (a.u.)       :      0.73479
Magnitude (Debye)      :      1.86768

Rotational constants in cm-1:     0.120539     0.039600     0.037445
Rotational constants in MHz :  3613.665967  1187.176822  1122.562108

                             ****ORCA TERMINATED NORMALLY****
TOTAL RUN TIME: 0 days 0 hours 1 minutes 17 seconds 94 msec
