                         Program Version 5.0.3 -  RELEASE  -
|  1> !ri-mp2 aug-cc-pvdz aug-cc-pvdz/c tightscf
|  2> %pal nprocs 16 end
|  3>
|  4> * xyz 0 1
|  5> C     -0.735351   -0.665405    0.000000
|  6> C      0.000000    0.449055    0.000000
|  7> C     -0.272212   -2.090707    0.000000
|  8> C     -0.654331    1.805181    0.000000
|  9> C      1.503840    0.487539    0.000000
| 10> H     -1.815046   -0.542325    0.000000
| 11> H      0.811162   -2.190686    0.000000
| 12> H     -0.654737   -2.622552    0.875627
| 13> H     -0.654737   -2.622552   -0.875627
| 14> H     -1.741078    1.730857    0.000000
| 15> H     -0.352201    2.386480    0.876320
| 16> H     -0.352201    2.386480   -0.876320
| 17> H      1.872880    1.029375   -0.875759
| 18> H      1.872880    1.029375    0.875759
| 19> H      1.961399   -0.498430    0.000000
| 20> *
| 21>
| 22>                          ****END OF INPUT****

CARTESIAN COORDINATES (ANGSTROEM)
---------------------------------
  C     -0.735351   -0.665405    0.000000
  C      0.000000    0.449055    0.000000
  C     -0.272212   -2.090707    0.000000
  C     -0.654331    1.805181    0.000000
  C      1.503840    0.487539    0.000000
  H     -1.815046   -0.542325    0.000000
  H      0.811162   -2.190686    0.000000
  H     -0.654737   -2.622552    0.875627
  H     -0.654737   -2.622552   -0.875627
  H     -1.741078    1.730857    0.000000
  H     -0.352201    2.386480    0.876320
  H     -0.352201    2.386480   -0.876320
  H      1.872880    1.029375   -0.875759
  H      1.872880    1.029375    0.875759
  H      1.961399   -0.498430    0.000000

 Total Charge           Charge          ....    0
 Multiplicity           Mult            ....    1
 Number of Electrons    NEL             ....   40
 Basis Dimension        Dim             ....  205

ORBITAL ENERGIES
----------------

  NO   OCC          E(Eh)            E(eV)
   0   2.0000     -11.233078      -305.6676
   1   2.0000     -11.222148      -305.3702
   2   2.0000     -11.221469      -305.3517
   3   2.0000     -11.220758      -305.3324
   4   2.0000     -11.219836      -305.3073
   5   2.0000      -1.096126       -29.8271
   6   2.0000      -0.992261       -27.0008
   7   2.0000      -0.938509       -25.5381
   8   2.0000      -0.871446       -23.7132
   9   2.0000      -0.701677       -19.0936
  10   2.0000      -0.629759       -17.1366
  11   2.0000      -0.594279       -16.1711
  12   2.0000      -0.589169       -16.0321
  13   2.0000      -0.553768       -15.0688
  14   2.0000      -0.530813       -14.4442
  15   2.0000      -0.530320       -14.4308
  16   2.0000      -0.515359       -14.0236
  17   2.0000      -0.502658       -13.6780
  18   2.0000      -0.463837       -12.6216
  19   2.0000      -0.330417        -8.9911
  20   0.0000       0.036916         1.0045
  21   0.0000       0.043961         1.1962
  22   0.0000       0.048612         1.3228
  23   0.0000       0.054387         1.4799
  24   0.0000       0.062277         1.6946

MULLIKEN ATOMIC CHARGES
-----------------------
   0 C :    0.278792
   1 C :   -0.613818
   2 C :    0.225790
   3 C :    0.395613
   4 C :    0.365306
   5 H :   -0.547390
   6 H :   -0.167524
   7 H :    0.092120
   8 H :    0.092120
   9 H :   -0.209128
  10 H :    0.033948
  11 H :    0.033948
  12 H :    0.091902
  13 H :    0.091902
  14 H :   -0.163581
Sum of atomic charges:    0.0000000

LOEWDIN ATOMIC CHARGES
----------------------
   0 C :   -0.020180
   1 C :   -0.279014
   2 C :    0.138991
   3 C :    0.157201
   4 C :    0.168058
   5 H :   -0.006855
   6 H :   -0.036153
   7 H :   -0.016437
   8 H :   -0.016437
   9 H :   -0.017643
  10 H :   -0.011650
  11 H :   -0.011650
  12 H :   -0.007843
  13 H :   -0.007843
  14 H :   -0.032545

  Mayer bond orders larger than 0.100000
B(  0-C ,  1-C ) :   1.8176 B(  0-C ,  2-C ) :   1.1439 B(  0-C ,  5-H ) :   0.4922
B(  0-C ,  9-H ) :  -0.1033 B(  0-C , 14-H ) :  -0.1037 B(  1-C ,  3-C ) :   1.3454
B(  1-C ,  4-C ) :   1.3643 B(  1-C ,  5-H ) :   0.2485 B(  1-C ,  9-H ) :   0.3496
B(  1-C , 10-H ) :   0.1168 B(  1-C , 11-H ) :   0.1168 B(  1-C , 12-H ) :   0.1475
B(  1-C , 13-H ) :   0.1475 B(  1-C , 14-H ) :   0.2707 B(  2-C ,  6-H ) :   0.9497
B(  2-C ,  7-H ) :   0.8829 B(  2-C ,  8-H ) :   0.8829 B(  3-C ,  4-C ) :  -0.2612
B(  3-C ,  9-H ) :   0.7024 B(  3-C , 10-H ) :   0.9104 B(  3-C , 11-H ) :   0.9104
B(  4-C , 12-H ) :   0.8435 B(  4-C , 13-H ) :   0.8435 B(  4-C , 14-H ) :   0.8445

MP2 TOTAL ENERGY:     -195.900866574 Eh
FINAL SINGLE POINT ENERGY      -195.900866574340

DIPOLE MOMENT
-------------
                                X             Y             Z
Electronic contribution:     -0.93246      -0.06682       0.00000
Nuclear contribution   :      1.01577       0.09214       0.00000
                        -----------------------------------------
Total Dipole Moment    :      0.08330       0.02532       0.00000
                        -----------------------------------------
Magnitude (a.u.)       :      0.08706
Magnitude (Debye)      :      0.22129

Rotational constants in cm-1:     0.269333     0.117398     0.085613
Rotational constants in MHz :  8074.407490  3519.493672  2566.621603

                             ****ORCA TERMINATED NORMALLY****
TOTAL RUN TIME: 0 days 0 hours 0 minutes 31 seconds 622 msec
