                         Program Version 5.0.3 -  RELEASE  -
|  1> !ri-mp2 aug-cc-pvdz aug-cc-pvdz/c tightscf
|  2> %pal nprocs 16 end
|  3>
|  4> * xyz 0 1
|  5> C     -2.271210   -0.667396    0.006455
|  6> C     -1.340708   -1.693820    0.003564
|  7> C     -1.847275    0.658049   -0.000251
|  8> C      0.022067   -1.392654   -0.001131
|  9> C     -0.492758    0.980526   -0.008667
| 10> C      0.445302   -0.071805   -0.005646
| 11> C      2.767671   -0.660845    0.004342
| 12> N     -0.043263    2.295390   -0.074695
| 13> O      1.756422    0.332204    0.000731
| 14> H     -3.329530   -0.889156    0.012129
| 15> H     -1.659536   -2.726611    0.006451
| 16> H     -2.575105    1.460127   -0.006553
| 17> H      0.743830   -2.195462    0.001739
| 18> H      2.710088   -1.289626   -0.887662
| 19> H      2.704278   -1.291535    0.894876
| 20> H      3.714636   -0.127595    0.007528
| 21> H     -0.670523    2.990656    0.293401
| 22> H      0.914787    2.431518    0.203116
| 23> *
| 24>
| 25>                          ****END OF INPUT****

CARTESIAN COORDINATES (ANGSTROEM)
---------------------------------
  C     -2.271210   -0.667396    0.006455
  C     -1.340708   -1.693820    0.003564
  C     -1.847275    0.658049   -0.000251
  C      0.022067   -1.392654   -0.001131
  C     -0.492758    0.980526   -0.008667
  C      0.445302   -0.071805   -0.005646
  C      2.767671   -0.660845    0.004342
  N     -0.043263    2.295390   -0.074695
  O      1.756422    0.332204    0.000731
  H     -3.329530   -0.889156    0.012129
  H     -1.659536   -2.726611    0.006451
  H     -2.575105    1.460127   -0.006553
  H      0.743830   -2.195462    0.001739
  H      2.710088   -1.289626   -0.887662
  H      2.704278   -1.291535    0.894876
  H      3.714636   -0.127595    0.007528
  H     -0.670523    2.990656    0.293401
  H      0.914787    2.431518    0.203116

 Total Charge           Charge          ....    0
 Multiplicity           Mult            ....    1
 Number of Electrons    NEL             ....   66
 Basis Dimension        Dim             ....  288

ORBITAL ENERGIES
----------------

  NO   OCC          E(Eh)            E(eV)
   0   2.0000     -20.593571      -560.3796
   1   2.0000     -15.564363      -423.5279
   2   2.0000     -11.293738      -307.3182
   3   2.0000     -11.292220      -307.2769
   4   2.0000     -11.276122      -306.8389
   5   2.0000     -11.234643      -305.7102
   6   2.0000     -11.229891      -305.5809
   7   2.0000     -11.227759      -305.5228
   8   2.0000     -11.226232      -305.4813
   9   2.0000      -1.411715       -38.4147
  10   2.0000      -1.219279       -33.1783
  11   2.0000      -1.127654       -30.6850
  12   2.0000      -1.015758       -27.6402
  13   2.0000      -0.996001       -27.1026
  14   2.0000      -0.940734       -25.5987
  15   2.0000      -0.827572       -22.5194
  16   2.0000      -0.809277       -22.0215
  17   2.0000      -0.719560       -19.5802
  18   2.0000      -0.698981       -19.0203
  19   2.0000      -0.675795       -18.3893
  20   2.0000      -0.655313       -17.8320
  21   2.0000      -0.628193       -17.0940
  22   2.0000      -0.617656       -16.8073
  23   2.0000      -0.598973       -16.2989
  24   2.0000      -0.575502       -15.6602
  25   2.0000      -0.542831       -14.7712
  26   2.0000      -0.532514       -14.4905
  27   2.0000      -0.502814       -13.6823
  28   2.0000      -0.487730       -13.2718
  29   2.0000      -0.476737       -12.9727
  30   2.0000      -0.443691       -12.0734
  31   2.0000      -0.323988        -8.8162
  32   2.0000      -0.281378        -7.6567
  33   0.0000       0.033926         0.9232
  34   0.0000       0.039228         1.0675
  35   0.0000       0.041751         1.1361
  36   0.0000       0.053365         1.4521
  37   0.0000       0.057628         1.5681

MULLIKEN ATOMIC CHARGES
-----------------------
   0 C :    0.314324
   1 C :    0.505716
   2 C :    1.314303
   3 C :    0.536853
   4 C :   -0.445762
   5 C :    1.322210
   6 C :    0.845632
   7 N :   -0.373130
   8 O :   -1.190538
   9 H :   -0.453164
  10 H :   -0.467487
  11 H :   -0.581281
  12 H :   -0.797246
  13 H :   -0.072676
  14 H :   -0.075505
  15 H :   -0.322955
  16 H :   -0.059539
  17 H :    0.000244
Sum of atomic charges:    0.0000000

LOEWDIN ATOMIC CHARGES
----------------------
   0 C :   -0.007408
   1 C :   -0.006604
   2 C :    0.047048
   3 C :    0.035100
   4 C :   -0.200526
   5 C :   -0.157321
   6 C :    0.153903
   7 N :    0.252763
   8 O :    0.032126
   9 H :   -0.003045
  10 H :   -0.006559
  11 H :    0.002232
  12 H :   -0.011664
  13 H :   -0.015226
  14 H :   -0.015804
  15 H :   -0.023317
  16 H :   -0.029931
  17 H :   -0.045768

  Mayer bond orders larger than 0.100000
B(  0-C ,  1-C ) :   1.7640 B(  0-C ,  2-C ) :   1.5980 B(  0-C ,  4-C ) :   0.1783
B(  0-C ,  9-H ) :   0.2778 B(  0-C , 10-H ) :   0.1434 B(  0-C , 11-H ) :   0.2678
B(  0-C , 12-H ) :  -0.1306 B(  1-C ,  3-C ) :   1.7868 B(  1-C ,  6-C ) :   0.1321
B(  1-C ,  9-H ) :   0.2565 B(  1-C , 11-H ) :  -0.1263 B(  1-C , 12-H ) :   0.5223
B(  2-C ,  3-C ) :   0.3665 B(  2-C ,  4-C ) :   1.3558 B(  2-C ,  5-C ) :  -0.1046
B(  2-C ,  7-N ) :  -0.1120 B(  2-C ,  9-H ) :   0.2254 B(  2-C , 10-H ) :  -0.1049
B(  2-C , 11-H ) :  -0.4513 B(  2-C , 12-H ) :   0.1526 B(  3-C ,  5-C ) :   1.3583
B(  3-C , 10-H ) :   0.5753 B(  3-C , 12-H ) :  -0.6936 B(  4-C ,  5-C ) :   1.4307
B(  4-C ,  6-C ) :  -0.1194 B(  4-C ,  7-N ) :   0.8001 B(  4-C ,  8-O ) :   0.5298
B(  4-C , 11-H ) :   1.0001 B(  4-C , 12-H ) :  -0.2580 B(  5-C ,  8-O ) :  -0.4954
B(  5-C , 11-H ) :  -0.1248 B(  5-C , 12-H ) :   0.8554 B(  6-C ,  8-O ) :   0.7645
B(  6-C , 13-H ) :   0.9650 B(  6-C , 14-H ) :   0.9578 B(  6-C , 15-H ) :   1.0033
B(  7-N , 11-H ) :  -0.1075 B(  7-N , 16-H ) :   1.1128 B(  7-N , 17-H ) :   1.0943
B( 13-H , 15-H ) :  -0.1037 B( 14-H , 15-H ) :  -0.1022

MP2 TOTAL ENERGY:     -401.001675716 Eh
FINAL SINGLE POINT ENERGY      -401.001675715897

DIPOLE MOMENT
-------------
                                X             Y             Z
Electronic contribution:     -2.15977       1.56207      -0.16350
Nuclear contribution   :      2.59708      -1.62946       0.52800
                        -----------------------------------------
Total Dipole Moment    :      0.43731      -0.06740       0.36450
                        -----------------------------------------
Magnitude (a.u.)       :      0.57327
Magnitude (Debye)      :      1.45713

Rotational constants in cm-1:     0.086028     0.051973     0.032625
Rotational constants in MHz :  2579.048836  1558.125171   978.075782

                             ****ORCA TERMINATED NORMALLY****
TOTAL RUN TIME: 0 days 0 hours 1 minutes 21 seconds 922 msec
