                         Program Version 5.0.3 -  RELEASE  -
|  1> !ri-mp2 aug-cc-pvdz aug-cc-pvdz/c tightscf
|  2> %pal nprocs 16 end
|  3>
|  4> * xyz 0 1
|  5> N      0.359121   -1.270880    0.172755
|  6> C      1.043903   -0.042270    0.020425
|  7> C      0.260787    1.248686    0.217829
|  8> C     -1.197071    1.126889   -0.072399
|  9> C     -1.753015   -0.083323   -0.174172
| 10> C     -0.920479   -1.259790    0.050067
| 11> O      2.221256   -0.028129   -0.243650
| 12> H      0.736325    2.029916   -0.376191
| 13> H     -1.785070    2.030930   -0.170963
| 14> H     -2.808335   -0.220042   -0.363668
| 15> H     -1.424810   -2.220985    0.136930
| 16> H      0.393242    1.560219    1.263311
| 17> *
| 18>
| 19>                          ****END OF INPUT****

CARTESIAN COORDINATES (ANGSTROEM)
---------------------------------
  N      0.359121   -1.270880    0.172755
  C      1.043903   -0.042270    0.020425
  C      0.260787    1.248686    0.217829
  C     -1.197071    1.126889   -0.072399
  C     -1.753015   -0.083323   -0.174172
  C     -0.920479   -1.259790    0.050067
  O      2.221256   -0.028129   -0.243650
  H      0.736325    2.029916   -0.376191
  H     -1.785070    2.030930   -0.170963
  H     -2.808335   -0.220042   -0.363668
  H     -1.424810   -2.220985    0.136930
  H      0.393242    1.560219    1.263311

 Total Charge           Charge          ....    0
 Multiplicity           Mult            ....    1
 Number of Electrons    NEL             ....   50
 Basis Dimension        Dim             ....  206

ORBITAL ENERGIES
----------------

  NO   OCC          E(Eh)            E(eV)
   0   2.0000     -20.552519      -559.2625
   1   2.0000     -15.580900      -423.9778
   2   2.0000     -11.364214      -309.2360
   3   2.0000     -11.326779      -308.2173
   4   2.0000     -11.292680      -307.2895
   5   2.0000     -11.269198      -306.6505
   6   2.0000     -11.266725      -306.5832
   7   2.0000      -1.401919       -38.1481
   8   2.0000      -1.259294       -34.2671
   9   2.0000      -1.117153       -30.3993
  10   2.0000      -1.024585       -27.8804
  11   2.0000      -0.894262       -24.3341
  12   2.0000      -0.839700       -22.8494
  13   2.0000      -0.719059       -19.5666
  14   2.0000      -0.691830       -18.8257
  15   2.0000      -0.682895       -18.5825
  16   2.0000      -0.637558       -17.3488
  17   2.0000      -0.613151       -16.6847
  18   2.0000      -0.599037       -16.3006
  19   2.0000      -0.554580       -15.0909
  20   2.0000      -0.533377       -14.5139
  21   2.0000      -0.482705       -13.1351
  22   2.0000      -0.466219       -12.6865
  23   2.0000      -0.404675       -11.0118
  24   2.0000      -0.374482       -10.1902
  25   0.0000       0.023766         0.6467
  26   0.0000       0.035505         0.9661
  27   0.0000       0.041934         1.1411
  28   0.0000       0.046447         1.2639
  29   0.0000       0.054147         1.4734

MULLIKEN ATOMIC CHARGES
-----------------------
   0 N :   -0.600196
   1 C :    0.808918
   2 C :    0.120706
   3 C :    0.078648
   4 C :    0.752607
   5 C :    0.413045
   6 O :   -0.751388
   7 H :    0.058116
   8 H :   -0.347447
   9 H :   -0.397252
  10 H :   -0.280540
  11 H :    0.144784
Sum of atomic charges:   -0.0000000

LOEWDIN ATOMIC CHARGES
----------------------
   0 N :    0.069502
   1 C :   -0.320843
   2 C :    0.046658
   3 C :    0.042949
   4 C :    0.015368
   5 C :   -0.003769
   6 O :    0.053172
   7 H :    0.030932
   8 H :    0.012176
   9 H :   -0.001986
  10 H :    0.014954
  11 H :    0.040887

  Mayer bond orders larger than 0.100000
B(  0-N ,  1-C ) :   0.9122 B(  0-N ,  4-C ) :  -0.1283 B(  0-N ,  5-C ) :   1.6159
B(  1-C ,  2-C ) :   0.9800 B(  1-C ,  3-C ) :  -0.1174 B(  1-C ,  4-C ) :   0.1456
B(  1-C ,  6-O ) :   1.4096 B(  2-C ,  3-C ) :   1.4270 B(  2-C ,  4-C ) :  -0.2272
B(  2-C ,  7-H ) :   0.8012 B(  2-C , 11-H ) :   0.8340 B(  3-C ,  4-C ) :   2.1513
B(  3-C ,  5-C ) :   0.1077 B(  3-C ,  8-H ) :   0.7573 B(  3-C ,  9-H ) :   0.2042
B(  4-C ,  5-C ) :   1.0053 B(  4-C ,  9-H ) :   0.5366 B(  5-C , 10-H ) :   0.9445

MP2 TOTAL ENERGY:     -322.601381932 Eh
FINAL SINGLE POINT ENERGY      -322.601381932421

DIPOLE MOMENT
-------------
                                X             Y             Z
Electronic contribution:      2.63729      -2.22154      -0.28996
Nuclear contribution   :     -4.79044       3.13220       0.48047
                        -----------------------------------------
Total Dipole Moment    :     -2.15315       0.91066       0.19050
                        -----------------------------------------
Magnitude (a.u.)       :      2.34556
Magnitude (Debye)      :      5.96194

Rotational constants in cm-1:     0.176092     0.095244     0.063832
Rotational constants in MHz :  5279.110989  2855.335708  1913.622700

                             ****ORCA TERMINATED NORMALLY****
TOTAL RUN TIME: 0 days 0 hours 0 minutes 56 seconds 112 msec
