                         Program Version 5.0.3 -  RELEASE  -
|  1> !ri-mp2 aug-cc-pvdz aug-cc-pvdz/c tightscf
|  2> %pal nprocs 16 end
|  3>
|  4> * xyz 0 1
|  5> C     0.000000     0.000000    1.454540
|  6> C     0.000000     0.000000    0.123825
|  7> C     0.000000     1.272551   -0.676777
|  8> C     0.000000    -1.272551   -0.676777
|  9> H     0.000000    -0.922142    2.021334
| 10> H     0.000000     0.922142    2.021334
| 11> H     0.876282     1.321528   -1.329331
| 12> H    -0.876282     1.321528   -1.329331
| 13> H     0.000000     2.153807   -0.037106
| 14> H    -0.876282    -1.321528   -1.329331
| 15> H     0.876282    -1.321528   -1.329331
| 16> H     0.000000    -2.153807   -0.037106
| 17> *
| 18>
| 19>                          ****END OF INPUT****

CARTESIAN COORDINATES (ANGSTROEM)
---------------------------------
  C      0.000000    0.000000    1.454540
  C      0.000000    0.000000    0.123825
  C      0.000000    1.272551   -0.676777
  C      0.000000   -1.272551   -0.676777
  H      0.000000   -0.922142    2.021334
  H      0.000000    0.922142    2.021334
  H      0.876282    1.321528   -1.329331
  H     -0.876282    1.321528   -1.329331
  H      0.000000    2.153807   -0.037106
  H     -0.876282   -1.321528   -1.329331
  H      0.876282   -1.321528   -1.329331
  H      0.000000   -2.153807   -0.037106

 Total Charge           Charge          ....    0
 Multiplicity           Mult            ....    1
 Number of Electrons    NEL             ....   32
 Basis Dimension        Dim             ....  164

ORBITAL ENERGIES
----------------

  NO   OCC          E(Eh)            E(eV)
   0   2.0000     -11.243262      -305.9447
   1   2.0000     -11.225795      -305.4694
   2   2.0000     -11.225765      -305.4686
   3   2.0000     -11.214276      -305.1560
   4   2.0000      -1.091770       -29.7086
   5   2.0000      -0.943007       -25.6605
   6   2.0000      -0.928645       -25.2697
   7   2.0000      -0.719375       -19.5752
   8   2.0000      -0.619719       -16.8634
   9   2.0000      -0.610451       -16.6112
  10   2.0000      -0.589494       -16.0409
  11   2.0000      -0.536058       -14.5869
  12   2.0000      -0.520885       -14.1740
  13   2.0000      -0.515462       -14.0264
  14   2.0000      -0.478600       -13.0234
  15   2.0000      -0.346697        -9.4341
  16   0.0000       0.036486         0.9928
  17   0.0000       0.047993         1.3060
  18   0.0000       0.048590         1.3222
  19   0.0000       0.055355         1.5063
  20   0.0000       0.064682         1.7601

MULLIKEN ATOMIC CHARGES
-----------------------
   0 C :    1.004343
   1 C :   -0.611622
   2 C :    0.287870
   3 C :    0.287870
   4 H :   -0.384274
   5 H :   -0.384274
   6 H :    0.031562
   7 H :    0.031562
   8 H :   -0.163081
   9 H :    0.031562
  10 H :    0.031562
  11 H :   -0.163081
Sum of atomic charges:    0.0000000

LOEWDIN ATOMIC CHARGES
----------------------
   0 C :    0.182704
   1 C :   -0.338021
   2 C :    0.157125
   3 C :    0.157125
   4 H :   -0.042963
   5 H :   -0.042963
   6 H :   -0.010255
   7 H :   -0.010255
   8 H :   -0.015993
   9 H :   -0.010255
  10 H :   -0.010255
  11 H :   -0.015993

  Mayer bond orders larger than 0.100000
B(  0-C ,  1-C ) :   1.9416 B(  0-C ,  2-C ) :  -0.1226 B(  0-C ,  3-C ) :  -0.1226
B(  0-C ,  4-H ) :   0.5638 B(  0-C ,  5-H ) :   0.5638 B(  1-C ,  2-C ) :   1.3329
B(  1-C ,  3-C ) :   1.3329 B(  1-C ,  4-H ) :   0.2642 B(  1-C ,  5-H ) :   0.2642
B(  1-C ,  8-H ) :   0.1730 B(  1-C , 11-H ) :   0.1730 B(  2-C ,  3-C ) :  -0.1823
B(  2-C ,  6-H ) :   0.9175 B(  2-C ,  7-H ) :   0.9175 B(  2-C ,  8-H ) :   0.8154
B(  3-C ,  9-H ) :   0.9175 B(  3-C , 10-H ) :   0.9175 B(  3-C , 11-H ) :   0.8154
B(  4-H ,  5-H ) :  -0.1658

MP2 TOTAL ENERGY:     -156.712528346 Eh
FINAL SINGLE POINT ENERGY      -156.712528346032

DIPOLE MOMENT
-------------
                                X             Y             Z
Electronic contribution:     -0.00000      -0.00000       1.21367
Nuclear contribution   :      0.00000      -0.00000      -1.44480
                        -----------------------------------------
Total Dipole Moment    :     -0.00000      -0.00000      -0.23113
                        -----------------------------------------
Magnitude (a.u.)       :      0.23113
Magnitude (Debye)      :      0.58748

Rotational constants in cm-1:     0.306351     0.280471     0.154743
Rotational constants in MHz :  9184.178283  8408.295919  4639.064983

                             ****ORCA TERMINATED NORMALLY****
TOTAL RUN TIME: 0 days 0 hours 0 minutes 31 seconds 102 msec
