                         Program Version 5.0.3 -  RELEASE  -
|  1> !ri-mp2 aug-cc-pvdz aug-cc-pvdz/c tightscf
|  2> %pal nprocs 16 end
|  3> %maxcore 3800
|  4>
|  5> * xyz 0 1
|  6> C      2.531827    0.838284    0.000719
|  7> C     -2.531828    0.838284    0.000727
|  8> C      2.945670   -0.478119    0.001541
|  9> C     -2.945670   -0.478119    0.001498
| 10> C      1.115603    0.798316   -0.000163
| 11> C     -1.115604    0.798316   -0.000047
| 12> C      0.708404   -0.539305    0.000275
| 13> C     -0.708404   -0.539305    0.000396
| 14> N      1.844970   -1.314880    0.000405
| 15> N     -1.844969   -1.314880    0.000310
| 16> N      0.000000    1.623424   -0.012899
| 17> H      3.182514    1.695453    0.001317
| 18> H     -3.182515    1.695453    0.001272
| 19> H      3.941593   -0.883817    0.003112
| 20> H     -3.941593   -0.883818    0.003098
| 21> H      1.888002   -2.315552   -0.003863
| 22> H     -1.887996   -2.315553   -0.003452
| 23> H      0.000005    2.622059    0.054138
| 24> *
| 25>
| 26>                          ****END OF INPUT****

CARTESIAN COORDINATES (ANGSTROEM)
---------------------------------
  C      2.531827    0.838284    0.000719
  C     -2.531828    0.838284    0.000727
  C      2.945670   -0.478119    0.001541
  C     -2.945670   -0.478119    0.001498
  C      1.115603    0.798316   -0.000163
  C     -1.115604    0.798316   -0.000047
  C      0.708404   -0.539305    0.000275
  C     -0.708404   -0.539305    0.000396
  N      1.844970   -1.314880    0.000405
  N     -1.844969   -1.314880    0.000310
  N      0.000000    1.623424   -0.012899
  H      3.182514    1.695453    0.001317
  H     -3.182515    1.695453    0.001272
  H      3.941593   -0.883817    0.003112
  H     -3.941593   -0.883818    0.003098
  H      1.888002   -2.315552   -0.003863
  H     -1.887996   -2.315553   -0.003452
  H      0.000005    2.622059    0.054138

 Total Charge           Charge          ....    0
 Multiplicity           Mult            ....    1
 Number of Electrons    NEL             ....   76
 Basis Dimension        Dim             ....  316

ORBITAL ENERGIES
----------------

  NO   OCC          E(Eh)            E(eV)
   0   2.0000     -15.605779      -424.6548
   1   2.0000     -15.605777      -424.6548
   2   2.0000     -15.588815      -424.1932
   3   2.0000     -11.260284      -306.4079
   4   2.0000     -11.260283      -306.4079
   5   2.0000     -11.249156      -306.1051
   6   2.0000     -11.248197      -306.0790
   7   2.0000     -11.244152      -305.9689
   8   2.0000     -11.244138      -305.9685
   9   2.0000     -11.218853      -305.2805
  10   2.0000     -11.218851      -305.2804
  11   2.0000      -1.309780       -35.6409
  12   2.0000      -1.278357       -34.7859
  13   2.0000      -1.241479       -33.7824
  14   2.0000      -1.043751       -28.4019
  15   2.0000      -1.025146       -27.8956
  16   2.0000      -1.021880       -27.8068
  17   2.0000      -0.933020       -25.3888
  18   2.0000      -0.819555       -22.3012
  19   2.0000      -0.797604       -21.7039
  20   2.0000      -0.771034       -20.9809
  21   2.0000      -0.761835       -20.7306
  22   2.0000      -0.758902       -20.6508
  23   2.0000      -0.653181       -17.7740
  24   2.0000      -0.642577       -17.4854
  25   2.0000      -0.607704       -16.5365
  26   2.0000      -0.604171       -16.4403
  27   2.0000      -0.582986       -15.8639
  28   2.0000      -0.576532       -15.6882
  29   2.0000      -0.558267       -15.1912
  30   2.0000      -0.548949       -14.9377
  31   2.0000      -0.515997       -14.0410
  32   2.0000      -0.508382       -13.8338
  33   2.0000      -0.499365       -13.5884
  34   2.0000      -0.351937        -9.5767
  35   2.0000      -0.350292        -9.5319
  36   2.0000      -0.284408        -7.7391
  37   2.0000      -0.229955        -6.2574
  38   0.0000       0.027460         0.7472
  39   0.0000       0.037152         1.0109
  40   0.0000       0.038571         1.0496
  41   0.0000       0.049823         1.3558
  42   0.0000       0.052044         1.4162

MULLIKEN ATOMIC CHARGES
-----------------------
   0 C :    1.581535
   1 C :    1.581535
   2 C :    0.631300
   3 C :    0.631307
   4 C :   -0.479297
   5 C :   -0.479271
   6 C :    0.425575
   7 C :    0.425548
   8 N :   -0.647424
   9 N :   -0.647427
  10 N :   -0.977298
  11 H :   -0.414049
  12 H :   -0.414049
  13 H :   -0.348745
  14 H :   -0.348745
  15 H :   -0.164351
  16 H :   -0.164354
  17 H :   -0.191788
Sum of atomic charges:    0.0000000

LOEWDIN ATOMIC CHARGES
----------------------
   0 C :    0.054001
   1 C :    0.054000
   2 C :    0.019899
   3 C :    0.019900
   4 C :   -0.150754
   5 C :   -0.150753
   6 C :   -0.094803
   7 C :   -0.094803
   8 N :    0.102364
   9 N :    0.102365
  10 N :    0.143281
  11 H :   -0.015013
  12 H :   -0.015012
  13 H :   -0.011472
  14 H :   -0.011472
  15 H :    0.016671
  16 H :    0.016671
  17 H :    0.014931

  Mayer bond orders larger than 0.100000
B(  0-C ,  1-C ) :   0.1468 B(  0-C ,  2-C ) :   1.3588 B(  0-C ,  4-C ) :   0.9140
B(  0-C ,  5-C ) :  -0.2304 B(  0-C ,  7-C ) :   0.2027 B(  0-C , 10-N ) :  -0.1803
B(  0-C , 11-H ) :  -0.2295 B(  1-C ,  3-C ) :   1.3588 B(  1-C ,  4-C ) :  -0.2304
B(  1-C ,  5-C ) :   0.9140 B(  1-C ,  6-C ) :   0.2027 B(  1-C , 10-N ) :  -0.1803
B(  1-C , 12-H ) :  -0.2295 B(  2-C ,  4-C ) :   0.2970 B(  2-C ,  5-C ) :   0.1462
B(  2-C ,  6-C ) :   0.1311 B(  2-C ,  7-C ) :  -0.1135 B(  2-C ,  8-N ) :   0.8362
B(  2-C , 11-H ) :   0.1074 B(  2-C , 13-H ) :   0.7093 B(  2-C , 15-H ) :  -0.1707
B(  3-C ,  4-C ) :   0.1462 B(  3-C ,  5-C ) :   0.2970 B(  3-C ,  6-C ) :  -0.1135
B(  3-C ,  7-C ) :   0.1311 B(  3-C ,  9-N ) :   0.8362 B(  3-C , 12-H ) :   0.1074
B(  3-C , 14-H ) :   0.7093 B(  3-C , 16-H ) :  -0.1707 B(  4-C ,  5-C ) :   0.2275
B(  4-C ,  6-C ) :   1.5610 B(  4-C , 10-N ) :   0.8488 B(  4-C , 11-H ) :   1.0339
B(  4-C , 17-H ) :  -0.1017 B(  5-C ,  7-C ) :   1.5610 B(  5-C , 10-N ) :   0.8488
B(  5-C , 12-H ) :   1.0340 B(  5-C , 17-H ) :  -0.1017 B(  6-C ,  7-C ) :   0.7597
B(  6-C ,  8-N ) :   1.1875 B(  6-C ,  9-N ) :  -0.3581 B(  6-C , 10-N ) :   0.1313
B(  6-C , 11-H ) :  -0.2153 B(  6-C , 13-H ) :   0.2665 B(  7-C ,  8-N ) :  -0.3581
B(  7-C ,  9-N ) :   1.1874 B(  7-C , 10-N ) :   0.1313 B(  7-C , 12-H ) :  -0.2153
B(  7-C , 14-H ) :   0.2665 B(  8-N , 15-H ) :   1.2632 B(  9-N , 16-H ) :   1.2632
B( 10-N , 17-H ) :   1.3045

MP2 TOTAL ENERGY:     -471.963502798 Eh
FINAL SINGLE POINT ENERGY      -471.963502797784

DIPOLE MOMENT
-------------
                                X             Y             Z
Electronic contribution:     -0.00000      -0.31459      -0.01900
Nuclear contribution   :      0.00001      -0.38512       0.05462
                        -----------------------------------------
Total Dipole Moment    :      0.00001      -0.69971       0.03562
                        -----------------------------------------
Magnitude (a.u.)       :      0.70061
Magnitude (Debye)      :      1.78082

Rotational constants in cm-1:     0.108667     0.030175     0.023617
Rotational constants in MHz :  3257.753039   904.622599   708.028412

                             ****ORCA TERMINATED NORMALLY****
TOTAL RUN TIME: 0 days 0 hours 1 minutes 53 seconds 751 msec
