                         Program Version 5.0.3 -  RELEASE  -
|  1> !ri-mp2 aug-cc-pvdz aug-cc-pvdz/c tightscf
|  2> %pal nprocs 16 end
|  3>
|  4> * xyz 0 1
|  5> C      0.000000    0.000000    0.600514
|  6> C      0.000000    0.000000   -0.600514
|  7> C      0.000000    0.000000    2.057156
|  8> C      0.000000    0.000000   -2.057156
|  9> H      0.037656    1.017156    2.451360
| 10> H     -0.899710   -0.475967    2.451360
| 11> H      0.862055   -0.541189    2.451360
| 12> H      0.899710   -0.475967   -2.451360
| 13> H     -0.037656    1.017156   -2.451360
| 14> H     -0.862055   -0.541189   -2.451360
| 15> *
| 16>
| 17>                          ****END OF INPUT****

CARTESIAN COORDINATES (ANGSTROEM)
---------------------------------
  C      0.000000    0.000000    0.600514
  C      0.000000    0.000000   -0.600514
  C      0.000000    0.000000    2.057156
  C      0.000000    0.000000   -2.057156
  H      0.037656    1.017156    2.451360
  H     -0.899710   -0.475967    2.451360
  H      0.862055   -0.541189    2.451360
  H      0.899710   -0.475967   -2.451360
  H     -0.037656    1.017156   -2.451360
  H     -0.862055   -0.541189   -2.451360

 Total Charge           Charge          ....    0
 Multiplicity           Mult            ....    1
 Number of Electrons    NEL             ....   30
 Basis Dimension        Dim             ....  146

ORBITAL ENERGIES
----------------

  NO   OCC          E(Eh)            E(eV)
   0   2.0000     -11.248602      -306.0900
   1   2.0000     -11.248600      -306.0900
   2   2.0000     -11.224579      -305.4363
   3   2.0000     -11.220804      -305.3336
   4   2.0000      -1.064864       -28.9764
   5   2.0000      -1.003459       -27.3055
   6   2.0000      -0.917595       -24.9690
   7   2.0000      -0.653711       -17.7884
   8   2.0000      -0.597422       -16.2567
   9   2.0000      -0.589611       -16.0441
  10   2.0000      -0.589611       -16.0441
  11   2.0000      -0.572424       -15.5765
  12   2.0000      -0.572424       -15.5765
  13   2.0000      -0.362228        -9.8567
  14   2.0000      -0.362228        -9.8567
  15   0.0000       0.035558         0.9676
  16   0.0000       0.039525         1.0755
  17   0.0000       0.057289         1.5589
  18   0.0000       0.057289         1.5589
  19   0.0000       0.070991         1.9318

MULLIKEN ATOMIC CHARGES
-----------------------
   0 C :   -0.540702
   1 C :   -0.540702
   2 C :    0.190239
   3 C :    0.190239
   4 H :    0.116821
   5 H :    0.116820
   6 H :    0.116821
   7 H :    0.116820
   8 H :    0.116821
   9 H :    0.116821
Sum of atomic charges:    0.0000000

LOEWDIN ATOMIC CHARGES
----------------------
   0 C :   -0.072234
   1 C :   -0.072234
   2 C :    0.109658
   3 C :    0.109658
   4 H :   -0.012475
   5 H :   -0.012475
   6 H :   -0.012475
   7 H :   -0.012475
   8 H :   -0.012475
   9 H :   -0.012475

  Mayer bond orders larger than 0.100000
B(  0-C ,  1-C ) :   2.8565 B(  0-C ,  2-C ) :   1.1832 B(  0-C ,  3-C ) :   0.2161
B(  0-C ,  4-H ) :   0.2787 B(  0-C ,  5-H ) :   0.2787 B(  0-C ,  6-H ) :   0.2787
B(  1-C ,  2-C ) :   0.2161 B(  1-C ,  3-C ) :   1.1832 B(  1-C ,  7-H ) :   0.2787
B(  1-C ,  8-H ) :   0.2787 B(  1-C ,  9-H ) :   0.2787 B(  2-C ,  4-H ) :   0.8087
B(  2-C ,  5-H ) :   0.8087 B(  2-C ,  6-H ) :   0.8087 B(  3-C ,  7-H ) :   0.8087
B(  3-C ,  8-H ) :   0.8087 B(  3-C ,  9-H ) :   0.8087

MP2 TOTAL ENERGY:     -155.480371856 Eh
FINAL SINGLE POINT ENERGY      -155.480371856239

DIPOLE MOMENT
-------------
                                X             Y             Z
Electronic contribution:     -0.00000      -0.00000      -0.00000
Nuclear contribution   :      0.00000       0.00000       0.00000
                        -----------------------------------------
Total Dipole Moment    :     -0.00000      -0.00000      -0.00000
                        -----------------------------------------
Magnitude (a.u.)       :      0.00000
Magnitude (Debye)      :      0.00000

Rotational constants in cm-1:     2.690391     0.112536     0.112536
Rotational constants in MHz : 80655.892100  3373.748990  3373.748918

                             ****ORCA TERMINATED NORMALLY****
TOTAL RUN TIME: 0 days 0 hours 0 minutes 27 seconds 735 msec
