                         Program Version 5.0.3 -  RELEASE  -
|  1> !ri-mp2 aug-cc-pvdz aug-cc-pvdz/c tightscf
|  2> %pal nprocs 16 end
|  3>
|  4> * xyz 0 1
|  5> S      0.301124   -1.194128   -0.000003
|  6> S     -2.516695   -0.103145   -0.000004
|  7> O      2.855536   -0.380914    0.000003
|  8> N     -0.251435    1.319996    0.000004
|  9> C     -0.891421    0.133788   -0.000001
| 10> C      1.703099   -0.063528    0.000002
| 11> C      1.190060    1.371895    0.000006
| 12> H     -0.815242    2.155712    0.000006
| 13> H      1.584859    1.877534   -0.885017
| 14> H      1.584856    1.877528    0.885033
| 15> *
| 16>
| 17>                          ****END OF INPUT****

CARTESIAN COORDINATES (ANGSTROEM)
---------------------------------
  S      0.301124   -1.194128   -0.000003
  S     -2.516695   -0.103145   -0.000004
  O      2.855536   -0.380914    0.000003
  N     -0.251435    1.319996    0.000004
  C     -0.891421    0.133788   -0.000001
  C      1.703099   -0.063528    0.000002
  C      1.190060    1.371895    0.000006
  H     -0.815242    2.155712    0.000006
  H      1.584859    1.877534   -0.885017
  H      1.584856    1.877528    0.885033

 Total Charge           Charge          ....    0
 Multiplicity           Mult            ....    1
 Number of Electrons    NEL             ....   68
 Basis Dimension        Dim             ....  196

ORBITAL ENERGIES
----------------

  NO   OCC          E(Eh)            E(eV)
   0   2.0000     -92.020056     -2503.9930
   1   2.0000     -91.929086     -2501.5176
   2   2.0000     -20.607465      -560.7576
   3   2.0000     -15.651879      -425.9093
   4   2.0000     -11.412457      -310.5487
   5   2.0000     -11.405748      -310.3662
   6   2.0000     -11.336014      -308.4686
   7   2.0000      -9.023150      -245.5324
   8   2.0000      -8.932620      -243.0689
   9   2.0000      -6.704330      -182.4341
  10   2.0000      -6.703314      -182.4065
  11   2.0000      -6.701210      -182.3492
  12   2.0000      -6.614989      -180.0030
  13   2.0000      -6.612063      -179.9234
  14   2.0000      -6.610970      -179.8936
  15   2.0000      -1.452112       -39.5140
  16   2.0000      -1.335393       -36.3379
  17   2.0000      -1.095581       -29.8123
  18   2.0000      -1.074739       -29.2451
  19   2.0000      -0.964776       -26.2529
  20   2.0000      -0.832009       -22.6401
  21   2.0000      -0.798870       -21.7383
  22   2.0000      -0.724903       -19.7256
  23   2.0000      -0.699860       -19.0442
  24   2.0000      -0.670462       -18.2442
  25   2.0000      -0.657450       -17.8901
  26   2.0000      -0.578261       -15.7353
  27   2.0000      -0.577894       -15.7253
  28   2.0000      -0.545763       -14.8510
  29   2.0000      -0.521869       -14.2008
  30   2.0000      -0.446860       -12.1597
  31   2.0000      -0.417208       -11.3528
  32   2.0000      -0.353146        -9.6096
  33   2.0000      -0.348877        -9.4934
  34   0.0000       0.021896         0.5958
  35   0.0000       0.042885         1.1670
  36   0.0000       0.049712         1.3527
  37   0.0000       0.067288         1.8310
  38   0.0000       0.069232         1.8839

MULLIKEN ATOMIC CHARGES
-----------------------
   0 S :    0.501666
   1 S :    0.061698
   2 O :   -0.723886
   3 N :   -0.419576
   4 C :   -0.141073
   5 C :    0.128363
   6 C :    0.719606
   7 H :   -0.101363
   8 H :   -0.012717
   9 H :   -0.012719
Sum of atomic charges:    0.0000000

LOEWDIN ATOMIC CHARGES
----------------------
   0 S :    0.950022
   1 S :    0.496484
   2 O :    0.017099
   3 N :   -0.034254
   4 C :   -1.017382
   5 C :   -0.511690
   6 C :    0.021676
   7 H :    0.016209
   8 H :    0.030918
   9 H :    0.030918

  Mayer bond orders larger than 0.100000
B(  0-S ,  4-C ) :   0.9986 B(  0-S ,  5-C ) :   1.0877 B(  0-S ,  6-C ) :   0.1313
B(  1-S ,  4-C ) :   1.8372 B(  2-O ,  5-C ) :   1.4032 B(  3-N ,  4-C ) :   1.0729
B(  3-N ,  6-C ) :   0.8010 B(  3-N ,  7-H ) :   1.2171 B(  4-C ,  7-H ) :  -0.1175
B(  5-C ,  6-C ) :   1.0795 B(  6-C ,  7-H ) :  -0.1334 B(  6-C ,  8-H ) :   0.8623
B(  6-C ,  9-H ) :   0.8623

MP2 TOTAL ENERGY:    -1040.810470928 Eh
FINAL SINGLE POINT ENERGY     -1040.810470927871

DIPOLE MOMENT
-------------
                                X             Y             Z
Electronic contribution:     -1.72820      -4.22075      -0.00002
Nuclear contribution   :      2.36500       5.70789       0.00002
                        -----------------------------------------
Total Dipole Moment    :      0.63681       1.48714       0.00001
                        -----------------------------------------
Magnitude (a.u.)       :      1.61775
Magnitude (Debye)      :      4.11199

Rotational constants in cm-1:     0.155085     0.041518     0.032953
Rotational constants in MHz :  4649.336895  1244.679198   987.893117

                             ****ORCA TERMINATED NORMALLY****
TOTAL RUN TIME: 0 days 0 hours 0 minutes 38 seconds 809 msec
