                         Program Version 5.0.3 -  RELEASE  -
|  1> !ri-mp2 aug-cc-pvdz aug-cc-pvdz/c tightscf
|  2> %pal nprocs 16 end
|  3>
|  4> * xyz 0 1
|  5> Cl    -2.213770   -1.116422    0.019613
|  6> S      1.043133    0.085348   -0.719629
|  7> S      2.876136   -0.099112    0.233234
|  8> C     -1.513151    0.487919    0.204363
|  9> C     -0.101760    0.501799    0.686458
| 10> C     -2.230617    1.563308   -0.088361
| 11> H      2.830146   -1.417869    0.524098
| 12> H      0.054997   -0.235049    1.469729
| 13> H      0.155816    1.491757    1.054508
| 14> H     -3.249590    1.496805   -0.437101
| 15> H     -1.792416    2.545606    0.022903
| 16> *
| 17>
| 18>                          ****END OF INPUT****

CARTESIAN COORDINATES (ANGSTROEM)
---------------------------------
  Cl    -2.213770   -1.116422    0.019613
  S      1.043133    0.085348   -0.719629
  S      2.876136   -0.099112    0.233234
  C     -1.513151    0.487919    0.204363
  C     -0.101760    0.501799    0.686458
  C     -2.230617    1.563308   -0.088361
  H      2.830146   -1.417869    0.524098
  H      0.054997   -0.235049    1.469729
  H      0.155816    1.491757    1.054508
  H     -3.249590    1.496805   -0.437101
  H     -1.792416    2.545606    0.022903

 Total Charge           Charge          ....    0
 Multiplicity           Mult            ....    1
 Number of Electrons    NEL             ....   72
 Basis Dimension        Dim             ....  195

ORBITAL ENERGIES
----------------

  NO   OCC          E(Eh)            E(eV)
   0   2.0000    -104.843472     -2852.9359
   1   2.0000     -91.992971     -2503.2560
   2   2.0000     -91.990855     -2503.1984
   3   2.0000     -11.326175      -308.2009
   4   2.0000     -11.294881      -307.3493
   5   2.0000     -11.262509      -306.4684
   6   2.0000     -10.569632      -287.6143
   7   2.0000      -8.993077      -244.7141
   8   2.0000      -8.990272      -244.6377
   9   2.0000      -8.037374      -218.7081
  10   2.0000      -8.034060      -218.6179
  11   2.0000      -8.033976      -218.6156
  12   2.0000      -6.674952      -181.6347
  13   2.0000      -6.673386      -181.5921
  14   2.0000      -6.672044      -181.5555
  15   2.0000      -6.671185      -181.5322
  16   2.0000      -6.670187      -181.5050
  17   2.0000      -6.667943      -181.4440
  18   2.0000      -1.181203       -32.1422
  19   2.0000      -1.081616       -29.4323
  20   2.0000      -1.034902       -28.1611
  21   2.0000      -0.973665       -26.4948
  22   2.0000      -0.847119       -23.0513
  23   2.0000      -0.756021       -20.5724
  24   2.0000      -0.666387       -18.1333
  25   2.0000      -0.649855       -17.6834
  26   2.0000      -0.595202       -16.1963
  27   2.0000      -0.581066       -15.8116
  28   2.0000      -0.536323       -14.5941
  29   2.0000      -0.530881       -14.4460
  30   2.0000      -0.494841       -13.4653
  31   2.0000      -0.464472       -12.6389
  32   2.0000      -0.458588       -12.4788
  33   2.0000      -0.391296       -10.6477
  34   2.0000      -0.370848       -10.0913
  35   2.0000      -0.363598        -9.8940
  36   0.0000       0.035244         0.9590
  37   0.0000       0.041352         1.1252
  38   0.0000       0.050845         1.3836
  39   0.0000       0.055651         1.5143
  40   0.0000       0.069437         1.8895

MULLIKEN ATOMIC CHARGES
-----------------------
   0 Cl:   -0.307290
   1 S :    0.090120
   2 S :   -0.162145
   3 C :   -0.084414
   4 C :    0.099334
   5 C :    0.932481
   6 H :    0.185356
   7 H :   -0.059691
   8 H :   -0.142168
   9 H :   -0.283988
  10 H :   -0.267596
Sum of atomic charges:    0.0000000

LOEWDIN ATOMIC CHARGES
----------------------
   0 Cl:    0.545839
   1 S :    0.448601
   2 S :    0.333610
   3 C :   -0.692435
   4 C :   -0.365290
   5 C :    0.148400
   6 H :   -0.274385
   7 H :   -0.042913
   8 H :   -0.034443
   9 H :   -0.036971
  10 H :   -0.030013

  Mayer bond orders larger than 0.100000
B(  0-Cl,  3-C ) :   1.1926 B(  0-Cl,  4-C ) :  -0.1559 B(  0-Cl,  5-C ) :  -0.2526
B(  1-S ,  2-S ) :   1.1630 B(  1-S ,  3-C ) :  -0.1067 B(  1-S ,  4-C ) :   1.0298
B(  2-S ,  4-C ) :  -0.1390 B(  2-S ,  6-H ) :   0.9281 B(  3-C ,  4-C ) :   1.1106
B(  3-C ,  5-C ) :   1.7071 B(  3-C ,  9-H ) :   0.1832 B(  4-C ,  7-H ) :   0.9783
B(  4-C ,  8-H ) :   0.9941 B(  5-C ,  9-H ) :   0.6795 B(  5-C , 10-H ) :   0.7994
B(  9-H , 10-H ) :  -0.1498

MP2 TOTAL ENERGY:    -1371.930234607 Eh
FINAL SINGLE POINT ENERGY     -1371.930234606588

DIPOLE MOMENT
-------------
                                X             Y             Z
Electronic contribution:     -1.18399      -4.84747      -1.96039
Nuclear contribution   :      1.00485       5.26757       2.51999
                        -----------------------------------------
Total Dipole Moment    :     -0.17914       0.42009       0.55960
                        -----------------------------------------
Magnitude (a.u.)       :      0.72230
Magnitude (Debye)      :      1.83595

Rotational constants in cm-1:     0.139740     0.027541     0.024934
Rotational constants in MHz :  4189.310774   825.649297   747.492311

                             ****ORCA TERMINATED NORMALLY****
TOTAL RUN TIME: 0 days 0 hours 0 minutes 40 seconds 705 msec
