                         Program Version 5.0.3 -  RELEASE  -
|  1> !ri-mp2 aug-cc-pvdz aug-cc-pvdz/c tightscf
|  2> %pal nprocs 16 end
|  3>
|  4> * xyz 0 1
|  5> C      0.029432   -2.115963    0.000000
|  6> C     -1.177779   -1.432184    0.000000
|  7> C      1.221499   -1.401498    0.000000
|  8> C     -1.215878   -0.038978    0.000000
|  9> C      1.232186   -0.009912    0.000000
| 10> C      0.000000    0.652782    0.000000
| 11> C     -2.522797    0.709811    0.000000
| 12> C      2.513155    0.776894    0.000000
| 13> O      0.045187    2.025498    0.000000
| 14> H      0.042486   -3.197090    0.000000
| 15> H     -2.110575   -1.981915    0.000000
| 16> H      2.166310   -1.930240    0.000000
| 17> H     -2.631669    1.347832    0.882868
| 18> H     -2.631669    1.347832   -0.882868
| 19> H     -3.362725    0.017813    0.000000
| 20> H      2.580324    1.426517   -0.874653
| 21> H      2.580324    1.426517    0.874653
| 22> H      3.374227    0.110457    0.000000
| 23> H     -0.847434    2.382583    0.000000
| 24> *
| 25>
| 26>                          ****END OF INPUT****

CARTESIAN COORDINATES (ANGSTROEM)
---------------------------------
  C      0.029432   -2.115963    0.000000
  C     -1.177779   -1.432184    0.000000
  C      1.221499   -1.401498    0.000000
  C     -1.215878   -0.038978    0.000000
  C      1.232186   -0.009912    0.000000
  C      0.000000    0.652782    0.000000
  C     -2.522797    0.709811    0.000000
  C      2.513155    0.776894    0.000000
  O      0.045187    2.025498    0.000000
  H      0.042486   -3.197090    0.000000
  H     -2.110575   -1.981915    0.000000
  H      2.166310   -1.930240    0.000000
  H     -2.631669    1.347832    0.882868
  H     -2.631669    1.347832   -0.882868
  H     -3.362725    0.017813    0.000000
  H      2.580324    1.426517   -0.874653
  H      2.580324    1.426517    0.874653
  H      3.374227    0.110457    0.000000
  H     -0.847434    2.382583    0.000000

 Total Charge           Charge          ....    0
 Multiplicity           Mult            ....    1
 Number of Electrons    NEL             ....   66
 Basis Dimension        Dim             ....  297

ORBITAL ENERGIES
----------------

  NO   OCC          E(Eh)            E(eV)
   0   2.0000     -20.596249      -560.4524
   1   2.0000     -11.296679      -307.3983
   2   2.0000     -11.243324      -305.9464
   3   2.0000     -11.242457      -305.9228
   4   2.0000     -11.237145      -305.7783
   5   2.0000     -11.235172      -305.7246
   6   2.0000     -11.232651      -305.6560
   7   2.0000     -11.227381      -305.5126
   8   2.0000     -11.222045      -305.3674
   9   2.0000      -1.405056       -38.2335
  10   2.0000      -1.153393       -31.3854
  11   2.0000      -1.065007       -28.9803
  12   2.0000      -1.022340       -27.8193
  13   2.0000      -0.946643       -25.7595
  14   2.0000      -0.928000       -25.2522
  15   2.0000      -0.821503       -22.3542
  16   2.0000      -0.799051       -21.7433
  17   2.0000      -0.727931       -19.8080
  18   2.0000      -0.674707       -18.3597
  19   2.0000      -0.638739       -17.3810
  20   2.0000      -0.609303       -16.5800
  21   2.0000      -0.593577       -16.1521
  22   2.0000      -0.573987       -15.6190
  23   2.0000      -0.571673       -15.5560
  24   2.0000      -0.564638       -15.3646
  25   2.0000      -0.557338       -15.1659
  26   2.0000      -0.544199       -14.8084
  27   2.0000      -0.528820       -14.3899
  28   2.0000      -0.494937       -13.4679
  29   2.0000      -0.480361       -13.0713
  30   2.0000      -0.469453       -12.7745
  31   2.0000      -0.324241        -8.8230
  32   2.0000      -0.305222        -8.3055
  33   0.0000       0.032818         0.8930
  34   0.0000       0.039585         1.0772
  35   0.0000       0.042010         1.1431
  36   0.0000       0.054214         1.4752
  37   0.0000       0.054401         1.4803

MULLIKEN ATOMIC CHARGES
-----------------------
   0 C :   -0.289249
   1 C :    0.882179
   2 C :    0.980150
   3 C :    0.236798
   4 C :   -0.534674
   5 C :    0.340182
   6 C :    0.255138
   7 C :    0.490108
   8 O :   -0.997106
   9 H :   -0.463358
  10 H :   -0.587149
  11 H :   -0.586936
  12 H :    0.179914
  13 H :    0.179914
  14 H :   -0.257530
  15 H :    0.113790
  16 H :    0.113790
  17 H :   -0.207298
  18 H :    0.151339
Sum of atomic charges:    0.0000000

LOEWDIN ATOMIC CHARGES
----------------------
   0 C :    0.002007
   1 C :    0.032848
   2 C :    0.037903
   3 C :   -0.175689
   4 C :   -0.177604
   5 C :   -0.151261
   6 C :    0.170261
   7 C :    0.176850
   8 O :    0.199522
   9 H :   -0.004435
  10 H :    0.002723
  11 H :    0.003803
  12 H :   -0.004094
  13 H :   -0.004094
  14 H :   -0.013742
  15 H :   -0.006215
  16 H :   -0.006215
  17 H :   -0.017051
  18 H :   -0.065517

  Mayer bond orders larger than 0.100000
B(  0-C ,  1-C ) :   1.4243 B(  0-C ,  2-C ) :   1.2403 B(  0-C ,  3-C ) :   0.1279
B(  0-C ,  5-C ) :   0.1479 B(  0-C ,  6-C ) :   0.4124 B(  0-C ,  7-C ) :   0.4254
B(  0-C ,  9-H ) :   0.2360 B(  0-C , 10-H ) :   0.1759 B(  0-C , 11-H ) :   0.2390
B(  1-C ,  2-C ) :   0.2946 B(  1-C ,  3-C ) :   1.4906 B(  1-C ,  5-C ) :  -0.6204
B(  1-C ,  6-C ) :  -0.4138 B(  1-C ,  9-H ) :   0.2244 B(  1-C , 10-H ) :  -0.3578
B(  1-C , 14-H ) :  -0.1066 B(  2-C ,  4-C ) :   1.7947 B(  2-C ,  5-C ) :  -0.4258
B(  2-C ,  7-C ) :  -0.2914 B(  2-C ,  9-H ) :   0.2060 B(  2-C , 11-H ) :  -0.2822
B(  2-C , 17-H ) :  -0.1487 B(  3-C ,  4-C ) :   0.1058 B(  3-C ,  5-C ) :   0.9265
B(  3-C ,  6-C ) :   1.1782 B(  3-C ,  8-O ) :   0.1543 B(  3-C , 10-H ) :   0.6149
B(  3-C , 12-H ) :   0.2384 B(  3-C , 13-H ) :   0.2384 B(  3-C , 14-H ) :   0.3995
B(  3-C , 18-H ) :   0.1330 B(  4-C ,  5-C ) :   1.7974 B(  4-C ,  7-C ) :   1.2322
B(  4-C ,  8-O ) :   0.3723 B(  4-C , 11-H ) :   0.5395 B(  4-C , 15-H ) :   0.1844
B(  4-C , 16-H ) :   0.1844 B(  4-C , 17-H ) :   0.5241 B(  5-C ,  6-C ) :  -0.3450
B(  5-C ,  7-C ) :  -0.2799 B(  5-C ,  8-O ) :  -0.4020 B(  5-C , 12-H ) :  -0.1098
B(  5-C , 13-H ) :  -0.1098 B(  5-C , 18-H ) :  -0.1603 B(  6-C , 10-H ) :   0.1193
B(  6-C , 12-H ) :   0.7945 B(  6-C , 13-H ) :   0.7945 B(  6-C , 14-H ) :   0.6874
B(  7-C , 15-H ) :   0.8576 B(  7-C , 16-H ) :   0.8576 B(  7-C , 17-H ) :   0.5466
B(  8-O , 18-H ) :   1.0234 B( 12-H , 13-H ) :  -0.1152

MP2 TOTAL ENERGY:     -384.995739763 Eh
FINAL SINGLE POINT ENERGY      -384.995739762799

DIPOLE MOMENT
-------------
                                X             Y             Z
Electronic contribution:      0.28222      -0.93341       0.00000
Nuclear contribution   :     -0.85196       0.99659       0.00000
                        -----------------------------------------
Total Dipole Moment    :     -0.56974       0.06318       0.00000
                        -----------------------------------------
Magnitude (a.u.)       :      0.57323
Magnitude (Debye)      :      1.45705

Rotational constants in cm-1:     0.076388     0.058889     0.033667
Rotational constants in MHz :  2290.064432  1765.462359  1009.315243

                             ****ORCA TERMINATED NORMALLY****
TOTAL RUN TIME: 0 days 0 hours 1 minutes 26 seconds 770 msec
