                         Program Version 5.0.3 -  RELEASE  -
|  1> !ri-mp2 aug-cc-pvdz aug-cc-pvdz/c tightscf
|  2> %pal nprocs 16 end
|  3>
|  4> * xyz 0 1
|  5> C     -2.165229   -0.019777   -0.016641
|  6> C      0.534517    1.417395   -0.549756
|  7> C      1.641044   -0.836748   -0.424661
|  8> C     -0.864975   -0.710060   -0.425335
|  9> C      0.429999   -0.005131    0.007651
| 10> O      0.376349    0.043462    1.448394
| 11> H     -3.021673   -0.639001   -0.286612
| 12> H     -2.292415    0.942994   -0.512746
| 13> H     -2.195466    0.147199    1.059086
| 14> H      0.507717    1.416045   -1.640747
| 15> H     -0.278903    2.041128   -0.183517
| 16> H      1.476800    1.877169   -0.242684
| 17> H      1.695208   -0.921627   -1.511210
| 18> H      2.569524   -0.374559   -0.081065
| 19> H      1.582438   -1.839278   -0.001025
| 20> H     -0.835262   -0.834371   -1.510827
| 21> H     -0.842950   -1.714358    0.004098
| 22> H      1.172045    0.476886    1.772546
| 23> *
| 24>
| 25>                          ****END OF INPUT****

CARTESIAN COORDINATES (ANGSTROEM)
---------------------------------
  C     -2.165229   -0.019777   -0.016641
  C      0.534517    1.417395   -0.549756
  C      1.641044   -0.836748   -0.424661
  C     -0.864975   -0.710060   -0.425335
  C      0.429999   -0.005131    0.007651
  O      0.376349    0.043462    1.448394
  H     -3.021673   -0.639001   -0.286612
  H     -2.292415    0.942994   -0.512746
  H     -2.195466    0.147199    1.059086
  H      0.507717    1.416045   -1.640747
  H     -0.278903    2.041128   -0.183517
  H      1.476800    1.877169   -0.242684
  H      1.695208   -0.921627   -1.511210
  H      2.569524   -0.374559   -0.081065
  H      1.582438   -1.839278   -0.001025
  H     -0.835262   -0.834371   -1.510827
  H     -0.842950   -1.714358    0.004098
  H      1.172045    0.476886    1.772546

 Total Charge           Charge          ....    0
 Multiplicity           Mult            ....    1
 Number of Electrons    NEL             ....   50
 Basis Dimension        Dim             ....  246

ORBITAL ENERGIES
----------------

  NO   OCC          E(Eh)            E(eV)
   0   2.0000     -20.558821      -559.4340
   1   2.0000     -11.288553      -307.1771
   2   2.0000     -11.220515      -305.3257
   3   2.0000     -11.220492      -305.3251
   4   2.0000     -11.220259      -305.3188
   5   2.0000     -11.210422      -305.0511
   6   2.0000      -1.356029       -36.8994
   7   2.0000      -1.074947       -29.2508
   8   2.0000      -0.994242       -27.0547
   9   2.0000      -0.941483       -25.6191
  10   2.0000      -0.861125       -23.4324
  11   2.0000      -0.762166       -20.7396
  12   2.0000      -0.669710       -18.2237
  13   2.0000      -0.632009       -17.1978
  14   2.0000      -0.606672       -16.5084
  15   2.0000      -0.584520       -15.9056
  16   2.0000      -0.574032       -15.6202
  17   2.0000      -0.552931       -15.0460
  18   2.0000      -0.534466       -14.5436
  19   2.0000      -0.511805       -13.9269
  20   2.0000      -0.503476       -13.7003
  21   2.0000      -0.488422       -13.2906
  22   2.0000      -0.476409       -12.9638
  23   2.0000      -0.447676       -12.1819
  24   2.0000      -0.428883       -11.6705
  25   0.0000       0.035013         0.9527
  26   0.0000       0.043920         1.1951
  27   0.0000       0.046759         1.2724
  28   0.0000       0.050256         1.3675
  29   0.0000       0.064631         1.7587

MULLIKEN ATOMIC CHARGES
-----------------------
   0 C :    0.463414
   1 C :    1.045549
   2 C :    1.184664
   3 C :    0.756221
   4 C :   -2.269215
   5 O :   -0.745259
   6 H :   -0.078430
   7 H :   -0.100052
   8 H :   -0.053649
   9 H :    0.019274
  10 H :    0.004890
  11 H :   -0.065099
  12 H :    0.029212
  13 H :   -0.057846
  14 H :   -0.001387
  15 H :   -0.102819
  16 H :   -0.122497
  17 H :    0.093029
Sum of atomic charges:   -0.0000000

LOEWDIN ATOMIC CHARGES
----------------------
   0 C :    0.144932
   1 C :    0.178489
   2 C :    0.176654
   3 C :   -0.028533
   4 C :   -0.482644
   5 O :    0.145357
   6 H :   -0.020150
   7 H :   -0.026528
   8 H :   -0.016481
   9 H :   -0.003341
  10 H :   -0.013526
  11 H :   -0.011480
  12 H :   -0.006545
  13 H :   -0.012176
  14 H :   -0.005808
  15 H :    0.019539
  16 H :    0.019678
  17 H :   -0.057438

  Mayer bond orders larger than 0.100000
B(  0-C ,  3-C ) :   1.0713 B(  0-C ,  6-H ) :   0.8790 B(  0-C ,  7-H ) :   0.9327
B(  0-C ,  8-H ) :   0.9444 B(  1-C ,  2-C ) :  -0.1538 B(  1-C ,  4-C ) :   1.2999
B(  1-C ,  9-H ) :   0.7939 B(  1-C , 10-H ) :   0.7847 B(  1-C , 11-H ) :   0.6866
B(  2-C ,  4-C ) :   1.1446 B(  2-C ,  9-H ) :  -0.1169 B(  2-C , 12-H ) :   0.8053
B(  2-C , 13-H ) :   0.7134 B(  2-C , 14-H ) :   0.7140 B(  2-C , 16-H ) :  -0.1008
B(  3-C ,  4-C ) :   0.8934 B(  3-C , 15-H ) :   0.7558 B(  3-C , 16-H ) :   0.5796
B(  4-C ,  5-O ) :  -0.2329 B(  4-C ,  9-H ) :   0.2337 B(  4-C , 10-H ) :   0.1390
B(  4-C , 11-H ) :   0.2987 B(  4-C , 12-H ) :   0.1552 B(  4-C , 13-H ) :   0.2990
B(  4-C , 14-H ) :   0.2361 B(  4-C , 15-H ) :   0.2054 B(  4-C , 16-H ) :   0.3950
B(  5-O , 17-H ) :   1.1069 B( 10-H , 11-H ) :  -0.1050 B( 13-H , 14-H ) :  -0.1148
B( 15-H , 16-H ) :  -0.1302

MP2 TOTAL ENERGY:     -272.188740696 Eh
FINAL SINGLE POINT ENERGY      -272.188740695764

DIPOLE MOMENT
-------------
                                X             Y             Z
Electronic contribution:      0.93656      -0.40906       2.89875
Nuclear contribution   :     -0.48683       0.61670      -3.31498
                        -----------------------------------------
Total Dipole Moment    :      0.44973       0.20764      -0.41624
                        -----------------------------------------
Magnitude (a.u.)       :      0.64701
Magnitude (Debye)      :      1.64458

Rotational constants in cm-1:     0.151175     0.086089     0.084127
Rotational constants in MHz :  4532.098624  2580.876574  2522.068819

                             ****ORCA TERMINATED NORMALLY****
TOTAL RUN TIME: 0 days 0 hours 0 minutes 49 seconds 959 msec
