                         Program Version 5.0.3 -  RELEASE  -
|  1> !ri-mp2 aug-cc-pvdz aug-cc-pvdz/c tightscf
|  2> %pal nprocs 16 end
|  3>
|  4> * xyz 0 1
|  5> C     -1.943932   -1.168905   -0.210590
|  6> C     -1.162345   -0.135589    0.096240
|  7> C     -1.665731    1.281359    0.033583
|  8> C      2.748156   -0.046354    0.013425
|  9> C      0.268935   -0.331004    0.532941
| 10> C      1.316548    0.202314   -0.457619
| 11> H     -1.582768   -2.188058   -0.155400
| 12> H     -2.970744   -1.031650   -0.524857
| 13> H     -1.553525    1.775593    1.002859
| 14> H     -1.100728    1.876555   -0.687415
| 15> H     -2.716479    1.319449   -0.249678
| 16> H      2.941697   -1.113171    0.142398
| 17> H      2.938946    0.440991    0.971889
| 18> H      3.474380    0.337828   -0.704090
| 19> H      0.450856   -1.395047    0.699684
| 20> H      0.420342    0.167127    1.497865
| 21> H      1.169178    1.273433   -0.612395
| 22> H      1.159056   -0.273982   -1.428743
| 23> *
| 24>
| 25>                          ****END OF INPUT****

CARTESIAN COORDINATES (ANGSTROEM)
---------------------------------
  C     -1.943932   -1.168905   -0.210590
  C     -1.162345   -0.135589    0.096240
  C     -1.665731    1.281359    0.033583
  C      2.748156   -0.046354    0.013425
  C      0.268935   -0.331004    0.532941
  C      1.316548    0.202314   -0.457619
  H     -1.582768   -2.188058   -0.155400
  H     -2.970744   -1.031650   -0.524857
  H     -1.553525    1.775593    1.002859
  H     -1.100728    1.876555   -0.687415
  H     -2.716479    1.319449   -0.249678
  H      2.941697   -1.113171    0.142398
  H      2.938946    0.440991    0.971889
  H      3.474380    0.337828   -0.704090
  H      0.450856   -1.395047    0.699684
  H      0.420342    0.167127    1.497865
  H      1.169178    1.273433   -0.612395
  H      1.159056   -0.273982   -1.428743

 Total Charge           Charge          ....    0
 Multiplicity           Mult            ....    1
 Number of Electrons    NEL             ....   48
 Basis Dimension        Dim             ....  246

ORBITAL ENERGIES
----------------

  NO   OCC          E(Eh)            E(eV)
   0   2.0000     -11.240170      -305.8606
   1   2.0000     -11.226432      -305.4867
   2   2.0000     -11.225594      -305.4639
   3   2.0000     -11.224390      -305.4312
   4   2.0000     -11.219219      -305.2905
   5   2.0000     -11.213733      -305.1412
   6   2.0000      -1.103154       -30.0183
   7   2.0000      -1.035687       -28.1825
   8   2.0000      -0.935941       -25.4682
   9   2.0000      -0.921557       -25.0769
  10   2.0000      -0.812031       -22.0965
  11   2.0000      -0.717757       -19.5312
  12   2.0000      -0.639315       -17.3967
  13   2.0000      -0.625599       -17.0234
  14   2.0000      -0.588632       -16.0175
  15   2.0000      -0.578013       -15.7285
  16   2.0000      -0.561041       -15.2667
  17   2.0000      -0.528981       -14.3943
  18   2.0000      -0.518199       -14.1009
  19   2.0000      -0.507034       -13.7971
  20   2.0000      -0.479522       -13.0485
  21   2.0000      -0.467197       -12.7131
  22   2.0000      -0.459768       -12.5109
  23   2.0000      -0.344945        -9.3864
  24   0.0000       0.036599         0.9959
  25   0.0000       0.043702         1.1892
  26   0.0000       0.045153         1.2287
  27   0.0000       0.047529         1.2933
  28   0.0000       0.060531         1.6471

MULLIKEN ATOMIC CHARGES
-----------------------
   0 C :    1.072338
   1 C :   -0.311616
   2 C :    0.223034
   3 C :    0.472527
   4 C :    0.376794
   5 C :    0.124837
   6 H :   -0.389524
   7 H :   -0.425725
   8 H :    0.042651
   9 H :    0.010195
  10 H :   -0.185669
  11 H :   -0.083118
  12 H :   -0.065396
  13 H :   -0.078163
  14 H :   -0.250576
  15 H :   -0.170733
  16 H :   -0.197566
  17 H :   -0.164289
Sum of atomic charges:    0.0000000

LOEWDIN ATOMIC CHARGES
----------------------
   0 C :    0.191203
   1 C :   -0.289168
   2 C :    0.165109
   3 C :    0.132829
   4 C :   -0.012501
   5 C :   -0.063579
   6 H :   -0.039864
   7 H :   -0.041597
   8 H :   -0.007021
   9 H :   -0.016524
  10 H :   -0.015229
  11 H :   -0.019436
  12 H :   -0.019305
  13 H :   -0.021066
  14 H :    0.015691
  15 H :    0.021462
  16 H :    0.003227
  17 H :    0.015770

  Mayer bond orders larger than 0.100000
B(  0-C ,  1-C ) :   1.9004 B(  0-C ,  2-C ) :  -0.2003 B(  0-C ,  6-H ) :   0.4708
B(  0-C ,  7-H ) :   0.4151 B(  1-C ,  2-C ) :   1.2956 B(  1-C ,  4-C ) :   1.1090
B(  1-C ,  6-H ) :   0.3310 B(  1-C ,  7-H ) :   0.3403 B(  1-C , 10-H ) :   0.1798
B(  1-C , 14-H ) :   0.1799 B(  2-C ,  4-C ) :  -0.1730 B(  2-C ,  8-H ) :   0.9113
B(  2-C ,  9-H ) :   0.9423 B(  2-C , 10-H ) :   0.7669 B(  3-C ,  5-C ) :   1.2165
B(  3-C , 11-H ) :   0.9241 B(  3-C , 12-H ) :   0.9383 B(  3-C , 13-H ) :   0.9034
B(  4-C ,  5-C ) :   1.2422 B(  4-C , 14-H ) :   0.5765 B(  4-C , 15-H ) :   0.8784
B(  5-C , 16-H ) :   0.7555 B(  5-C , 17-H ) :   0.8278 B(  6-H ,  7-H ) :  -0.1898

MP2 TOTAL ENERGY:     -235.087646887 Eh
FINAL SINGLE POINT ENERGY      -235.087646886851

DIPOLE MOMENT
-------------
                                X             Y             Z
Electronic contribution:     -2.66413      -1.09161       0.07105
Nuclear contribution   :      2.81727       1.27363      -0.05129
                        -----------------------------------------
Total Dipole Moment    :      0.15314       0.18203       0.01976
                        -----------------------------------------
Magnitude (a.u.)       :      0.23870
Magnitude (Debye)      :      0.60672

Rotational constants in cm-1:     0.231274     0.060724     0.052631
Rotational constants in MHz :  6933.419666  1820.469963  1577.828115

                             ****ORCA TERMINATED NORMALLY****
TOTAL RUN TIME: 0 days 0 hours 0 minutes 44 seconds 55 msec
