                         Program Version 5.0.3 -  RELEASE  -
|  1> !ri-mp2 aug-cc-pvdz aug-cc-pvdz/c tightscf
|  2> %pal nprocs 16 end
|  3>
|  4> * xyz 0 1
|  5> N     -1.176140    0.295001        0.000000
|  6> C      0.000000    0.900809        0.000000
|  7> C      1.223975    0.226351        0.000000
|  8> C      1.190077   -1.154667        0.000000
|  9> C     -0.039417   -1.813282        0.000000
| 10> C     -1.189267   -1.042689        0.000000
| 11> O      0.005822    2.254025        0.000000
| 12> H      2.149101    0.783058        0.000000
| 13> H      2.113772   -1.717700        0.000000
| 14> H     -0.101257   -2.891524        0.000000
| 15> H     -2.168354   -1.506394        0.000000
| 16> H     -0.919060    2.536214        0.000000
| 17> *
| 18>
| 19>                          ****END OF INPUT****

CARTESIAN COORDINATES (ANGSTROEM)
---------------------------------
  N     -1.176140    0.295001    0.000000
  C      0.000000    0.900809    0.000000
  C      1.223975    0.226351    0.000000
  C      1.190077   -1.154667    0.000000
  C     -0.039417   -1.813282    0.000000
  C     -1.189267   -1.042689    0.000000
  O      0.005822    2.254025    0.000000
  H      2.149101    0.783058    0.000000
  H      2.113772   -1.717700    0.000000
  H     -0.101257   -2.891524    0.000000
  H     -2.168354   -1.506394    0.000000
  H     -0.919060    2.536214    0.000000

 Total Charge           Charge          ....    0
 Multiplicity           Mult            ....    1
 Number of Electrons    NEL             ....   50
 Basis Dimension        Dim             ....  206

ORBITAL ENERGIES
----------------

  NO   OCC          E(Eh)            E(eV)
   0   2.0000     -20.605164      -560.6950
   1   2.0000     -15.572970      -423.7621
   2   2.0000     -11.348966      -308.8211
   3   2.0000     -11.289207      -307.1949
   4   2.0000     -11.270424      -306.6838
   5   2.0000     -11.244543      -305.9796
   6   2.0000     -11.240463      -305.8685
   7   2.0000      -1.428880       -38.8818
   8   2.0000      -1.260492       -34.2997
   9   2.0000      -1.098031       -29.8789
  10   2.0000      -1.031368       -28.0650
  11   2.0000      -0.881397       -23.9840
  12   2.0000      -0.857655       -23.3380
  13   2.0000      -0.750744       -20.4288
  14   2.0000      -0.709952       -19.3188
  15   2.0000      -0.668470       -18.1900
  16   2.0000      -0.623388       -16.9632
  17   2.0000      -0.612665       -16.6715
  18   2.0000      -0.597395       -16.2559
  19   2.0000      -0.573135       -15.5958
  20   2.0000      -0.535401       -14.5690
  21   2.0000      -0.511517       -13.9191
  22   2.0000      -0.433274       -11.7900
  23   2.0000      -0.391141       -10.6435
  24   2.0000      -0.331508        -9.0208
  25   0.0000       0.032966         0.8970
  26   0.0000       0.041889         1.1399
  27   0.0000       0.043552         1.1851
  28   0.0000       0.058543         1.5930
  29   0.0000       0.063144         1.7182

MULLIKEN ATOMIC CHARGES
-----------------------
   0 N :   -0.557614
   1 C :    0.513823
   2 C :    1.066807
   3 C :   -0.189171
   4 C :    1.038834
   5 C :    0.313758
   6 O :   -0.796437
   7 H :   -0.439160
   8 H :   -0.389576
   9 H :   -0.421970
  10 H :   -0.321518
  11 H :    0.182224
Sum of atomic charges:   -0.0000000

LOEWDIN ATOMIC CHARGES
----------------------
   0 N :    0.052727
   1 C :   -0.280587
   2 C :    0.058763
   3 C :    0.019290
   4 C :    0.005265
   5 C :   -0.028391
   6 O :    0.195746
   7 H :    0.004655
   8 H :    0.009915
   9 H :   -0.006689
  10 H :    0.002933
  11 H :   -0.033627

  Mayer bond orders larger than 0.100000
B(  0-N ,  1-C ) :   1.3776 B(  0-N ,  5-C ) :   1.1069 B(  0-N , 10-H ) :  -0.1158
B(  1-C ,  2-C ) :   0.7820 B(  1-C ,  3-C ) :   0.4196 B(  1-C ,  4-C ) :  -0.1945
B(  1-C ,  5-C ) :   0.3399 B(  1-C ,  6-O ) :   0.2130 B(  1-C ,  7-H ) :   0.1832
B(  2-C ,  3-C ) :   1.4946 B(  2-C ,  4-C ) :   0.1231 B(  2-C ,  5-C ) :  -0.2076
B(  2-C ,  7-H ) :   0.3320 B(  3-C ,  4-C ) :   1.3646 B(  3-C ,  5-C ) :   0.3815
B(  3-C ,  7-H ) :   0.2776 B(  3-C ,  8-H ) :   0.6512 B(  3-C ,  9-H ) :   0.2299
B(  4-C ,  5-C ) :   1.1115 B(  4-C ,  9-H ) :   0.4889 B(  5-C , 10-H ) :   0.9541
B(  6-O , 11-H ) :   1.0177

MP2 TOTAL ENERGY:     -322.646304959 Eh
FINAL SINGLE POINT ENERGY      -322.646304958684

DIPOLE MOMENT
-------------
                                X             Y             Z
Electronic contribution:     -0.85137       2.15754      -0.00000
Nuclear contribution   :      1.05395      -2.72434       0.00000
                        -----------------------------------------
Total Dipole Moment    :      0.20258      -0.56680      -0.00000
                        -----------------------------------------
Magnitude (a.u.)       :      0.60191
Magnitude (Debye)      :      1.52994

Rotational constants in cm-1:     0.195890     0.092512     0.062836
Rotational constants in MHz :  5872.636094  2773.429428  1883.786529

                             ****ORCA TERMINATED NORMALLY****
TOTAL RUN TIME: 0 days 0 hours 0 minutes 34 seconds 735 msec
