                         Program Version 5.0.3 -  RELEASE  -
|  1> !ri-mp2 aug-cc-pvdz aug-cc-pvdz/c tightscf
|  2> %pal nprocs 16 end
|  3>
|  4> * xyz 0 1
|  5> Cl     0.000000    0.000000    2.618722
|  6> F      0.000000    0.000000   -3.087327
|  7> N      0.000000    1.187499    0.290904
|  8> N      0.000000   -1.187499    0.290904
|  9> C      0.000000    0.000000    0.875246
| 10> C      0.000000    0.000000   -1.745780
| 11> C      0.000000    1.189332   -1.040282
| 12> C      0.000000   -1.189332   -1.040282
| 13> H      0.000000    2.145496   -1.549203
| 14> H      0.000000   -2.145496   -1.549203
| 15> *
| 16>
| 17>                          ****END OF INPUT****

CARTESIAN COORDINATES (ANGSTROEM)
---------------------------------
  Cl     0.000000    0.000000    2.618722
  F      0.000000    0.000000   -3.087327
  N      0.000000    1.187499    0.290904
  N      0.000000   -1.187499    0.290904
  C      0.000000    0.000000    0.875246
  C      0.000000    0.000000   -1.745780
  C      0.000000    1.189332   -1.040282
  C      0.000000   -1.189332   -1.040282
  H      0.000000    2.145496   -1.549203
  H      0.000000   -2.145496   -1.549203

 Total Charge           Charge          ....    0
 Multiplicity           Mult            ....    1
 Number of Electrons    NEL             ....   66
 Basis Dimension        Dim             ....  206

ORBITAL ENERGIES
----------------

  NO   OCC          E(Eh)            E(eV)
   0   2.0000    -104.851419     -2853.1522
   1   2.0000     -26.357611      -717.2270
   2   2.0000     -15.617490      -424.9735
   3   2.0000     -15.617458      -424.9726
   4   2.0000     -11.399206      -310.1882
   5   2.0000     -11.365004      -309.2575
   6   2.0000     -11.336632      -308.4854
   7   2.0000     -11.336597      -308.4845
   8   2.0000     -10.577915      -287.8397
   9   2.0000      -8.045714      -218.9350
  10   2.0000      -8.042174      -218.8387
  11   2.0000      -8.042045      -218.8352
  12   2.0000      -1.667912       -45.3862
  13   2.0000      -1.365691       -37.1623
  14   2.0000      -1.240607       -33.7586
  15   2.0000      -1.162174       -31.6244
  16   2.0000      -1.073411       -29.2090
  17   2.0000      -0.952556       -25.9204
  18   2.0000      -0.902046       -24.5459
  19   2.0000      -0.786865       -21.4117
  20   2.0000      -0.784526       -21.3480
  21   2.0000      -0.731126       -19.8950
  22   2.0000      -0.725988       -19.7552
  23   2.0000      -0.673912       -18.3381
  24   2.0000      -0.630817       -17.1654
  25   2.0000      -0.623661       -16.9707
  26   2.0000      -0.605910       -16.4876
  27   2.0000      -0.521273       -14.1846
  28   2.0000      -0.492141       -13.3918
  29   2.0000      -0.474500       -12.9118
  30   2.0000      -0.457697       -12.4546
  31   2.0000      -0.442782       -12.0487
  32   2.0000      -0.382052       -10.3962
  33   0.0000       0.032150         0.8749
  34   0.0000       0.039463         1.0738
  35   0.0000       0.053185         1.4472
  36   0.0000       0.071871         1.9557
  37   0.0000       0.079543         2.1645

MULLIKEN ATOMIC CHARGES
-----------------------
   0 Cl:    0.006535
   1 F :   -0.750755
   2 N :   -0.536615
   3 N :   -0.536615
   4 C :   -0.099496
   5 C :    0.890723
   6 C :    0.768809
   7 C :    0.768809
   8 H :   -0.255698
   9 H :   -0.255698
Sum of atomic charges:   -0.0000000

LOEWDIN ATOMIC CHARGES
----------------------
   0 Cl:    0.585084
   1 F :    0.070895
   2 N :    0.015298
   3 N :    0.015298
   4 C :   -0.635209
   5 C :   -0.174385
   6 C :    0.039105
   7 C :    0.039105
   8 H :    0.022404
   9 H :    0.022404

  Mayer bond orders larger than 0.100000
B(  0-Cl,  2-N ) :  -0.1408 B(  0-Cl,  3-N ) :  -0.1408 B(  0-Cl,  4-C ) :   1.3682
B(  1-F ,  5-C ) :  -0.2210 B(  1-F ,  6-C ) :   0.2233 B(  1-F ,  7-C ) :   0.2233
B(  2-N ,  4-C ) :   1.3412 B(  2-N ,  6-C ) :   1.1720 B(  3-N ,  4-C ) :   1.3412
B(  3-N ,  7-C ) :   1.1720 B(  4-C ,  6-C ) :  -0.2552 B(  4-C ,  7-C ) :  -0.2552
B(  5-C ,  6-C ) :   1.3997 B(  5-C ,  7-C ) :   1.3997 B(  6-C ,  7-C ) :   0.2500
B(  6-C ,  8-H ) :   0.7832 B(  7-C ,  9-H ) :   0.7832

MP2 TOTAL ENERGY:     -821.706641775 Eh
FINAL SINGLE POINT ENERGY      -821.706641774931

DIPOLE MOMENT
-------------
                                X             Y             Z
Electronic contribution:     -0.00000      -0.00000       2.61062
Nuclear contribution   :      0.00000       0.00000      -3.54716
                        -----------------------------------------
Total Dipole Moment    :     -0.00000      -0.00000      -0.93654
                        -----------------------------------------
Magnitude (a.u.)       :      0.93654
Magnitude (Debye)      :      2.38048

Rotational constants in cm-1:     0.203685     0.033507     0.028773
Rotational constants in MHz :  6106.317471  1004.504600   862.604060

                             ****ORCA TERMINATED NORMALLY****
TOTAL RUN TIME: 0 days 0 hours 0 minutes 46 seconds 960 msec
