                         Program Version 5.0.3 -  RELEASE  -
|  1> !ri-mp2 aug-cc-pvdz aug-cc-pvdz/c tightscf
|  2> %pal nprocs 16 end
|  3>
|  4> * xyz 0 1
|  5> S      0.406791    0.942610    0.784578
|  6> S     -0.406791   -0.942610    0.784578
|  7> N      0.183607    4.290300   -0.635604
|  8> N     -0.183607   -4.290300   -0.635604
|  9> C     -0.625549    1.822703   -0.494613
| 10> C      0.625549   -1.822703   -0.494613
| 11> C     -0.183607    3.202009   -0.580957
| 12> C      0.183607   -3.202009   -0.580957
| 13> H     -0.505885    1.334775   -1.459501
| 14> H     -1.669096    1.778086   -0.191095
| 15> H      0.505885   -1.334775   -1.459501
| 16> H      1.669096   -1.778086   -0.191095
| 17> *
| 18>
| 19>                          ****END OF INPUT****

CARTESIAN COORDINATES (ANGSTROEM)
---------------------------------
  S      0.406791    0.942610    0.784578
  S     -0.406791   -0.942610    0.784578
  N      0.183607    4.290300   -0.635604
  N     -0.183607   -4.290300   -0.635604
  C     -0.625549    1.822703   -0.494613
  C      0.625549   -1.822703   -0.494613
  C     -0.183607    3.202009   -0.580957
  C      0.183607   -3.202009   -0.580957
  H     -0.505885    1.334775   -1.459501
  H     -1.669096    1.778086   -0.191095
  H      0.505885   -1.334775   -1.459501
  H      1.669096   -1.778086   -0.191095

 Total Charge           Charge          ....    0
 Multiplicity           Mult            ....    1
 Number of Electrons    NEL             ....   74
 Basis Dimension        Dim             ....  228

ORBITAL ENERGIES
----------------

  NO   OCC          E(Eh)            E(eV)
   0   2.0000     -92.030688     -2504.2823
   1   2.0000     -92.030686     -2504.2823
   2   2.0000     -15.608924      -424.7404
   3   2.0000     -15.608924      -424.7404
   4   2.0000     -11.347218      -308.7735
   5   2.0000     -11.347218      -308.7735
   6   2.0000     -11.310224      -307.7668
   7   2.0000     -11.310224      -307.7668
   8   2.0000      -9.029902      -245.7161
   9   2.0000      -9.029735      -245.7116
  10   2.0000      -6.711641      -182.6330
  11   2.0000      -6.711321      -182.6243
  12   2.0000      -6.709746      -182.5815
  13   2.0000      -6.709668      -182.5793
  14   2.0000      -6.707446      -182.5189
  15   2.0000      -6.707445      -182.5189
  16   2.0000      -1.254025       -34.1238
  17   2.0000      -1.253531       -34.1103
  18   2.0000      -1.143635       -31.1199
  19   2.0000      -1.093664       -29.7601
  20   2.0000      -1.002866       -27.2894
  21   2.0000      -0.861993       -23.4560
  22   2.0000      -0.734162       -19.9776
  23   2.0000      -0.732054       -19.9202
  24   2.0000      -0.680064       -18.5055
  25   2.0000      -0.675789       -18.3891
  26   2.0000      -0.622065       -16.9272
  27   2.0000      -0.581821       -15.8321
  28   2.0000      -0.579801       -15.7772
  29   2.0000      -0.565791       -15.3960
  30   2.0000      -0.498243       -13.5579
  31   2.0000      -0.492382       -13.3984
  32   2.0000      -0.487767       -13.2728
  33   2.0000      -0.484020       -13.1709
  34   2.0000      -0.482943       -13.1415
  35   2.0000      -0.403652       -10.9839
  36   2.0000      -0.403444       -10.9783
  37   0.0000       0.022590         0.6147
  38   0.0000       0.035236         0.9588
  39   0.0000       0.042598         1.1592
  40   0.0000       0.052540         1.4297
  41   0.0000       0.067065         1.8249

MULLIKEN ATOMIC CHARGES
-----------------------
   0 S :    0.161834
   1 S :    0.161834
   2 N :   -0.252233
   3 N :   -0.252233
   4 C :    0.337123
   5 C :    0.337123
   6 C :   -0.322174
   7 C :   -0.322174
   8 H :    0.014165
   9 H :    0.061285
  10 H :    0.014165
  11 H :    0.061285
Sum of atomic charges:   -0.0000000

LOEWDIN ATOMIC CHARGES
----------------------
   0 S :    0.518665
   1 S :    0.518665
   2 N :    0.080704
   3 N :    0.080704
   4 C :   -0.316794
   5 C :   -0.316794
   6 C :   -0.230684
   7 C :   -0.230684
   8 H :   -0.028247
   9 H :   -0.023644
  10 H :   -0.028247
  11 H :   -0.023644

  Mayer bond orders larger than 0.100000
B(  0-S ,  1-S ) :   1.2245 B(  0-S ,  4-C ) :   0.9984 B(  0-S ,  5-C ) :  -0.1293
B(  1-S ,  4-C ) :  -0.1293 B(  1-S ,  5-C ) :   0.9984 B(  2-N ,  6-C ) :   2.7000
B(  3-N ,  7-C ) :   2.7000 B(  4-C ,  6-C ) :   0.7358 B(  4-C ,  8-H ) :   0.9377
B(  4-C ,  9-H ) :   0.9441 B(  5-C ,  7-C ) :   0.7358 B(  5-C , 10-H ) :   0.9377
B(  5-C , 11-H ) :   0.9441

MP2 TOTAL ENERGY:    -1058.911618574 Eh
FINAL SINGLE POINT ENERGY     -1058.911618574314

DIPOLE MOMENT
-------------
                                X             Y             Z
Electronic contribution:     -0.00000      -0.00000       2.79743
Nuclear contribution   :     -0.00000       0.00000      -3.23526
                        -----------------------------------------
Total Dipole Moment    :     -0.00000      -0.00000      -0.43783
                        -----------------------------------------
Magnitude (a.u.)       :      0.43783
Magnitude (Debye)      :      1.11288

Rotational constants in cm-1:     0.173872     0.017999     0.017241
Rotational constants in MHz :  5212.560601   539.601031   516.879569

                             ****ORCA TERMINATED NORMALLY****
TOTAL RUN TIME: 0 days 0 hours 0 minutes 51 seconds 445 msec
