                         Program Version 5.0.3 -  RELEASE  -
|  1> !ri-mp2 aug-cc-pvdz aug-cc-pvdz/c tightscf
|  2> %pal nprocs 16 end
|  3>
|  4> * xyz 0 1
|  5> O      3.378898   -1.121353    0.151039
|  6> O     -3.378897   -1.121355    0.151039
|  7> N      0.000000    0.726298   -0.101503
|  8> C      1.173373    0.061418   -0.031423
|  9> C     -1.173373    0.061419   -0.031423
| 10> C      2.234557   -0.498966   -0.039656
| 11> C     -2.234557   -0.498966   -0.039656
| 12> C      0.000000    2.188036    0.049856
| 13> H      3.788790   -1.339293   -0.695372
| 14> H     -3.788797   -1.339280   -0.695372
| 15> H     -0.000002    2.478463    1.103218
| 16> H      0.888064    2.590021   -0.432378
| 17> H     -0.888061    2.590022   -0.432382
| 18> *
| 19>
| 20>                          ****END OF INPUT****

CARTESIAN COORDINATES (ANGSTROEM)
---------------------------------
  O      3.378898   -1.121353    0.151039
  O     -3.378897   -1.121355    0.151039
  N      0.000000    0.726298   -0.101503
  C      1.173373    0.061418   -0.031423
  C     -1.173373    0.061419   -0.031423
  C      2.234557   -0.498966   -0.039656
  C     -2.234557   -0.498966   -0.039656
  C      0.000000    2.188036    0.049856
  H      3.788790   -1.339293   -0.695372
  H     -3.788797   -1.339280   -0.695372
  H     -0.000002    2.478463    1.103218
  H      0.888064    2.590021   -0.432378
  H     -0.888061    2.590022   -0.432382

 Total Charge           Charge          ....    0
 Multiplicity           Mult            ....    1
 Number of Electrons    NEL             ....   58
 Basis Dimension        Dim             ....  229

ORBITAL ENERGIES
----------------

  NO   OCC          E(Eh)            E(eV)
   0   2.0000     -20.635512      -561.5208
   1   2.0000     -20.635510      -561.5208
   2   2.0000     -15.626216      -425.2110
   3   2.0000     -11.287643      -307.1524
   4   2.0000     -11.287643      -307.1524
   5   2.0000     -11.276106      -306.8385
   6   2.0000     -11.262588      -306.4706
   7   2.0000     -11.262573      -306.4702
   8   2.0000      -1.438083       -39.1322
   9   2.0000      -1.438041       -39.1311
  10   2.0000      -1.286952       -35.0198
  11   2.0000      -1.032112       -28.0852
  12   2.0000      -1.012064       -27.5397
  13   2.0000      -0.944274       -25.6950
  14   2.0000      -0.830885       -22.6095
  15   2.0000      -0.797947       -21.7132
  16   2.0000      -0.768895       -20.9227
  17   2.0000      -0.670337       -18.2408
  18   2.0000      -0.658814       -17.9273
  19   2.0000      -0.657781       -17.8991
  20   2.0000      -0.632867       -17.2212
  21   2.0000      -0.607458       -16.5298
  22   2.0000      -0.605333       -16.4719
  23   2.0000      -0.569776       -15.5044
  24   2.0000      -0.512393       -13.9429
  25   2.0000      -0.397904       -10.8275
  26   2.0000      -0.382921       -10.4198
  27   2.0000      -0.361456        -9.8357
  28   2.0000      -0.306556        -8.3418
  29   0.0000       0.029234         0.7955
  30   0.0000       0.034203         0.9307
  31   0.0000       0.043057         1.1716
  32   0.0000       0.059540         1.6202
  33   0.0000       0.063755         1.7349

MULLIKEN ATOMIC CHARGES
-----------------------
   0 O :   -0.620289
   1 O :   -0.620289
   2 N :   -0.101226
   3 C :   -0.060556
   4 C :   -0.060562
   5 C :    0.367607
   6 C :    0.367608
   7 C :    0.739360
   8 H :    0.186728
   9 H :    0.186729
  10 H :   -0.047254
  11 H :   -0.168927
  12 H :   -0.168927
Sum of atomic charges:    0.0000000

LOEWDIN ATOMIC CHARGES
----------------------
   0 O :    0.178248
   1 O :    0.178248
   2 N :   -0.189996
   3 C :   -0.061692
   4 C :   -0.061692
   5 C :   -0.091535
   6 C :   -0.091535
   7 C :    0.214668
   8 H :   -0.026426
   9 H :   -0.026426
  10 H :   -0.004114
  11 H :   -0.008874
  12 H :   -0.008874

  Mayer bond orders larger than 0.100000
B(  0-O ,  5-C ) :   0.6661 B(  0-O ,  8-H ) :   1.0126 B(  1-O ,  6-C ) :   0.6661
B(  1-O ,  9-H ) :   1.0126 B(  2-N ,  3-C ) :   1.0021 B(  2-N ,  4-C ) :   1.0021
B(  2-N ,  5-C ) :  -0.2078 B(  2-N ,  6-C ) :  -0.2078 B(  2-N ,  7-C ) :   0.6844
B(  3-C ,  4-C ) :   0.1234 B(  3-C ,  5-C ) :   2.3037 B(  3-C , 11-H ) :   0.2391
B(  4-C ,  6-C ) :   2.3037 B(  4-C , 12-H ) :   0.2391 B(  7-C , 10-H ) :   0.9345
B(  7-C , 11-H ) :   0.9814 B(  7-C , 12-H ) :   0.9814 B( 11-H , 12-H ) :  -0.1161

MP2 TOTAL ENERGY:     -397.491437065 Eh
FINAL SINGLE POINT ENERGY      -397.491437065495

DIPOLE MOMENT
-------------
                                X             Y             Z
Electronic contribution:      0.00000      -4.52796       0.06234
Nuclear contribution   :     -0.00001       4.85210      -1.12568
                        -----------------------------------------
Total Dipole Moment    :     -0.00000       0.32414      -1.06334
                        -----------------------------------------
Magnitude (a.u.)       :      1.11165
Magnitude (Debye)      :      2.82558

Rotational constants in cm-1:     0.122294     0.030519     0.024674
Rotational constants in MHz :  3666.296851   914.941116   739.699669

                             ****ORCA TERMINATED NORMALLY****
TOTAL RUN TIME: 0 days 0 hours 0 minutes 44 seconds 681 msec
