                         Program Version 5.0.3 -  RELEASE  -
|  1> !ri-mp2 aug-cc-pvdz aug-cc-pvdz/c tightscf
|  2> %pal nprocs 16 end
|  3>
|  4> * xyz 0 1
|  5> C      0.997463    1.325679    0.022163
|  6> H      0.373584    1.884891   -0.678759
|  7> H      2.034359    1.430874   -0.293345
|  8> H      0.884792    1.810232    0.996291
|  9> C     -1.914097    0.084632   -0.392799
| 10> H     -1.882388    1.165754   -0.529981
| 11> H     -2.902148   -0.167486   -0.005719
| 12> H     -1.807245   -0.381100   -1.373424
| 13> C     -0.819378   -0.403315    0.566621
| 14> H     -0.933041   -1.477083    0.723891
| 15> H     -0.969525    0.073773    1.541238
| 16> C      0.586621   -0.119984    0.095100
| 17> C      1.423162   -1.102883   -0.231347
| 18> H      1.127074   -2.142429   -0.169432
| 19> H      2.431914   -0.902201   -0.569192
| 20> *
| 21>
| 22>                          ****END OF INPUT****

CARTESIAN COORDINATES (ANGSTROEM)
---------------------------------
  C      0.997463    1.325679    0.022163
  H      0.373584    1.884891   -0.678759
  H      2.034359    1.430874   -0.293345
  H      0.884792    1.810232    0.996291
  C     -1.914097    0.084632   -0.392799
  H     -1.882388    1.165754   -0.529981
  H     -2.902148   -0.167486   -0.005719
  H     -1.807245   -0.381100   -1.373424
  C     -0.819378   -0.403315    0.566621
  H     -0.933041   -1.477083    0.723891
  H     -0.969525    0.073773    1.541238
  C      0.586621   -0.119984    0.095100
  C      1.423162   -1.102883   -0.231347
  H      1.127074   -2.142429   -0.169432
  H      2.431914   -0.902201   -0.569192

 Total Charge           Charge          ....    0
 Multiplicity           Mult            ....    1
 Number of Electrons    NEL             ....   40
 Basis Dimension        Dim             ....  205

ORBITAL ENERGIES
----------------

  NO   OCC          E(Eh)            E(eV)
   0   2.0000     -11.240349      -305.8654
   1   2.0000     -11.229187      -305.5617
   2   2.0000     -11.224643      -305.4381
   3   2.0000     -11.221586      -305.3549
   4   2.0000     -11.214054      -305.1499
   5   2.0000      -1.099495       -29.9188
   6   2.0000      -0.999899       -27.2086
   7   2.0000      -0.933261       -25.3953
   8   2.0000      -0.855085       -23.2681
   9   2.0000      -0.715866       -19.4797
  10   2.0000      -0.627392       -17.0722
  11   2.0000      -0.625716       -17.0266
  12   2.0000      -0.583490       -15.8776
  13   2.0000      -0.564087       -15.3496
  14   2.0000      -0.541302       -14.7296
  15   2.0000      -0.514636       -14.0040
  16   2.0000      -0.509570       -13.8661
  17   2.0000      -0.480578       -13.0772
  18   2.0000      -0.463404       -12.6099
  19   2.0000      -0.345922        -9.4130
  20   0.0000       0.036969         1.0060
  21   0.0000       0.044640         1.2147
  22   0.0000       0.046833         1.2744
  23   0.0000       0.050823         1.3830
  24   0.0000       0.062781         1.7084

MULLIKEN ATOMIC CHARGES
-----------------------
   0 C :    0.238529
   1 H :    0.008303
   2 H :   -0.163599
   3 H :    0.041836
   4 C :    0.394345
   5 H :   -0.122556
   6 H :   -0.088540
   7 H :   -0.097556
   8 C :    0.249452
   9 H :   -0.175397
  10 H :   -0.089415
  11 C :   -0.425499
  12 C :    1.028274
  13 H :   -0.393991
  14 H :   -0.404186
Sum of atomic charges:   -0.0000000

LOEWDIN ATOMIC CHARGES
----------------------
   0 C :    0.163165
   1 H :   -0.017186
   2 H :   -0.015163
   3 H :   -0.007207
   4 C :    0.141911
   5 H :   -0.027558
   6 H :   -0.020021
   7 H :   -0.014546
   8 C :   -0.041978
   9 H :    0.010993
  10 H :    0.016719
  11 C :   -0.296659
  12 C :    0.189615
  13 H :   -0.040297
  14 H :   -0.041787

  Mayer bond orders larger than 0.100000
B(  0-C ,  1-H ) :   0.9455 B(  0-C ,  2-H ) :   0.7881 B(  0-C ,  3-H ) :   0.9056
B(  0-C ,  8-C ) :  -0.1770 B(  0-C , 11-C ) :   1.3224 B(  0-C , 12-C ) :  -0.1600
B(  2-H , 11-C ) :   0.1629 B(  4-C ,  5-H ) :   0.9417 B(  4-C ,  6-H ) :   0.9005
B(  4-C ,  7-H ) :   0.9628 B(  4-C ,  8-C ) :   1.1811 B(  8-C ,  9-H ) :   0.6766
B(  8-C , 10-H ) :   0.8829 B(  8-C , 11-C ) :   1.1629 B(  9-H , 11-C ) :   0.1703
B( 11-C , 12-C ) :   1.9362 B( 11-C , 13-H ) :   0.3191 B( 11-C , 14-H ) :   0.2964
B( 12-C , 13-H ) :   0.4831 B( 12-C , 14-H ) :   0.4881 B( 13-H , 14-H ) :  -0.1818

MP2 TOTAL ENERGY:     -195.899577371 Eh
FINAL SINGLE POINT ENERGY      -195.899577370932

DIPOLE MOMENT
-------------
                                X             Y             Z
Electronic contribution:      1.60121      -1.22936       0.43867
Nuclear contribution   :     -1.75945       1.38734      -0.38392
                        -----------------------------------------
Total Dipole Moment    :     -0.15824       0.15798       0.05475
                        -----------------------------------------
Magnitude (a.u.)       :      0.23020
Magnitude (Debye)      :      0.58513

Rotational constants in cm-1:     0.242488     0.124452     0.094697
Rotational constants in MHz :  7269.612822  3730.987331  2838.948515

                             ****ORCA TERMINATED NORMALLY****
TOTAL RUN TIME: 0 days 0 hours 0 minutes 34 seconds 994 msec
