                         Program Version 5.0.3 -  RELEASE  -
|  1> !ri-mp2 aug-cc-pvdz aug-cc-pvdz/c tightscf
|  2> %pal nprocs 16 end
|  3>
|  4> * xyz 0 1
|  5> C     -1.465797    0.872297    0.156005
|  6> C     -1.620855   -0.609455    0.335459
|  7> C     -0.276897    1.302884   -0.242595
|  8> C     -0.393911   -1.261059   -0.306555
|  9> O      1.765599   -0.030829    0.858773
| 10> S      0.967718    0.002094   -0.419379
| 11> H     -2.288404    1.542755    0.376595
| 12> H     -1.699412   -0.844109    1.400319
| 13> H     -2.540491   -0.970774   -0.129233
| 14> H      0.033910    2.327308   -0.379703
| 15> H      0.024673   -2.096585    0.248885
| 16> H     -0.593786   -1.573461   -1.330850
| 17> *
| 18>
| 19>                          ****END OF INPUT****

CARTESIAN COORDINATES (ANGSTROEM)
---------------------------------
  C     -1.465797    0.872297    0.156005
  C     -1.620855   -0.609455    0.335459
  C     -0.276897    1.302884   -0.242595
  C     -0.393911   -1.261059   -0.306555
  O      1.765599   -0.030829    0.858773
  S      0.967718    0.002094   -0.419379
  H     -2.288404    1.542755    0.376595
  H     -1.699412   -0.844109    1.400319
  H     -2.540491   -0.970774   -0.129233
  H      0.033910    2.327308   -0.379703
  H      0.024673   -2.096585    0.248885
  H     -0.593786   -1.573461   -1.330850

 Total Charge           Charge          ....    0
 Multiplicity           Mult            ....    1
 Number of Electrons    NEL             ....   54
 Basis Dimension        Dim             ....  196

ORBITAL ENERGIES
----------------

  NO   OCC          E(Eh)            E(eV)
   0   2.0000     -92.076273     -2505.5228
   1   2.0000     -20.510387      -558.1160
   2   2.0000     -11.277776      -306.8839
   3   2.0000     -11.277133      -306.8664
   4   2.0000     -11.270506      -306.6861
   5   2.0000     -11.266438      -306.5754
   6   2.0000      -9.064478      -246.6570
   7   2.0000      -6.746700      -183.5870
   8   2.0000      -6.745932      -183.5662
   9   2.0000      -6.743996      -183.5135
  10   2.0000      -1.331222       -36.2244
  11   2.0000      -1.150504       -31.3068
  12   2.0000      -1.013610       -27.5817
  13   2.0000      -0.973163       -26.4811
  14   2.0000      -0.819574       -22.3018
  15   2.0000      -0.764323       -20.7983
  16   2.0000      -0.698505       -19.0073
  17   2.0000      -0.661228       -17.9929
  18   2.0000      -0.589279       -16.0351
  19   2.0000      -0.564304       -15.3555
  20   2.0000      -0.558545       -15.1988
  21   2.0000      -0.551180       -14.9984
  22   2.0000      -0.533137       -14.5074
  23   2.0000      -0.524145       -14.2627
  24   2.0000      -0.409531       -11.1439
  25   2.0000      -0.391989       -10.6666
  26   2.0000      -0.364182        -9.9099
  27   0.0000       0.028130         0.7655
  28   0.0000       0.040923         1.1136
  29   0.0000       0.044840         1.2201
  30   0.0000       0.052427         1.4266
  31   0.0000       0.060742         1.6529

MULLIKEN ATOMIC CHARGES
-----------------------
   0 C :    0.238768
   1 C :    0.095808
   2 C :    0.044577
   3 C :    0.080811
   4 O :   -1.147809
   5 S :    1.393250
   6 H :   -0.282876
   7 H :   -0.015506
   8 H :   -0.017088
   9 H :   -0.330300
  10 H :   -0.038095
  11 H :   -0.021540
Sum of atomic charges:   -0.0000000

LOEWDIN ATOMIC CHARGES
----------------------
   0 C :   -0.054554
   1 C :   -0.062791
   2 C :   -0.153723
   3 C :   -0.128140
   4 O :   -0.573365
   5 S :    1.012845
   6 H :    0.004876
   7 H :    0.020892
   8 H :    0.015756
   9 H :   -0.044780
  10 H :   -0.015740
  11 H :   -0.021278

  Mayer bond orders larger than 0.100000
B(  0-C ,  1-C ) :   1.2648 B(  0-C ,  2-C ) :   2.3149 B(  0-C ,  4-O ) :  -0.1053
B(  0-C ,  6-H ) :   0.8071 B(  0-C ,  9-H ) :   0.2165 B(  1-C ,  3-C ) :   1.2502
B(  1-C ,  4-O ) :   0.1005 B(  1-C ,  7-H ) :   0.7975 B(  1-C ,  8-H ) :   0.7734
B(  1-C , 11-H ) :   0.1237 B(  2-C ,  4-O ) :   0.1704 B(  2-C ,  5-S ) :   0.7527
B(  2-C ,  9-H ) :   0.7744 B(  3-C ,  5-S ) :   1.0177 B(  3-C , 10-H ) :   0.8709
B(  3-C , 11-H ) :   0.8780 B(  4-O ,  5-S ) :   0.8587 B(  5-S ,  9-H ) :  -0.1348
B(  5-S , 11-H ) :  -0.1099

MP2 TOTAL ENERGY:     -628.212732507 Eh
FINAL SINGLE POINT ENERGY      -628.212732506559

DIPOLE MOMENT
-------------
                                X             Y             Z
Electronic contribution:      5.14050       1.50429      -1.00879
Nuclear contribution   :     -7.01470      -1.60379       0.21096
                        -----------------------------------------
Total Dipole Moment    :     -1.87420      -0.09951      -0.79783
                        -----------------------------------------
Magnitude (a.u.)       :      2.03937
Magnitude (Debye)      :      5.18368

Rotational constants in cm-1:     0.178347     0.093819     0.075196
Rotational constants in MHz :  5346.696494  2812.608039  2254.328138

                             ****ORCA TERMINATED NORMALLY****
TOTAL RUN TIME: 0 days 0 hours 0 minutes 39 seconds 579 msec
