                         Program Version 5.0.3 -  RELEASE  -
|  1> !ri-mp2 aug-cc-pvdz aug-cc-pvdz/c tightscf
|  2> %pal nprocs 16 end
|  3>
|  4> * xyz 0 1
|  5> C     0.941514   -0.098483   -0.014842
|  6> C    -1.781018   -0.019406    0.390258
|  7> C    -1.091888   -1.260357   -0.181491
|  8> C    -1.137073    1.235394   -0.190517
|  9> C     2.440033   -0.025730    0.105285
| 10> N     0.363471   -1.238193   -0.066973
| 11> N     0.305683    1.121283   -0.051204
| 12> H    -2.849215   -0.030386    0.168731
| 13> H    -1.669794   -0.010999    1.476831
| 14> H    -1.454663   -2.156545    0.325164
| 15> H    -1.359693   -1.380641   -1.237877
| 16> H    -1.420985    1.347734   -1.243241
| 17> H    -1.475506    2.129505    0.335358
| 18> H     2.734140    0.509347    1.011023
| 19> H     2.874653    0.500871   -0.747674
| 20> H     2.842634   -1.033035    0.140948
| 21> H     0.864952    1.954010   -0.054174
| 22> *
| 23>
| 24>                          ****END OF INPUT****

CARTESIAN COORDINATES (ANGSTROEM)
---------------------------------
  C      0.941514   -0.098483   -0.014842
  C     -1.781018   -0.019406    0.390258
  C     -1.091888   -1.260357   -0.181491
  C     -1.137073    1.235394   -0.190517
  C      2.440033   -0.025730    0.105285
  N      0.363471   -1.238193   -0.066973
  N      0.305683    1.121283   -0.051204
  H     -2.849215   -0.030386    0.168731
  H     -1.669794   -0.010999    1.476831
  H     -1.454663   -2.156545    0.325164
  H     -1.359693   -1.380641   -1.237877
  H     -1.420985    1.347734   -1.243241
  H     -1.475506    2.129505    0.335358
  H      2.734140    0.509347    1.011023
  H      2.874653    0.500871   -0.747674
  H      2.842634   -1.033035    0.140948
  H      0.864952    1.954010   -0.054174

 Total Charge           Charge          ....    0
 Multiplicity           Mult            ....    1
 Number of Electrons    NEL             ....   54
 Basis Dimension        Dim             ....  251

ORBITAL ENERGIES
----------------

  NO   OCC          E(Eh)            E(eV)
   0   2.0000     -15.575294      -423.8253
   1   2.0000     -15.518525      -422.2805
   2   2.0000     -11.307770      -307.7001
   3   2.0000     -11.268962      -306.6440
   4   2.0000     -11.240777      -305.8771
   5   2.0000     -11.228276      -305.5369
   6   2.0000     -11.225759      -305.4684
   7   2.0000      -1.277694       -34.7678
   8   2.0000      -1.159116       -31.5412
   9   2.0000      -1.063439       -28.9377
  10   2.0000      -0.967727       -26.3332
  11   2.0000      -0.905683       -24.6449
  12   2.0000      -0.836936       -22.7742
  13   2.0000      -0.733867       -19.9695
  14   2.0000      -0.686864       -18.6905
  15   2.0000      -0.643356       -17.5066
  16   2.0000      -0.630166       -17.1477
  17   2.0000      -0.584286       -15.8992
  18   2.0000      -0.578201       -15.7337
  19   2.0000      -0.557263       -15.1639
  20   2.0000      -0.548120       -14.9151
  21   2.0000      -0.530427       -14.4337
  22   2.0000      -0.508098       -13.8260
  23   2.0000      -0.476319       -12.9613
  24   2.0000      -0.439119       -11.9490
  25   2.0000      -0.377651       -10.2764
  26   2.0000      -0.331057        -9.0085
  27   0.0000       0.031021         0.8441
  28   0.0000       0.041584         1.1316
  29   0.0000       0.046422         1.2632
  30   0.0000       0.048391         1.3168
  31   0.0000       0.062802         1.7089

MULLIKEN ATOMIC CHARGES
-----------------------
   0 C :    0.265474
   1 C :    0.151129
   2 C :    0.641776
   3 C :    0.797803
   4 C :    0.639135
   5 N :   -0.728424
   6 N :   -0.611937
   7 H :   -0.066426
   8 H :   -0.166915
   9 H :   -0.185452
  10 H :   -0.151438
  11 H :   -0.168569
  12 H :   -0.174925
  13 H :    0.013337
  14 H :    0.006499
  15 H :   -0.096145
  16 H :   -0.164922
Sum of atomic charges:    0.0000000

LOEWDIN ATOMIC CHARGES
----------------------
   0 C :   -0.315222
   1 C :   -0.012734
   2 C :   -0.057955
   3 C :    0.003633
   4 C :    0.199415
   5 N :    0.035257
   6 N :    0.090341
   7 H :    0.017974
   8 H :    0.020642
   9 H :    0.003834
  10 H :    0.011049
  11 H :    0.016298
  12 H :    0.015839
  13 H :   -0.008875
  14 H :   -0.009709
  15 H :   -0.010634
  16 H :    0.000847

  Mayer bond orders larger than 0.100000
B(  0-C ,  2-C ) :  -0.1756 B(  0-C ,  4-C ) :   1.1245 B(  0-C ,  5-N ) :   1.7846
B(  0-C ,  6-N ) :   0.9071 B(  0-C , 15-H ) :   0.3124 B(  0-C , 16-H ) :  -0.1019
B(  1-C ,  2-C ) :   1.2349 B(  1-C ,  3-C ) :   1.2814 B(  1-C ,  7-H ) :   0.8516
B(  1-C ,  8-H ) :   0.7843 B(  2-C ,  5-N ) :   0.8420 B(  2-C ,  9-H ) :   0.9373
B(  2-C , 10-H ) :   0.8683 B(  3-C ,  6-N ) :   0.8293 B(  3-C , 11-H ) :   0.7623
B(  3-C , 12-H ) :   0.8917 B(  4-C , 13-H ) :   0.8705 B(  4-C , 14-H ) :   0.8992
B(  4-C , 15-H ) :   0.7447 B(  6-N , 16-H ) :   1.1556 B(  7-H ,  8-H ) :  -0.1125

MP2 TOTAL ENERGY:     -305.159507856 Eh
FINAL SINGLE POINT ENERGY      -305.159507856498

DIPOLE MOMENT
-------------
                                X             Y             Z
Electronic contribution:      0.76057      -0.63281      -0.19571
Nuclear contribution   :     -0.93983       1.89006       0.18020
                        -----------------------------------------
Total Dipole Moment    :     -0.17926       1.25725      -0.01551
                        -----------------------------------------
Magnitude (a.u.)       :      1.27005
Magnitude (Debye)      :      3.22822

Rotational constants in cm-1:     0.160430     0.081308     0.057675
Rotational constants in MHz :  4809.583134  2437.566288  1729.063899

                             ****ORCA TERMINATED NORMALLY****
TOTAL RUN TIME: 0 days 0 hours 0 minutes 48 seconds 394 msec
