                         Program Version 5.0.3 -  RELEASE  -
|  1> !ri-mp2 aug-cc-pvdz aug-cc-pvdz/c tightscf
|  2> %pal nprocs 16 end
|  3>
|  4> * xyz 0 1
|  5> C     0.031152     1.911320       0.000000
|  6> C     0.450591     0.488912       0.000000
|  7> C    -0.450591    -0.488912       0.000000
|  8> C    -0.031152    -1.911320       0.000000
|  9> O     1.105518    -2.312587       0.000000
| 10> O    -1.105518     2.312587       0.000000
| 11> O     1.105518     2.733674       0.000000
| 12> O    -1.105518    -2.733674       0.000000
| 13> H     1.509349     0.269845       0.000000
| 14> H    -1.509349    -0.269845       0.000000
| 15> H     0.771942     3.643174       0.000000
| 16> H    -0.771942    -3.643174       0.000000
| 17> *
| 18>
| 19>                          ****END OF INPUT****

CARTESIAN COORDINATES (ANGSTROEM)
---------------------------------
  C      0.031152    1.911320    0.000000
  C      0.450591    0.488912    0.000000
  C     -0.450591   -0.488912    0.000000
  C     -0.031152   -1.911320    0.000000
  O      1.105518   -2.312587    0.000000
  O     -1.105518    2.312587    0.000000
  O      1.105518    2.733674    0.000000
  O     -1.105518   -2.733674    0.000000
  H      1.509349    0.269845    0.000000
  H     -1.509349   -0.269845    0.000000
  H      0.771942    3.643174    0.000000
  H     -0.771942   -3.643174    0.000000

 Total Charge           Charge          ....    0
 Multiplicity           Mult            ....    1
 Number of Electrons    NEL             ....   60
 Basis Dimension        Dim             ....  220

ORBITAL ENERGIES
----------------

  NO   OCC          E(Eh)            E(eV)
   0   2.0000     -20.638981      -561.6152
   1   2.0000     -20.638980      -561.6152
   2   2.0000     -20.578038      -559.9569
   3   2.0000     -20.578037      -559.9569
   4   2.0000     -11.417889      -310.6966
   5   2.0000     -11.417889      -310.6965
   6   2.0000     -11.291168      -307.2483
   7   2.0000     -11.289437      -307.2012
   8   2.0000      -1.487152       -40.4675
   9   2.0000      -1.486308       -40.4445
  10   2.0000      -1.384611       -37.6772
  11   2.0000      -1.384290       -37.6684
  12   2.0000      -1.122427       -30.5428
  13   2.0000      -0.971423       -26.4338
  14   2.0000      -0.869030       -23.6475
  15   2.0000      -0.774200       -21.0671
  16   2.0000      -0.753094       -20.4927
  17   2.0000      -0.726622       -19.7724
  18   2.0000      -0.713289       -19.4096
  19   2.0000      -0.684883       -18.6366
  20   2.0000      -0.653323       -17.7778
  21   2.0000      -0.645070       -17.5532
  22   2.0000      -0.619882       -16.8679
  23   2.0000      -0.613706       -16.6998
  24   2.0000      -0.580795       -15.8042
  25   2.0000      -0.509406       -13.8616
  26   2.0000      -0.502492       -13.6735
  27   2.0000      -0.477067       -12.9817
  28   2.0000      -0.476524       -12.9669
  29   2.0000      -0.419034       -11.4025
  30   0.0000       0.031765         0.8644
  31   0.0000       0.034536         0.9398
  32   0.0000       0.036816         1.0018
  33   0.0000       0.056118         1.5271
  34   0.0000       0.056709         1.5431

MULLIKEN ATOMIC CHARGES
-----------------------
   0 C :    0.775904
   1 C :    0.838795
   2 C :    0.838795
   3 C :    0.775904
   4 O :   -0.743873
   5 O :   -0.743873
   6 O :   -0.741450
   7 O :   -0.741450
   8 H :   -0.397497
   9 H :   -0.397497
  10 H :    0.268120
  11 H :    0.268120
Sum of atomic charges:   -0.0000000

LOEWDIN ATOMIC CHARGES
----------------------
   0 C :   -0.342848
   1 C :    0.091811
   2 C :    0.091811
   3 C :   -0.342848
   4 O :    0.047270
   5 O :    0.047270
   6 O :    0.203387
   7 O :    0.203387
   8 H :    0.015221
   9 H :    0.015221
  10 H :   -0.014842
  11 H :   -0.014842

  Mayer bond orders larger than 0.100000
B(  0-C ,  1-C ) :   0.4254 B(  0-C ,  2-C ) :  -0.1537 B(  0-C ,  3-C ) :   0.1369
B(  0-C ,  5-O ) :   1.4551 B(  0-C ,  6-O ) :   0.4151 B(  1-C ,  2-C ) :   2.2071
B(  1-C ,  3-C ) :  -0.1537 B(  1-C ,  6-O ) :   0.1102 B(  1-C ,  8-H ) :   0.5697
B(  1-C ,  9-H ) :   0.1546 B(  2-C ,  3-C ) :   0.4254 B(  2-C ,  7-O ) :   0.1102
B(  2-C ,  8-H ) :   0.1546 B(  2-C ,  9-H ) :   0.5697 B(  3-C ,  4-O ) :   1.4551
B(  3-C ,  7-O ) :   0.4151 B(  4-O ,  7-O ) :   0.1183 B(  5-O ,  6-O ) :   0.1183
B(  6-O , 10-H ) :   0.9666 B(  7-O , 11-H ) :   0.9666

MP2 TOTAL ENERGY:     -454.652035944 Eh
FINAL SINGLE POINT ENERGY      -454.652035944019

DIPOLE MOMENT
-------------
                                X             Y             Z
Electronic contribution:     -0.00000       0.00000      -0.00000
Nuclear contribution   :      0.00000       0.00000       0.00000
                        -----------------------------------------
Total Dipole Moment    :     -0.00000       0.00000      -0.00000
                        -----------------------------------------
Magnitude (a.u.)       :      0.00000
Magnitude (Debye)      :      0.00000

Rotational constants in cm-1:     0.193483     0.031662     0.027209
Rotational constants in MHz :  5800.481133   949.191847   815.709060

                             ****ORCA TERMINATED NORMALLY****
TOTAL RUN TIME: 0 days 0 hours 0 minutes 45 seconds 329 msec
