                         Program Version 5.0.3 -  RELEASE  -
|  1> !ri-mp2 aug-cc-pvdz aug-cc-pvdz/c tightscf
|  2> %pal nprocs 16 end
|  3>
|  4> * xyz 0 1
|  5> O     1.368073   -0.041927    1.328654
|  6> S     0.744052    0.002026    0.009543
|  7> O     1.597344    0.012383   -1.173724
|  8> C    -0.537812   -1.301973   -0.132311
|  9> C    -1.894471   -0.605338    0.038088
| 10> C    -1.683857    0.887280   -0.028918
| 11> C    -0.438708    1.331798   -0.052416
| 12> H    -0.319494   -2.041155    0.632439
| 13> H    -0.409741   -1.736972   -1.119449
| 14> H    -2.352765   -0.862446    0.995568
| 15> H    -2.595132   -0.923617   -0.735185
| 16> H    -2.540636    1.548631   -0.035815
| 17> H    -0.081319    2.348887   -0.076348
| 18> *
| 19>
| 20>                          ****END OF INPUT****

CARTESIAN COORDINATES (ANGSTROEM)
---------------------------------
  O      1.368073   -0.041927    1.328654
  S      0.744052    0.002026    0.009543
  O      1.597344    0.012383   -1.173724
  C     -0.537812   -1.301973   -0.132311
  C     -1.894471   -0.605338    0.038088
  C     -1.683857    0.887280   -0.028918
  C     -0.438708    1.331798   -0.052416
  H     -0.319494   -2.041155    0.632439
  H     -0.409741   -1.736972   -1.119449
  H     -2.352765   -0.862446    0.995568
  H     -2.595132   -0.923617   -0.735185
  H     -2.540636    1.548631   -0.035815
  H     -0.081319    2.348887   -0.076348

 Total Charge           Charge          ....    0
 Multiplicity           Mult            ....    1
 Number of Electrons    NEL             ....   62
 Basis Dimension        Dim             ....  219

ORBITAL ENERGIES
----------------

  NO   OCC          E(Eh)            E(eV)
   0   2.0000     -92.197507     -2508.8217
   1   2.0000     -20.551294      -559.2291
   2   2.0000     -20.550587      -559.2099
   3   2.0000     -11.296455      -307.3922
   4   2.0000     -11.291015      -307.2441
   5   2.0000     -11.285969      -307.1068
   6   2.0000     -11.285156      -307.0847
   7   2.0000      -9.170458      -249.5408
   8   2.0000      -6.855595      -186.5502
   9   2.0000      -6.854369      -186.5169
  10   2.0000      -6.854209      -186.5125
  11   2.0000      -1.448266       -39.4093
  12   2.0000      -1.332596       -36.2618
  13   2.0000      -1.170392       -31.8480
  14   2.0000      -1.039493       -28.2860
  15   2.0000      -0.977771       -26.6065
  16   2.0000      -0.837590       -22.7920
  17   2.0000      -0.787944       -21.4411
  18   2.0000      -0.718442       -19.5498
  19   2.0000      -0.682840       -18.5810
  20   2.0000      -0.647566       -17.6212
  21   2.0000      -0.639665       -17.4062
  22   2.0000      -0.624422       -16.9914
  23   2.0000      -0.583260       -15.8713
  24   2.0000      -0.565293       -15.3824
  25   2.0000      -0.556875       -15.1533
  26   2.0000      -0.492839       -13.4108
  27   2.0000      -0.483027       -13.1438
  28   2.0000      -0.469367       -12.7721
  29   2.0000      -0.429194       -11.6790
  30   2.0000      -0.408234       -11.1086
  31   0.0000       0.023687         0.6445
  32   0.0000       0.038067         1.0358
  33   0.0000       0.044338         1.2065
  34   0.0000       0.046894         1.2761
  35   0.0000       0.060616         1.6494

MULLIKEN ATOMIC CHARGES
-----------------------
   0 O :   -1.237293
   1 S :    2.954102
   2 O :   -1.245518
   3 C :   -0.078412
   4 C :    0.116919
   5 C :    0.135322
   6 C :   -0.001835
   7 H :   -0.002686
   8 H :   -0.020760
   9 H :   -0.003248
  10 H :   -0.027861
  11 H :   -0.298595
  12 H :   -0.290135
Sum of atomic charges:    0.0000000

LOEWDIN ATOMIC CHARGES
----------------------
   0 O :   -0.406424
   1 S :    0.938477
   2 O :   -0.407853
   3 C :   -0.025977
   4 C :   -0.038209
   5 C :   -0.025832
   6 C :   -0.052550
   7 H :   -0.003757
   8 H :   -0.003570
   9 H :    0.020903
  10 H :    0.017836
  11 H :    0.007953
  12 H :   -0.020998

  Mayer bond orders larger than 0.100000
B(  0-O ,  1-S ) :   0.5730 B(  0-O ,  2-O ) :   0.2262 B(  0-O ,  3-C ) :   0.1037
B(  0-O ,  6-C ) :   0.2540 B(  1-S ,  2-O ) :   0.5755 B(  1-S ,  3-C ) :   0.8563
B(  1-S ,  5-C ) :  -0.1876 B(  1-S ,  6-C ) :   0.5733 B(  1-S , 12-H ) :  -0.1789
B(  2-O ,  3-C ) :   0.1423 B(  2-O ,  6-C ) :   0.1962 B(  3-C ,  4-C ) :   1.2863
B(  3-C ,  6-C ) :   0.1905 B(  3-C ,  7-H ) :   0.8522 B(  3-C ,  8-H ) :   0.8568
B(  4-C ,  5-C ) :   1.2484 B(  4-C ,  9-H ) :   0.7916 B(  4-C , 10-H ) :   0.7740
B(  5-C ,  6-C ) :   2.4631 B(  5-C , 11-H ) :   0.7210 B(  5-C , 12-H ) :   0.2882
B(  6-C , 12-H ) :   0.7154

MP2 TOTAL ENERGY:     -703.263508099 Eh
FINAL SINGLE POINT ENERGY      -703.263508099281

DIPOLE MOMENT
-------------
                                X             Y             Z
Electronic contribution:      5.63490       1.54647       0.17534
Nuclear contribution   :     -8.15557      -1.64308      -0.33177
                        -----------------------------------------
Total Dipole Moment    :     -2.52067      -0.09661      -0.15643
                        -----------------------------------------
Magnitude (a.u.)       :      2.52737
Magnitude (Debye)      :      6.42405

Rotational constants in cm-1:     0.133679     0.069133     0.064243
Rotational constants in MHz :  4007.592380  2072.564930  1925.945408

                             ****ORCA TERMINATED NORMALLY****
TOTAL RUN TIME: 0 days 0 hours 0 minutes 47 seconds 487 msec
