                         Program Version 5.0.3 -  RELEASE  -
|  1> !ri-mp2 aug-cc-pvdz aug-cc-pvdz/c tightscf
|  2> %pal nprocs 16 end
|  3>
|  4> * xyz 0 1
|  5> N      0.544724    1.387269    0.000000
|  6> H      0.216989    1.895686    0.813925
|  7> H      0.216989    1.895686   -0.813925
|  8> C     -1.527556   -0.018978    0.000000
|  9> H     -1.923151    0.487103    0.883105
| 10> H     -1.923151    0.487103   -0.883105
| 11> H     -1.910040   -1.041945    0.000000
| 12> C      0.544724   -0.686055    1.255867
| 13> H      1.634333   -0.676871    1.262856
| 14> H      0.196491   -0.179088    2.158818
| 15> H      0.203288   -1.720826    1.303577
| 16> C      0.011620    0.010930    0.000000
| 17> C      0.544724   -0.686055   -1.255867
| 18> H      1.634333   -0.676871   -1.262856
| 19> H      0.203288   -1.720826   -1.303577
| 20> H      0.196491   -0.179088   -2.158818
| 21> *
| 22>
| 23>                          ****END OF INPUT****

CARTESIAN COORDINATES (ANGSTROEM)
---------------------------------
  N      0.544724    1.387269    0.000000
  H      0.216989    1.895686    0.813925
  H      0.216989    1.895686   -0.813925
  C     -1.527556   -0.018978    0.000000
  H     -1.923151    0.487103    0.883105
  H     -1.923151    0.487103   -0.883105
  H     -1.910040   -1.041945    0.000000
  C      0.544724   -0.686055    1.255867
  H      1.634333   -0.676871    1.262856
  H      0.196491   -0.179088    2.158818
  H      0.203288   -1.720826    1.303577
  C      0.011620    0.010930    0.000000
  C      0.544724   -0.686055   -1.255867
  H      1.634333   -0.676871   -1.262856
  H      0.203288   -1.720826   -1.303577
  H      0.196491   -0.179088   -2.158818

 Total Charge           Charge          ....    0
 Multiplicity           Mult            ....    1
 Number of Electrons    NEL             ....   42
 Basis Dimension        Dim             ....  214

ORBITAL ENERGIES
----------------

  NO   OCC          E(Eh)            E(eV)
   0   2.0000     -15.541958      -422.9182
   1   2.0000     -11.264008      -306.5092
   2   2.0000     -11.217110      -305.2331
   3   2.0000     -11.214115      -305.1516
   4   2.0000     -11.214099      -305.1511
   5   2.0000      -1.189614       -32.3711
   6   2.0000      -1.030177       -28.0326
   7   2.0000      -0.933530       -25.4026
   8   2.0000      -0.933517       -25.4023
   9   2.0000      -0.751009       -20.4360
  10   2.0000      -0.655189       -17.8286
  11   2.0000      -0.627971       -17.0879
  12   2.0000      -0.602309       -16.3897
  13   2.0000      -0.575195       -15.6518
  14   2.0000      -0.545444       -14.8423
  15   2.0000      -0.526445       -14.3253
  16   2.0000      -0.511037       -13.9060
  17   2.0000      -0.501419       -13.6443
  18   2.0000      -0.473163       -12.8754
  19   2.0000      -0.460870       -12.5409
  20   2.0000      -0.384476       -10.4621
  21   0.0000       0.035310         0.9608
  22   0.0000       0.047413         1.2902
  23   0.0000       0.047513         1.2929
  24   0.0000       0.050623         1.3775
  25   0.0000       0.068178         1.8552

MULLIKEN ATOMIC CHARGES
-----------------------
   0 N :   -0.032356
   1 H :   -0.028095
   2 H :   -0.028095
   3 C :    1.358692
   4 H :   -0.038119
   5 H :   -0.038119
   6 H :   -0.000621
   7 C :    1.320932
   8 H :    0.004855
   9 H :   -0.066674
  10 H :    0.005851
  11 C :   -3.723214
  12 C :    1.320932
  13 H :    0.004855
  14 H :    0.005851
  15 H :   -0.066674
Sum of atomic charges:    0.0000000

LOEWDIN ATOMIC CHARGES
----------------------
   0 N :    0.208950
   1 H :   -0.045149
   2 H :   -0.045149
   3 C :    0.171121
   4 H :   -0.011637
   5 H :   -0.011637
   6 H :   -0.010429
   7 C :    0.173422
   8 H :   -0.006307
   9 H :   -0.010946
  10 H :   -0.008291
  11 C :   -0.551825
  12 C :    0.173422
  13 H :   -0.006307
  14 H :   -0.008291
  15 H :   -0.010946

  Mayer bond orders larger than 0.100000
B(  0-N ,  1-H ) :   1.0152 B(  0-N ,  2-H ) :   1.0152 B(  0-N ,  3-C ) :   0.1012
B(  0-N , 11-C ) :  -0.2663 B(  1-H , 11-C ) :   0.1230 B(  2-H , 11-C ) :   0.1230
B(  3-C ,  4-H ) :   0.7351 B(  3-C ,  5-H ) :   0.7351 B(  3-C ,  6-H ) :   0.7736
B(  3-C , 11-C ) :   0.8308 B(  4-H ,  5-H ) :  -0.1073 B(  4-H , 11-C ) :   0.1923
B(  5-H , 11-C ) :   0.1923 B(  6-H , 11-C ) :   0.1550 B(  7-C ,  8-H ) :   0.7449
B(  7-C ,  9-H ) :   0.7079 B(  7-C , 10-H ) :   0.7402 B(  7-C , 11-C ) :   1.0273
B(  8-H ,  9-H ) :  -0.1063 B(  8-H , 11-C ) :   0.2190 B(  9-H , 11-C ) :   0.2851
B( 10-H , 11-C ) :   0.1584 B( 11-C , 12-C ) :   1.0273 B( 11-C , 13-H ) :   0.2190
B( 11-C , 14-H ) :   0.1584 B( 11-C , 15-H ) :   0.2851 B( 12-C , 13-H ) :   0.7449
B( 12-C , 14-H ) :   0.7402 B( 12-C , 15-H ) :   0.7079 B( 13-H , 15-H ) :  -0.1063

MP2 TOTAL ENERGY:     -213.149835350 Eh
FINAL SINGLE POINT ENERGY      -213.149835349767

DIPOLE MOMENT
-------------
                                X             Y             Z
Electronic contribution:      0.85350       1.52947       0.00000
Nuclear contribution   :     -1.34912      -1.53338       0.00000
                        -----------------------------------------
Total Dipole Moment    :     -0.49561      -0.00391       0.00000
                        -----------------------------------------
Magnitude (a.u.)       :      0.49563
Magnitude (Debye)      :      1.25979

Rotational constants in cm-1:     0.153136     0.152088     0.149308
Rotational constants in MHz :  4590.889116  4559.488868  4476.127317

                             ****ORCA TERMINATED NORMALLY****
TOTAL RUN TIME: 0 days 0 hours 0 minutes 32 seconds 314 msec
