                         Program Version 5.0.3 -  RELEASE  -
|  1> !ri-mp2 aug-cc-pvdz aug-cc-pvdz/c tightscf
|  2> %pal nprocs 16 end
|  3>
|  4> * xyz 0 1
|  5> S     -1.704462   -0.551936   -0.348464
|  6> S      2.023603   -0.133580   -0.423222
|  7> N      0.632814    0.094551    0.642941
|  8> N     -0.297676   -0.998966    0.631752
|  9> C     -0.067494    1.302057    0.352543
| 10> C     -1.293811    1.155566   -0.146389
| 11> H      2.855091   -0.564541    0.544789
| 12> H     -0.635754   -1.053433    1.588426
| 13> H      0.457833    2.229855    0.510423
| 14> H     -1.961569    1.941553   -0.456436
| 15> *
| 16>
| 17>                          ****END OF INPUT****

CARTESIAN COORDINATES (ANGSTROEM)
---------------------------------
  S     -1.704462   -0.551936   -0.348464
  S      2.023603   -0.133580   -0.423222
  N      0.632814    0.094551    0.642941
  N     -0.297676   -0.998966    0.631752
  C     -0.067494    1.302057    0.352543
  C     -1.293811    1.155566   -0.146389
  H      2.855091   -0.564541    0.544789
  H     -0.635754   -1.053433    1.588426
  H      0.457833    2.229855    0.510423
  H     -1.961569    1.941553   -0.456436

 Total Charge           Charge          ....    0
 Multiplicity           Mult            ....    1
 Number of Electrons    NEL             ....   62
 Basis Dimension        Dim             ....  182

ORBITAL ENERGIES
----------------

  NO   OCC          E(Eh)            E(eV)
   0   2.0000     -91.995370     -2503.3213
   1   2.0000     -91.994838     -2503.3068
   2   2.0000     -15.647936      -425.8020
   3   2.0000     -15.633153      -425.3997
   4   2.0000     -11.290759      -307.2372
   5   2.0000     -11.277394      -306.8735
   6   2.0000      -8.994473      -244.7520
   7   2.0000      -8.992985      -244.7116
   8   2.0000      -6.676223      -181.6693
   9   2.0000      -6.674951      -181.6346
  10   2.0000      -6.674943      -181.6344
  11   2.0000      -6.673382      -181.5919
  12   2.0000      -6.672347      -181.5638
  13   2.0000      -6.671149      -181.5312
  14   2.0000      -1.339500       -36.4497
  15   2.0000      -1.114698       -30.3325
  16   2.0000      -1.080953       -29.4142
  17   2.0000      -0.958972       -26.0950
  18   2.0000      -0.853470       -23.2241
  19   2.0000      -0.788327       -21.4515
  20   2.0000      -0.704239       -19.1633
  21   2.0000      -0.673804       -18.3351
  22   2.0000      -0.613784       -16.7019
  23   2.0000      -0.581295       -15.8178
  24   2.0000      -0.543927       -14.8010
  25   2.0000      -0.496372       -13.5070
  26   2.0000      -0.489258       -13.3134
  27   2.0000      -0.439277       -11.9533
  28   2.0000      -0.417109       -11.3501
  29   2.0000      -0.375767       -10.2251
  30   2.0000      -0.308759        -8.4018
  31   0.0000       0.034065         0.9270
  32   0.0000       0.041958         1.1417
  33   0.0000       0.050722         1.3802
  34   0.0000       0.057436         1.5629
  35   0.0000       0.082358         2.2411

MULLIKEN ATOMIC CHARGES
-----------------------
   0 S :    0.572372
   1 S :    0.294175
   2 N :   -0.738558
   3 N :   -0.693457
   4 C :    0.810455
   5 C :    0.143358
   6 H :    0.113757
   7 H :    0.138973
   8 H :   -0.274179
   9 H :   -0.366895
Sum of atomic charges:   -0.0000000

LOEWDIN ATOMIC CHARGES
----------------------
   0 S :    0.832930
   1 S :    0.770711
   2 N :   -0.486044
   3 N :   -0.248598
   4 C :   -0.185770
   5 C :   -0.302878
   6 H :   -0.232036
   7 H :   -0.083319
   8 H :   -0.010729
   9 H :   -0.054266

  Mayer bond orders larger than 0.100000
B(  0-S ,  3-N ) :   0.7764 B(  0-S ,  5-C ) :   0.8616 B(  1-S ,  2-N ) :   0.8541
B(  1-S ,  6-H ) :   0.9685 B(  2-N ,  3-N ) :   1.0499 B(  2-N ,  4-C ) :   0.5230
B(  3-N ,  4-C ) :  -0.1242 B(  3-N ,  7-H ) :   1.0505 B(  4-C ,  5-C ) :   2.1450
B(  4-C ,  8-H ) :   0.8060 B(  4-C ,  9-H ) :   0.1741 B(  5-C ,  9-H ) :   0.8427

MP2 TOTAL ENERGY:     -982.850373179 Eh
FINAL SINGLE POINT ENERGY      -982.850373178748

DIPOLE MOMENT
-------------
                                X             Y             Z
Electronic contribution:     -0.72557      -1.85237      -1.64785
Nuclear contribution   :      0.68565       2.48917       2.14932
                        -----------------------------------------
Total Dipole Moment    :     -0.03992       0.63680       0.50147
                        -----------------------------------------
Magnitude (a.u.)       :      0.81153
Magnitude (Debye)      :      2.06274

Rotational constants in cm-1:     0.173792     0.058091     0.050282
Rotational constants in MHz :  5210.159931  1741.531848  1507.409896

                             ****ORCA TERMINATED NORMALLY****
TOTAL RUN TIME: 0 days 0 hours 0 minutes 36 seconds 965 msec
