                         Program Version 5.0.3 -  RELEASE  -
|  1> !ri-mp2 aug-cc-pvdz aug-cc-pvdz/c tightscf
|  2> %pal nprocs 16 end
|  3>
|  4> * xyz 0 1
|  5> C      1.207137   -1.555590        0.000000
|  6> C      1.220086   -0.167956        0.000000
|  7> C     -0.016035   -2.214360        0.000000
|  8> C     -1.179306   -0.248424        0.000000
|  9> C      0.000000    0.488855        0.000000
| 10> N     -1.187738   -1.578485        0.000000
| 11> Cl    -0.068149    2.235327        0.000000
| 12> H      2.132085   -2.115420        0.000000
| 13> H      2.145085    0.390219        0.000000
| 14> H     -0.058137   -3.297055        0.000000
| 15> H     -2.137626    0.255941        0.000000
| 16> *
| 17>
| 18>                          ****END OF INPUT****

CARTESIAN COORDINATES (ANGSTROEM)
---------------------------------
  C      1.207137   -1.555590    0.000000
  C      1.220086   -0.167956    0.000000
  C     -0.016035   -2.214360    0.000000
  C     -1.179306   -0.248424    0.000000
  C      0.000000    0.488855    0.000000
  N     -1.187738   -1.578485    0.000000
  Cl    -0.068149    2.235327    0.000000
  H      2.132085   -2.115420    0.000000
  H      2.145085    0.390219    0.000000
  H     -0.058137   -3.297055    0.000000
  H     -2.137626    0.255941    0.000000

 Total Charge           Charge          ....    0
 Multiplicity           Mult            ....    1
 Number of Electrons    NEL             ....   58
 Basis Dimension        Dim             ....  201

ORBITAL ENERGIES
----------------

  NO   OCC          E(Eh)            E(eV)
   0   2.0000    -104.850131     -2853.1171
   1   2.0000     -15.590141      -424.2293
   2   2.0000     -11.317057      -307.9528
   3   2.0000     -11.298123      -307.4375
   4   2.0000     -11.293325      -307.3070
   5   2.0000     -11.281958      -306.9977
   6   2.0000     -11.263992      -306.5088
   7   2.0000     -10.576054      -287.7891
   8   2.0000      -8.043879      -218.8851
   9   2.0000      -8.040533      -218.7940
  10   2.0000      -8.040384      -218.7900
  11   2.0000      -1.283540       -34.9269
  12   2.0000      -1.170706       -31.8565
  13   2.0000      -1.092410       -29.7260
  14   2.0000      -1.025304       -27.8999
  15   2.0000      -0.885114       -24.0852
  16   2.0000      -0.857441       -23.3322
  17   2.0000      -0.732326       -19.9276
  18   2.0000      -0.692143       -18.8342
  19   2.0000      -0.652745       -17.7621
  20   2.0000      -0.604107       -16.4386
  21   2.0000      -0.597127       -16.2487
  22   2.0000      -0.574669       -15.6375
  23   2.0000      -0.540824       -14.7166
  24   2.0000      -0.495705       -13.4888
  25   2.0000      -0.473349       -12.8805
  26   2.0000      -0.429896       -11.6981
  27   2.0000      -0.395580       -10.7643
  28   2.0000      -0.351238        -9.5577
  29   0.0000       0.031038         0.8446
  30   0.0000       0.043724         1.1898
  31   0.0000       0.047233         1.2853
  32   0.0000       0.059461         1.6180
  33   0.0000       0.077633         2.1125

MULLIKEN ATOMIC CHARGES
-----------------------
   0 C :    0.676160
   1 C :    0.699260
   2 C :    0.430103
   3 C :    0.757368
   4 C :   -0.200121
   5 N :   -0.667204
   6 Cl:   -0.347154
   7 H :   -0.389820
   8 H :   -0.357566
   9 H :   -0.320817
  10 H :   -0.280209
Sum of atomic charges:   -0.0000000

LOEWDIN ATOMIC CHARGES
----------------------
   0 C :    0.019931
   1 C :   -0.003000
   2 C :   -0.028297
   3 C :   -0.053407
   4 C :   -0.543659
   5 N :    0.032992
   6 Cl:    0.564392
   7 H :    0.001986
   8 H :    0.006745
   9 H :    0.002494
  10 H :   -0.000178

  Mayer bond orders larger than 0.100000
B(  0-C ,  1-C ) :   1.5931 B(  0-C ,  2-C ) :   1.2973 B(  0-C ,  3-C ) :  -0.1545
B(  0-C ,  7-H ) :   0.5994 B(  1-C ,  2-C ) :   0.1126 B(  1-C ,  3-C ) :   0.1819
B(  1-C ,  4-C ) :   1.2052 B(  1-C ,  6-Cl) :  -0.4209 B(  1-C ,  7-H ) :   0.1706
B(  1-C ,  8-H ) :   0.5043 B(  2-C ,  3-C ) :   0.1963 B(  2-C ,  5-N ) :   1.3035
B(  2-C ,  9-H ) :   0.8656 B(  3-C ,  4-C ) :   1.2965 B(  3-C ,  5-N ) :   1.3189
B(  3-C ,  6-Cl) :  -0.2462 B(  3-C , 10-H ) :   0.7195 B(  4-C ,  6-Cl) :   1.2951
B(  4-C ,  8-H ) :   0.1521

MP2 TOTAL ENERGY:     -706.627628055 Eh
FINAL SINGLE POINT ENERGY      -706.627628055322

DIPOLE MOMENT
-------------
                                X             Y             Z
Electronic contribution:     -1.26854       7.35726      -0.00000
Nuclear contribution   :      2.08359      -7.64922       0.00000
                        -----------------------------------------
Total Dipole Moment    :      0.81504      -0.29196      -0.00000
                        -----------------------------------------
Magnitude (a.u.)       :      0.86576
Magnitude (Debye)      :      2.20058

Rotational constants in cm-1:     0.196636     0.052818     0.041635
Rotational constants in MHz :  5895.012203  1583.441782  1248.173573

                             ****ORCA TERMINATED NORMALLY****
TOTAL RUN TIME: 0 days 0 hours 0 minutes 36 seconds 593 msec
