                         Program Version 5.0.3 -  RELEASE  -
|  1> !ri-mp2 aug-cc-pvdz aug-cc-pvdz/c tightscf
|  2> %pal nprocs 16 end
|  3>
|  4> * xyz 0 1
|  5> C     -1.019949    1.869903    0.005061
|  6> C     -2.035560    0.925894   -0.000762
|  7> C      0.315136    1.486331    0.004036
|  8> C     -0.402977   -0.840723   -0.007286
|  9> C     -1.742943   -0.445332   -0.006521
| 10> C      0.587891    0.126743   -0.001813
| 11> N     -2.757551   -1.389060   -0.067066
| 12> N      1.997431   -0.318897    0.000986
| 13> O      2.865495    0.541162   -0.001230
| 14> O      2.215470   -1.522514    0.006001
| 15> H     -1.272850    2.921047    0.010796
| 16> H     -3.069081    1.248201   -0.005007
| 17> H      1.119865    2.202562    0.008669
| 18> H     -0.125177   -1.883684   -0.015106
| 19> H     -3.666794   -1.094774    0.247033
| 20> H     -2.522433   -2.323737    0.221720
| 21> *
| 22>
| 23>                          ****END OF INPUT****

CARTESIAN COORDINATES (ANGSTROEM)
---------------------------------
  C     -1.019949    1.869903    0.005061
  C     -2.035560    0.925894   -0.000762
  C      0.315136    1.486331    0.004036
  C     -0.402977   -0.840723   -0.007286
  C     -1.742943   -0.445332   -0.006521
  C      0.587891    0.126743   -0.001813
  N     -2.757551   -1.389060   -0.067066
  N      1.997431   -0.318897    0.000986
  O      2.865495    0.541162   -0.001230
  O      2.215470   -1.522514    0.006001
  H     -1.272850    2.921047    0.010796
  H     -3.069081    1.248201   -0.005007
  H      1.119865    2.202562    0.008669
  H     -0.125177   -1.883684   -0.015106
  H     -3.666794   -1.094774    0.247033
  H     -2.522433   -2.323737    0.221720

 Total Charge           Charge          ....    0
 Multiplicity           Mult            ....    1
 Number of Electrons    NEL             ....   72
 Basis Dimension        Dim             ....  284

ORBITAL ENERGIES
----------------

  NO   OCC          E(Eh)            E(eV)
   0   2.0000     -20.610438      -560.8385
   1   2.0000     -20.609843      -560.8224
   2   2.0000     -15.858909      -431.5429
   3   2.0000     -15.595479      -424.3746
   4   2.0000     -11.315495      -307.9103
   5   2.0000     -11.314497      -307.8831
   6   2.0000     -11.269204      -306.6506
   7   2.0000     -11.266138      -306.5672
   8   2.0000     -11.264219      -306.5150
   9   2.0000     -11.262339      -306.4638
  10   2.0000      -1.610413       -43.8216
  11   2.0000      -1.402933       -38.1758
  12   2.0000      -1.256609       -34.1941
  13   2.0000      -1.180376       -32.1197
  14   2.0000      -1.084888       -29.5213
  15   2.0000      -1.029790       -28.0220
  16   2.0000      -0.960948       -26.1487
  17   2.0000      -0.860510       -23.4157
  18   2.0000      -0.831521       -22.6268
  19   2.0000      -0.780193       -21.2301
  20   2.0000      -0.735505       -20.0141
  21   2.0000      -0.717601       -19.5269
  22   2.0000      -0.712517       -19.3886
  23   2.0000      -0.700069       -19.0499
  24   2.0000      -0.675359       -18.3775
  25   2.0000      -0.629658       -17.1339
  26   2.0000      -0.624139       -16.9837
  27   2.0000      -0.565190       -15.3796
  28   2.0000      -0.554762       -15.0959
  29   2.0000      -0.537324       -14.6213
  30   2.0000      -0.493369       -13.4253
  31   2.0000      -0.491072       -13.3627
  32   2.0000      -0.479070       -13.0362
  33   2.0000      -0.452754       -12.3200
  34   2.0000      -0.374337       -10.1862
  35   2.0000      -0.321799        -8.7566
  36   0.0000       0.023522         0.6401
  37   0.0000       0.034332         0.9342
  38   0.0000       0.039018         1.0617
  39   0.0000       0.043276         1.1776
  40   0.0000       0.057424         1.5626

MULLIKEN ATOMIC CHARGES
-----------------------
   0 C :    0.547862
   1 C :    0.721711
   2 C :    0.183130
   3 C :    0.522198
   4 C :    0.356166
   5 C :    1.332786
   6 N :   -0.392620
   7 N :    0.466737
   8 O :   -0.819111
   9 O :   -0.814324
  10 H :   -0.442640
  11 H :   -0.568420
  12 H :   -0.456410
  13 H :   -0.553195
  14 H :   -0.044619
  15 H :   -0.039251
Sum of atomic charges:   -0.0000000

LOEWDIN ATOMIC CHARGES
----------------------
   0 C :    0.025957
   1 C :    0.069930
   2 C :    0.061290
   3 C :    0.112402
   4 C :   -0.219959
   5 C :   -0.118740
   6 N :    0.248522
   7 N :   -0.328795
   8 O :    0.090369
   9 O :    0.086413
  10 H :    0.008325
  11 H :    0.008008
  12 H :    0.000766
  13 H :    0.004343
  14 H :   -0.025384
  15 H :   -0.023445

  Mayer bond orders larger than 0.100000
B(  0-C ,  1-C ) :   1.7774 B(  0-C ,  2-C ) :   1.9757 B(  0-C ,  3-C ) :   0.1869
B(  0-C ,  4-C ) :  -0.3238 B(  0-C ,  5-C ) :  -0.2357 B(  0-C , 10-H ) :   0.2001
B(  0-C , 11-H ) :   0.1557 B(  0-C , 12-H ) :   0.1574 B(  1-C ,  2-C ) :   0.4500
B(  1-C ,  3-C ) :   0.1774 B(  1-C ,  4-C ) :   1.6254 B(  1-C ,  6-N ) :  -0.1133
B(  1-C , 10-H ) :   0.2505 B(  1-C , 11-H ) :  -0.1203 B(  2-C ,  3-C ) :   0.2399
B(  2-C ,  4-C ) :  -0.1023 B(  2-C ,  5-C ) :   1.3192 B(  2-C , 10-H ) :   0.3528
B(  2-C , 12-H ) :   0.2579 B(  3-C ,  4-C ) :   1.9549 B(  3-C ,  5-C ) :   1.4477
B(  4-C ,  5-C ) :  -0.1710 B(  4-C ,  6-N ) :   0.8489 B(  4-C , 10-H ) :  -0.1199
B(  4-C , 11-H ) :   0.6294 B(  4-C , 13-H ) :   0.4024 B(  4-C , 15-H ) :  -0.1045
B(  5-C ,  7-N ) :   0.1943 B(  5-C , 12-H ) :   0.3045 B(  5-C , 13-H ) :   0.2868
B(  6-N , 14-H ) :   1.1032 B(  6-N , 15-H ) :   1.1107 B(  7-N ,  8-O ) :   1.0577
B(  7-N ,  9-O ) :   1.0702 B(  8-O ,  9-O ) :   0.2243

MP2 TOTAL ENERGY:     -490.840992029 Eh
FINAL SINGLE POINT ENERGY      -490.840992028515

DIPOLE MOMENT
-------------
                                X             Y             Z
Electronic contribution:      6.95144      -0.76499      -0.11457
Nuclear contribution   :     -9.26188       1.02216       0.45795
                        -----------------------------------------
Total Dipole Moment    :     -2.31044       0.25717       0.34338
                        -----------------------------------------
Magnitude (a.u.)       :      2.34993
Magnitude (Debye)      :      5.97306

Rotational constants in cm-1:     0.090880     0.033034     0.024239
Rotational constants in MHz :  2724.517637   990.324372   726.669246

                             ****ORCA TERMINATED NORMALLY****
TOTAL RUN TIME: 0 days 0 hours 1 minutes 20 seconds 274 msec
