                         Program Version 5.0.3 -  RELEASE  -
|  1> !ri-mp2 aug-cc-pvdz aug-cc-pvdz/c tightscf
|  2> %pal nprocs 16 end
|  3>
|  4> * xyz 0 1
|  5> N      1.003702   -1.321515   -0.000044
|  6> C     -0.274008   -1.255389    0.000230
|  7> C     -1.057493    0.010593    0.000105
|  8> C     -0.250299    1.293437    0.000138
|  9> C      1.227716    1.089202    0.000005
| 10> C      1.758426   -0.135993   -0.000177
| 11> O     -2.271435   -0.003688   -0.000258
| 12> H     -0.853456   -2.175087    0.000425
| 13> H     -0.562854    1.887548   -0.865857
| 14> H      1.870338    1.960254    0.000050
| 15> H      2.828067   -0.291154   -0.000357
| 16> H     -0.562581    1.887450    0.866314
| 17> *
| 18>
| 19>                          ****END OF INPUT****

CARTESIAN COORDINATES (ANGSTROEM)
---------------------------------
  N      1.003702   -1.321515   -0.000044
  C     -0.274008   -1.255389    0.000230
  C     -1.057493    0.010593    0.000105
  C     -0.250299    1.293437    0.000138
  C      1.227716    1.089202    0.000005
  C      1.758426   -0.135993   -0.000177
  O     -2.271435   -0.003688   -0.000258
  H     -0.853456   -2.175087    0.000425
  H     -0.562854    1.887548   -0.865857
  H      1.870338    1.960254    0.000050
  H      2.828067   -0.291154   -0.000357
  H     -0.562581    1.887450    0.866314

 Total Charge           Charge          ....    0
 Multiplicity           Mult            ....    1
 Number of Electrons    NEL             ....   50
 Basis Dimension        Dim             ....  206

ORBITAL ENERGIES
----------------

  NO   OCC          E(Eh)            E(eV)
   0   2.0000     -20.578496      -559.9693
   1   2.0000     -15.608109      -424.7182
   2   2.0000     -11.358972      -309.0934
   3   2.0000     -11.304740      -307.6176
   4   2.0000     -11.282803      -307.0207
   5   2.0000     -11.269443      -306.6571
   6   2.0000     -11.267822      -306.6130
   7   2.0000      -1.411932       -38.4206
   8   2.0000      -1.277053       -34.7504
   9   2.0000      -1.097117       -29.8541
  10   2.0000      -1.021565       -27.7982
  11   2.0000      -0.897218       -24.4146
  12   2.0000      -0.842459       -22.9245
  13   2.0000      -0.726577       -19.7712
  14   2.0000      -0.696041       -18.9402
  15   2.0000      -0.676023       -18.3955
  16   2.0000      -0.637793       -17.3552
  17   2.0000      -0.624033       -16.9808
  18   2.0000      -0.590055       -16.0562
  19   2.0000      -0.546414       -14.8687
  20   2.0000      -0.533412       -14.5149
  21   2.0000      -0.505504       -13.7555
  22   2.0000      -0.488674       -13.2975
  23   2.0000      -0.407636       -11.0923
  24   2.0000      -0.354475        -9.6458
  25   0.0000       0.028962         0.7881
  26   0.0000       0.037848         1.0299
  27   0.0000       0.044119         1.2005
  28   0.0000       0.046349         1.2612
  29   0.0000       0.051692         1.4066

MULLIKEN ATOMIC CHARGES
-----------------------
   0 N :   -0.603186
   1 C :    0.482904
   2 C :    0.408222
   3 C :    0.020837
   4 C :    0.628457
   5 C :    0.647202
   6 O :   -0.830767
   7 H :   -0.274601
   8 H :    0.109888
   9 H :   -0.377998
  10 H :   -0.320932
  11 H :    0.109973
Sum of atomic charges:    0.0000000

LOEWDIN ATOMIC CHARGES
----------------------
   0 N :    0.047386
   1 C :    0.044018
   2 C :   -0.243605
   3 C :    0.040167
   4 C :    0.023842
   5 C :   -0.045392
   6 O :    0.052618
   7 H :    0.010824
   8 H :    0.036953
   9 H :    0.002715
  10 H :   -0.006481
  11 H :    0.036957

  Mayer bond orders larger than 0.100000
B(  0-N ,  1-C ) :   1.9028 B(  0-N ,  5-C ) :   0.7427 B(  0-N ,  7-H ) :  -0.1007
B(  1-C ,  2-C ) :   0.9734 B(  1-C ,  3-C ) :   0.1099 B(  1-C ,  7-H ) :   0.8567
B(  2-C ,  3-C ) :   1.0493 B(  2-C ,  6-O ) :   1.2962 B(  3-C ,  4-C ) :   1.2175
B(  3-C ,  8-H ) :   0.7850 B(  3-C , 11-H ) :   0.7851 B(  4-C ,  5-C ) :   1.7265
B(  4-C ,  9-H ) :   0.7697 B(  5-C , 10-H ) :   0.8182

MP2 TOTAL ENERGY:     -322.590079864 Eh
FINAL SINGLE POINT ENERGY      -322.590079864391

DIPOLE MOMENT
-------------
                                X             Y             Z
Electronic contribution:     -1.81491      -2.40892      -0.00014
Nuclear contribution   :      2.65574       3.22014       0.00056
                        -----------------------------------------
Total Dipole Moment    :      0.84083       0.81122       0.00042
                        -----------------------------------------
Magnitude (a.u.)       :      1.16836
Magnitude (Debye)      :      2.96974

Rotational constants in cm-1:     0.177096     0.092898     0.061608
Rotational constants in MHz :  5309.214838  2785.011688  1846.953240

                             ****ORCA TERMINATED NORMALLY****
TOTAL RUN TIME: 0 days 0 hours 0 minutes 44 seconds 83 msec
