                         Program Version 5.0.3 -  RELEASE  -
|  1> !ri-mp2 aug-cc-pvdz aug-cc-pvdz/c tightscf
|  2> %pal nprocs 16 end
|  3>
|  4> * xyz 0 1
|  5> C      1.129792   -1.107674    0.000000
|  6> C     -0.086067   -1.782624    0.000000
|  7> C     -1.216225    0.338498    0.000000
|  8> C      1.202373    0.281815    0.000000
|  9> C      0.000000    1.013650    0.000000
| 10> C     -1.265989   -1.051728    0.000000
| 11> C      2.538691    0.976753    0.000000
| 12> C      0.014913    2.519608    0.000000
| 13> O     -2.504718   -1.638916    0.000000
| 14> H      2.046577   -1.683971    0.000000
| 15> H     -0.110692   -2.865937    0.000000
| 16> H     -2.147731    0.888906    0.000000
| 17> H      2.663768    1.616923    0.876838
| 18> H      3.353135    0.253692    0.000000
| 19> H      2.663768    1.616923   -0.876838
| 20> H     -0.996299    2.922450    0.000000
| 21> H      0.534083    2.914310    0.876468
| 22> H      0.534083    2.914310   -0.876468
| 23> H     -2.407882   -2.596061    0.000000
| 24> *
| 25>
| 26>                          ****END OF INPUT****

CARTESIAN COORDINATES (ANGSTROEM)
---------------------------------
  C      1.129792   -1.107674    0.000000
  C     -0.086067   -1.782624    0.000000
  C     -1.216225    0.338498    0.000000
  C      1.202373    0.281815    0.000000
  C      0.000000    1.013650    0.000000
  C     -1.265989   -1.051728    0.000000
  C      2.538691    0.976753    0.000000
  C      0.014913    2.519608    0.000000
  O     -2.504718   -1.638916    0.000000
  H      2.046577   -1.683971    0.000000
  H     -0.110692   -2.865937    0.000000
  H     -2.147731    0.888906    0.000000
  H      2.663768    1.616923    0.876838
  H      3.353135    0.253692    0.000000
  H      2.663768    1.616923   -0.876838
  H     -0.996299    2.922450    0.000000
  H      0.534083    2.914310    0.876468
  H      0.534083    2.914310   -0.876468
  H     -2.407882   -2.596061    0.000000

 Total Charge           Charge          ....    0
 Multiplicity           Mult            ....    1
 Number of Electrons    NEL             ....   66
 Basis Dimension        Dim             ....  297

ORBITAL ENERGIES
----------------

  NO   OCC          E(Eh)            E(eV)
   0   2.0000     -20.595686      -560.4371
   1   2.0000     -11.301222      -307.5219
   2   2.0000     -11.246534      -306.0338
   3   2.0000     -11.238908      -305.8262
   4   2.0000     -11.232609      -305.6548
   5   2.0000     -11.231275      -305.6185
   6   2.0000     -11.229559      -305.5718
   7   2.0000     -11.227371      -305.5123
   8   2.0000     -11.225617      -305.4646
   9   2.0000      -1.403424       -38.1891
  10   2.0000      -1.156943       -31.4820
  11   2.0000      -1.049288       -28.5526
  12   2.0000      -1.034942       -28.1622
  13   2.0000      -0.953435       -25.9443
  14   2.0000      -0.915369       -24.9085
  15   2.0000      -0.826001       -22.4766
  16   2.0000      -0.802828       -21.8461
  17   2.0000      -0.712906       -19.3992
  18   2.0000      -0.674795       -18.3621
  19   2.0000      -0.641770       -17.4635
  20   2.0000      -0.608428       -16.5562
  21   2.0000      -0.596473       -16.2309
  22   2.0000      -0.577532       -15.7154
  23   2.0000      -0.577499       -15.7145
  24   2.0000      -0.566548       -15.4166
  25   2.0000      -0.549911       -14.9639
  26   2.0000      -0.539661       -14.6849
  27   2.0000      -0.528516       -14.3816
  28   2.0000      -0.494251       -13.4493
  29   2.0000      -0.479970       -13.0606
  30   2.0000      -0.462404       -12.5826
  31   2.0000      -0.331389        -9.0175
  32   2.0000      -0.301634        -8.2079
  33   0.0000       0.033291         0.9059
  34   0.0000       0.038468         1.0468
  35   0.0000       0.041814         1.1378
  36   0.0000       0.053662         1.4602
  37   0.0000       0.057798         1.5728

MULLIKEN ATOMIC CHARGES
-----------------------
   0 C :    0.627855
   1 C :    0.203682
   2 C :    0.641279
   3 C :   -0.292365
   4 C :   -0.342625
   5 C :    0.499228
   6 C :    0.556236
   7 C :    0.492857
   8 O :   -0.916111
   9 H :   -0.619286
  10 H :   -0.583583
  11 H :   -0.595529
  12 H :    0.169689
  13 H :   -0.266924
  14 H :    0.169689
  15 H :   -0.255700
  16 H :    0.173599
  17 H :    0.173599
  18 H :    0.164410
Sum of atomic charges:    0.0000000

LOEWDIN ATOMIC CHARGES
----------------------
   0 C :    0.038620
   1 C :    0.038837
   2 C :    0.081476
   3 C :   -0.185076
   4 C :   -0.173029
   5 C :   -0.229480
   6 C :    0.167809
   7 C :    0.177580
   8 O :    0.179684
   9 H :    0.004861
  10 H :   -0.001760
  11 H :    0.009834
  12 H :   -0.010060
  13 H :   -0.017429
  14 H :   -0.010060
  15 H :   -0.015553
  16 H :   -0.006726
  17 H :   -0.006726
  18 H :   -0.042803

  Mayer bond orders larger than 0.100000
B(  0-C ,  1-C ) :   1.5340 B(  0-C ,  3-C ) :   1.8646 B(  0-C ,  4-C ) :  -0.9894
B(  0-C ,  6-C ) :  -0.3841 B(  0-C ,  8-O ) :   0.1170 B(  0-C ,  9-H ) :  -0.4555
B(  0-C , 10-H ) :   0.1873 B(  1-C ,  2-C ) :   0.2229 B(  1-C ,  4-C ) :   0.4472
B(  1-C ,  5-C ) :   1.6263 B(  1-C ,  6-C ) :   0.3461 B(  1-C ,  8-O ) :   0.1767
B(  1-C ,  9-H ) :   0.2174 B(  1-C , 10-H ) :  -0.1405 B(  2-C ,  3-C ) :  -0.8221
B(  2-C ,  4-C ) :   2.0478 B(  2-C ,  5-C ) :   0.8799 B(  2-C ,  6-C ) :   0.1139
B(  2-C ,  7-C ) :  -0.5170 B(  2-C ,  8-O ) :  -0.1098 B(  2-C ,  9-H ) :   0.1350
B(  2-C , 11-H ) :  -0.4762 B(  3-C ,  4-C ) :   2.0437 B(  3-C ,  5-C ) :   0.2442
B(  3-C ,  6-C ) :   1.2230 B(  3-C ,  9-H ) :   0.8950 B(  3-C , 12-H ) :   0.1737
B(  3-C , 13-H ) :   0.4815 B(  3-C , 14-H ) :   0.1737 B(  4-C ,  7-C ) :   1.4043
B(  4-C ,  8-O ) :   0.1344 B(  4-C , 11-H ) :   0.5868 B(  4-C , 15-H ) :   0.5043
B(  4-C , 16-H ) :   0.1559 B(  4-C , 17-H ) :   0.1559 B(  5-C ,  7-C ) :   0.4354
B(  5-C ,  9-H ) :  -0.2206 B(  5-C , 10-H ) :   0.5651 B(  5-C , 11-H ) :   0.4822
B(  5-C , 18-H ) :  -0.1453 B(  6-C ,  7-C ) :  -0.1561 B(  6-C , 12-H ) :   0.8448
B(  6-C , 13-H ) :   0.4789 B(  6-C , 14-H ) :   0.8448 B(  7-C , 12-H ) :  -0.1054
B(  7-C , 14-H ) :  -0.1054 B(  7-C , 15-H ) :   0.4653 B(  7-C , 16-H ) :   0.8390
B(  7-C , 17-H ) :   0.8390 B(  8-O , 18-H ) :   1.0678

MP2 TOTAL ENERGY:     -384.993715737 Eh
FINAL SINGLE POINT ENERGY      -384.993715737385

DIPOLE MOMENT
-------------
                                X             Y             Z
Electronic contribution:     -5.72476      -6.23155       0.00000
Nuclear contribution   :      6.18240       6.04277       0.00000
                        -----------------------------------------
Total Dipole Moment    :      0.45763      -0.18878       0.00000
                        -----------------------------------------
Magnitude (a.u.)       :      0.49504
Magnitude (Debye)      :      1.25830

Rotational constants in cm-1:     0.099858     0.043485     0.030635
Rotational constants in MHz :  2993.666179  1303.657450   918.401425

                             ****ORCA TERMINATED NORMALLY****
TOTAL RUN TIME: 0 days 0 hours 1 minutes 26 seconds 822 msec
