                         Program Version 5.0.3 -  RELEASE  -
|  1> !ri-mp2 aug-cc-pvdz aug-cc-pvdz/c tightscf
|  2> %pal nprocs 16 end
|  3>
|  4> * xyz 0 1
|  5> S      1.295602   -0.412017    0.082747
|  6> S     -0.664803   -1.162627   -0.093069
|  7> N     -0.479291    1.584298   -0.083568
|  8> C      0.738128    1.267662   -0.100668
|  9> C     -1.435059    0.543003    0.155054
| 10> H      1.524832    2.007293   -0.203172
| 11> H     -2.263985    0.603202   -0.546612
| 12> H     -1.817015    0.629721    1.173604
| 13> *
| 14>
| 15>                          ****END OF INPUT****

CARTESIAN COORDINATES (ANGSTROEM)
---------------------------------
  S      1.295602   -0.412017    0.082747
  S     -0.664803   -1.162627   -0.093069
  N     -0.479291    1.584298   -0.083568
  C      0.738128    1.267662   -0.100668
  C     -1.435059    0.543003    0.155054
  H      1.524832    2.007293   -0.203172
  H     -2.263985    0.603202   -0.546612
  H     -1.817015    0.629721    1.173604

 Total Charge           Charge          ....    0
 Multiplicity           Mult            ....    1
 Number of Electrons    NEL             ....   54
 Basis Dimension        Dim             ....  150

ORBITAL ENERGIES
----------------

  NO   OCC          E(Eh)            E(eV)
   0   2.0000     -92.000132     -2503.4509
   1   2.0000     -91.986330     -2503.0753
   2   2.0000     -15.598076      -424.4452
   3   2.0000     -11.341773      -308.6253
   4   2.0000     -11.320979      -308.0595
   5   2.0000      -9.001661      -244.9477
   6   2.0000      -8.986976      -244.5481
   7   2.0000      -6.683225      -181.8598
   8   2.0000      -6.681942      -181.8249
   9   2.0000      -6.679288      -181.7527
  10   2.0000      -6.668688      -181.4642
  11   2.0000      -6.667054      -181.4198
  12   2.0000      -6.664450      -181.3489
  13   2.0000      -1.284945       -34.9651
  14   2.0000      -1.055149       -28.7121
  15   2.0000      -1.023969       -27.8636
  16   2.0000      -0.845071       -22.9956
  17   2.0000      -0.791251       -21.5310
  18   2.0000      -0.657899       -17.9024
  19   2.0000      -0.646524       -17.5928
  20   2.0000      -0.623523       -16.9669
  21   2.0000      -0.501052       -13.6343
  22   2.0000      -0.487685       -13.2706
  23   2.0000      -0.478598       -13.0233
  24   2.0000      -0.432095       -11.7579
  25   2.0000      -0.417285       -11.3549
  26   2.0000      -0.324549        -8.8314
  27   0.0000       0.035804         0.9743
  28   0.0000       0.042604         1.1593
  29   0.0000       0.054976         1.4960
  30   0.0000       0.068229         1.8566
  31   0.0000       0.071187         1.9371

MULLIKEN ATOMIC CHARGES
-----------------------
   0 S :    0.152755
   1 S :    0.125903
   2 N :   -0.469586
   3 C :    0.231827
   4 C :    0.331190
   5 H :   -0.177838
   6 H :   -0.103369
   7 H :   -0.090883
Sum of atomic charges:    0.0000000

LOEWDIN ATOMIC CHARGES
----------------------
   0 S :    0.490953
   1 S :    0.443038
   2 N :   -0.103492
   3 C :   -0.398452
   4 C :   -0.309494
   5 H :   -0.041301
   6 H :   -0.044123
   7 H :   -0.037130

  Mayer bond orders larger than 0.100000
B(  0-S ,  1-S ) :   0.9689 B(  0-S ,  3-C ) :   0.9503 B(  1-S ,  4-C ) :   1.0340
B(  2-N ,  3-C ) :   1.7185 B(  2-N ,  4-C ) :   0.8838 B(  3-C ,  4-C ) :  -0.1252
B(  3-C ,  5-H ) :   1.0784 B(  4-C ,  6-H ) :   1.0247 B(  4-C ,  7-H ) :   1.0077

MP2 TOTAL ENERGY:     -927.713418941 Eh
FINAL SINGLE POINT ENERGY      -927.713418941264

DIPOLE MOMENT
-------------
                                X             Y             Z
Electronic contribution:      2.44661      -2.87889      -0.28920
Nuclear contribution   :     -2.48634       3.18029       0.40851
                        -----------------------------------------
Total Dipole Moment    :     -0.03973       0.30140       0.11932
                        -----------------------------------------
Magnitude (a.u.)       :      0.32658
Magnitude (Debye)      :      0.83011

Rotational constants in cm-1:     0.147725     0.145195     0.074998
Rotational constants in MHz :  4428.683835  4352.839523  2248.378524

                             ****ORCA TERMINATED NORMALLY****
TOTAL RUN TIME: 0 days 0 hours 0 minutes 37 seconds 527 msec
