                         Program Version 5.0.3 -  RELEASE  -
|  1> !ri-mp2 aug-cc-pvdz aug-cc-pvdz/c tightscf
|  2> %pal nprocs 16 end
|  3>
|  4> * xyz 0 1
|  5> C     -3.258638   -0.287523    0.090842
|  6> C      2.749710   -0.958717   -0.125572
|  7> C     -1.803228   -0.542577   -0.299578
|  8> C      1.324767   -0.757447    0.387390
|  9> C     -0.859239    0.560574    0.183682
| 10> C      0.597669    0.413820   -0.263537
| 11> O      1.346525    1.592486    0.069305
| 12> H     -3.369799   -0.222411    1.174974
| 13> H     -3.623837    0.649674   -0.334114
| 14> H     -3.910731   -1.087613   -0.261728
| 15> H      3.360328   -0.076592    0.059161
| 16> H      3.223088   -1.809507    0.366235
| 17> H      2.756534   -1.152346   -1.200530
| 18> H     -1.487941   -1.506260    0.106282
| 19> H     -1.729119   -0.630970   -1.387734
| 20> H      1.337132   -0.587285    1.467729
| 21> H      0.744175   -1.665979    0.216421
| 22> H     -1.230746    1.521745   -0.190767
| 23> H     -0.885745    0.627798    1.275431
| 24> H      0.618632    0.275514   -1.354253
| 25> H      0.919582    2.355577   -0.330907
| 26> *
| 27>
| 28>                          ****END OF INPUT****

CARTESIAN COORDINATES (ANGSTROEM)
---------------------------------
  C     -3.258638   -0.287523    0.090842
  C      2.749710   -0.958717   -0.125572
  C     -1.803228   -0.542577   -0.299578
  C      1.324767   -0.757447    0.387390
  C     -0.859239    0.560574    0.183682
  C      0.597669    0.413820   -0.263537
  O      1.346525    1.592486    0.069305
  H     -3.369799   -0.222411    1.174974
  H     -3.623837    0.649674   -0.334114
  H     -3.910731   -1.087613   -0.261728
  H      3.360328   -0.076592    0.059161
  H      3.223088   -1.809507    0.366235
  H      2.756534   -1.152346   -1.200530
  H     -1.487941   -1.506260    0.106282
  H     -1.729119   -0.630970   -1.387734
  H      1.337132   -0.587285    1.467729
  H      0.744175   -1.665979    0.216421
  H     -1.230746    1.521745   -0.190767
  H     -0.885745    0.627798    1.275431
  H      0.618632    0.275514   -1.354253
  H      0.919582    2.355577   -0.330907

 Total Charge           Charge          ....    0
 Multiplicity           Mult            ....    1
 Number of Electrons    NEL             ....   58
 Basis Dimension        Dim             ....  287

ORBITAL ENERGIES
----------------

  NO   OCC          E(Eh)            E(eV)
   0   2.0000     -20.560207      -559.4717
   1   2.0000     -11.280034      -306.9453
   2   2.0000     -11.228805      -305.5513
   3   2.0000     -11.224994      -305.4476
   4   2.0000     -11.221924      -305.3641
   5   2.0000     -11.219975      -305.3110
   6   2.0000     -11.210326      -305.0485
   7   2.0000      -1.355842       -36.8943
   8   2.0000      -1.082336       -29.4519
   9   2.0000      -1.036409       -28.2021
  10   2.0000      -0.962473       -26.1902
  11   2.0000      -0.874994       -23.8098
  12   2.0000      -0.817854       -22.2549
  13   2.0000      -0.778803       -21.1923
  14   2.0000      -0.697980       -18.9930
  15   2.0000      -0.635529       -17.2936
  16   2.0000      -0.622359       -16.9352
  17   2.0000      -0.586060       -15.9475
  18   2.0000      -0.578951       -15.7541
  19   2.0000      -0.562108       -15.2957
  20   2.0000      -0.545889       -14.8544
  21   2.0000      -0.530813       -14.4442
  22   2.0000      -0.507633       -13.8134
  23   2.0000      -0.493932       -13.4406
  24   2.0000      -0.485961       -13.2237
  25   2.0000      -0.474654       -12.9160
  26   2.0000      -0.466669       -12.6987
  27   2.0000      -0.448707       -12.2099
  28   2.0000      -0.425938       -11.5904
  29   0.0000       0.035355         0.9621
  30   0.0000       0.042154         1.1471
  31   0.0000       0.042790         1.1644
  32   0.0000       0.046537         1.2663
  33   0.0000       0.059771         1.6264

MULLIKEN ATOMIC CHARGES
-----------------------
   0 C :    0.488466
   1 C :    0.462971
   2 C :    0.237973
   3 C :    0.263879
   4 C :    0.268861
   5 C :    0.632429
   6 O :   -0.817240
   7 H :   -0.071469
   8 H :   -0.094771
   9 H :   -0.081798
  10 H :   -0.043765
  11 H :   -0.069384
  12 H :   -0.092508
  13 H :   -0.188184
  14 H :   -0.155431
  15 H :   -0.105756
  16 H :   -0.164340
  17 H :   -0.140839
  18 H :   -0.144570
  19 H :   -0.298252
  20 H :    0.113726
Sum of atomic charges:   -0.0000000

LOEWDIN ATOMIC CHARGES
----------------------
   0 C :    0.134089
   1 C :    0.141820
   2 C :   -0.066064
   3 C :   -0.043422
   4 C :   -0.009001
   5 C :   -0.231029
   6 O :    0.136585
   7 H :   -0.018281
   8 H :   -0.020102
   9 H :   -0.020920
  10 H :   -0.021060
  11 H :   -0.021640
  12 H :   -0.018955
  13 H :    0.002830
  14 H :    0.013607
  15 H :    0.021944
  16 H :    0.006891
  17 H :    0.015258
  18 H :    0.024838
  19 H :    0.034214
  20 H :   -0.061603

  Mayer bond orders larger than 0.100000
B(  0-C ,  2-C ) :   1.1930 B(  0-C ,  7-H ) :   0.9303 B(  0-C ,  8-H ) :   0.9070
B(  0-C ,  9-H ) :   0.8978 B(  1-C ,  3-C ) :   1.1431 B(  1-C , 10-H ) :   0.9217
B(  1-C , 11-H ) :   0.8920 B(  1-C , 12-H ) :   0.9403 B(  2-C ,  4-C ) :   1.1385
B(  2-C ,  9-H ) :   0.1136 B(  2-C , 13-H ) :   0.7651 B(  2-C , 14-H ) :   0.7488
B(  3-C ,  5-C ) :   1.3263 B(  3-C , 11-H ) :   0.1020 B(  3-C , 15-H ) :   0.6955
B(  3-C , 16-H ) :   0.7430 B(  4-C ,  5-C ) :   1.2154 B(  4-C ,  6-O ) :   0.1394
B(  4-C , 17-H ) :   0.6649 B(  4-C , 18-H ) :   0.8399 B(  4-C , 19-H ) :   0.1707
B(  5-C ,  6-O ) :   0.1906 B(  5-C , 15-H ) :   0.1971 B(  5-C , 17-H ) :   0.2186
B(  5-C , 19-H ) :   0.5347 B(  6-O , 20-H ) :   1.1154 B( 17-H , 18-H ) :  -0.1524

MP2 TOTAL ENERGY:     -311.369039268 Eh
FINAL SINGLE POINT ENERGY      -311.369039268278

DIPOLE MOMENT
-------------
                                X             Y             Z
Electronic contribution:      2.86634       3.42169       0.08633
Nuclear contribution   :     -3.47244      -3.50051      -0.41866
                        -----------------------------------------
Total Dipole Moment    :     -0.60609      -0.07882      -0.33232
                        -----------------------------------------
Magnitude (a.u.)       :      0.69570
Magnitude (Debye)      :      1.76833

Rotational constants in cm-1:     0.161054     0.040439     0.034358
Rotational constants in MHz :  4828.278967  1212.329021  1030.030379

                             ****ORCA TERMINATED NORMALLY****
TOTAL RUN TIME: 0 days 0 hours 1 minutes 23 seconds 128 msec
