                         Program Version 5.0.3 -  RELEASE  -
|  1> !ri-mp2 aug-cc-pvdz aug-cc-pvdz/c tightscf
|  2> %pal nprocs 16 end
|  3>
|  4> * xyz 0 1
|  5> S      2.388840   -0.228485   -0.065926
|  6> O     -1.264798    1.114379   -0.020009
|  7> O     -2.745689   -0.568829   -0.105351
|  8> N      0.144946    1.180968    0.131545
|  9> C      0.766882   -0.013837    0.054715
| 10> C     -1.610527   -0.229493   -0.016169
| 11> C     -0.337581   -1.036321    0.118536
| 12> H      0.526739    2.051909   -0.206611
| 13> H     -0.336392   -1.568271    1.071151
| 14> H     -0.255164   -1.781153   -0.670150
| 15> *
| 16>
| 17>                          ****END OF INPUT****

CARTESIAN COORDINATES (ANGSTROEM)
---------------------------------
  S      2.388840   -0.228485   -0.065926
  O     -1.264798    1.114379   -0.020009
  O     -2.745689   -0.568829   -0.105351
  N      0.144946    1.180968    0.131545
  C      0.766882   -0.013837    0.054715
  C     -1.610527   -0.229493   -0.016169
  C     -0.337581   -1.036321    0.118536
  H      0.526739    2.051909   -0.206611
  H     -0.336392   -1.568271    1.071151
  H     -0.255164   -1.781153   -0.670150

 Total Charge           Charge          ....    0
 Multiplicity           Mult            ....    1
 Number of Electrons    NEL             ....   60
 Basis Dimension        Dim             ....  192

ORBITAL ENERGIES
----------------

  NO   OCC          E(Eh)            E(eV)
   0   2.0000     -91.939945     -2501.8131
   1   2.0000     -20.691042      -563.0319
   2   2.0000     -20.601482      -560.5948
   3   2.0000     -15.704991      -427.3545
   4   2.0000     -11.437369      -311.2266
   5   2.0000     -11.395925      -310.0989
   6   2.0000     -11.309863      -307.7570
   7   2.0000      -8.943067      -243.3532
   8   2.0000      -6.625392      -180.2861
   9   2.0000      -6.622675      -180.2122
  10   2.0000      -6.621392      -180.1772
  11   2.0000      -1.540418       -41.9169
  12   2.0000      -1.439268       -39.1645
  13   2.0000      -1.250171       -34.0189
  14   2.0000      -1.114917       -30.3384
  15   2.0000      -1.003258       -27.3000
  16   2.0000      -0.886131       -24.1129
  17   2.0000      -0.824748       -22.4425
  18   2.0000      -0.757709       -20.6183
  19   2.0000      -0.731555       -19.9066
  20   2.0000      -0.692198       -18.8357
  21   2.0000      -0.655833       -17.8461
  22   2.0000      -0.631106       -17.1733
  23   2.0000      -0.626231       -17.0406
  24   2.0000      -0.581497       -15.8233
  25   2.0000      -0.553907       -15.0726
  26   2.0000      -0.489679       -13.3248
  27   2.0000      -0.486647       -13.2423
  28   2.0000      -0.366063        -9.9611
  29   2.0000      -0.358133        -9.7453
  30   0.0000       0.029369         0.7992
  31   0.0000       0.039787         1.0826
  32   0.0000       0.045101         1.2273
  33   0.0000       0.065454         1.7811
  34   0.0000       0.070330         1.9138

MULLIKEN ATOMIC CHARGES
-----------------------
   0 S :    0.005591
   1 O :   -0.864352
   2 O :   -0.694666
   3 N :   -0.065811
   4 C :    0.404217
   5 C :    1.171015
   6 C :   -0.169571
   7 H :    0.039871
   8 H :    0.103321
   9 H :    0.070385
Sum of atomic charges:   -0.0000000

LOEWDIN ATOMIC CHARGES
----------------------
   0 S :    0.574272
   1 O :    0.106475
   2 O :    0.080868
   3 N :    0.063009
   4 C :   -0.716752
   5 C :   -0.272469
   6 C :    0.059590
   7 H :    0.020135
   8 H :    0.044806
   9 H :    0.040067

  Mayer bond orders larger than 0.100000
B(  0-S ,  4-C ) :   1.7356 B(  1-O ,  3-N ) :   0.7607 B(  1-O ,  4-C ) :  -0.1694
B(  1-O ,  5-C ) :   0.5826 B(  1-O ,  6-C ) :   0.2454 B(  2-O ,  5-C ) :   1.5495
B(  3-N ,  4-C ) :   0.8788 B(  3-N ,  5-C ) :  -0.1152 B(  3-N ,  7-H ) :   1.1375
B(  4-C ,  6-C ) :   1.0795 B(  5-C ,  6-C ) :   0.9204 B(  6-C ,  8-H ) :   0.8873
B(  6-C ,  9-H ) :   0.8987

MP2 TOTAL ENERGY:     -718.143118926 Eh
FINAL SINGLE POINT ENERGY      -718.143118925603

DIPOLE MOMENT
-------------
                                X             Y             Z
Electronic contribution:      0.27410       1.40769      -0.18167
Nuclear contribution   :     -0.19329      -1.22663       0.18782
                        -----------------------------------------
Total Dipole Moment    :      0.08082       0.18106       0.00615
                        -----------------------------------------
Magnitude (a.u.)       :      0.19837
Magnitude (Debye)      :      0.50423

Rotational constants in cm-1:     0.233788     0.045325     0.038382
Rotational constants in MHz :  7008.787903  1358.813809  1150.662452

                             ****ORCA TERMINATED NORMALLY****
TOTAL RUN TIME: 0 days 0 hours 0 minutes 37 seconds 122 msec
