                         Program Version 5.0.3 -  RELEASE  -
|  1> !ri-mp2 aug-cc-pvdz aug-cc-pvdz/c tightscf
|  2> %pal nprocs 16 end
|  3>
|  4> * xyz 0 1
|  5> C     0.000000     0.000000    2.232657
|  6> C     0.000000     0.000000    0.930096
|  7> H    -0.923706     0.000000    2.800709
|  8> H     0.923706     0.000000    2.800709
|  9> C     0.000000     0.000000   -0.374142
| 10> C     0.000000     1.284198   -1.168462
| 11> C     0.000000    -1.284198   -1.168462
| 12> H     0.000000     2.158725   -0.521798
| 13> H     0.000000    -2.158725   -0.521798
| 14> H     0.878905     1.332755   -1.816985
| 15> H    -0.878905     1.332755   -1.816985
| 16> H    -0.878905    -1.332755   -1.816985
| 17> H     0.878905    -1.332755   -1.816985
| 18> *
| 19>
| 20>                          ****END OF INPUT****

CARTESIAN COORDINATES (ANGSTROEM)
---------------------------------
  C      0.000000    0.000000    2.232657
  C      0.000000    0.000000    0.930096
  H     -0.923706    0.000000    2.800709
  H      0.923706    0.000000    2.800709
  C      0.000000    0.000000   -0.374142
  C      0.000000    1.284198   -1.168462
  C      0.000000   -1.284198   -1.168462
  H      0.000000    2.158725   -0.521798
  H      0.000000   -2.158725   -0.521798
  H      0.878905    1.332755   -1.816985
  H     -0.878905    1.332755   -1.816985
  H     -0.878905   -1.332755   -1.816985
  H      0.878905   -1.332755   -1.816985

 Total Charge           Charge          ....    0
 Multiplicity           Mult            ....    1
 Number of Electrons    NEL             ....   38
 Basis Dimension        Dim             ....  187

ORBITAL ENERGIES
----------------

  NO   OCC          E(Eh)            E(eV)
   0   2.0000     -11.249260      -306.1079
   1   2.0000     -11.245643      -306.0095
   2   2.0000     -11.233393      -305.6762
   3   2.0000     -11.231967      -305.6374
   4   2.0000     -11.231940      -305.6366
   5   2.0000      -1.105726       -30.0883
   6   2.0000      -1.008388       -27.4396
   7   2.0000      -0.945607       -25.7313
   8   2.0000      -0.869919       -23.6717
   9   2.0000      -0.677865       -18.4456
  10   2.0000      -0.627492       -17.0749
  11   2.0000      -0.607563       -16.5326
  12   2.0000      -0.583858       -15.8876
  13   2.0000      -0.581274       -15.8173
  14   2.0000      -0.540875       -14.7179
  15   2.0000      -0.531330       -14.4582
  16   2.0000      -0.506820       -13.7913
  17   2.0000      -0.366622        -9.9763
  18   2.0000      -0.346631        -9.4323
  19   0.0000       0.036040         0.9807
  20   0.0000       0.044395         1.2080
  21   0.0000       0.049710         1.3527
  22   0.0000       0.050454         1.3729
  23   0.0000       0.064921         1.7666

MULLIKEN ATOMIC CHARGES
-----------------------
   0 C :    0.695920
   1 C :   -0.046007
   2 H :   -0.250503
   3 H :   -0.250503
   4 C :   -0.457150
   5 C :    0.251906
   6 C :    0.251906
   7 H :   -0.136675
   8 H :   -0.136675
   9 H :    0.019446
  10 H :    0.019446
  11 H :    0.019446
  12 H :    0.019446
Sum of atomic charges:   -0.0000000

LOEWDIN ATOMIC CHARGES
----------------------
   0 C :    0.157284
   1 C :   -0.045577
   2 H :   -0.044172
   3 H :   -0.044172
   4 C :   -0.287792
   5 C :    0.165964
   6 C :    0.165964
   7 H :   -0.013269
   8 H :   -0.013269
   9 H :   -0.010240
  10 H :   -0.010240
  11 H :   -0.010240
  12 H :   -0.010240

  Mayer bond orders larger than 0.100000
B(  0-C ,  1-C ) :   1.9814 B(  0-C ,  2-H ) :   0.7227 B(  0-C ,  3-H ) :   0.7227
B(  0-C ,  4-C ) :   0.2450 B(  1-C ,  2-H ) :   0.1312 B(  1-C ,  3-H ) :   0.1312
B(  1-C ,  4-C ) :   1.9379 B(  1-C ,  5-C ) :  -0.2597 B(  1-C ,  6-C ) :  -0.2597
B(  1-C ,  7-H ) :  -0.1552 B(  1-C ,  8-H ) :  -0.1552 B(  2-H ,  3-H ) :  -0.1264
B(  4-C ,  5-C ) :   1.4406 B(  4-C ,  6-C ) :   1.4406 B(  4-C ,  7-H ) :   0.3068
B(  4-C ,  8-H ) :   0.3068 B(  4-C ,  9-H ) :   0.1238 B(  4-C , 10-H ) :   0.1238
B(  4-C , 11-H ) :   0.1238 B(  4-C , 12-H ) :   0.1238 B(  5-C ,  6-C ) :  -0.2302
B(  5-C ,  7-H ) :   0.7596 B(  5-C ,  9-H ) :   0.9509 B(  5-C , 10-H ) :   0.9509
B(  6-C ,  8-H ) :   0.7596 B(  6-C , 11-H ) :   0.9509 B(  6-C , 12-H ) :   0.9509

MP2 TOTAL ENERGY:     -194.664278557 Eh
FINAL SINGLE POINT ENERGY      -194.664278557233

DIPOLE MOMENT
-------------
                                X             Y             Z
Electronic contribution:     -0.00000      -0.00000       2.56807
Nuclear contribution   :      0.00000       0.00000      -2.83933
                        -----------------------------------------
Total Dipole Moment    :     -0.00000      -0.00000      -0.27126
                        -----------------------------------------
Magnitude (a.u.)       :      0.27126
Magnitude (Debye)      :      0.68950

Rotational constants in cm-1:     0.276321     0.121153     0.088500
Rotational constants in MHz :  8283.891808  3632.087207  2653.174987

                             ****ORCA TERMINATED NORMALLY****
TOTAL RUN TIME: 0 days 0 hours 0 minutes 37 seconds 143 msec
