                         Program Version 5.0.3 -  RELEASE  -
|  1> !ri-mp2 aug-cc-pvdz aug-cc-pvdz/c tightscf
|  2> %pal nprocs 16 end
|  3>
|  4> * xyz 0 1
|  5> S      1.423113   -1.504035   -0.000003
|  6> S      1.033270    1.806919    0.000000
|  7> N     -0.098633   -0.682408    0.000000
|  8> N     -1.561189    0.904248    0.000002
|  9> C     -0.213029    0.685854    0.000000
| 10> C     -1.351292   -1.279776    0.000001
| 11> C     -2.265069   -0.285493    0.000003
| 12> H      2.055117   -0.283372   -0.000002
| 13> H     -1.946319    1.831522    0.000004
| 14> H     -1.478172   -2.345480    0.000001
| 15> H     -3.337664   -0.325200    0.000003
| 16> *
| 17>
| 18>                          ****END OF INPUT****

CARTESIAN COORDINATES (ANGSTROEM)
---------------------------------
  S      1.423113   -1.504035   -0.000003
  S      1.033270    1.806919    0.000000
  N     -0.098633   -0.682408    0.000000
  N     -1.561189    0.904248    0.000002
  C     -0.213029    0.685854    0.000000
  C     -1.351292   -1.279776    0.000001
  C     -2.265069   -0.285493    0.000003
  H      2.055117   -0.283372   -0.000002
  H     -1.946319    1.831522    0.000004
  H     -1.478172   -2.345480    0.000001
  H     -3.337664   -0.325200    0.000003

 Total Charge           Charge          ....    0
 Multiplicity           Mult            ....    1
 Number of Electrons    NEL             ....   68
 Basis Dimension        Dim             ....  205

ORBITAL ENERGIES
----------------

  NO   OCC          E(Eh)            E(eV)
   0   2.0000     -92.011490     -2503.7599
   1   2.0000     -91.902368     -2500.7906
   2   2.0000     -15.663797      -426.2336
   3   2.0000     -15.650479      -425.8712
   4   2.0000     -11.381867      -309.7163
   5   2.0000     -11.307042      -307.6802
   6   2.0000     -11.305037      -307.6257
   7   2.0000      -9.009835      -245.1701
   8   2.0000      -8.905557      -242.3325
   9   2.0000      -6.692186      -182.1036
  10   2.0000      -6.690119      -182.0474
  11   2.0000      -6.687582      -181.9783
  12   2.0000      -6.588169      -179.2732
  13   2.0000      -6.584683      -179.1783
  14   2.0000      -6.584483      -179.1729
  15   2.0000      -1.397439       -38.0262
  16   2.0000      -1.245589       -33.8942
  17   2.0000      -1.088525       -29.6203
  18   2.0000      -1.005192       -27.3527
  19   2.0000      -0.940512       -25.5926
  20   2.0000      -0.871348       -23.7106
  21   2.0000      -0.812704       -22.1148
  22   2.0000      -0.737068       -20.0566
  23   2.0000      -0.668792       -18.1988
  24   2.0000      -0.660175       -17.9643
  25   2.0000      -0.646263       -17.5857
  26   2.0000      -0.605050       -16.4642
  27   2.0000      -0.533140       -14.5075
  28   2.0000      -0.517760       -14.0890
  29   2.0000      -0.511523       -13.9193
  30   2.0000      -0.412591       -11.2272
  31   2.0000      -0.369747       -10.0613
  32   2.0000      -0.334063        -9.0903
  33   2.0000      -0.295366        -8.0373
  34   0.0000       0.023955         0.6518
  35   0.0000       0.037198         1.0122
  36   0.0000       0.049272         1.3408
  37   0.0000       0.058387         1.5888
  38   0.0000       0.086134         2.3438

MULLIKEN ATOMIC CHARGES
-----------------------
   0 S :    0.360244
   1 S :   -0.095541
   2 N :   -0.794132
   3 N :   -0.604954
   4 C :    0.176461
   5 C :    0.591230
   6 C :    0.756784
   7 H :    0.214240
   8 H :   -0.116098
   9 H :   -0.285429
  10 H :   -0.202806
Sum of atomic charges:    0.0000000

LOEWDIN ATOMIC CHARGES
----------------------
   0 S :    0.815747
   1 S :    0.489168
   2 N :   -0.444990
   3 N :    0.062513
   4 C :   -0.702355
   5 C :    0.001903
   6 C :    0.041723
   7 H :   -0.298030
   8 H :    0.032243
   9 H :   -0.001359
  10 H :    0.003438

  Mayer bond orders larger than 0.100000
B(  0-S ,  2-N ) :   0.7049 B(  0-S ,  7-H ) :   0.8481 B(  1-S ,  4-C ) :   1.6390
B(  1-S ,  7-H ) :   0.1120 B(  2-N ,  4-C ) :   1.1324 B(  2-N ,  5-C ) :   1.0129
B(  3-N ,  4-C ) :   1.0335 B(  3-N ,  6-C ) :   0.8109 B(  3-N ,  8-H ) :   1.2658
B(  5-C ,  6-C ) :   1.7110 B(  5-C ,  9-H ) :   0.8948 B(  6-C ,  8-H ) :  -0.1669
B(  6-C , 10-H ) :   0.8839

MP2 TOTAL ENERGY:    -1020.933372297 Eh
FINAL SINGLE POINT ENERGY     -1020.933372297335

DIPOLE MOMENT
-------------
                                X             Y             Z
Electronic contribution:      2.88655       0.15114      -0.00000
Nuclear contribution   :     -4.62980      -1.09218       0.00001
                        -----------------------------------------
Total Dipole Moment    :     -1.74325      -0.94103       0.00000
                        -----------------------------------------
Magnitude (a.u.)       :      1.98102
Magnitude (Debye)      :      5.03536

Rotational constants in cm-1:     0.073117     0.070566     0.035909
Rotational constants in MHz :  2192.006568  2115.502522  1076.537583

                             ****ORCA TERMINATED NORMALLY****
TOTAL RUN TIME: 0 days 0 hours 0 minutes 48 seconds 263 msec
