                         Program Version 5.0.3 -  RELEASE  -
|  1> !ri-mp2 aug-cc-pvdz aug-cc-pvdz/c tightscf
|  2> %pal nprocs 16 end
|  3>
|  4> * xyz 0 1
|  5> C     -0.625254    0.796229   -0.069321
|  6> C      0.748082    1.424367   -0.171862
|  7> C      1.831447    0.472172    0.325884
|  8> C      0.493068   -1.432208    0.084495
|  9> N     -0.642039   -0.552571   -0.197890
| 10> O     -1.673211    1.417918    0.082626
| 11> O      1.681886   -0.808195   -0.288855
| 12> O     -1.868778   -1.171591    0.063455
| 13> H      0.927139    1.687106   -1.216193
| 14> H      0.732774    2.348662    0.404513
| 15> H      2.826636    0.822192    0.062253
| 16> H      1.780973    0.363978    1.416043
| 17> H      0.486076   -1.691814    1.152629
| 18> H      0.385931   -2.336757   -0.510335
| 19> H     -2.448486   -0.393788    0.203331
| 20> *
| 21>
| 22>                          ****END OF INPUT****

CARTESIAN COORDINATES (ANGSTROEM)
---------------------------------
  C     -0.625254    0.796229   -0.069321
  C      0.748082    1.424367   -0.171862
  C      1.831447    0.472172    0.325884
  C      0.493068   -1.432208    0.084495
  N     -0.642039   -0.552571   -0.197890
  O     -1.673211    1.417918    0.082626
  O      1.681886   -0.808195   -0.288855
  O     -1.868778   -1.171591    0.063455
  H      0.927139    1.687106   -1.216193
  H      0.732774    2.348662    0.404513
  H      2.826636    0.822192    0.062253
  H      1.780973    0.363978    1.416043
  H      0.486076   -1.691814    1.152629
  H      0.385931   -2.336757   -0.510335
  H     -2.448486   -0.393788    0.203331

 Total Charge           Charge          ....    0
 Multiplicity           Mult            ....    1
 Number of Electrons    NEL             ....   62
 Basis Dimension        Dim             ....  247

ORBITAL ENERGIES
----------------

  NO   OCC          E(Eh)            E(eV)
   0   2.0000     -20.621909      -561.1507
   1   2.0000     -20.603275      -560.6436
   2   2.0000     -20.551201      -559.2266
   3   2.0000     -15.654829      -425.9896
   4   2.0000     -11.376665      -309.5748
   5   2.0000     -11.348507      -308.8086
   6   2.0000     -11.315714      -307.9162
   7   2.0000     -11.266027      -306.5642
   8   2.0000      -1.472088       -40.0576
   9   2.0000      -1.420585       -38.6561
  10   2.0000      -1.379573       -37.5401
  11   2.0000      -1.178377       -32.0653
  12   2.0000      -1.081818       -29.4378
  13   2.0000      -0.951881       -25.9020
  14   2.0000      -0.906046       -24.6548
  15   2.0000      -0.794350       -21.6154
  16   2.0000      -0.728417       -19.8212
  17   2.0000      -0.723400       -19.6847
  18   2.0000      -0.688964       -18.7477
  19   2.0000      -0.679480       -18.4896
  20   2.0000      -0.643927       -17.5222
  21   2.0000      -0.627800       -17.0833
  22   2.0000      -0.612071       -16.6553
  23   2.0000      -0.601730       -16.3739
  24   2.0000      -0.568189       -15.4612
  25   2.0000      -0.550287       -14.9741
  26   2.0000      -0.516330       -14.0500
  27   2.0000      -0.506422       -13.7804
  28   2.0000      -0.466235       -12.6869
  29   2.0000      -0.446506       -12.1500
  30   2.0000      -0.384013       -10.4495
  31   0.0000       0.030591         0.8324
  32   0.0000       0.042495         1.1563
  33   0.0000       0.044974         1.2238
  34   0.0000       0.051955         1.4138
  35   0.0000       0.062865         1.7106

MULLIKEN ATOMIC CHARGES
-----------------------
   0 C :    0.760323
   1 C :    0.227654
   2 C :    0.818369
   3 C :    1.449820
   4 N :   -0.281436
   5 O :   -0.877525
   6 O :   -0.883466
   7 O :   -0.728016
   8 H :    0.038679
   9 H :    0.018378
  10 H :   -0.228902
  11 H :   -0.062520
  12 H :   -0.195843
  13 H :   -0.248502
  14 H :    0.192987
Sum of atomic charges:    0.0000000

LOEWDIN ATOMIC CHARGES
----------------------
   0 C :   -0.302410
   1 C :    0.066992
   2 C :    0.006033
   3 C :    0.027626
   4 N :   -0.101745
   5 O :    0.029701
   6 O :    0.027911
   7 O :    0.180908
   8 H :    0.033917
   9 H :    0.031551
  10 H :    0.013012
  11 H :    0.019752
  12 H :    0.022831
  13 H :    0.019349
  14 H :   -0.075430

  Mayer bond orders larger than 0.100000
B(  0-C ,  1-C ) :   0.9603 B(  0-C ,  4-N ) :   1.1811 B(  0-C ,  5-O ) :   1.2926
B(  0-C ,  7-O ) :  -0.1610 B(  1-C ,  2-C ) :   1.3014 B(  1-C ,  8-H ) :   0.8782
B(  1-C ,  9-H ) :   0.7914 B(  2-C ,  6-O ) :   0.6333 B(  2-C , 10-H ) :   0.9734
B(  2-C , 11-H ) :   0.8531 B(  3-C ,  4-N ) :   0.7123 B(  3-C ,  6-O ) :   0.6178
B(  3-C ,  7-O ) :  -0.1026 B(  3-C , 12-H ) :   0.8254 B(  3-C , 13-H ) :   1.0889
B(  4-N ,  7-O ) :   0.7524 B(  7-O , 14-H ) :   1.0332 B( 10-H , 11-H ) :  -0.1442
B( 12-H , 13-H ) :  -0.1133

MP2 TOTAL ENERGY:     -435.909617307 Eh
FINAL SINGLE POINT ENERGY      -435.909617306553

DIPOLE MOMENT
-------------
                                X             Y             Z
Electronic contribution:     -3.43597      -0.78152      -1.10286
Nuclear contribution   :      4.63156       0.78302       1.50028
                        -----------------------------------------
Total Dipole Moment    :      1.19560       0.00150       0.39742
                        -----------------------------------------
Magnitude (a.u.)       :      1.25992
Magnitude (Debye)      :      3.20246

Rotational constants in cm-1:     0.108984     0.071818     0.045415
Rotational constants in MHz :  3267.249833  2153.035746  1361.508286

                             ****ORCA TERMINATED NORMALLY****
TOTAL RUN TIME: 0 days 0 hours 1 minutes 5 seconds 881 msec
