                         Program Version 5.0.3 -  RELEASE  -
|  1> !ri-mp2 aug-cc-pvdz aug-cc-pvdz/c tightscf
|  2> %pal nprocs 16 end
|  3>
|  4> * xyz 0 1
|  5> C      1.643090   -0.157443    0.153934
|  6> C     -0.880250   -0.166831    0.029956
|  7> C      0.347276   -0.704458    0.723932
|  8> O      1.723698    0.647413   -0.732257
|  9> O     -1.466392   -0.723024   -0.859094
| 10> O     -1.245723    1.033301    0.528366
| 11> H      2.550479   -0.574965    0.632776
| 12> H      0.367812   -1.791023    0.624453
| 13> H      0.330267   -0.468364    1.790806
| 14> H     -2.001918    1.345224    0.008912
| 15> *
| 16>
| 17>                          ****END OF INPUT****

CARTESIAN COORDINATES (ANGSTROEM)
---------------------------------
  C      1.643090   -0.157443    0.153934
  C     -0.880250   -0.166831    0.029956
  C      0.347276   -0.704458    0.723932
  O      1.723698    0.647413   -0.732257
  O     -1.466392   -0.723024   -0.859094
  O     -1.245723    1.033301    0.528366
  H      2.550479   -0.574965    0.632776
  H      0.367812   -1.791023    0.624453
  H      0.330267   -0.468364    1.790806
  H     -2.001918    1.345224    0.008912

 Total Charge           Charge          ....    0
 Multiplicity           Mult            ....    1
 Number of Electrons    NEL             ....   46
 Basis Dimension        Dim             ....  174

ORBITAL ENERGIES
----------------

  NO   OCC          E(Eh)            E(eV)
   0   2.0000     -20.631736      -561.4181
   1   2.0000     -20.590754      -560.3029
   2   2.0000     -20.572616      -559.8094
   3   2.0000     -11.410783      -310.5032
   4   2.0000     -11.367851      -309.3349
   5   2.0000     -11.282586      -307.0148
   6   2.0000      -1.481390       -40.3107
   7   2.0000      -1.425406       -38.7873
   8   2.0000      -1.379629       -37.5416
   9   2.0000      -1.077039       -29.3077
  10   2.0000      -0.884446       -24.0670
  11   2.0000      -0.802866       -21.8471
  12   2.0000      -0.720319       -19.6009
  13   2.0000      -0.710316       -19.3287
  14   2.0000      -0.695156       -18.9162
  15   2.0000      -0.653902       -17.7936
  16   2.0000      -0.623731       -16.9726
  17   2.0000      -0.612837       -16.6761
  18   2.0000      -0.587710       -15.9924
  19   2.0000      -0.530064       -14.4238
  20   2.0000      -0.494350       -13.4519
  21   2.0000      -0.470604       -12.8058
  22   2.0000      -0.441650       -12.0179
  23   0.0000       0.028521         0.7761
  24   0.0000       0.040756         1.1090
  25   0.0000       0.051274         1.3952
  26   0.0000       0.053193         1.4475
  27   0.0000       0.093000         2.5306

MULLIKEN ATOMIC CHARGES
-----------------------
   0 C :    0.770029
   1 C :    1.257806
   2 C :   -0.170735
   3 O :   -0.642946
   4 O :   -0.745258
   5 O :   -0.667231
   6 H :   -0.101428
   7 H :    0.051401
   8 H :    0.070147
   9 H :    0.178213
Sum of atomic charges:   -0.0000000

LOEWDIN ATOMIC CHARGES
----------------------
   0 C :   -0.070588
   1 C :   -0.346849
   2 C :    0.048862
   3 O :    0.049404
   4 O :    0.052153
   5 O :    0.206395
   6 H :    0.018226
   7 H :    0.029143
   8 H :    0.026384
   9 H :   -0.013130

  Mayer bond orders larger than 0.100000
B(  0-C ,  2-C ) :   1.1542 B(  0-C ,  3-O ) :   1.6216 B(  0-C ,  6-H ) :   0.8202
B(  1-C ,  2-C ) :   0.9451 B(  1-C ,  4-O ) :   1.3933 B(  1-C ,  5-O ) :   0.4872
B(  2-C ,  5-O ) :   0.1055 B(  2-C ,  7-H ) :   0.8458 B(  2-C ,  8-H ) :   0.9281
B(  5-O ,  9-H ) :   1.0220

MP2 TOTAL ENERGY:     -341.571680166 Eh
FINAL SINGLE POINT ENERGY      -341.571680166114

DIPOLE MOMENT
-------------
                                X             Y             Z
Electronic contribution:     -1.04086       1.07384      -1.63101
Nuclear contribution   :      1.20770      -1.44607       2.98251
                        -----------------------------------------
Total Dipole Moment    :      0.16684      -0.37223       1.35151
                        -----------------------------------------
Magnitude (a.u.)       :      1.41172
Magnitude (Debye)      :      3.58831

Rotational constants in cm-1:     0.212186     0.086130     0.081922
Rotational constants in MHz :  6361.165618  2582.112589  2455.948991

                             ****ORCA TERMINATED NORMALLY****
TOTAL RUN TIME: 0 days 0 hours 0 minutes 34 seconds 367 msec
