                         Program Version 5.0.3 -  RELEASE  -
|  1> !ri-mp2 aug-cc-pvdz aug-cc-pvdz/c tightscf
|  2> %pal nprocs 16 end
|  3>
|  4> * xyz 0 1
|  5> O     -2.132717   -1.095340    0.252518
|  6> O      0.610471    1.752049   -0.467087
|  7> N      1.491407   -0.901688   -0.337217
|  8> N      2.510476   -0.318967    0.031214
|  9> N      3.520422    0.108687    0.290218
| 10> C      0.232239   -0.500781    0.281776
| 11> C     -1.595681    1.278882    0.363472
| 12> C     -0.861691   -1.447344   -0.252856
| 13> C     -0.161431    0.954486    0.005105
| 14> C     -2.543735    0.195754   -0.169896
| 15> H      0.271704   -0.619788    1.372356
| 16> H     -1.844528    2.263920   -0.029043
| 17> H     -1.679931    1.309068    1.453493
| 18> H     -0.657202   -2.466746    0.065853
| 19> H     -0.850944   -1.418392   -1.349027
| 20> H     -3.551721    0.340673    0.213185
| 21> H     -2.583755    0.235389   -1.265368
| 22> *
| 23>
| 24>                          ****END OF INPUT****

CARTESIAN COORDINATES (ANGSTROEM)
---------------------------------
  O     -2.132717   -1.095340    0.252518
  O      0.610471    1.752049   -0.467087
  N      1.491407   -0.901688   -0.337217
  N      2.510476   -0.318967    0.031214
  N      3.520422    0.108687    0.290218
  C      0.232239   -0.500781    0.281776
  C     -1.595681    1.278882    0.363472
  C     -0.861691   -1.447344   -0.252856
  C     -0.161431    0.954486    0.005105
  C     -2.543735    0.195754   -0.169896
  H      0.271704   -0.619788    1.372356
  H     -1.844528    2.263920   -0.029043
  H     -1.679931    1.309068    1.453493
  H     -0.657202   -2.466746    0.065853
  H     -0.850944   -1.418392   -1.349027
  H     -3.551721    0.340673    0.213185
  H     -2.583755    0.235389   -1.265368

 Total Charge           Charge          ....    0
 Multiplicity           Mult            ....    1
 Number of Electrons    NEL             ....   74
 Basis Dimension        Dim             ....  293

ORBITAL ENERGIES
----------------

  NO   OCC          E(Eh)            E(eV)
   0   2.0000     -20.593603      -560.3804
   1   2.0000     -20.578809      -559.9779
   2   2.0000     -15.795288      -429.8116
   3   2.0000     -15.680492      -426.6879
   4   2.0000     -15.617668      -424.9783
   5   2.0000     -11.355934      -309.0107
   6   2.0000     -11.310736      -307.7808
   7   2.0000     -11.309508      -307.7474
   8   2.0000     -11.308624      -307.7233
   9   2.0000     -11.261005      -306.4275
  10   2.0000      -1.515778       -41.2464
  11   2.0000      -1.418972       -38.6122
  12   2.0000      -1.407391       -38.2970
  13   2.0000      -1.303628       -35.4735
  14   2.0000      -1.088094       -29.6086
  15   2.0000      -1.069495       -29.1024
  16   2.0000      -0.920517       -25.0485
  17   2.0000      -0.878845       -23.9146
  18   2.0000      -0.800301       -21.7773
  19   2.0000      -0.748148       -20.3581
  20   2.0000      -0.716668       -19.5015
  21   2.0000      -0.713304       -19.4100
  22   2.0000      -0.691496       -18.8166
  23   2.0000      -0.679126       -18.4799
  24   2.0000      -0.665313       -18.1041
  25   2.0000      -0.651313       -17.7231
  26   2.0000      -0.643260       -17.5040
  27   2.0000      -0.613500       -16.6942
  28   2.0000      -0.595264       -16.1980
  29   2.0000      -0.567964       -15.4551
  30   2.0000      -0.536888       -14.6095
  31   2.0000      -0.520357       -14.1596
  32   2.0000      -0.493099       -13.4179
  33   2.0000      -0.461759       -12.5651
  34   2.0000      -0.444382       -12.0923
  35   2.0000      -0.425247       -11.5716
  36   2.0000      -0.379495       -10.3266
  37   0.0000       0.030836         0.8391
  38   0.0000       0.039535         1.0758
  39   0.0000       0.043552         1.1851
  40   0.0000       0.053598         1.4585
  41   0.0000       0.061138         1.6637

MULLIKEN ATOMIC CHARGES
-----------------------
   0 O :   -0.927432
   1 O :   -0.807833
   2 N :   -0.704954
   3 N :    0.481405
   4 N :   -0.385375
   5 C :    0.324792
   6 C :    0.302234
   7 C :    1.034717
   8 C :    0.390481
   9 C :    0.895793
  10 H :    0.005742
  11 H :   -0.072376
  12 H :    0.010026
  13 H :   -0.200744
  14 H :   -0.010867
  15 H :   -0.250484
  16 H :   -0.085123
Sum of atomic charges:   -0.0000000

LOEWDIN ATOMIC CHARGES
----------------------
   0 O :    0.012380
   1 O :    0.070787
   2 N :    0.070936
   3 N :   -0.261099
   4 N :    0.276225
   5 C :   -0.168831
   6 C :    0.051661
   7 C :    0.014453
   8 C :   -0.240953
   9 C :   -0.005320
  10 H :    0.050463
  11 H :    0.028110
  12 H :    0.030538
  13 H :    0.017490
  14 H :    0.023150
  15 H :    0.011836
  16 H :    0.018173

  Mayer bond orders larger than 0.100000
B(  0-O ,  7-C ) :   0.5809 B(  0-O ,  9-C ) :   0.6340 B(  1-O ,  8-C ) :   1.3412
B(  2-N ,  3-N ) :   1.1023 B(  2-N ,  4-N ) :   0.2383 B(  2-N ,  5-C ) :   0.3460
B(  2-N ,  8-C ) :   0.1991 B(  3-N ,  4-N ) :   1.7854 B(  5-C ,  7-C ) :   1.2228
B(  5-C ,  8-C ) :   0.9680 B(  5-C , 10-H ) :   0.8716 B(  5-C , 13-H ) :   0.1053
B(  6-C ,  8-C ) :   1.1057 B(  6-C ,  9-C ) :   1.2463 B(  6-C , 11-H ) :   0.6610
B(  6-C , 12-H ) :   0.9319 B(  7-C , 13-H ) :   0.9300 B(  7-C , 14-H ) :   0.8562
B(  8-C , 11-H ) :   0.2042 B(  9-C , 15-H ) :   0.9729 B(  9-C , 16-H ) :   0.8423
B( 13-H , 14-H ) :  -0.1539 B( 15-H , 16-H ) :  -0.1529

MP2 TOTAL ENERGY:     -508.064073226 Eh
FINAL SINGLE POINT ENERGY      -508.064073226195

DIPOLE MOMENT
-------------
                                X             Y             Z
Electronic contribution:      9.50905       0.15626       0.00661
Nuclear contribution   :    -10.71033      -0.34668       0.45099
                        -----------------------------------------
Total Dipole Moment    :     -1.20128      -0.19042       0.45760
                        -----------------------------------------
Magnitude (a.u.)       :      1.29951
Magnitude (Debye)      :      3.30310

Rotational constants in cm-1:     0.096599     0.031534     0.025077
Rotational constants in MHz :  2895.968433   945.360650   751.782261

                             ****ORCA TERMINATED NORMALLY****
TOTAL RUN TIME: 0 days 0 hours 1 minutes 26 seconds 895 msec
