                         Program Version 5.0.3 -  RELEASE  -
|  1> !ri-mp2 aug-cc-pvdz aug-cc-pvdz/c tightscf
|  2> %pal nprocs 16 end
|  3>
|  4> * xyz 0 1
|  5> Cl   -0.294090    2.071082   -0.000003
|  6> S     2.440221   -0.174159    0.000001
|  7> O    -1.231702   -1.742984    0.000002
|  8> O    -2.709242   -0.031225    0.000000
|  9> C    -0.315568    0.356447    0.000000
| 10> C     0.729367   -0.479618    0.000001
| 11> C    -1.577506   -0.412007    0.000000
| 12> C     0.190782   -1.883495    0.000003
| 13> H     2.338062    1.169452    0.000000
| 14> H     0.491515   -2.442798    0.888008
| 15> H     0.491515   -2.442801   -0.888000
| 16> *
| 17>
| 18>                          ****END OF INPUT****

CARTESIAN COORDINATES (ANGSTROEM)
---------------------------------
  Cl    -0.294090    2.071082   -0.000003
  S      2.440221   -0.174159    0.000001
  O     -1.231702   -1.742984    0.000002
  O     -2.709242   -0.031225    0.000000
  C     -0.315568    0.356447    0.000000
  C      0.729367   -0.479618    0.000001
  C     -1.577506   -0.412007    0.000000
  C      0.190782   -1.883495    0.000003
  H      2.338062    1.169452    0.000000
  H      0.491515   -2.442798    0.888008
  H      0.491515   -2.442801   -0.888000

 Total Charge           Charge          ....    0
 Multiplicity           Mult            ....    1
 Number of Electrons    NEL             ....   76
 Basis Dimension        Dim             ....  219

ORBITAL ENERGIES
----------------

  NO   OCC          E(Eh)            E(eV)
   0   2.0000    -104.870538     -2853.6724
   1   2.0000     -92.018629     -2503.9542
   2   2.0000     -20.633094      -561.4550
   3   2.0000     -20.568137      -559.6875
   4   2.0000     -11.410871      -310.5056
   5   2.0000     -11.344605      -308.7024
   6   2.0000     -11.339400      -308.5608
   7   2.0000     -11.330269      -308.3123
   8   2.0000     -10.596314      -288.3404
   9   2.0000      -9.020832      -245.4693
  10   2.0000      -8.064253      -219.4395
  11   2.0000      -8.060676      -219.3421
  12   2.0000      -8.060556      -219.3389
  13   2.0000      -6.702958      -182.3968
  14   2.0000      -6.701488      -182.3568
  15   2.0000      -6.699415      -182.3004
  16   2.0000      -1.482934       -40.3527
  17   2.0000      -1.392043       -37.8794
  18   2.0000      -1.209241       -32.9051
  19   2.0000      -1.124131       -30.5892
  20   2.0000      -1.021766       -27.8037
  21   2.0000      -1.000003       -27.2115
  22   2.0000      -0.823568       -22.4104
  23   2.0000      -0.793110       -21.5816
  24   2.0000      -0.714194       -19.4342
  25   2.0000      -0.708535       -19.2802
  26   2.0000      -0.668236       -18.1836
  27   2.0000      -0.649904       -17.6848
  28   2.0000      -0.591779       -16.1031
  29   2.0000      -0.587561       -15.9883
  30   2.0000      -0.558705       -15.2031
  31   2.0000      -0.549926       -14.9642
  32   2.0000      -0.538133       -14.6433
  33   2.0000      -0.489348       -13.3158
  34   2.0000      -0.482086       -13.1182
  35   2.0000      -0.458629       -12.4799
  36   2.0000      -0.458167       -12.4674
  37   2.0000      -0.363563        -9.8931
  38   0.0000       0.028521         0.7761
  39   0.0000       0.041839         1.1385
  40   0.0000       0.046923         1.2768
  41   0.0000       0.066244         1.8026
  42   0.0000       0.075154         2.0450

MULLIKEN ATOMIC CHARGES
-----------------------
   0 Cl:   -0.312266
   1 S :    0.319212
   2 O :   -0.862803
   3 O :   -0.718104
   4 C :   -0.183738
   5 C :    0.066567
   6 C :    0.813968
   7 C :    0.759544
   8 H :    0.138469
   9 H :   -0.010425
  10 H :   -0.010425
Sum of atomic charges:    0.0000000

LOEWDIN ATOMIC CHARGES
----------------------
   0 Cl:    0.630531
   1 S :    0.874286
   2 O :    0.086403
   3 O :    0.058809
   4 C :   -0.569601
   5 C :   -0.565076
   6 C :   -0.348999
   7 C :   -0.000315
   8 H :   -0.206444
   9 H :    0.020203
  10 H :    0.020203

  Mayer bond orders larger than 0.100000
B(  0-Cl,  4-C ) :   1.0053 B(  0-Cl,  5-C ) :  -0.1915 B(  0-Cl,  6-C ) :  -0.1125
B(  1-S ,  5-C ) :   0.9763 B(  1-S ,  7-C ) :   0.1162 B(  1-S ,  8-H ) :   0.9111
B(  2-O ,  5-C ) :   0.2001 B(  2-O ,  6-C ) :   0.5310 B(  2-O ,  7-C ) :   0.4898
B(  3-O ,  4-C ) :  -0.2990 B(  3-O ,  6-C ) :   1.7471 B(  4-C ,  5-C ) :   1.5423
B(  4-C ,  6-C ) :   0.8212 B(  4-C ,  7-C ) :   0.1272 B(  5-C ,  6-C ) :  -0.1030
B(  5-C ,  7-C ) :   1.0977 B(  7-C ,  9-H ) :   0.8781 B(  7-C , 10-H ) :   0.8781
B(  9-H , 10-H ) :  -0.1193

MP2 TOTAL ENERGY:    -1161.221378680 Eh
FINAL SINGLE POINT ENERGY     -1161.221378679590

DIPOLE MOMENT
-------------
                                X             Y             Z
Electronic contribution:     -1.40392       5.97023      -0.00001
Nuclear contribution   :      3.41661      -6.35257       0.00001
                        -----------------------------------------
Total Dipole Moment    :      2.01270      -0.38234       0.00000
                        -----------------------------------------
Magnitude (a.u.)       :      2.04869
Magnitude (Debye)      :      5.20736

Rotational constants in cm-1:     0.063543     0.044234     0.026208
Rotational constants in MHz :  1904.969621  1326.099439   785.704683

                             ****ORCA TERMINATED NORMALLY****
TOTAL RUN TIME: 0 days 0 hours 0 minutes 43 seconds 39 msec
