                         Program Version 5.0.3 -  RELEASE  -
|  1> !ri-mp2 aug-cc-pvdz aug-cc-pvdz/c tightscf
|  2> %pal nprocs 16 end
|  3>
|  4> * xyz 0 1
|  5> C      0.332422   -0.120738    2.576193
|  6> C      0.332422   -0.120738   -2.576193
|  7> C     -1.326599   -0.799534    0.000000
|  8> C      0.332422    0.658899    1.260993
|  9> C      0.332422    0.658899   -1.260993
| 10> C      0.076207   -0.183223    0.000000
| 11> H      1.064695   -0.930894    2.552760
| 12> H      0.589136    0.530437    3.413029
| 13> H     -0.640971   -0.560347    2.794714
| 14> H      0.589136    0.530437   -3.413029
| 15> H     -0.640971   -0.560347   -2.794714
| 16> H      1.064695   -0.930894   -2.552760
| 17> H     -2.090417   -0.016871    0.000000
| 18> H     -1.492605   -1.425260    0.876651
| 19> H     -1.492605   -1.425260   -0.876651
| 20> H      1.299473    1.157680    1.150999
| 21> H     -0.414951    1.458132    1.311128
| 22> H     -0.414951    1.458132   -1.311128
| 23> H      1.299473    1.157680   -1.150999
| 24> H      0.805074   -1.004008    0.000000
| 25> *
| 26>
| 27>                          ****END OF INPUT****

CARTESIAN COORDINATES (ANGSTROEM)
---------------------------------
  C      0.332422   -0.120738    2.576193
  C      0.332422   -0.120738   -2.576193
  C     -1.326599   -0.799534    0.000000
  C      0.332422    0.658899    1.260993
  C      0.332422    0.658899   -1.260993
  C      0.076207   -0.183223    0.000000
  H      1.064695   -0.930894    2.552760
  H      0.589136    0.530437    3.413029
  H     -0.640971   -0.560347    2.794714
  H      0.589136    0.530437   -3.413029
  H     -0.640971   -0.560347   -2.794714
  H      1.064695   -0.930894   -2.552760
  H     -2.090417   -0.016871    0.000000
  H     -1.492605   -1.425260    0.876651
  H     -1.492605   -1.425260   -0.876651
  H      1.299473    1.157680    1.150999
  H     -0.414951    1.458132    1.311128
  H     -0.414951    1.458132   -1.311128
  H      1.299473    1.157680   -1.150999
  H      0.805074   -1.004008    0.000000

 Total Charge           Charge          ....    0
 Multiplicity           Mult            ....    1
 Number of Electrons    NEL             ....   50
 Basis Dimension        Dim             ....  264

ORBITAL ENERGIES
----------------

  NO   OCC          E(Eh)            E(eV)
   0   2.0000     -11.224411      -305.4318
   1   2.0000     -11.218631      -305.2745
   2   2.0000     -11.218587      -305.2733
   3   2.0000     -11.214931      -305.1738
   4   2.0000     -11.214930      -305.1738
   5   2.0000     -11.212377      -305.1043
   6   2.0000      -1.095444       -29.8085
   7   2.0000      -1.014121       -27.5956
   8   2.0000      -0.962915       -26.2022
   9   2.0000      -0.888665       -24.1818
  10   2.0000      -0.819543       -22.3009
  11   2.0000      -0.757556       -20.6142
  12   2.0000      -0.635319       -17.2879
  13   2.0000      -0.618445       -16.8287
  14   2.0000      -0.590319       -16.0634
  15   2.0000      -0.571996       -15.5648
  16   2.0000      -0.548208       -14.9175
  17   2.0000      -0.537376       -14.6227
  18   2.0000      -0.521628       -14.1942
  19   2.0000      -0.506058       -13.7705
  20   2.0000      -0.490122       -13.3369
  21   2.0000      -0.474169       -12.9028
  22   2.0000      -0.451311       -12.2808
  23   2.0000      -0.443650       -12.0723
  24   2.0000      -0.437451       -11.9036
  25   0.0000       0.037663         1.0249
  26   0.0000       0.043069         1.1720
  27   0.0000       0.045350         1.2340
  28   0.0000       0.047836         1.3017
  29   0.0000       0.062405         1.6981

MULLIKEN ATOMIC CHARGES
-----------------------
   0 C :    0.483466
   1 C :    0.483466
   2 C :    0.720230
   3 C :    0.618457
   4 C :    0.618457
   5 C :   -1.093589
   6 H :   -0.081561
   7 H :   -0.073614
   8 H :   -0.105624
   9 H :   -0.073614
  10 H :   -0.105624
  11 H :   -0.081561
  12 H :   -0.069831
  13 H :   -0.112959
  14 H :   -0.112959
  15 H :   -0.198255
  16 H :   -0.149620
  17 H :   -0.149620
  18 H :   -0.198255
  19 H :   -0.317389
Sum of atomic charges:    0.0000000

LOEWDIN ATOMIC CHARGES
----------------------
   0 C :    0.137083
   1 C :    0.137083
   2 C :    0.162345
   3 C :   -0.046200
   4 C :   -0.046200
   5 C :   -0.251711
   6 H :   -0.016400
   7 H :   -0.020658
   8 H :   -0.029212
   9 H :   -0.020658
  10 H :   -0.029212
  11 H :   -0.016400
  12 H :   -0.005892
  13 H :   -0.024183
  14 H :   -0.024183
  15 H :    0.010585
  16 H :    0.017540
  17 H :    0.017540
  18 H :    0.010585
  19 H :    0.038145

  Mayer bond orders larger than 0.100000
B(  0-C ,  3-C ) :   1.1439 B(  0-C ,  6-H ) :   0.9379 B(  0-C ,  7-H ) :   0.8761
B(  0-C ,  8-H ) :   0.9289 B(  1-C ,  4-C ) :   1.1439 B(  1-C ,  9-H ) :   0.8761
B(  1-C , 10-H ) :   0.9289 B(  1-C , 11-H ) :   0.9379 B(  2-C ,  3-C ) :  -0.1698
B(  2-C ,  4-C ) :  -0.1698 B(  2-C ,  5-C ) :   1.4010 B(  2-C , 12-H ) :   0.8637
B(  2-C , 13-H ) :   0.8315 B(  2-C , 14-H ) :   0.8315 B(  3-C ,  5-C ) :   1.0900
B(  3-C ,  7-H ) :   0.1042 B(  3-C , 12-H ) :  -0.1347 B(  3-C , 15-H ) :   0.6414
B(  3-C , 16-H ) :   0.7939 B(  4-C ,  5-C ) :   1.0900 B(  4-C ,  9-H ) :   0.1042
B(  4-C , 12-H ) :  -0.1347 B(  4-C , 17-H ) :   0.7939 B(  4-C , 18-H ) :   0.6414
B(  5-C , 12-H ) :   0.2807 B(  5-C , 15-H ) :   0.2220 B(  5-C , 16-H ) :   0.1854
B(  5-C , 17-H ) :   0.1854 B(  5-C , 18-H ) :   0.2220 B(  5-C , 19-H ) :   0.6191
B( 15-H , 16-H ) :  -0.1130 B( 17-H , 18-H ) :  -0.1130

MP2 TOTAL ENERGY:     -236.302532438 Eh
FINAL SINGLE POINT ENERGY      -236.302532437560

DIPOLE MOMENT
-------------
                                X             Y             Z
Electronic contribution:      0.55042       0.62537       0.00000
Nuclear contribution   :     -0.51844      -0.61171       0.00000
                        -----------------------------------------
Total Dipole Moment    :      0.03198       0.01366       0.00000
                        -----------------------------------------
Magnitude (a.u.)       :      0.03477
Magnitude (Debye)      :      0.08838

Rotational constants in cm-1:     0.217428     0.061444     0.052923
Rotational constants in MHz :  6518.319294  1842.041642  1586.591451

                             ****ORCA TERMINATED NORMALLY****
TOTAL RUN TIME: 0 days 0 hours 0 minutes 53 seconds 482 msec
