                         Program Version 5.0.3 -  RELEASE  -
|  1> !ri-mp2 aug-cc-pvdz aug-cc-pvdz/c tightscf
|  2> %pal nprocs 16 end
|  3>
|  4> * xyz 0 1
|  5> Cl    2.634618    0.089972   -0.472541
|  6> S    -2.226941   -0.407927   -0.293740
|  7> N    -0.782002   -1.097257    0.085205
|  8> N    -1.805293    1.168792   -0.048337
|  9> C     0.046472   -0.123793    0.406185
| 10> C    -0.547869    1.172036    0.326492
| 11> C     1.448200   -0.422078    0.812171
| 12> H    -0.047158    2.105902    0.539835
| 13> H     1.735384    0.120694    1.707773
| 14> H     1.584567   -1.487017    0.958257
| 15> *
| 16>
| 17>                          ****END OF INPUT****

CARTESIAN COORDINATES (ANGSTROEM)
---------------------------------
  Cl     2.634618    0.089972   -0.472541
  S     -2.226941   -0.407927   -0.293740
  N     -0.782002   -1.097257    0.085205
  N     -1.805293    1.168792   -0.048337
  C      0.046472   -0.123793    0.406185
  C     -0.547869    1.172036    0.326492
  C      1.448200   -0.422078    0.812171
  H     -0.047158    2.105902    0.539835
  H      1.735384    0.120694    1.707773
  H      1.584567   -1.487017    0.958257

 Total Charge           Charge          ....    0
 Multiplicity           Mult            ....    1
 Number of Electrons    NEL             ....   68
 Basis Dimension        Dim             ....  196

ORBITAL ENERGIES
----------------

  NO   OCC          E(Eh)            E(eV)
   0   2.0000    -104.840408     -2852.8525
   1   2.0000     -92.054486     -2504.9299
   2   2.0000     -15.635574      -425.4656
   3   2.0000     -15.635310      -425.4584
   4   2.0000     -11.330543      -308.3197
   5   2.0000     -11.321378      -308.0704
   6   2.0000     -11.311478      -307.8010
   7   2.0000     -10.566017      -287.5159
   8   2.0000      -9.051359      -246.3000
   9   2.0000      -8.033620      -218.6059
  10   2.0000      -8.030418      -218.5188
  11   2.0000      -8.030328      -218.5163
  12   2.0000      -6.732982      -183.2138
  13   2.0000      -6.731252      -183.1667
  14   2.0000      -6.729397      -183.1162
  15   2.0000      -1.356770       -36.9196
  16   2.0000      -1.211181       -32.9579
  17   2.0000      -1.149126       -31.2693
  18   2.0000      -1.050267       -28.5792
  19   2.0000      -0.943194       -25.6656
  20   2.0000      -0.847110       -23.0510
  21   2.0000      -0.796871       -21.6840
  22   2.0000      -0.706108       -19.2142
  23   2.0000      -0.644635       -17.5414
  24   2.0000      -0.632681       -17.2161
  25   2.0000      -0.611429       -16.6378
  26   2.0000      -0.561067       -15.2674
  27   2.0000      -0.540678       -14.7126
  28   2.0000      -0.504413       -13.7258
  29   2.0000      -0.476306       -12.9610
  30   2.0000      -0.455170       -12.3858
  31   2.0000      -0.451528       -12.2867
  32   2.0000      -0.435763       -11.8577
  33   2.0000      -0.371666       -10.1135
  34   0.0000       0.032708         0.8900
  35   0.0000       0.044452         1.2096
  36   0.0000       0.052080         1.4172
  37   0.0000       0.057602         1.5674
  38   0.0000       0.072523         1.9735

MULLIKEN ATOMIC CHARGES
-----------------------
   0 Cl:   -0.088723
   1 S :    1.000078
   2 N :   -1.078351
   3 N :   -1.001190
   4 C :    0.541244
   5 C :    0.768695
   6 C :    0.031276
   7 H :   -0.197858
   8 H :    0.047811
   9 H :   -0.022982
Sum of atomic charges:    0.0000000

LOEWDIN ATOMIC CHARGES
----------------------
   0 Cl:    0.455893
   1 S :    0.953432
   2 N :   -0.270481
   3 N :   -0.296841
   4 C :   -0.418704
   5 C :   -0.108198
   6 C :   -0.266020
   7 H :    0.002931
   8 H :   -0.026474
   9 H :   -0.025538

  Mayer bond orders larger than 0.100000
B(  0-Cl,  4-C ) :  -0.2744 B(  0-Cl,  6-C ) :   1.2030 B(  1-S ,  2-N ) :   0.9380
B(  1-S ,  3-N ) :   0.9339 B(  1-S ,  4-C ) :   0.1429 B(  2-N ,  3-N ) :   0.1111
B(  2-N ,  4-C ) :   1.2917 B(  3-N ,  4-C ) :   0.3117 B(  3-N ,  5-C ) :   1.0862
B(  4-C ,  5-C ) :   1.1068 B(  4-C ,  6-C ) :   1.0346 B(  4-C ,  9-H ) :   0.1559
B(  5-C ,  7-H ) :   0.9357 B(  6-C ,  8-H ) :   0.9680 B(  6-C ,  9-H ) :   0.8288

MP2 TOTAL ENERGY:    -1082.328546800 Eh
FINAL SINGLE POINT ENERGY     -1082.328546800447

DIPOLE MOMENT
-------------
                                X             Y             Z
Electronic contribution:      0.59608      -0.51550      -2.91718
Nuclear contribution   :     -0.42028       0.59200       3.69241
                        -----------------------------------------
Total Dipole Moment    :      0.17580       0.07650       0.77523
                        -----------------------------------------
Magnitude (a.u.)       :      0.79858
Magnitude (Debye)      :      2.02984

Rotational constants in cm-1:     0.181056     0.032434     0.030053
Rotational constants in MHz :  5427.929380   972.348674   900.980859

                             ****ORCA TERMINATED NORMALLY****
TOTAL RUN TIME: 0 days 0 hours 0 minutes 39 seconds 128 msec
