                         Program Version 5.0.3 -  RELEASE  -
|  1> !ri-mp2 aug-cc-pvdz aug-cc-pvdz/c tightscf
|  2> %pal nprocs 16 end
|  3>
|  4> * xyz 0 1
|  5> C     -1.178493   -1.652194    0.116805
|  6> H     -2.072764   -2.053240   -0.361889
|  7> H     -0.342512   -2.298223   -0.146619
|  8> H     -1.321481   -1.719640    1.198086
|  9> C      0.547343    1.874508   -0.035601
| 10> H     -0.265216    2.515201    0.308948
| 11> H      1.466983    2.246656    0.415537
| 12> H      0.637818    1.980802   -1.117431
| 13> S      1.773454   -0.622977   -0.100054
| 14> H      2.704710    0.202406    0.408749
| 15> C      0.298134    0.419562    0.349892
| 16> H      0.183677    0.344478    1.433269
| 17> C     -0.951456   -0.197739   -0.311553
| 18> H     -0.786007   -0.181121   -1.393993
| 19> C     -2.209169    0.629016   -0.010608
| 20> H     -2.374526    0.713213    1.066488
| 21> H     -2.158055    1.634905   -0.423808
| 22> H     -3.086048    0.143279   -0.440087
| 23> *
| 24>
| 25>                          ****END OF INPUT****

CARTESIAN COORDINATES (ANGSTROEM)
---------------------------------
  C     -1.178493   -1.652194    0.116805
  H     -2.072764   -2.053240   -0.361889
  H     -0.342512   -2.298223   -0.146619
  H     -1.321481   -1.719640    1.198086
  C      0.547343    1.874508   -0.035601
  H     -0.265216    2.515201    0.308948
  H      1.466983    2.246656    0.415537
  H      0.637818    1.980802   -1.117431
  S      1.773454   -0.622977   -0.100054
  H      2.704710    0.202406    0.408749
  C      0.298134    0.419562    0.349892
  H      0.183677    0.344478    1.433269
  C     -0.951456   -0.197739   -0.311553
  H     -0.786007   -0.181121   -1.393993
  C     -2.209169    0.629016   -0.010608
  H     -2.374526    0.713213    1.066488
  H     -2.158055    1.634905   -0.423808
  H     -3.086048    0.143279   -0.440087

 Total Charge           Charge          ....    0
 Multiplicity           Mult            ....    1
 Number of Electrons    NEL             ....   58
 Basis Dimension        Dim             ....  250

ORBITAL ENERGIES
----------------

  NO   OCC          E(Eh)            E(eV)
   0   2.0000     -91.946360     -2501.9876
   1   2.0000     -11.271885      -306.7236
   2   2.0000     -11.242095      -305.9129
   3   2.0000     -11.230112      -305.5869
   4   2.0000     -11.224273      -305.4280
   5   2.0000     -11.219141      -305.2884
   6   2.0000      -8.948035      -243.4884
   7   2.0000      -6.630126      -180.4149
   8   2.0000      -6.628706      -180.3763
   9   2.0000      -6.626709      -180.3219
  10   2.0000      -1.115945       -30.3664
  11   2.0000      -1.022203       -27.8156
  12   2.0000      -0.950392       -25.8615
  13   2.0000      -0.922240       -25.0954
  14   2.0000      -0.848763       -23.0960
  15   2.0000      -0.762352       -20.7447
  16   2.0000      -0.634088       -17.2544
  17   2.0000      -0.619457       -16.8563
  18   2.0000      -0.594833       -16.1862
  19   2.0000      -0.587155       -15.9773
  20   2.0000      -0.547899       -14.9091
  21   2.0000      -0.540905       -14.7188
  22   2.0000      -0.517321       -14.0770
  23   2.0000      -0.514283       -13.9944
  24   2.0000      -0.487519       -13.2661
  25   2.0000      -0.470238       -12.7958
  26   2.0000      -0.460697       -12.5362
  27   2.0000      -0.425252       -11.5717
  28   2.0000      -0.350306        -9.5323
  29   0.0000       0.036242         0.9862
  30   0.0000       0.041930         1.1410
  31   0.0000       0.047335         1.2880
  32   0.0000       0.049195         1.3387
  33   0.0000       0.063081         1.7165

MULLIKEN ATOMIC CHARGES
-----------------------
   0 C :    0.790385
   1 H :   -0.051586
   2 H :   -0.086582
   3 H :   -0.038222
   4 C :    0.585537
   5 H :   -0.083087
   6 H :   -0.129494
   7 H :   -0.041524
   8 S :    0.228017
   9 H :    0.038398
  10 C :   -0.353502
  11 H :   -0.228416
  12 C :   -1.015644
  13 H :   -0.234921
  14 C :    0.839163
  15 H :   -0.022024
  16 H :   -0.102963
  17 H :   -0.093535
Sum of atomic charges:    0.0000000

LOEWDIN ATOMIC CHARGES
----------------------
   0 C :    0.137701
   1 H :   -0.015942
   2 H :   -0.045690
   3 H :   -0.008708
   4 C :    0.099337
   5 H :   -0.024320
   6 H :   -0.027407
   7 H :   -0.009433
   8 S :    0.769170
   9 H :   -0.229074
  10 C :   -0.469199
  11 H :   -0.004081
  12 C :   -0.317122
  13 H :    0.032831
  14 C :    0.156587
  15 H :   -0.005781
  16 H :   -0.024702
  17 H :   -0.014166

  Mayer bond orders larger than 0.100000
B(  0-C ,  1-H ) :   0.8015 B(  0-C ,  2-H ) :   0.8162 B(  0-C ,  3-H ) :   0.9065
B(  0-C , 12-C ) :   1.3742 B(  0-C , 14-C ) :  -0.1820 B(  1-H ,  2-H ) :  -0.1012
B(  1-H , 12-C ) :   0.1491 B(  2-H , 12-C ) :   0.1155 B(  3-H , 12-C ) :   0.1999
B(  4-C ,  5-H ) :   0.8638 B(  4-C ,  6-H ) :   0.8400 B(  4-C ,  7-H ) :   0.9292
B(  4-C , 10-C ) :   1.2557 B(  6-H , 10-C ) :   0.1261 B(  8-S ,  9-H ) :   0.9406
B(  8-S , 10-C ) :   1.0949 B(  8-S , 11-H ) :  -0.1109 B(  8-S , 12-C ) :  -0.1417
B( 10-C , 11-H ) :   0.7517 B( 10-C , 12-C ) :   1.0419 B( 10-C , 14-C ) :  -0.1281
B( 11-H , 12-C ) :   0.1548 B( 12-C , 13-H ) :   0.6285 B( 12-C , 14-C ) :   1.2977
B( 12-C , 15-H ) :   0.1622 B( 12-C , 16-H ) :   0.1217 B( 12-C , 17-H ) :   0.1223
B( 14-C , 15-H ) :   0.8841 B( 14-C , 16-H ) :   0.8305 B( 14-C , 17-H ) :   0.8144

MP2 TOTAL ENERGY:     -594.791486266 Eh
FINAL SINGLE POINT ENERGY      -594.791486266496

DIPOLE MOMENT
-------------
                                X             Y             Z
Electronic contribution:      7.38144      -3.14425      -0.76489
Nuclear contribution   :     -7.80620       3.70854       0.99336
                        -----------------------------------------
Total Dipole Moment    :     -0.42476       0.56429       0.22847
                        -----------------------------------------
Magnitude (a.u.)       :      0.74232
Magnitude (Debye)      :      1.88684

Rotational constants in cm-1:     0.122457     0.070139     0.047611
Rotational constants in MHz :  3671.157660  2102.723859  1427.353901

                             ****ORCA TERMINATED NORMALLY****
TOTAL RUN TIME: 0 days 0 hours 0 minutes 54 seconds 643 msec
