                         Program Version 5.0.3 -  RELEASE  -
|  1> !ri-mp2 aug-cc-pvdz aug-cc-pvdz/c tightscf
|  2> %pal nprocs 16 end
|  3> %maxcore 3800
|  4>
|  5> * xyz 0 1
|  6> C      0.000000    0.000000    0.065284
|  7> C     -0.000119    1.241984   -0.861684
|  8> C      0.000119   -1.241984   -0.861684
|  9> C      0.000000    2.618031   -0.193199
| 10> C      0.000000   -2.618031   -0.193199
| 11> C      1.255287    0.000120    0.952178
| 12> C     -1.255287   -0.000120    0.952178
| 13> H      0.872906    1.172573   -1.518050
| 14> H     -0.873342    1.172588   -1.517788
| 15> H     -0.872906   -1.172573   -1.518050
| 16> H      0.873342   -1.172588   -1.517788
| 17> H     -0.000193    3.402590   -0.951355
| 18> H      0.000193   -3.402590   -0.951355
| 19> H     -0.880980    2.772125    0.430603
| 20> H      0.881256    2.772164    0.430201
| 21> H      0.880980   -2.772125    0.430603
| 22> H     -0.881256   -2.772164    0.430201
| 23> H     -1.284762   -0.876517    1.599898
| 24> H     -2.165042   -0.000409    0.347245
| 25> H     -1.285140    0.876465    1.599626
| 26> H      1.284762    0.876517    1.599898
| 27> H      2.165042    0.000409    0.347245
| 28> H      1.285140   -0.876465    1.599626
| 29> *
| 30>
| 31>                          ****END OF INPUT****

CARTESIAN COORDINATES (ANGSTROEM)
---------------------------------
  C      0.000000    0.000000    0.065284
  C     -0.000119    1.241984   -0.861684
  C      0.000119   -1.241984   -0.861684
  C      0.000000    2.618031   -0.193199
  C      0.000000   -2.618031   -0.193199
  C      1.255287    0.000120    0.952178
  C     -1.255287   -0.000120    0.952178
  H      0.872906    1.172573   -1.518050
  H     -0.873342    1.172588   -1.517788
  H     -0.872906   -1.172573   -1.518050
  H      0.873342   -1.172588   -1.517788
  H     -0.000193    3.402590   -0.951355
  H      0.000193   -3.402590   -0.951355
  H     -0.880980    2.772125    0.430603
  H      0.881256    2.772164    0.430201
  H      0.880980   -2.772125    0.430603
  H     -0.881256   -2.772164    0.430201
  H     -1.284762   -0.876517    1.599898
  H     -2.165042   -0.000409    0.347245
  H     -1.285140    0.876465    1.599626
  H      1.284762    0.876517    1.599898
  H      2.165042    0.000409    0.347245
  H      1.285140   -0.876465    1.599626

 Total Charge           Charge          ....    0
 Multiplicity           Mult            ....    1
 Number of Electrons    NEL             ....   58
 Basis Dimension        Dim             ....  305

ORBITAL ENERGIES
----------------

  NO   OCC          E(Eh)            E(eV)
   0   2.0000     -11.232650      -305.6560
   1   2.0000     -11.218019      -305.2578
   2   2.0000     -11.217995      -305.2572
   3   2.0000     -11.214232      -305.1548
   4   2.0000     -11.214230      -305.1547
   5   2.0000     -11.211085      -305.0691
   6   2.0000     -11.211063      -305.0685
   7   2.0000      -1.111059       -30.2334
   8   2.0000      -1.013497       -27.5787
   9   2.0000      -0.974736       -26.5239
  10   2.0000      -0.928288       -25.2600
  11   2.0000      -0.883814       -24.0498
  12   2.0000      -0.817593       -22.2478
  13   2.0000      -0.719089       -19.5674
  14   2.0000      -0.631710       -17.1897
  15   2.0000      -0.626978       -17.0609
  16   2.0000      -0.600790       -16.3483
  17   2.0000      -0.587853       -15.9963
  18   2.0000      -0.549147       -14.9431
  19   2.0000      -0.547136       -14.8883
  20   2.0000      -0.532631       -14.4936
  21   2.0000      -0.522327       -14.2132
  22   2.0000      -0.516539       -14.0557
  23   2.0000      -0.490784       -13.3549
  24   2.0000      -0.487007       -13.2521
  25   2.0000      -0.472704       -12.8629
  26   2.0000      -0.444518       -12.0960
  27   2.0000      -0.433848       -11.8056
  28   2.0000      -0.430232       -11.7072
  29   0.0000       0.036814         1.0018
  30   0.0000       0.042633         1.1601
  31   0.0000       0.045671         1.2428
  32   0.0000       0.047801         1.3007
  33   0.0000       0.060661         1.6507

MULLIKEN ATOMIC CHARGES
-----------------------
   0 C :   -4.125583
   1 C :    1.121833
   2 C :    1.121833
   3 C :    0.552101
   4 C :    0.552101
   5 C :    1.258680
   6 C :    1.258680
   7 H :   -0.210763
   8 H :   -0.210878
   9 H :   -0.210763
  10 H :   -0.210878
  11 H :   -0.061498
  12 H :   -0.061498
  13 H :   -0.078395
  14 H :   -0.078367
  15 H :   -0.078395
  16 H :   -0.078367
  17 H :   -0.096563
  18 H :   -0.036608
  19 H :   -0.096750
  20 H :   -0.096563
  21 H :   -0.036608
  22 H :   -0.096750
Sum of atomic charges:    0.0000000

LOEWDIN ATOMIC CHARGES
----------------------
   0 C :   -0.452010
   1 C :   -0.025647
   2 C :   -0.025647
   3 C :    0.143775
   4 C :    0.143775
   5 C :    0.176436
   6 C :    0.176436
   7 H :    0.017296
   8 H :    0.017294
   9 H :    0.017296
  10 H :    0.017294
  11 H :   -0.018247
  12 H :   -0.018247
  13 H :   -0.024610
  14 H :   -0.024606
  15 H :   -0.024610
  16 H :   -0.024606
  17 H :   -0.017346
  18 H :   -0.000981
  19 H :   -0.017359
  20 H :   -0.017346
  21 H :   -0.000981
  22 H :   -0.017359

  Mayer bond orders larger than 0.100000
B(  0-C ,  1-C ) :   0.1989 B(  0-C ,  2-C ) :   0.1989 B(  0-C ,  5-C ) :   1.6068
B(  0-C ,  6-C ) :   1.6068 B(  0-C ,  7-H ) :   0.4421 B(  0-C ,  8-H ) :   0.4422
B(  0-C ,  9-H ) :   0.4421 B(  0-C , 10-H ) :   0.4422 B(  0-C , 17-H ) :   0.2318
B(  0-C , 18-H ) :   0.3209 B(  0-C , 19-H ) :   0.2315 B(  0-C , 20-H ) :   0.2318
B(  0-C , 21-H ) :   0.3209 B(  0-C , 22-H ) :   0.2315 B(  1-C ,  2-C ) :   0.1882
B(  1-C ,  3-C ) :   1.0476 B(  1-C ,  7-H ) :   0.5376 B(  1-C ,  8-H ) :   0.5376
B(  1-C , 11-H ) :   0.1039 B(  2-C ,  4-C ) :   1.0476 B(  2-C ,  9-H ) :   0.5376
B(  2-C , 10-H ) :   0.5376 B(  2-C , 12-H ) :   0.1039 B(  3-C , 11-H ) :   0.8527
B(  3-C , 13-H ) :   0.9169 B(  3-C , 14-H ) :   0.9169 B(  4-C , 12-H ) :   0.8527
B(  4-C , 15-H ) :   0.9169 B(  4-C , 16-H ) :   0.9169 B(  5-C ,  6-C ) :  -0.1427
B(  5-C , 20-H ) :   0.6738 B(  5-C , 21-H ) :   0.6752 B(  5-C , 22-H ) :   0.6738
B(  6-C , 17-H ) :   0.6738 B(  6-C , 18-H ) :   0.6752 B(  6-C , 19-H ) :   0.6738
B(  7-H ,  8-H ) :  -0.1837 B(  9-H , 10-H ) :  -0.1837 B( 17-H , 18-H ) :  -0.1239
B( 17-H , 19-H ) :  -0.1014 B( 18-H , 19-H ) :  -0.1239 B( 20-H , 21-H ) :  -0.1239
B( 20-H , 22-H ) :  -0.1014 B( 21-H , 22-H ) :  -0.1239

MP2 TOTAL ENERGY:     -275.494552206 Eh
FINAL SINGLE POINT ENERGY      -275.494552205569

DIPOLE MOMENT
-------------
                                X             Y             Z
Electronic contribution:     -0.00000       0.00000      -0.94339
Nuclear contribution   :     -0.00000       0.00000       0.91395
                        -----------------------------------------
Total Dipole Moment    :     -0.00000       0.00000      -0.02944
                        -----------------------------------------
Magnitude (a.u.)       :      0.02944
Magnitude (Debye)      :      0.07483

Rotational constants in cm-1:     0.136894     0.051896     0.051450
Rotational constants in MHz :  4103.978798  1555.808830  1542.435547

                             ****ORCA TERMINATED NORMALLY****
TOTAL RUN TIME: 0 days 0 hours 1 minutes 28 seconds 394 msec
