                         Program Version 5.0.3 -  RELEASE  -
|  1> !ri-mp2 aug-cc-pvdz aug-cc-pvdz/c tightscf
|  2> %pal nprocs 16 end
|  3>
|  4> * xyz 0 1
|  5> C     -0.218611   -2.656740    0.856457
|  6> C      0.218611    2.656740    0.856457
|  7> C      0.001222    2.061425   -0.542357
|  8> C     -0.001222   -2.061425   -0.542357
|  9> C      0.001222   -0.601199   -0.556308
| 10> C     -0.001222    0.601199   -0.556308
| 11> H     -0.212880   -3.746339    0.811070
| 12> H      0.212880    3.746339    0.811070
| 13> H      1.174145    2.335610    1.270132
| 14> H     -0.567645    2.337886    1.540172
| 15> H      0.567645   -2.337886    1.540172
| 16> H     -1.174145   -2.335610    1.270132
| 17> H      0.780734    2.424674   -1.217851
| 18> H     -0.945635    2.426023   -0.950275
| 19> H      0.945635   -2.426023   -0.950275
| 20> H     -0.780734   -2.424674   -1.217851
| 21> *
| 22>
| 23>                          ****END OF INPUT****

CARTESIAN COORDINATES (ANGSTROEM)
---------------------------------
  C     -0.218611   -2.656740    0.856457
  C      0.218611    2.656740    0.856457
  C      0.001222    2.061425   -0.542357
  C     -0.001222   -2.061425   -0.542357
  C      0.001222   -0.601199   -0.556308
  C     -0.001222    0.601199   -0.556308
  H     -0.212880   -3.746339    0.811070
  H      0.212880    3.746339    0.811070
  H      1.174145    2.335610    1.270132
  H     -0.567645    2.337886    1.540172
  H      0.567645   -2.337886    1.540172
  H     -1.174145   -2.335610    1.270132
  H      0.780734    2.424674   -1.217851
  H     -0.945635    2.426023   -0.950275
  H      0.945635   -2.426023   -0.950275
  H     -0.780734   -2.424674   -1.217851

 Total Charge           Charge          ....    0
 Multiplicity           Mult            ....    1
 Number of Electrons    NEL             ....   46
 Basis Dimension        Dim             ....  228

ORBITAL ENERGIES
----------------

  NO   OCC          E(Eh)            E(eV)
   0   2.0000     -11.250571      -306.1436
   1   2.0000     -11.250570      -306.1436
   2   2.0000     -11.226141      -305.4788
   3   2.0000     -11.226141      -305.4788
   4   2.0000     -11.220901      -305.3362
   5   2.0000     -11.217155      -305.2343
   6   2.0000      -1.083624       -29.4869
   7   2.0000      -1.052225       -28.6325
   8   2.0000      -0.973822       -26.4990
   9   2.0000      -0.880826       -23.9685
  10   2.0000      -0.848754       -23.0958
  11   2.0000      -0.662536       -18.0285
  12   2.0000      -0.626982       -17.0611
  13   2.0000      -0.623727       -16.9725
  14   2.0000      -0.614602       -16.7242
  15   2.0000      -0.545573       -14.8458
  16   2.0000      -0.542251       -14.7554
  17   2.0000      -0.516765       -14.0619
  18   2.0000      -0.513800       -13.9812
  19   2.0000      -0.510176       -13.8826
  20   2.0000      -0.501529       -13.6473
  21   2.0000      -0.360303        -9.8043
  22   2.0000      -0.358719        -9.7612
  23   0.0000       0.037011         1.0071
  24   0.0000       0.038150         1.0381
  25   0.0000       0.048615         1.3229
  26   0.0000       0.049755         1.3539
  27   0.0000       0.060775         1.6538

MULLIKEN ATOMIC CHARGES
-----------------------
   0 C :    0.399056
   1 C :    0.399056
   2 C :   -0.054025
   3 C :   -0.054025
   4 C :   -0.364315
   5 C :   -0.364315
   6 H :   -0.077165
   7 H :   -0.077165
   8 H :   -0.062735
   9 H :   -0.063790
  10 H :   -0.063790
  11 H :   -0.062735
  12 H :    0.112075
  13 H :    0.110899
  14 H :    0.110899
  15 H :    0.112075
Sum of atomic charges:   -0.0000000

LOEWDIN ATOMIC CHARGES
----------------------
   0 C :    0.141647
   1 C :    0.141647
   2 C :   -0.093499
   3 C :   -0.093499
   4 C :   -0.023862
   5 C :   -0.023862
   6 H :   -0.020285
   7 H :   -0.020285
   8 H :   -0.017247
   9 H :   -0.017298
  10 H :   -0.017298
  11 H :   -0.017247
  12 H :    0.015311
  13 H :    0.015232
  14 H :    0.015232
  15 H :    0.015311

  Mayer bond orders larger than 0.100000
B(  0-C ,  3-C ) :   1.2675 B(  0-C ,  6-H ) :   0.9321 B(  0-C , 10-H ) :   0.9271
B(  0-C , 11-H ) :   0.9247 B(  1-C ,  2-C ) :   1.2675 B(  1-C ,  7-H ) :   0.9321
B(  1-C ,  8-H ) :   0.9247 B(  1-C ,  9-H ) :   0.9271 B(  2-C ,  4-C ) :   0.2659
B(  2-C ,  5-C ) :   1.0858 B(  2-C , 12-H ) :   0.7617 B(  2-C , 13-H ) :   0.7450
B(  3-C ,  4-C ) :   1.0858 B(  3-C ,  5-C ) :   0.2659 B(  3-C , 14-H ) :   0.7450
B(  3-C , 15-H ) :   0.7617 B(  4-C ,  5-C ) :   2.7258 B(  4-C , 12-H ) :  -0.1219
B(  4-C , 13-H ) :  -0.1050 B(  4-C , 14-H ) :   0.2696 B(  4-C , 15-H ) :   0.2647
B(  5-C , 12-H ) :   0.2647 B(  5-C , 13-H ) :   0.2696 B(  5-C , 14-H ) :  -0.1050
B(  5-C , 15-H ) :  -0.1219

MP2 TOTAL ENERGY:     -233.855193111 Eh
FINAL SINGLE POINT ENERGY      -233.855193111258

DIPOLE MOMENT
-------------
                                X             Y             Z
Electronic contribution:      0.00000      -0.00000      -3.00652
Nuclear contribution   :      0.00000      -0.00000       3.05671
                        -----------------------------------------
Total Dipole Moment    :      0.00000      -0.00000       0.05019
                        -----------------------------------------
Magnitude (a.u.)       :      0.05019
Magnitude (Debye)      :      0.12757

Rotational constants in cm-1:     0.318102     0.046562     0.041994
Rotational constants in MHz :  9536.444621  1395.900519  1258.940981

                             ****ORCA TERMINATED NORMALLY****
TOTAL RUN TIME: 0 days 0 hours 0 minutes 46 seconds 202 msec
