                         Program Version 5.0.3 -  RELEASE  -
|  1> !ri-mp2 aug-cc-pvdz aug-cc-pvdz/c tightscf
|  2> %pal nprocs 16 end
|  3>
|  4> * xyz 0 1
|  5> C      1.869828   -0.647799        0.000000
|  6> C      1.019117   -1.742447        0.000000
|  7> C      1.374486    0.652998        0.000000
|  8> C     -0.877502   -0.243979        0.000000
|  9> C     -0.358346   -1.536330        0.000000
| 10> C      0.000000    0.831402        0.000000
| 11> O     -1.160637   -2.640733        0.000000
| 12> Cl    -0.660272    2.455830        0.000000
| 13> H      2.939624   -0.806173        0.000000
| 14> H      1.400483   -2.753177        0.000000
| 15> H      2.036335    1.505248        0.000000
| 16> H     -1.945745   -0.074236        0.000000
| 17> H     -2.086473   -2.377981        0.000000
| 18> *
| 19>
| 20>                          ****END OF INPUT****

CARTESIAN COORDINATES (ANGSTROEM)
---------------------------------
  C      1.869828   -0.647799    0.000000
  C      1.019117   -1.742447    0.000000
  C      1.374486    0.652998    0.000000
  C     -0.877502   -0.243979    0.000000
  C     -0.358346   -1.536330    0.000000
  C      0.000000    0.831402    0.000000
  O     -1.160637   -2.640733    0.000000
  Cl    -0.660272    2.455830    0.000000
  H      2.939624   -0.806173    0.000000
  H      1.400483   -2.753177    0.000000
  H      2.036335    1.505248    0.000000
  H     -1.945745   -0.074236    0.000000
  H     -2.086473   -2.377981    0.000000

 Total Charge           Charge          ....    0
 Multiplicity           Mult            ....    1
 Number of Electrons    NEL             ....   66
 Basis Dimension        Dim             ....  233

ORBITAL ENERGIES
----------------

  NO   OCC          E(Eh)            E(eV)
   0   2.0000    -104.843243     -2852.9297
   1   2.0000     -20.613543      -560.9230
   2   2.0000     -11.326418      -308.2075
   3   2.0000     -11.318447      -307.9906
   4   2.0000     -11.262062      -306.4563
   5   2.0000     -11.256314      -306.2999
   6   2.0000     -11.249286      -306.1086
   7   2.0000     -11.246038      -306.0202
   8   2.0000     -10.569181      -287.6020
   9   2.0000      -8.036980      -218.6973
  10   2.0000      -8.033666      -218.6072
  11   2.0000      -8.033549      -218.6040
  12   2.0000      -1.423588       -38.7378
  13   2.0000      -1.195468       -32.5304
  14   2.0000      -1.122150       -30.5353
  15   2.0000      -1.032807       -28.1041
  16   2.0000      -1.006753       -27.3951
  17   2.0000      -0.865982       -23.5646
  18   2.0000      -0.827347       -22.5133
  19   2.0000      -0.748327       -20.3630
  20   2.0000      -0.703242       -19.1362
  21   2.0000      -0.670061       -18.2333
  22   2.0000      -0.622349       -16.9350
  23   2.0000      -0.605822       -16.4853
  24   2.0000      -0.596461       -16.2305
  25   2.0000      -0.588086       -16.0026
  26   2.0000      -0.541766       -14.7422
  27   2.0000      -0.534444       -14.5430
  28   2.0000      -0.512125       -13.9356
  29   2.0000      -0.462272       -12.5791
  30   2.0000      -0.459977       -12.5166
  31   2.0000      -0.351324        -9.5600
  32   2.0000      -0.328361        -8.9352
  33   0.0000       0.032103         0.8736
  34   0.0000       0.037466         1.0195
  35   0.0000       0.047710         1.2982
  36   0.0000       0.060980         1.6594
  37   0.0000       0.063747         1.7347

MULLIKEN ATOMIC CHARGES
-----------------------
   0 C :    0.972158
   1 C :    0.266220
   2 C :    0.446755
   3 C :    0.435360
   4 C :    1.090400
   5 C :   -0.322283
   6 O :   -0.904023
   7 Cl:   -0.387450
   8 H :   -0.437498
   9 H :   -0.453226
  10 H :   -0.390420
  11 H :   -0.498648
  12 H :    0.182655
Sum of atomic charges:    0.0000000

LOEWDIN ATOMIC CHARGES
----------------------
   0 C :    0.014085
   1 C :    0.052852
   2 C :   -0.025809
   3 C :    0.014613
   4 C :   -0.227802
   5 C :   -0.547702
   6 O :    0.188227
   7 Cl:    0.562873
   8 H :    0.006444
   9 H :    0.008095
  10 H :   -0.006129
  11 H :   -0.002533
  12 H :   -0.037216

  Mayer bond orders larger than 0.100000
B(  0-C ,  1-C ) :   1.6533 B(  0-C ,  2-C ) :   1.3901 B(  0-C ,  5-C ) :  -0.2142
B(  0-C ,  8-H ) :   0.2962 B(  1-C ,  2-C ) :   0.3926 B(  1-C ,  3-C ) :   0.1993
B(  1-C ,  4-C ) :   1.5779 B(  1-C ,  5-C ) :   0.1037 B(  1-C ,  8-H ) :   0.2826
B(  1-C ,  9-H ) :   0.2289 B(  2-C ,  3-C ) :   0.4516 B(  2-C ,  4-C ) :  -0.2318
B(  2-C ,  5-C ) :   1.5555 B(  2-C ,  7-Cl) :  -0.2494 B(  2-C ,  8-H ) :   0.2581
B(  2-C , 10-H ) :   0.3416 B(  3-C ,  4-C ) :   1.3426 B(  3-C ,  5-C ) :   1.6244
B(  3-C ,  6-O ) :   0.2196 B(  3-C ,  7-Cl) :  -0.2980 B(  3-C ,  8-H ) :   0.1010
B(  3-C , 11-H ) :   0.2627 B(  4-C ,  5-C ) :  -0.2897 B(  4-C ,  9-H ) :   0.3860
B(  4-C , 11-H ) :   0.1216 B(  5-C ,  7-Cl) :   1.0193 B(  5-C ,  8-H ) :  -0.1239
B(  5-C , 10-H ) :   0.3550 B(  5-C , 11-H ) :   0.3226 B(  6-O , 12-H ) :   1.0410

MP2 TOTAL ENERGY:     -765.675723633 Eh
FINAL SINGLE POINT ENERGY      -765.675723633482

DIPOLE MOMENT
-------------
                                X             Y             Z
Electronic contribution:     -3.23134       7.42813      -0.00000
Nuclear contribution   :      3.15339      -7.77262       0.00000
                        -----------------------------------------
Total Dipole Moment    :     -0.07795      -0.34449      -0.00000
                        -----------------------------------------
Magnitude (a.u.)       :      0.35320
Magnitude (Debye)      :      0.89776

Rotational constants in cm-1:     0.115320     0.039485     0.029414
Rotational constants in MHz :  3457.209224  1183.731618   881.805653

                             ****ORCA TERMINATED NORMALLY****
TOTAL RUN TIME: 0 days 0 hours 0 minutes 47 seconds 212 msec
