                         Program Version 5.0.3 -  RELEASE  -
|  1> !ri-mp2 aug-cc-pvdz aug-cc-pvdz/c tightscf
|  2> %pal nprocs 16 end
|  3>
|  4> * xyz 0 1
|  5> Cl     0.811282    1.486375   -0.113059
|  6> Cl     0.811397   -1.486324   -0.112983
|  7> C     -0.023639    0.000009    0.490782
|  8> C     -1.414266   -0.000051    0.121661
|  9> C     -2.577535   -0.000087   -0.162983
| 10> H      0.115063    0.000040    1.565162
| 11> H     -3.607963   -0.000119   -0.419211
| 12> *
| 13>
| 14>                          ****END OF INPUT****

CARTESIAN COORDINATES (ANGSTROEM)
---------------------------------
  Cl     0.811282    1.486375   -0.113059
  Cl     0.811397   -1.486324   -0.112983
  C     -0.023639    0.000009    0.490782
  C     -1.414266   -0.000051    0.121661
  C     -2.577535   -0.000087   -0.162983
  H      0.115063    0.000040    1.565162
  H     -3.607963   -0.000119   -0.419211

 Total Charge           Charge          ....    0
 Multiplicity           Mult            ....    1
 Number of Electrons    NEL             ....   54
 Basis Dimension        Dim             ....  141

ORBITAL ENERGIES
----------------

  NO   OCC          E(Eh)            E(eV)
   0   2.0000    -104.854645     -2853.2399
   1   2.0000    -104.854645     -2853.2399
   2   2.0000     -11.408073      -310.4294
   3   2.0000     -11.275877      -306.8322
   4   2.0000     -11.271579      -306.7153
   5   2.0000     -10.580299      -287.9046
   6   2.0000     -10.580285      -287.9042
   7   2.0000      -8.047939      -218.9955
   8   2.0000      -8.047937      -218.9955
   9   2.0000      -8.044431      -218.9001
  10   2.0000      -8.044430      -218.9001
  11   2.0000      -8.044363      -218.8982
  12   2.0000      -8.044362      -218.8982
  13   2.0000      -1.209365       -32.9085
  14   2.0000      -1.100535       -29.9471
  15   2.0000      -1.065256       -28.9871
  16   2.0000      -0.934856       -25.4387
  17   2.0000      -0.759989       -20.6804
  18   2.0000      -0.705623       -19.2010
  19   2.0000      -0.635219       -17.2852
  20   2.0000      -0.604006       -16.4359
  21   2.0000      -0.488860       -13.3026
  22   2.0000      -0.483075       -13.1451
  23   2.0000      -0.460926       -12.5424
  24   2.0000      -0.452408       -12.3106
  25   2.0000      -0.422570       -11.4987
  26   2.0000      -0.418822       -11.3967
  27   0.0000       0.033636         0.9153
  28   0.0000       0.041244         1.1223
  29   0.0000       0.074839         2.0365
  30   0.0000       0.081493         2.2175
  31   0.0000       0.089246         2.4285

MULLIKEN ATOMIC CHARGES
-----------------------
   0 Cl:    0.030399
   1 Cl:    0.030400
   2 C :   -0.986898
   3 C :    0.460226
   4 C :    0.676079
   5 H :    0.190871
   6 H :   -0.401077
Sum of atomic charges:   -0.0000000

LOEWDIN ATOMIC CHARGES
----------------------
   0 Cl:    0.487631
   1 Cl:    0.487630
   2 C :   -0.854404
   3 C :   -0.208877
   4 C :    0.229758
   5 H :   -0.048903
   6 H :   -0.092836

  Mayer bond orders larger than 0.100000
B(  0-Cl,  2-C ) :   1.3864 B(  0-Cl,  3-C ) :  -0.4063 B(  0-Cl,  4-C ) :   0.1297
B(  1-Cl,  2-C ) :   1.3864 B(  1-Cl,  3-C ) :  -0.4063 B(  1-Cl,  4-C ) :   0.1297
B(  2-C ,  3-C ) :   0.8199 B(  2-C ,  5-H ) :   0.9785 B(  3-C ,  4-C ) :   2.7203
B(  3-C ,  5-H ) :   0.1014 B(  3-C ,  6-H ) :   0.2112 B(  4-C ,  5-H ) :  -0.1040
B(  4-C ,  6-H ) :   0.2623

MP2 TOTAL ENERGY:    -1034.401975448 Eh
FINAL SINGLE POINT ENERGY     -1034.401975448026

DIPOLE MOMENT
-------------
                                X             Y             Z
Electronic contribution:      4.70835       0.00013      -0.98882
Nuclear contribution   :     -5.41207      -0.00014       1.36767
                        -----------------------------------------
Total Dipole Moment    :     -0.70372      -0.00001       0.37884
                        -----------------------------------------
Magnitude (a.u.)       :      0.79922
Magnitude (Debye)      :      2.03146

Rotational constants in cm-1:     0.103075     0.099015     0.052680
Rotational constants in MHz :  3090.099394  2968.382434  1579.299970

                             ****ORCA TERMINATED NORMALLY****
TOTAL RUN TIME: 0 days 0 hours 0 minutes 25 seconds 809 msec
