                         Program Version 5.0.3 -  RELEASE  -
|  1> !ri-mp2 aug-cc-pvdz aug-cc-pvdz/c tightscf
|  2> %pal nprocs 16 end
|  3>
|  4> * xyz 0 1
|  5> F      1.978702    0.162047    1.097252
|  6> F      1.978699    0.162110   -1.097247
|  7> N     -0.935444   -1.145511   -0.000034
|  8> N     -2.145699   -0.572385   -0.000016
|  9> C     -0.086571   -0.124026   -0.000003
| 10> C      1.374341   -0.401214   -0.000013
| 11> C     -0.758309    1.116762    0.000036
| 12> C     -2.090320    0.782498    0.000026
| 13> H     -2.962960   -1.156749   -0.000033
| 14> H      1.588333   -1.468840   -0.000044
| 15> H     -0.328803    2.101756    0.000066
| 16> H     -2.980019    1.387567    0.000046
| 17> *
| 18>
| 19>                          ****END OF INPUT****

CARTESIAN COORDINATES (ANGSTROEM)
---------------------------------
  F      1.978702    0.162047    1.097252
  F      1.978699    0.162110   -1.097247
  N     -0.935444   -1.145511   -0.000034
  N     -2.145699   -0.572385   -0.000016
  C     -0.086571   -0.124026   -0.000003
  C      1.374341   -0.401214   -0.000013
  C     -0.758309    1.116762    0.000036
  C     -2.090320    0.782498    0.000026
  H     -2.962960   -1.156749   -0.000033
  H      1.588333   -1.468840   -0.000044
  H     -0.328803    2.101756    0.000066
  H     -2.980019    1.387567    0.000046

 Total Charge           Charge          ....    0
 Multiplicity           Mult            ....    1
 Number of Electrons    NEL             ....   60
 Basis Dimension        Dim             ....  220

ORBITAL ENERGIES
----------------

  NO   OCC          E(Eh)            E(eV)
   0   2.0000     -26.316857      -716.1181
   1   2.0000     -26.316839      -716.1176
   2   2.0000     -15.666306      -426.3019
   3   2.0000     -15.621524      -425.0833
   4   2.0000     -11.419368      -310.7368
   5   2.0000     -11.301393      -307.5265
   6   2.0000     -11.283571      -307.0416
   7   2.0000     -11.246055      -306.0207
   8   2.0000      -1.655576       -45.0505
   9   2.0000      -1.594011       -43.3752
  10   2.0000      -1.405162       -38.2364
  11   2.0000      -1.137825       -30.9618
  12   2.0000      -1.079340       -29.3703
  13   2.0000      -0.979972       -26.6664
  14   2.0000      -0.850963       -23.1559
  15   2.0000      -0.821125       -22.3440
  16   2.0000      -0.773977       -21.0610
  17   2.0000      -0.754657       -20.5353
  18   2.0000      -0.748219       -20.3601
  19   2.0000      -0.714675       -19.4473
  20   2.0000      -0.659941       -17.9579
  21   2.0000      -0.628481       -17.1018
  22   2.0000      -0.620076       -16.8731
  23   2.0000      -0.620001       -16.8711
  24   2.0000      -0.610938       -16.6245
  25   2.0000      -0.602204       -16.3868
  26   2.0000      -0.531841       -14.4721
  27   2.0000      -0.485364       -13.2074
  28   2.0000      -0.387413       -10.5420
  29   2.0000      -0.366212        -9.9651
  30   0.0000       0.024542         0.6678
  31   0.0000       0.041879         1.1396
  32   0.0000       0.049364         1.3433
  33   0.0000       0.058373         1.5884
  34   0.0000       0.093989         2.5576

MULLIKEN ATOMIC CHARGES
-----------------------
   0 F :   -0.622118
   1 F :   -0.622118
   2 N :   -0.665059
   3 N :   -0.338625
   4 C :   -0.019072
   5 C :    1.992557
   6 C :    0.449052
   7 C :    0.728531
   8 H :   -0.015860
   9 H :   -0.246699
  10 H :   -0.355614
  11 H :   -0.284975
Sum of atomic charges:   -0.0000000

LOEWDIN ATOMIC CHARGES
----------------------
   0 F :    0.032257
   1 F :    0.032257
   2 N :    0.077834
   3 N :    0.020748
   4 C :   -0.232988
   5 C :   -0.114326
   6 C :    0.061331
   7 C :    0.058079
   8 H :    0.029225
   9 H :    0.027994
  10 H :    0.000671
  11 H :    0.006918

  Mayer bond orders larger than 0.100000
B(  0-F ,  4-C ) :   0.1718 B(  0-F ,  5-C ) :   0.2567 B(  1-F ,  4-C ) :   0.1718
B(  1-F ,  5-C ) :   0.2567 B(  2-N ,  3-N ) :   1.0870 B(  2-N ,  4-C ) :   1.3431
B(  2-N ,  6-C ) :   0.1056 B(  2-N ,  8-H ) :  -0.1603 B(  3-N ,  4-C ) :  -0.1790
B(  3-N ,  7-C ) :   1.0532 B(  3-N ,  8-H ) :   1.1807 B(  4-C ,  5-C ) :   0.9613
B(  4-C ,  6-C ) :   1.3127 B(  4-C ,  7-C ) :   0.1433 B(  4-C ,  9-H ) :   0.3552
B(  4-C , 10-H ) :   0.2922 B(  5-C ,  6-C ) :  -0.1034 B(  5-C ,  9-H ) :   0.6585
B(  6-C ,  7-C ) :   1.4680 B(  6-C , 10-H ) :   0.5281 B(  7-C , 11-H ) :   0.7011

MP2 TOTAL ENERGY:     -462.899942625 Eh
FINAL SINGLE POINT ENERGY      -462.899942624746

DIPOLE MOMENT
-------------
                                X             Y             Z
Electronic contribution:      6.55715      -0.44853      -0.00002
Nuclear contribution   :     -8.21598       0.50911       0.00003
                        -----------------------------------------
Total Dipole Moment    :     -1.65884       0.06058       0.00000
                        -----------------------------------------
Magnitude (a.u.)       :      1.65994
Magnitude (Debye)      :      4.21924

Rotational constants in cm-1:     0.162079     0.045156     0.043691
Rotational constants in MHz :  4859.011473  1353.731820  1309.813369

                             ****ORCA TERMINATED NORMALLY****
TOTAL RUN TIME: 0 days 0 hours 0 minutes 40 seconds 913 msec
