                         Program Version 5.0.3 -  RELEASE  -
|  1> !ri-mp2 aug-cc-pvdz aug-cc-pvdz/c tightscf
|  2> %pal nprocs 16 end
|  3>
|  4> * xyz 0 1
|  5> C     0.000000     0.000000    0.808471
|  6> N     0.000000     0.607849   -0.539787
|  7> N     0.000000    -0.607849   -0.539787
|  8> H     0.931674     0.000000    1.353097
|  9> H    -0.931674     0.000000    1.353097
| 10> *
| 11>
| 12>                          ****END OF INPUT****

CARTESIAN COORDINATES (ANGSTROEM)
---------------------------------
  C      0.000000    0.000000    0.808471
  N      0.000000    0.607849   -0.539787
  N      0.000000   -0.607849   -0.539787
  H      0.931674    0.000000    1.353097
  H     -0.931674    0.000000    1.353097

 Total Charge           Charge          ....    0
 Multiplicity           Mult            ....    1
 Number of Electrons    NEL             ....   22
 Basis Dimension        Dim             ....   87

ORBITAL ENERGIES
----------------

  NO   OCC          E(Eh)            E(eV)
   0   2.0000     -15.679124      -426.6507
   1   2.0000     -15.677493      -426.6063
   2   2.0000     -11.311098      -307.7906
   3   2.0000      -1.483763       -40.3752
   4   2.0000      -0.926817       -25.2200
   5   2.0000      -0.848262       -23.0824
   6   2.0000      -0.688212       -18.7272
   7   2.0000      -0.665623       -18.1125
   8   2.0000      -0.584727       -15.9112
   9   2.0000      -0.492251       -13.3948
  10   2.0000      -0.408840       -11.1251
  11   0.0000       0.036214         0.9854
  12   0.0000       0.050006         1.3607
  13   0.0000       0.079206         2.1553
  14   0.0000       0.085143         2.3169
  15   0.0000       0.096025         2.6130

MULLIKEN ATOMIC CHARGES
-----------------------
   0 C :    0.936175
   1 N :   -0.340396
   2 N :   -0.340396
   3 H :   -0.127691
   4 H :   -0.127691
Sum of atomic charges:   -0.0000000

LOEWDIN ATOMIC CHARGES
----------------------
   0 C :    0.005890
   1 N :    0.042653
   2 N :    0.042653
   3 H :   -0.045598
   4 H :   -0.045598

  Mayer bond orders larger than 0.100000
B(  0-C ,  1-N ) :   0.6787 B(  0-C ,  2-N ) :   0.6787 B(  0-C ,  3-H ) :   0.9794
B(  0-C ,  4-H ) :   0.9794 B(  1-N ,  2-N ) :   1.4695

MP2 TOTAL ENERGY:     -148.333351091 Eh
FINAL SINGLE POINT ENERGY      -148.333351090580

DIPOLE MOMENT
-------------
                                X             Y             Z
Electronic contribution:      0.00000      -0.00000      -1.89538
Nuclear contribution   :      0.00000       0.00000       2.65340
                        -----------------------------------------
Total Dipole Moment    :      0.00000      -0.00000       0.75802
                        -----------------------------------------
Magnitude (a.u.)       :      0.75802
Magnitude (Debye)      :      1.92673

Rotational constants in cm-1:     1.393131     0.792077     0.564111
Rotational constants in MHz : 41765.017086 23745.866546 16911.631907

                             ****ORCA TERMINATED NORMALLY****
TOTAL RUN TIME: 0 days 0 hours 0 minutes 32 seconds 232 msec
