                         Program Version 5.0.3 -  RELEASE  -
|  1> !ri-mp2 aug-cc-pvdz aug-cc-pvdz/c tightscf
|  2> %pal nprocs 16 end
|  3>
|  4> * xyz 0 1
|  5> C      2.066444   -1.078567    0.000000
|  6> C      1.117232   -0.133948    0.000001
|  7> C     -0.293736   -0.518951    0.000015
|  8> C     -1.341106    0.310850    0.000031
|  9> C     -2.772365   -0.122358   -0.000019
| 10> C      1.473859    1.328371   -0.000012
| 11> H      3.118414   -0.827682   -0.000025
| 12> H      1.813394   -2.130884    0.000014
| 13> H     -0.482710   -1.588989   -0.000013
| 14> H     -1.170199    1.382350    0.000073
| 15> H     -2.863802   -1.208498   -0.000060
| 16> H     -3.301379    0.263852    0.875706
| 17> H     -3.301329    0.263911   -0.875747
| 18> H      1.065954    1.834129   -0.878047
| 19> H      1.066119    1.834099    0.878118
| 20> H      2.553575    1.465330   -0.000111
| 21> *
| 22>
| 23>                          ****END OF INPUT****

CARTESIAN COORDINATES (ANGSTROEM)
---------------------------------
  C      2.066444   -1.078567    0.000000
  C      1.117232   -0.133948    0.000001
  C     -0.293736   -0.518951    0.000015
  C     -1.341106    0.310850    0.000031
  C     -2.772365   -0.122358   -0.000019
  C      1.473859    1.328371   -0.000012
  H      3.118414   -0.827682   -0.000025
  H      1.813394   -2.130884    0.000014
  H     -0.482710   -1.588989   -0.000013
  H     -1.170199    1.382350    0.000073
  H     -2.863802   -1.208498   -0.000060
  H     -3.301379    0.263852    0.875706
  H     -3.301329    0.263911   -0.875747
  H      1.065954    1.834129   -0.878047
  H      1.066119    1.834099    0.878118
  H      2.553575    1.465330   -0.000111

 Total Charge           Charge          ....    0
 Multiplicity           Mult            ....    1
 Number of Electrons    NEL             ....   46
 Basis Dimension        Dim             ....  228

ORBITAL ENERGIES
----------------

  NO   OCC          E(Eh)            E(eV)
   0   2.0000     -11.245469      -306.0048
   1   2.0000     -11.238269      -305.8089
   2   2.0000     -11.230506      -305.5976
   3   2.0000     -11.229483      -305.5698
   4   2.0000     -11.225688      -305.4665
   5   2.0000     -11.221736      -305.3590
   6   2.0000      -1.112635       -30.2763
   7   2.0000      -1.044071       -28.4106
   8   2.0000      -0.939206       -25.5571
   9   2.0000      -0.930710       -25.3259
  10   2.0000      -0.787658       -21.4333
  11   2.0000      -0.719455       -19.5774
  12   2.0000      -0.647332       -17.6148
  13   2.0000      -0.616995       -16.7893
  14   2.0000      -0.574059       -15.6209
  15   2.0000      -0.565304       -15.3827
  16   2.0000      -0.563051       -15.3214
  17   2.0000      -0.543425       -14.7874
  18   2.0000      -0.518481       -14.1086
  19   2.0000      -0.508506       -13.8371
  20   2.0000      -0.476239       -12.9591
  21   2.0000      -0.414021       -11.2661
  22   2.0000      -0.309484        -8.4215
  23   0.0000       0.035986         0.9792
  24   0.0000       0.041607         1.1322
  25   0.0000       0.044903         1.2219
  26   0.0000       0.054852         1.4926
  27   0.0000       0.059867         1.6291

MULLIKEN ATOMIC CHARGES
-----------------------
   0 C :    1.165916
   1 C :   -0.456541
   2 C :    0.794805
   3 C :   -0.195970
   4 C :    0.205025
   5 C :    0.412074
   6 H :   -0.434364
   7 H :   -0.412339
   8 H :   -0.544647
   9 H :   -0.613474
  10 H :   -0.152877
  11 H :    0.090537
  12 H :    0.090527
  13 H :    0.151519
  14 H :    0.151520
  15 H :   -0.251711
Sum of atomic charges:    0.0000000

LOEWDIN ATOMIC CHARGES
----------------------
   0 C :    0.201638
   1 C :   -0.298173
   2 C :    0.000281
   3 C :   -0.031848
   4 C :    0.135398
   5 C :    0.158841
   6 H :   -0.040848
   7 H :   -0.040147
   8 H :    0.004690
   9 H :   -0.008960
  10 H :   -0.017805
  11 H :   -0.016358
  12 H :   -0.016358
  13 H :   -0.006793
  14 H :   -0.006789
  15 H :   -0.016771

  Mayer bond orders larger than 0.100000
B(  0-C ,  1-C ) :   1.6523 B(  0-C ,  2-C ) :  -0.1615 B(  0-C ,  5-C ) :  -0.1648
B(  0-C ,  6-H ) :   0.4102 B(  0-C ,  7-H ) :   0.4515 B(  1-C ,  2-C ) :   1.3760
B(  1-C ,  5-C ) :   1.3494 B(  1-C ,  6-H ) :   0.3230 B(  1-C ,  7-H ) :   0.3846
B(  1-C ,  8-H ) :   0.2570 B(  1-C , 13-H ) :   0.1685 B(  1-C , 14-H ) :   0.1685
B(  1-C , 15-H ) :   0.1800 B(  2-C ,  3-C ) :   2.0520 B(  2-C ,  4-C ) :  -0.2395
B(  2-C ,  5-C ) :  -0.1265 B(  2-C ,  7-H ) :  -0.1436 B(  2-C ,  8-H ) :   0.1062
B(  2-C ,  9-H ) :   0.3455 B(  2-C , 10-H ) :  -0.1206 B(  3-C ,  4-C ) :   1.2525
B(  3-C ,  8-H ) :   0.2397 B(  3-C ,  9-H ) :   0.3074 B(  3-C , 10-H ) :   0.1445
B(  3-C , 11-H ) :   0.1127 B(  3-C , 12-H ) :   0.1127 B(  4-C ,  8-H ) :  -0.1172
B(  4-C , 10-H ) :   0.9322 B(  4-C , 11-H ) :   0.8830 B(  4-C , 12-H ) :   0.8830
B(  5-C , 13-H ) :   0.7967 B(  5-C , 14-H ) :   0.7967 B(  5-C , 15-H ) :   0.7128
B(  6-H ,  7-H ) :  -0.1754

MP2 TOTAL ENERGY:     -233.878502578 Eh
FINAL SINGLE POINT ENERGY      -233.878502577623

DIPOLE MOMENT
-------------
                                X             Y             Z
Electronic contribution:      1.37030      -1.18106       0.00008
Nuclear contribution   :     -1.57959       1.35416      -0.00010
                        -----------------------------------------
Total Dipole Moment    :     -0.20929       0.17310      -0.00001
                        -----------------------------------------
Magnitude (a.u.)       :      0.27160
Magnitude (Debye)      :      0.69036

Rotational constants in cm-1:     0.266252     0.063793     0.052455
Rotational constants in MHz :  7982.033895  1912.451241  1572.572630

                             ****ORCA TERMINATED NORMALLY****
TOTAL RUN TIME: 0 days 0 hours 0 minutes 44 seconds 453 msec
