                         Program Version 5.0.3 -  RELEASE  -
|  1> !ri-mp2 aug-cc-pvdz aug-cc-pvdz/c tightscf
|  2> %pal nprocs 16 end
|  3>
|  4> * xyz 0 1
|  5> C      1.596556   -1.266774   -0.239032
|  6> C      1.596587    1.262126   -0.295667
|  7> C     -0.382487    0.015965    0.749058
|  8> C     -1.297520   -0.031192   -0.471402
|  9> C      1.132440    0.013943    0.463905
| 10> O     -2.679318   -0.078760   -0.109803
| 11> H      2.685123   -1.295615   -0.309213
| 12> H      1.204663   -1.335770   -1.255520
| 13> H      1.274126   -2.157267    0.303519
| 14> H      1.204440    1.286519   -1.313980
| 15> H      2.685176    1.287631   -0.367323
| 16> H      1.275953    2.176485    0.207423
| 17> H     -0.625987    0.914555    1.327581
| 18> H     -0.629303   -0.837820    1.385322
| 19> H     -1.111212    0.820023   -1.133951
| 20> H     -1.127626   -0.938783   -1.049056
| 21> H      1.619002    0.036154    1.444159
| 22> H     -2.893279    0.709561    0.398292
| 23> *
| 24>
| 25>                          ****END OF INPUT****

CARTESIAN COORDINATES (ANGSTROEM)
---------------------------------
  C      1.596556   -1.266774   -0.239032
  C      1.596587    1.262126   -0.295667
  C     -0.382487    0.015965    0.749058
  C     -1.297520   -0.031192   -0.471402
  C      1.132440    0.013943    0.463905
  O     -2.679318   -0.078760   -0.109803
  H      2.685123   -1.295615   -0.309213
  H      1.204663   -1.335770   -1.255520
  H      1.274126   -2.157267    0.303519
  H      1.204440    1.286519   -1.313980
  H      2.685176    1.287631   -0.367323
  H      1.275953    2.176485    0.207423
  H     -0.625987    0.914555    1.327581
  H     -0.629303   -0.837820    1.385322
  H     -1.111212    0.820023   -1.133951
  H     -1.127626   -0.938783   -1.049056
  H      1.619002    0.036154    1.444159
  H     -2.893279    0.709561    0.398292

 Total Charge           Charge          ....    0
 Multiplicity           Mult            ....    1
 Number of Electrons    NEL             ....   50
 Basis Dimension        Dim             ....  246

ORBITAL ENERGIES
----------------

  NO   OCC          E(Eh)            E(eV)
   0   2.0000     -20.562741      -559.5406
   1   2.0000     -11.276323      -306.8443
   2   2.0000     -11.236446      -305.7592
   3   2.0000     -11.225193      -305.4530
   4   2.0000     -11.221111      -305.3420
   5   2.0000     -11.219939      -305.3101
   6   2.0000      -1.355428       -36.8831
   7   2.0000      -1.093694       -29.7609
   8   2.0000      -0.982278       -26.7291
   9   2.0000      -0.934073       -25.4174
  10   2.0000      -0.866258       -23.5721
  11   2.0000      -0.763214       -20.7681
  12   2.0000      -0.686334       -18.6761
  13   2.0000      -0.639972       -17.4145
  14   2.0000      -0.611612       -16.6428
  15   2.0000      -0.604197       -16.4410
  16   2.0000      -0.570841       -15.5334
  17   2.0000      -0.565295       -15.3825
  18   2.0000      -0.538486       -14.6529
  19   2.0000      -0.518941       -14.1211
  20   2.0000      -0.497492       -13.5374
  21   2.0000      -0.474379       -12.9085
  22   2.0000      -0.462412       -12.5829
  23   2.0000      -0.458699       -12.4818
  24   2.0000      -0.426787       -11.6135
  25   0.0000       0.034036         0.9262
  26   0.0000       0.042073         1.1449
  27   0.0000       0.045474         1.2374
  28   0.0000       0.048749         1.3265
  29   0.0000       0.062474         1.7000

MULLIKEN ATOMIC CHARGES
-----------------------
   0 C :    0.804814
   1 C :    0.809321
   2 C :    0.406928
   3 C :    1.205216
   4 C :   -1.300701
   5 O :   -0.749922
   6 H :   -0.108546
   7 H :   -0.059681
   8 H :   -0.084228
   9 H :   -0.066301
  10 H :   -0.101244
  11 H :   -0.082064
  12 H :   -0.186784
  13 H :   -0.114826
  14 H :   -0.173468
  15 H :   -0.230471
  16 H :   -0.092629
  17 H :    0.124587
Sum of atomic charges:    0.0000000

LOEWDIN ATOMIC CHARGES
----------------------
   0 C :    0.155729
   1 C :    0.154727
   2 C :   -0.012610
   3 C :   -0.044185
   4 C :   -0.279529
   5 O :    0.111385
   6 H :   -0.014558
   7 H :   -0.017884
   8 H :   -0.010986
   9 H :   -0.018919
  10 H :   -0.014529
  11 H :   -0.012651
  12 H :    0.014802
  13 H :    0.020547
  14 H :    0.000702
  15 H :   -0.000516
  16 H :    0.035527
  17 H :   -0.067053

  Mayer bond orders larger than 0.100000
B(  0-C ,  1-C ) :  -0.1807 B(  0-C ,  4-C ) :   1.3781 B(  0-C ,  6-H ) :   0.7931
B(  0-C ,  7-H ) :   0.8930 B(  0-C ,  8-H ) :   0.8173 B(  1-C ,  4-C ) :   1.3692
B(  1-C ,  9-H ) :   0.8941 B(  1-C , 10-H ) :   0.7932 B(  1-C , 11-H ) :   0.8149
B(  2-C ,  3-C ) :   1.1756 B(  2-C ,  4-C ) :   1.2829 B(  2-C ,  5-O ) :   0.1031
B(  2-C , 12-H ) :   0.7099 B(  2-C , 13-H ) :   0.7252 B(  3-C ,  5-O ) :   0.3473
B(  3-C , 14-H ) :   0.8472 B(  3-C , 15-H ) :   0.8589 B(  4-C ,  6-H ) :   0.1620
B(  4-C ,  7-H ) :   0.1219 B(  4-C ,  8-H ) :   0.1065 B(  4-C ,  9-H ) :   0.1302
B(  4-C , 10-H ) :   0.1538 B(  4-C , 11-H ) :   0.1025 B(  4-C , 12-H ) :   0.1615
B(  4-C , 13-H ) :   0.1450 B(  4-C , 16-H ) :   0.6839 B(  5-O , 17-H ) :   1.0871
B(  6-H ,  8-H ) :  -0.1052 B( 10-H , 11-H ) :  -0.1034 B( 12-H , 13-H ) :  -0.1680

MP2 TOTAL ENERGY:     -272.175810873 Eh
FINAL SINGLE POINT ENERGY      -272.175810872738

DIPOLE MOMENT
-------------
                                X             Y             Z
Electronic contribution:     -5.29887      -0.24002       0.60967
Nuclear contribution   :      5.87906       0.70780      -0.38827
                        -----------------------------------------
Total Dipole Moment    :      0.58019       0.46778       0.22140
                        -----------------------------------------
Magnitude (a.u.)       :      0.77747
Magnitude (Debye)      :      1.97618

Rotational constants in cm-1:     0.199748     0.061461     0.054959
Rotational constants in MHz :  5988.285375  1842.567434  1647.631648

                             ****ORCA TERMINATED NORMALLY****
TOTAL RUN TIME: 0 days 0 hours 0 minutes 49 seconds 892 msec
