                         Program Version 5.0.3 -  RELEASE  -
|  1> !ri-mp2 aug-cc-pvdz aug-cc-pvdz/c tightscf
|  2> %pal nprocs 16 end
|  3>
|  4> * xyz 0 1
|  5> C      1.664907   -0.863089        0.000000
|  6> C      1.344951    0.483532        0.000000
|  7> C      0.661934   -1.830509        0.000000
|  8> C     -1.007329   -0.096986        0.000000
|  9> C      0.000000    0.864343        0.000000
| 10> C     -0.676595   -1.448300        0.000000
| 11> C     -0.383063    2.293828        0.000000
| 12> O      0.394376    3.219298        0.000000
| 13> O     -1.703952   -2.348067        0.000000
| 14> H      2.700183   -1.175867        0.000000
| 15> H      2.108986    1.247054        0.000000
| 16> H      0.922411   -2.882429        0.000000
| 17> H     -2.049997    0.193551        0.000000
| 18> H     -1.476268    2.476862        0.000000
| 19> H     -1.357529   -3.245935        0.000000
| 20> *
| 21>
| 22>                          ****END OF INPUT****

CARTESIAN COORDINATES (ANGSTROEM)
---------------------------------
  C      1.664907   -0.863089    0.000000
  C      1.344951    0.483532    0.000000
  C      0.661934   -1.830509    0.000000
  C     -1.007329   -0.096986    0.000000
  C      0.000000    0.864343    0.000000
  C     -0.676595   -1.448300    0.000000
  C     -0.383063    2.293828    0.000000
  O      0.394376    3.219298    0.000000
  O     -1.703952   -2.348067    0.000000
  H      2.700183   -1.175867    0.000000
  H      2.108986    1.247054    0.000000
  H      0.922411   -2.882429    0.000000
  H     -2.049997    0.193551    0.000000
  H     -1.476268    2.476862    0.000000
  H     -1.357529   -3.245935    0.000000

 Total Charge           Charge          ....    0
 Multiplicity           Mult            ....    1
 Number of Electrons    NEL             ....   64
 Basis Dimension        Dim             ....  261

ORBITAL ENERGIES
----------------

  NO   OCC          E(Eh)            E(eV)
   0   2.0000     -20.615815      -560.9848
   1   2.0000     -20.569410      -559.7221
   2   2.0000     -11.345177      -308.7180
   3   2.0000     -11.326570      -308.2116
   4   2.0000     -11.263637      -306.4992
   5   2.0000     -11.263113      -306.4849
   6   2.0000     -11.261917      -306.4523
   7   2.0000     -11.260293      -306.4081
   8   2.0000     -11.251349      -306.1648
   9   2.0000      -1.425890       -38.8004
  10   2.0000      -1.400527       -38.1103
  11   2.0000      -1.175835       -31.9961
  12   2.0000      -1.058626       -28.8067
  13   2.0000      -1.031331       -28.0640
  14   2.0000      -0.908959       -24.7340
  15   2.0000      -0.851861       -23.1803
  16   2.0000      -0.815665       -22.1954
  17   2.0000      -0.739397       -20.1200
  18   2.0000      -0.706154       -19.2154
  19   2.0000      -0.677517       -18.4362
  20   2.0000      -0.665068       -18.0974
  21   2.0000      -0.630409       -17.1543
  22   2.0000      -0.615141       -16.7388
  23   2.0000      -0.608263       -16.5517
  24   2.0000      -0.584029       -15.8922
  25   2.0000      -0.551412       -15.0047
  26   2.0000      -0.542668       -14.7668
  27   2.0000      -0.521874       -14.2009
  28   2.0000      -0.490091       -13.3361
  29   2.0000      -0.430743       -11.7211
  30   2.0000      -0.362230        -9.8568
  31   2.0000      -0.332596        -9.0504
  32   0.0000       0.025424         0.6918
  33   0.0000       0.039040         1.0623
  34   0.0000       0.041965         1.1419
  35   0.0000       0.056539         1.5385
  36   0.0000       0.058108         1.5812

MULLIKEN ATOMIC CHARGES
-----------------------
   0 C :    0.522141
   1 C :    0.178299
   2 C :    0.137553
   3 C :    0.154134
   4 C :    1.186627
   5 C :    0.848119
   6 C :    0.874292
   7 O :   -0.763488
   8 O :   -0.921133
   9 H :   -0.440798
  10 H :   -0.574352
  11 H :   -0.563139
  12 H :   -0.538925
  13 H :   -0.280507
  14 H :    0.181176
Sum of atomic charges:   -0.0000000

LOEWDIN ATOMIC CHARGES
----------------------
   0 C :    0.022750
   1 C :    0.058710
   2 C :    0.056746
   3 C :    0.091945
   4 C :   -0.179472
   5 C :   -0.221280
   6 C :   -0.058832
   7 O :    0.029831
   8 O :    0.185751
   9 H :    0.005481
  10 H :    0.009418
  11 H :    0.004594
  12 H :    0.014823
  13 H :    0.016907
  14 H :   -0.037373

  Mayer bond orders larger than 0.100000
B(  0-C ,  1-C ) :   1.8425 B(  0-C ,  2-C ) :   1.8885 B(  0-C ,  4-C ) :  -0.2801
B(  0-C ,  5-C ) :  -0.2847 B(  0-C ,  9-H ) :   0.2263 B(  0-C , 10-H ) :   0.1806
B(  0-C , 11-H ) :   0.1221 B(  1-C ,  2-C ) :   0.4230 B(  1-C ,  3-C ) :  -0.4615
B(  1-C ,  4-C ) :   1.4218 B(  1-C ,  5-C ) :  -0.1553 B(  1-C ,  6-C ) :  -0.5684
B(  1-C ,  9-H ) :   0.3463 B(  1-C , 10-H ) :   0.2167 B(  2-C ,  3-C ) :   0.1432
B(  2-C ,  5-C ) :   1.5310 B(  2-C ,  8-O ) :   0.2709 B(  2-C ,  9-H ) :   0.2083
B(  2-C , 11-H ) :   0.1496 B(  3-C ,  4-C ) :   2.0335 B(  3-C ,  5-C ) :   1.4881
B(  3-C ,  6-C ) :  -0.1535 B(  4-C ,  5-C ) :  -0.2481 B(  4-C ,  6-C ) :   1.1343
B(  4-C , 10-H ) :   0.2266 B(  4-C , 12-H ) :   0.3294 B(  4-C , 13-H ) :   0.1510
B(  5-C ,  6-C ) :   0.1431 B(  5-C ,  8-O ) :  -0.1125 B(  5-C ,  9-H ) :  -0.1271
B(  5-C , 11-H ) :   0.4170 B(  5-C , 12-H ) :   0.2447 B(  5-C , 13-H ) :   0.1256
B(  5-C , 14-H ) :  -0.1111 B(  6-C ,  7-O ) :   1.4933 B(  6-C , 13-H ) :   0.6001
B(  8-O , 14-H ) :   1.0479

MP2 TOTAL ENERGY:     -419.671252059 Eh
FINAL SINGLE POINT ENERGY      -419.671252058668

DIPOLE MOMENT
-------------
                                X             Y             Z
Electronic contribution:     -0.89343       1.63494      -0.00000
Nuclear contribution   :      0.81409      -3.31982       0.00000
                        -----------------------------------------
Total Dipole Moment    :     -0.07934      -1.68489      -0.00000
                        -----------------------------------------
Magnitude (a.u.)       :      1.68675
Magnitude (Debye)      :      4.28738

Rotational constants in cm-1:     0.122633     0.037987     0.029003
Rotational constants in MHz :  3676.444121  1138.832810   869.494164

                             ****ORCA TERMINATED NORMALLY****
TOTAL RUN TIME: 0 days 0 hours 1 minutes 0 seconds 620 msec
