                         Program Version 5.0.3 -  RELEASE  -
|  1> !ri-mp2 aug-cc-pvdz aug-cc-pvdz/c tightscf
|  2> %pal nprocs 16 end
|  3>
|  4> * xyz 0 1
|  5> O    -1.415386    1.150290     1.034869
|  6> O    -2.526884   -0.061738    -0.504591
|  7> N    -0.329637   -1.734260    -0.686231
|  8> N     2.142867   -1.152163     0.543205
|  9> N     1.836613    1.901711    -0.939641
| 10> C    -0.259663   -0.639128    -0.066281
| 11> C    -1.442454    0.263798     0.223360
| 12> C     1.089974   -0.157905     0.501868
| 13> C     1.523271    1.007131    -0.290019
| 14> H    -3.243142    0.541726    -0.256306
| 15> H    -1.276668   -1.925711    -1.010760
| 16> H     2.219932   -1.620473    -0.352294
| 17> H     1.916260   -1.862476     1.227909
| 18> H     0.906095    0.208124     1.514324
| 19> *
| 20>
| 21>                          ****END OF INPUT****

CARTESIAN COORDINATES (ANGSTROEM)
---------------------------------
  O     -1.415386    1.150290    1.034869
  O     -2.526884   -0.061738   -0.504591
  N     -0.329637   -1.734260   -0.686231
  N      2.142867   -1.152163    0.543205
  N      1.836613    1.901711   -0.939641
  C     -0.259663   -0.639128   -0.066281
  C     -1.442454    0.263798    0.223360
  C      1.089974   -0.157905    0.501868
  C      1.523271    1.007131   -0.290019
  H     -3.243142    0.541726   -0.256306
  H     -1.276668   -1.925711   -1.010760
  H      2.219932   -1.620473   -0.352294
  H      1.916260   -1.862476    1.227909
  H      0.906095    0.208124    1.514324

 Total Charge           Charge          ....    0
 Multiplicity           Mult            ....    1
 Number of Electrons    NEL             ....   66
 Basis Dimension        Dim             ....  252

ORBITAL ENERGIES
----------------

  NO   OCC          E(Eh)            E(eV)
   0   2.0000     -20.661178      -562.2192
   1   2.0000     -20.606030      -560.7186
   2   2.0000     -15.618972      -425.0138
   3   2.0000     -15.589162      -424.2027
   4   2.0000     -15.584892      -424.0865
   5   2.0000     -11.439214      -311.2768
   6   2.0000     -11.347101      -308.7703
   7   2.0000     -11.341516      -308.6183
   8   2.0000     -11.288541      -307.1768
   9   2.0000      -1.512260       -41.1507
  10   2.0000      -1.411889       -38.4195
  11   2.0000      -1.287962       -35.0472
  12   2.0000      -1.238877       -33.7115
  13   2.0000      -1.210755       -32.9463
  14   2.0000      -1.028443       -27.9854
  15   2.0000      -0.943919       -25.6853
  16   2.0000      -0.833373       -22.6772
  17   2.0000      -0.770688       -20.9715
  18   2.0000      -0.744249       -20.2521
  19   2.0000      -0.742418       -20.2022
  20   2.0000      -0.676795       -18.4165
  21   2.0000      -0.661749       -18.0071
  22   2.0000      -0.659645       -17.9498
  23   2.0000      -0.638318       -17.3695
  24   2.0000      -0.602665       -16.3993
  25   2.0000      -0.564401       -15.3581
  26   2.0000      -0.539825       -14.6894
  27   2.0000      -0.527800       -14.3622
  28   2.0000      -0.490571       -13.3491
  29   2.0000      -0.480477       -13.0744
  30   2.0000      -0.473533       -12.8855
  31   2.0000      -0.460685       -12.5359
  32   2.0000      -0.431808       -11.7501
  33   0.0000       0.023604         0.6423
  34   0.0000       0.034901         0.9497
  35   0.0000       0.045238         1.2310
  36   0.0000       0.053097         1.4448
  37   0.0000       0.059181         1.6104

MULLIKEN ATOMIC CHARGES
-----------------------
   0 O :   -0.749688
   1 O :   -0.788213
   2 N :   -0.585755
   3 N :   -0.355222
   4 N :   -0.321201
   5 C :    0.150951
   6 C :    1.452749
   7 C :    0.973792
   8 C :   -0.179108
   9 H :    0.270323
  10 H :    0.070018
  11 H :    0.059684
  12 H :    0.012242
  13 H :   -0.010573
Sum of atomic charges:   -0.0000000

LOEWDIN ATOMIC CHARGES
----------------------
   0 O :    0.078824
   1 O :    0.219266
   2 N :    0.243846
   3 N :    0.228467
   4 N :    0.094383
   5 C :   -0.180034
   6 C :   -0.284665
   7 C :   -0.220732
   8 C :   -0.093658
   9 H :   -0.004496
  10 H :   -0.064411
  11 H :   -0.036400
  12 H :   -0.030091
  13 H :    0.049701

  Mayer bond orders larger than 0.100000
B(  0-O ,  1-O ) :   0.1153 B(  0-O ,  5-C ) :   0.1345 B(  0-O ,  6-C ) :   1.3468
B(  1-O ,  5-C ) :   0.3570 B(  1-O ,  6-C ) :   0.2435 B(  1-O ,  9-H ) :   0.9608
B(  2-N ,  5-C ) :   1.5829 B(  2-N ,  7-C ) :   0.1291 B(  2-N , 10-H ) :   0.9904
B(  3-N ,  7-C ) :   0.8796 B(  3-N ,  8-C ) :   0.1134 B(  3-N , 11-H ) :   0.9995
B(  3-N , 12-H ) :   1.0318 B(  4-N ,  7-C ) :  -0.1213 B(  4-N ,  8-C ) :   2.6747
B(  5-C ,  6-C ) :   0.6609 B(  5-C ,  7-C ) :   0.9645 B(  5-C ,  8-C ) :   0.1778
B(  5-C , 13-H ) :   0.1626 B(  7-C ,  8-C ) :   0.4445 B(  7-C , 11-H ) :   0.1127
B(  7-C , 13-H ) :   0.6277

MP2 TOTAL ENERGY:     -468.942138384 Eh
FINAL SINGLE POINT ENERGY      -468.942138384335

DIPOLE MOMENT
-------------
                                X             Y             Z
Electronic contribution:     -2.03508       3.09715      -0.63812
Nuclear contribution   :      0.46982      -4.53225       1.09700
                        -----------------------------------------
Total Dipole Moment    :     -1.56527      -1.43509       0.45888
                        -----------------------------------------
Magnitude (a.u.)       :      2.17259
Magnitude (Debye)      :      5.52228

Rotational constants in cm-1:     0.078551     0.043089     0.033854
Rotational constants in MHz :  2354.893922  1291.765211  1014.916297

                             ****ORCA TERMINATED NORMALLY****
TOTAL RUN TIME: 0 days 0 hours 0 minutes 53 seconds 451 msec
