                         Program Version 5.0.3 -  RELEASE  -
|  1> !ri-mp2 aug-cc-pvdz aug-cc-pvdz/c tightscf
|  2> %pal nprocs 16 end
|  3>
|  4> * xyz 0 1
|  5> O      2.465982    0.020631   -0.000235
|  6> N     -2.444823   -0.094872   -0.000289
|  7> C      0.032526   -0.028629    0.000643
|  8> C      1.301270   -0.000338   -0.000035
|  9> C     -1.244363    0.008532    0.000055
| 10> H     -3.150699    0.621669   -0.000074
| 11> *
| 12>
| 13>                          ****END OF INPUT****

CARTESIAN COORDINATES (ANGSTROEM)
---------------------------------
  O      2.465982    0.020631   -0.000235
  N     -2.444823   -0.094872   -0.000289
  C      0.032526   -0.028629    0.000643
  C      1.301270   -0.000338   -0.000035
  C     -1.244363    0.008532    0.000055
  H     -3.150699    0.621669   -0.000074

 Total Charge           Charge          ....    0
 Multiplicity           Mult            ....    1
 Number of Electrons    NEL             ....   34
 Basis Dimension        Dim             ....  124

ORBITAL ENERGIES
----------------

  NO   OCC          E(Eh)            E(eV)
   0   2.0000     -20.639464      -561.6284
   1   2.0000     -15.617664      -424.9783
   2   2.0000     -11.417286      -310.6802
   3   2.0000     -11.397199      -310.1335
   4   2.0000     -11.246173      -306.0239
   5   2.0000      -1.479809       -40.2677
   6   2.0000      -1.286058       -34.9954
   7   2.0000      -1.089538       -29.6478
   8   2.0000      -0.922858       -25.1122
   9   2.0000      -0.799619       -21.7588
  10   2.0000      -0.735426       -20.0119
  11   2.0000      -0.643492       -17.5103
  12   2.0000      -0.636727       -17.3262
  13   2.0000      -0.573796       -15.6138
  14   2.0000      -0.562266       -15.3000
  15   2.0000      -0.384871       -10.4729
  16   2.0000      -0.367502       -10.0002
  17   0.0000       0.027857         0.7580
  18   0.0000       0.059206         1.6111
  19   0.0000       0.069817         1.8998
  20   0.0000       0.081200         2.2096
  21   0.0000       0.081915         2.2290

MULLIKEN ATOMIC CHARGES
-----------------------
   0 O :   -0.503531
   1 N :   -0.335241
   2 C :    1.454617
   3 C :   -0.305736
   4 C :   -0.389306
   5 H :    0.079197
Sum of atomic charges:    0.0000000

LOEWDIN ATOMIC CHARGES
----------------------
   0 O :    0.103736
   1 N :    0.223360
   2 C :   -0.006781
   3 C :   -0.144851
   4 C :   -0.130239
   5 H :   -0.045225

  Mayer bond orders larger than 0.100000
B(  0-O ,  2-C ) :  -0.3937 B(  0-O ,  3-C ) :   2.1918 B(  0-O ,  4-C ) :   0.1383
B(  1-N ,  2-C ) :  -0.2175 B(  1-N ,  3-C ) :   0.1160 B(  1-N ,  4-C ) :   2.2750
B(  1-N ,  5-H ) :   0.9651 B(  2-C ,  3-C ) :   0.7930 B(  2-C ,  4-C ) :   1.3298
B(  3-C ,  4-C ) :   0.6300

MP2 TOTAL ENERGY:     -244.190523766 Eh
FINAL SINGLE POINT ENERGY      -244.190523766377

DIPOLE MOMENT
-------------
                                X             Y             Z
Electronic contribution:      1.91687      -0.05321      -0.00014
Nuclear contribution   :     -2.97732       0.59185      -0.00008
                        -----------------------------------------
Total Dipole Moment    :     -1.06044       0.53863      -0.00021
                        -----------------------------------------
Magnitude (a.u.)       :      1.18940
Magnitude (Debye)      :      3.02321

Rotational constants in cm-1:    33.021321     0.073345     0.073182
Rotational constants in MHz : 989954.284571  2198.815614  2193.942721

                             ****ORCA TERMINATED NORMALLY****
TOTAL RUN TIME: 0 days 0 hours 0 minutes 33 seconds 723 msec
