                         Program Version 5.0.3 -  RELEASE  -
|  1> !ri-mp2 aug-cc-pvdz aug-cc-pvdz/c tightscf
|  2> %pal nprocs 16 end
|  3>
|  4> * xyz 0 1
|  5> F     -1.641036   -0.642024   -0.961587
|  6> N      1.087050   -0.943365    0.151427
|  7> N      1.749753    0.051367   -0.134059
|  8> N      2.441943    0.885774   -0.448358
|  9> C     -0.170884   -0.683104    0.894190
| 10> C     -1.185976    0.068769    0.096722
| 11> C     -1.642697    1.288657    0.320483
| 12> H     -0.554963   -1.669771    1.144246
| 13> H      0.032320   -0.144959    1.821789
| 14> H     -2.385849    1.733728   -0.323978
| 15> H     -1.276059    1.856850    1.160784
| 16> *
| 17>
| 18>                          ****END OF INPUT****

CARTESIAN COORDINATES (ANGSTROEM)
---------------------------------
  F     -1.641036   -0.642024   -0.961587
  N      1.087050   -0.943365    0.151427
  N      1.749753    0.051367   -0.134059
  N      2.441943    0.885774   -0.448358
  C     -0.170884   -0.683104    0.894190
  C     -1.185976    0.068769    0.096722
  C     -1.642697    1.288657    0.320483
  H     -0.554963   -1.669771    1.144246
  H      0.032320   -0.144959    1.821789
  H     -2.385849    1.733728   -0.323978
  H     -1.276059    1.856850    1.160784

 Total Charge           Charge          ....    0
 Multiplicity           Mult            ....    1
 Number of Electrons    NEL             ....   52
 Basis Dimension        Dim             ....  197

ORBITAL ENERGIES
----------------

  NO   OCC          E(Eh)            E(eV)
   0   2.0000     -26.326603      -716.3833
   1   2.0000     -15.798604      -429.9019
   2   2.0000     -15.684513      -426.7973
   3   2.0000     -15.622950      -425.1221
   4   2.0000     -11.349283      -308.8297
   5   2.0000     -11.310724      -307.7804
   6   2.0000     -11.253725      -306.2294
   7   2.0000      -1.635833       -44.5133
   8   2.0000      -1.519554       -41.3492
   9   2.0000      -1.306954       -35.5640
  10   2.0000      -1.100862       -29.9560
  11   2.0000      -1.001080       -27.2408
  12   2.0000      -0.831410       -22.6238
  13   2.0000      -0.766567       -20.8594
  14   2.0000      -0.729879       -19.8610
  15   2.0000      -0.723617       -19.6906
  16   2.0000      -0.700352       -19.0575
  17   2.0000      -0.693101       -18.8602
  18   2.0000      -0.686420       -18.6784
  19   2.0000      -0.657364       -17.8878
  20   2.0000      -0.599954       -16.3256
  21   2.0000      -0.586279       -15.9535
  22   2.0000      -0.570460       -15.5230
  23   2.0000      -0.452728       -12.3194
  24   2.0000      -0.395647       -10.7661
  25   2.0000      -0.385438       -10.4883
  26   0.0000       0.032730         0.8906
  27   0.0000       0.043124         1.1735
  28   0.0000       0.049392         1.3440
  29   0.0000       0.066010         1.7962
  30   0.0000       0.080194         2.1822

MULLIKEN ATOMIC CHARGES
-----------------------
   0 F :   -0.770124
   1 N :   -0.679734
   2 N :    0.482999
   3 N :   -0.329096
   4 C :    0.644513
   5 C :    0.781579
   6 C :    0.639451
   7 H :   -0.104292
   8 H :   -0.100473
   9 H :   -0.297167
  10 H :   -0.267654
Sum of atomic charges:   -0.0000000

LOEWDIN ATOMIC CHARGES
----------------------
   0 F :    0.057111
   1 N :    0.051489
   2 N :   -0.285047
   3 N :    0.264030
   4 C :   -0.008126
   5 C :   -0.268767
   6 C :    0.217291
   7 H :    0.017420
   8 H :    0.016549
   9 H :   -0.027363
  10 H :   -0.034587

  Mayer bond orders larger than 0.100000
B(  0-F ,  6-C ) :   0.1618 B(  1-N ,  2-N ) :   1.1570 B(  1-N ,  3-N ) :   0.2055
B(  1-N ,  4-C ) :   0.7454 B(  2-N ,  3-N ) :   1.8083 B(  4-C ,  5-C ) :   1.1126
B(  4-C ,  7-H ) :   0.8603 B(  4-C ,  8-H ) :   0.9624 B(  5-C ,  6-C ) :   1.8942
B(  5-C ,  9-H ) :   0.1911 B(  6-C ,  9-H ) :   0.6777 B(  6-C , 10-H ) :   0.9656
B(  9-H , 10-H ) :  -0.1696

MP2 TOTAL ENERGY:     -379.787138090 Eh
FINAL SINGLE POINT ENERGY      -379.787138089681

DIPOLE MOMENT
-------------
                                X             Y             Z
Electronic contribution:      2.05381      -1.87848      -3.69543
Nuclear contribution   :     -2.44709       2.32823       4.58906
                        -----------------------------------------
Total Dipole Moment    :     -0.39329       0.44976       0.89363
                        -----------------------------------------
Magnitude (a.u.)       :      1.07496
Magnitude (Debye)      :      2.73233

Rotational constants in cm-1:     0.162491     0.058245     0.053063
Rotational constants in MHz :  4871.356372  1746.154104  1590.784563

                             ****ORCA TERMINATED NORMALLY****
TOTAL RUN TIME: 0 days 0 hours 0 minutes 43 seconds 134 msec
