                         Program Version 5.0.3 -  RELEASE  -
|  1> !ri-mp2 aug-cc-pvdz aug-cc-pvdz/c tightscf
|  2> %pal nprocs 16 end
|  3>
|  4> * xyz 0 1
|  5> O     -2.088631   -0.584833   -0.000019
|  6> O     -0.935596    1.306407    0.000008
|  7> O      2.497307    0.192352   -0.000016
|  8> C     -1.014648   -0.052431    0.000002
|  9> C      0.243940   -0.824199    0.000019
| 10> C      1.450682   -0.297452    0.000000
| 11> H     -0.029116    1.634178    0.000053
| 12> H      0.164626   -1.901098    0.000033
| 13> *
| 14>
| 15>                          ****END OF INPUT****

CARTESIAN COORDINATES (ANGSTROEM)
---------------------------------
  O     -2.088631   -0.584833   -0.000019
  O     -0.935596    1.306407    0.000008
  O      2.497307    0.192352   -0.000016
  C     -1.014648   -0.052431    0.000002
  C      0.243940   -0.824199    0.000019
  C      1.450682   -0.297452    0.000000
  H     -0.029116    1.634178    0.000053
  H      0.164626   -1.901098    0.000033

 Total Charge           Charge          ....    0
 Multiplicity           Mult            ....    1
 Number of Electrons    NEL             ....   44
 Basis Dimension        Dim             ....  156

ORBITAL ENERGIES
----------------

  NO   OCC          E(Eh)            E(eV)
   0   2.0000     -20.695336      -563.1487
   1   2.0000     -20.638553      -561.6036
   2   2.0000     -20.565854      -559.6253
   3   2.0000     -11.446531      -311.4759
   4   2.0000     -11.423799      -310.8574
   5   2.0000     -11.291158      -307.2480
   6   2.0000      -1.536014       -41.7971
   7   2.0000      -1.479036       -40.2466
   8   2.0000      -1.383169       -37.6379
   9   2.0000      -1.120007       -30.4769
  10   2.0000      -0.880396       -23.9568
  11   2.0000      -0.825051       -22.4508
  12   2.0000      -0.780216       -21.2308
  13   2.0000      -0.726848       -19.7785
  14   2.0000      -0.696987       -18.9660
  15   2.0000      -0.660600       -17.9758
  16   2.0000      -0.643006       -17.4971
  17   2.0000      -0.638856       -17.3842
  18   2.0000      -0.587357       -15.9828
  19   2.0000      -0.502272       -13.6675
  20   2.0000      -0.473810       -12.8930
  21   2.0000      -0.405525       -11.0349
  22   0.0000       0.024895         0.6774
  23   0.0000       0.042397         1.1537
  24   0.0000       0.065478         1.7817
  25   0.0000       0.076858         2.0914
  26   0.0000       0.086430         2.3519

MULLIKEN ATOMIC CHARGES
-----------------------
   0 O :   -0.665771
   1 O :   -0.634592
   2 O :   -0.376160
   3 C :    0.892153
   4 C :    1.124204
   5 C :   -0.187809
   6 H :    0.156383
   7 H :   -0.308409
Sum of atomic charges:   -0.0000000

LOEWDIN ATOMIC CHARGES
----------------------
   0 O :    0.051903
   1 O :    0.210446
   2 O :    0.154415
   3 C :   -0.369418
   4 C :    0.050655
   5 C :   -0.057462
   6 H :   -0.047457
   7 H :    0.006919

  Mayer bond orders larger than 0.100000
B(  0-O ,  3-C ) :   1.5640 B(  1-O ,  3-C ) :   0.4498 B(  1-O ,  6-H ) :   1.0427
B(  2-O ,  4-C ) :  -0.1450 B(  2-O ,  5-C ) :   2.1685 B(  3-C ,  4-C ) :   0.7772
B(  3-C ,  5-C ) :   0.1529 B(  4-C ,  5-C ) :   0.9165 B(  4-C ,  7-H ) :   0.8653

MP2 TOTAL ENERGY:     -340.356022792 Eh
FINAL SINGLE POINT ENERGY      -340.356022791840

DIPOLE MOMENT
-------------
                                X             Y             Z
Electronic contribution:      1.37669       0.18609      -0.00003
Nuclear contribution   :      0.12216      -0.24250       0.00008
                        -----------------------------------------
Total Dipole Moment    :      1.49885      -0.05641       0.00005
                        -----------------------------------------
Magnitude (a.u.)       :      1.49991
Magnitude (Debye)      :      3.81247

Rotational constants in cm-1:     0.344329     0.075948     0.062224
Rotational constants in MHz : 10322.724769  2276.868889  1865.416577

                             ****ORCA TERMINATED NORMALLY****
TOTAL RUN TIME: 0 days 0 hours 0 minutes 34 seconds 351 msec
