                         Program Version 5.0.3 -  RELEASE  -
|  1> !ri-mp2 aug-cc-pvdz aug-cc-pvdz/c tightscf
|  2> %pal nprocs 16 end
|  3>
|  4> * xyz 0 1
|  5> C     -1.579132   -1.018404    0.000000
|  6> C     -0.556518   -1.950256    0.000000
|  7> C     -1.323399    0.352438    0.000000
|  8> C      1.044493   -0.139672    0.000000
|  9> C      0.763417   -1.497487    0.000000
| 10> C      0.000000    0.787801    0.000000
| 11> C     -0.623241    3.096404    0.000000
| 12> O      1.751266   -2.443316    0.000000
| 13> O      0.383127    2.095674    0.000000
| 14> H     -2.605756   -1.359527    0.000000
| 15> H     -0.754444   -3.011972    0.000000
| 16> H     -2.144558    1.051118    0.000000
| 17> H      2.064483    0.223401    0.000000
| 18> H     -1.251546    3.030018    0.891559
| 19> H     -1.251546    3.030018   -0.891559
| 20> H     -0.098191    4.047676    0.000000
| 21> H      2.612695   -2.014536    0.000000
| 22> *
| 23>
| 24>                          ****END OF INPUT****

CARTESIAN COORDINATES (ANGSTROEM)
---------------------------------
  C     -1.579132   -1.018404    0.000000
  C     -0.556518   -1.950256    0.000000
  C     -1.323399    0.352438    0.000000
  C      1.044493   -0.139672    0.000000
  C      0.763417   -1.497487    0.000000
  C      0.000000    0.787801    0.000000
  C     -0.623241    3.096404    0.000000
  O      1.751266   -2.443316    0.000000
  O      0.383127    2.095674    0.000000
  H     -2.605756   -1.359527    0.000000
  H     -0.754444   -3.011972    0.000000
  H     -2.144558    1.051118    0.000000
  H      2.064483    0.223401    0.000000
  H     -1.251546    3.030018    0.891559
  H     -1.251546    3.030018   -0.891559
  H     -0.098191    4.047676    0.000000
  H      2.612695   -2.014536    0.000000

 Total Charge           Charge          ....    0
 Multiplicity           Mult            ....    1
 Number of Electrons    NEL             ....   66
 Basis Dimension        Dim             ....  279

ORBITAL ENERGIES
----------------

  NO   OCC          E(Eh)            E(eV)
   0   2.0000     -20.601034      -560.5826
   1   2.0000     -20.597936      -560.4983
   2   2.0000     -11.313013      -307.8427
   3   2.0000     -11.312235      -307.8216
   4   2.0000     -11.293779      -307.3193
   5   2.0000     -11.249668      -306.1190
   6   2.0000     -11.229965      -305.5829
   7   2.0000     -11.228340      -305.5387
   8   2.0000     -11.224877      -305.4444
   9   2.0000      -1.417225       -38.5647
  10   2.0000      -1.409665       -38.3589
  11   2.0000      -1.148865       -31.2622
  12   2.0000      -1.030308       -28.0361
  13   2.0000      -1.010070       -27.4854
  14   2.0000      -0.948023       -25.7970
  15   2.0000      -0.853491       -23.2247
  16   2.0000      -0.811152       -22.0726
  17   2.0000      -0.741442       -20.1756
  18   2.0000      -0.707918       -19.2634
  19   2.0000      -0.671167       -18.2634
  20   2.0000      -0.657503       -17.8916
  21   2.0000      -0.654190       -17.8014
  22   2.0000      -0.612061       -16.6550
  23   2.0000      -0.597968       -16.2715
  24   2.0000      -0.589954       -16.0535
  25   2.0000      -0.559635       -15.2284
  26   2.0000      -0.537464       -14.6251
  27   2.0000      -0.520069       -14.1518
  28   2.0000      -0.519345       -14.1321
  29   2.0000      -0.490722       -13.3532
  30   2.0000      -0.456499       -12.4220
  31   2.0000      -0.330402        -8.9907
  32   2.0000      -0.309911        -8.4331
  33   0.0000       0.033555         0.9131
  34   0.0000       0.038118         1.0373
  35   0.0000       0.041616         1.1324
  36   0.0000       0.054201         1.4749
  37   0.0000       0.058033         1.5792

MULLIKEN ATOMIC CHARGES
-----------------------
   0 C :    0.821245
   1 C :    0.434171
   2 C :    0.213971
   3 C :    0.136309
   4 C :    1.053377
   5 C :    1.095565
   6 C :    0.853961
   7 O :   -0.915950
   8 O :   -1.098685
   9 H :   -0.466014
  10 H :   -0.457756
  11 H :   -0.751076
  12 H :   -0.637936
  13 H :   -0.068091
  14 H :   -0.068091
  15 H :   -0.324912
  16 H :    0.179912
Sum of atomic charges:    0.0000000

LOEWDIN ATOMIC CHARGES
----------------------
   0 C :    0.010768
   1 C :    0.039824
   2 C :    0.028521
   3 C :    0.080527
   4 C :   -0.228292
   5 C :   -0.207329
   6 C :    0.155469
   7 O :    0.185850
   8 O :    0.034057
   9 H :    0.005366
  10 H :    0.002171
  11 H :   -0.018594
  12 H :    0.006828
  13 H :   -0.016054
  14 H :   -0.016054
  15 H :   -0.023180
  16 H :   -0.039875

  Mayer bond orders larger than 0.100000
B(  0-C ,  1-C ) :   1.6143 B(  0-C ,  2-C ) :   1.6062 B(  0-C ,  4-C ) :  -0.1493
B(  0-C ,  5-C ) :  -0.2109 B(  0-C ,  6-C ) :   0.1281 B(  0-C , 11-H ) :   0.2650
B(  1-C ,  2-C ) :   0.4601 B(  1-C ,  3-C ) :   0.3328 B(  1-C ,  4-C ) :   1.6469
B(  1-C ,  9-H ) :   0.1656 B(  1-C , 10-H ) :   0.1406 B(  2-C ,  3-C ) :   0.1947
B(  2-C ,  4-C ) :   0.1872 B(  2-C ,  5-C ) :   1.4106 B(  2-C ,  8-O ) :   0.1395
B(  2-C ,  9-H ) :   0.5914 B(  2-C , 11-H ) :  -0.1008 B(  3-C ,  4-C ) :   1.5165
B(  3-C ,  5-C ) :   2.0863 B(  3-C ,  6-C ) :  -0.1117 B(  3-C ,  7-O ) :   0.2387
B(  3-C ,  8-O ) :   0.1668 B(  4-C ,  5-C ) :  -0.3272 B(  4-C ,  9-H ) :  -0.1786
B(  4-C , 10-H ) :   0.4393 B(  4-C , 12-H ) :   0.2400 B(  4-C , 16-H ) :  -0.1183
B(  5-C ,  6-C ) :  -0.1184 B(  5-C ,  8-O ) :  -0.1362 B(  5-C , 11-H ) :   0.2812
B(  5-C , 12-H ) :   0.4293 B(  6-C ,  8-O ) :   0.7090 B(  6-C , 13-H ) :   0.9749
B(  6-C , 14-H ) :   0.9749 B(  6-C , 15-H ) :   1.0053 B(  7-O , 16-H ) :   1.0490
B( 13-H , 15-H ) :  -0.1045 B( 14-H , 15-H ) :  -0.1045

MP2 TOTAL ENERGY:     -420.847817761 Eh
FINAL SINGLE POINT ENERGY      -420.847817761240

DIPOLE MOMENT
-------------
                                X             Y             Z
Electronic contribution:      3.19501      -4.26271       0.00000
Nuclear contribution   :     -3.39012       4.98323       0.00000
                        -----------------------------------------
Total Dipole Moment    :     -0.19511       0.72052       0.00000
                        -----------------------------------------
Magnitude (a.u.)       :      0.74647
Magnitude (Debye)      :      1.89737

Rotational constants in cm-1:     0.121733     0.037612     0.028892
Rotational constants in MHz :  3649.453237  1127.572867   866.151352

                             ****ORCA TERMINATED NORMALLY****
TOTAL RUN TIME: 0 days 0 hours 1 minutes 29 seconds 780 msec
