                         Program Version 5.0.3 -  RELEASE  -
|  1> !ri-mp2 aug-cc-pvdz aug-cc-pvdz/c tightscf
|  2> %pal nprocs 16 end
|  3>
|  4> * xyz 0 1
|  5> C      0.000000    1.958176   -0.987741
|  6> H      0.566649    1.430602   -1.755450
|  7> H     -0.650438    2.672727   -1.493685
|  8> H      0.707866    2.520346   -0.377078
|  9> C     -0.827026    0.996208   -0.123763
| 10> H     -1.529824    0.461466   -0.769662
| 11> H     -1.433305    1.572550    0.576719
| 12> C      0.000000   -1.958176   -0.987741
| 13> H     -0.566649   -1.430602   -1.755450
| 14> H      0.650438   -2.672727   -1.493685
| 15> H     -0.707866   -2.520346   -0.377078
| 16> C      0.827026   -0.996208   -0.123763
| 17> H      1.529824   -0.461466   -0.769662
| 18> H      1.433305   -1.572550    0.576719
| 19> C      0.000000    0.000000    0.656119
| 20> C      0.000000    0.000000    1.987937
| 21> H     -0.592649    0.706057    2.556012
| 22> H      0.592649   -0.706057    2.556012
| 23> *
| 24>
| 25>                          ****END OF INPUT****

CARTESIAN COORDINATES (ANGSTROEM)
---------------------------------
  C      0.000000    1.958176   -0.987741
  H      0.566649    1.430602   -1.755450
  H     -0.650438    2.672727   -1.493685
  H      0.707866    2.520346   -0.377078
  C     -0.827026    0.996208   -0.123763
  H     -1.529824    0.461466   -0.769662
  H     -1.433305    1.572550    0.576719
  C      0.000000   -1.958176   -0.987741
  H     -0.566649   -1.430602   -1.755450
  H      0.650438   -2.672727   -1.493685
  H     -0.707866   -2.520346   -0.377078
  C      0.827026   -0.996208   -0.123763
  H      1.529824   -0.461466   -0.769662
  H      1.433305   -1.572550    0.576719
  C      0.000000    0.000000    0.656119
  C      0.000000    0.000000    1.987937
  H     -0.592649    0.706057    2.556012
  H      0.592649   -0.706057    2.556012

 Total Charge           Charge          ....    0
 Multiplicity           Mult            ....    1
 Number of Electrons    NEL             ....   48
 Basis Dimension        Dim             ....  246

ORBITAL ENERGIES
----------------

  NO   OCC          E(Eh)            E(eV)
   0   2.0000     -11.237569      -305.7898
   1   2.0000     -11.228152      -305.5335
   2   2.0000     -11.228113      -305.5325
   3   2.0000     -11.221191      -305.3441
   4   2.0000     -11.221190      -305.3441
   5   2.0000     -11.213773      -305.1423
   6   2.0000      -1.105329       -30.0775
   7   2.0000      -1.017051       -27.6754
   8   2.0000      -0.980270       -26.6745
   9   2.0000      -0.855358       -23.2755
  10   2.0000      -0.853808       -23.2333
  11   2.0000      -0.711349       -19.3568
  12   2.0000      -0.636236       -17.3129
  13   2.0000      -0.634559       -17.2672
  14   2.0000      -0.580058       -15.7842
  15   2.0000      -0.574423       -15.6308
  16   2.0000      -0.569925       -15.5084
  17   2.0000      -0.519836       -14.1455
  18   2.0000      -0.518507       -14.1093
  19   2.0000      -0.501773       -13.6539
  20   2.0000      -0.490156       -13.3378
  21   2.0000      -0.472069       -12.8457
  22   2.0000      -0.453085       -12.3291
  23   2.0000      -0.345280        -9.3955
  24   0.0000       0.037172         1.0115
  25   0.0000       0.042528         1.1573
  26   0.0000       0.044559         1.2125
  27   0.0000       0.048801         1.3280
  28   0.0000       0.062067         1.6889

MULLIKEN ATOMIC CHARGES
-----------------------
   0 C :    0.421986
   1 H :   -0.130664
   2 H :   -0.105373
   3 H :   -0.092259
   4 C :    0.185574
   5 H :   -0.078564
   6 H :   -0.201208
   7 C :    0.421986
   8 H :   -0.130664
   9 H :   -0.105373
  10 H :   -0.092259
  11 C :    0.185574
  12 H :   -0.078564
  13 H :   -0.201208
  14 C :   -0.322773
  15 C :    1.160504
  16 H :   -0.418357
  17 H :   -0.418357
Sum of atomic charges:   -0.0000000

LOEWDIN ATOMIC CHARGES
----------------------
   0 C :    0.144355
   1 H :   -0.026633
   2 H :   -0.019102
   3 H :   -0.013480
   4 C :   -0.036387
   5 H :    0.009463
   6 H :    0.011450
   7 C :    0.144355
   8 H :   -0.026633
   9 H :   -0.019102
  10 H :   -0.013480
  11 C :   -0.036387
  12 H :    0.009463
  13 H :    0.011450
  14 C :   -0.256150
  15 C :    0.195743
  16 H :   -0.039463
  17 H :   -0.039463

  Mayer bond orders larger than 0.100000
B(  0-C ,  1-H ) :   0.9511 B(  0-C ,  2-H ) :   0.8953 B(  0-C ,  3-H ) :   0.9381
B(  0-C ,  4-C ) :   1.2060 B(  4-C ,  5-H ) :   0.8621 B(  4-C ,  6-H ) :   0.6925
B(  4-C , 11-C ) :  -0.1167 B(  4-C , 14-C ) :   1.1665 B(  4-C , 15-C ) :  -0.1171
B(  6-H , 14-C ) :   0.1617 B(  7-C ,  8-H ) :   0.9511 B(  7-C ,  9-H ) :   0.8953
B(  7-C , 10-H ) :   0.9381 B(  7-C , 11-C ) :   1.2060 B( 11-C , 12-H ) :   0.8621
B( 11-C , 13-H ) :   0.6925 B( 11-C , 14-C ) :   1.1665 B( 11-C , 15-C ) :  -0.1171
B( 13-H , 14-C ) :   0.1617 B( 14-C , 15-C ) :   1.9455 B( 14-C , 16-H ) :   0.4150
B( 14-C , 17-H ) :   0.4150 B( 15-C , 16-H ) :   0.3326 B( 15-C , 17-H ) :   0.3326
B( 16-H , 17-H ) :  -0.1944

MP2 TOTAL ENERGY:     -235.087066966 Eh
FINAL SINGLE POINT ENERGY      -235.087066965717

DIPOLE MOMENT
-------------
                                X             Y             Z
Electronic contribution:      0.00000      -0.00000       2.47822
Nuclear contribution   :     -0.00000      -0.00000      -2.70595
                        -----------------------------------------
Total Dipole Moment    :      0.00000      -0.00000      -0.22774
                        -----------------------------------------
Magnitude (a.u.)       :      0.22774
Magnitude (Debye)      :      0.57886

Rotational constants in cm-1:     0.133636     0.092516     0.064622
Rotational constants in MHz :  4006.299206  2773.566217  1937.320365

                             ****ORCA TERMINATED NORMALLY****
TOTAL RUN TIME: 0 days 0 hours 0 minutes 48 seconds 664 msec
