                         Program Version 5.0.3 -  RELEASE  -
|  1> !ri-mp2 aug-cc-pvdz aug-cc-pvdz/c tightscf
|  2> %pal nprocs 16 end
|  3>
|  4> * xyz 0 1
|  5> C     -3.048752   -0.233601    0.036674
|  6> C     -1.747093   -0.694147   -0.606769
|  7> S     -0.333206    0.184684    0.124046
|  8> O     -0.241241   -0.192676    1.531689
|  9> O     -0.432759    1.596855   -0.241566
| 10> C      1.104634   -0.526657   -0.766862
| 11> C      2.358790    0.197724   -0.407998
| 12> C      3.357139   -0.350923    0.271282
| 13> H     -3.045989   -0.433495    1.106557
| 14> H     -3.203625    0.832669   -0.117926
| 15> H     -3.884192   -0.770832   -0.411908
| 16> H     -1.719025   -0.479926   -1.674605
| 17> H     -1.562290   -1.755515   -0.442909
| 18> H      1.142724   -1.579964   -0.494282
| 19> H      0.862845   -0.421743   -1.825556
| 20> H      2.417087    1.230864   -0.727347
| 21> H      3.318293   -1.376763    0.615663
| 22> H      4.249152    0.211954    0.508629
| 23> *
| 24>
| 25>                          ****END OF INPUT****

CARTESIAN COORDINATES (ANGSTROEM)
---------------------------------
  C     -3.048752   -0.233601    0.036674
  C     -1.747093   -0.694147   -0.606769
  S     -0.333206    0.184684    0.124046
  O     -0.241241   -0.192676    1.531689
  O     -0.432759    1.596855   -0.241566
  C      1.104634   -0.526657   -0.766862
  C      2.358790    0.197724   -0.407998
  C      3.357139   -0.350923    0.271282
  H     -3.045989   -0.433495    1.106557
  H     -3.203625    0.832669   -0.117926
  H     -3.884192   -0.770832   -0.411908
  H     -1.719025   -0.479926   -1.674605
  H     -1.562290   -1.755515   -0.442909
  H      1.142724   -1.579964   -0.494282
  H      0.862845   -0.421743   -1.825556
  H      2.417087    1.230864   -0.727347
  H      3.318293   -1.376763    0.615663
  H      4.249152    0.211954    0.508629

 Total Charge           Charge          ....    0
 Multiplicity           Mult            ....    1
 Number of Electrons    NEL             ....   72
 Basis Dimension        Dim             ....  278

ORBITAL ENERGIES
----------------

  NO   OCC          E(Eh)            E(eV)
   0   2.0000     -92.189047     -2508.5915
   1   2.0000     -20.547692      -559.1311
   2   2.0000     -20.546895      -559.1094
   3   2.0000     -11.291380      -307.2541
   4   2.0000     -11.288091      -307.1646
   5   2.0000     -11.260389      -306.4108
   6   2.0000     -11.250171      -306.1327
   7   2.0000     -11.246980      -306.0459
   8   2.0000      -9.162725      -249.3304
   9   2.0000      -6.847872      -186.3401
  10   2.0000      -6.846487      -186.3024
  11   2.0000      -6.846248      -186.2959
  12   2.0000      -1.443337       -39.2752
  13   2.0000      -1.329672       -36.1822
  14   2.0000      -1.111413       -30.2431
  15   2.0000      -1.081386       -29.4260
  16   2.0000      -0.997360       -27.1395
  17   2.0000      -0.909935       -24.7606
  18   2.0000      -0.812592       -22.1118
  19   2.0000      -0.780107       -21.2278
  20   2.0000      -0.694787       -18.9061
  21   2.0000      -0.681303       -18.5392
  22   2.0000      -0.664494       -18.0818
  23   2.0000      -0.646536       -17.5931
  24   2.0000      -0.624295       -16.9879
  25   2.0000      -0.611458       -16.6386
  26   2.0000      -0.580182       -15.7876
  27   2.0000      -0.560586       -15.2543
  28   2.0000      -0.551133       -14.9971
  29   2.0000      -0.529324       -14.4036
  30   2.0000      -0.519834       -14.1454
  31   2.0000      -0.486555       -13.2398
  32   2.0000      -0.481827       -13.1112
  33   2.0000      -0.458308       -12.4712
  34   2.0000      -0.431552       -11.7431
  35   2.0000      -0.377464       -10.2713
  36   0.0000       0.028234         0.7683
  37   0.0000       0.038537         1.0486
  38   0.0000       0.043527         1.1844
  39   0.0000       0.046165         1.2562
  40   0.0000       0.058861         1.6017

MULLIKEN ATOMIC CHARGES
-----------------------
   0 C :    0.377726
   1 C :   -0.066416
   2 S :    2.500069
   3 O :   -1.240071
   4 O :   -1.257970
   5 C :   -0.126562
   6 C :    0.950918
   7 C :    0.423492
   8 H :   -0.031920
   9 H :   -0.034854
  10 H :   -0.029774
  11 H :   -0.123825
  12 H :   -0.134482
  13 H :   -0.213421
  14 H :   -0.037923
  15 H :   -0.422532
  16 H :   -0.260923
  17 H :   -0.271535
Sum of atomic charges:    0.0000000

LOEWDIN ATOMIC CHARGES
----------------------
   0 C :    0.118046
   1 C :   -0.121034
   2 S :    0.938321
   3 O :   -0.400166
   4 O :   -0.405265
   5 C :   -0.087898
   6 C :   -0.099042
   7 C :    0.185719
   8 H :   -0.015065
   9 H :   -0.014697
  10 H :   -0.015258
  11 H :   -0.006841
  12 H :   -0.005684
  13 H :   -0.002157
  14 H :   -0.003119
  15 H :    0.000303
  16 H :   -0.031811
  17 H :   -0.034353

  Mayer bond orders larger than 0.100000
B(  0-C ,  1-C ) :   1.2208 B(  0-C ,  8-H ) :   0.9484 B(  0-C ,  9-H ) :   0.9553
B(  0-C , 10-H ) :   0.9032 B(  1-C ,  2-S ) :   0.9907 B(  1-C , 11-H ) :   0.8803
B(  1-C , 12-H ) :   0.8706 B(  2-S ,  3-O ) :   0.7162 B(  2-S ,  4-O ) :   0.7078
B(  2-S ,  5-C ) :   0.9880 B(  2-S , 13-H ) :   0.1057 B(  3-O ,  4-O ) :   0.1579
B(  5-C ,  6-C ) :   1.0822 B(  5-C , 13-H ) :   0.9054 B(  5-C , 14-H ) :   0.9155
B(  6-C ,  7-C ) :   1.8791 B(  6-C , 13-H ) :  -0.1065 B(  6-C , 15-H ) :   0.5834
B(  6-C , 17-H ) :   0.1503 B(  7-C , 16-H ) :   0.9465 B(  7-C , 17-H ) :   0.7637
B( 16-H , 17-H ) :  -0.1863

MP2 TOTAL ENERGY:     -743.642356367 Eh
FINAL SINGLE POINT ENERGY      -743.642356367154

DIPOLE MOMENT
-------------
                                X             Y             Z
Electronic contribution:      1.39884       3.16245       2.12739
Nuclear contribution   :     -1.43628      -4.56100      -3.47359
                        -----------------------------------------
Total Dipole Moment    :     -0.03744      -1.39855      -1.34620
                        -----------------------------------------
Magnitude (a.u.)       :      1.94155
Magnitude (Debye)      :      4.93502

Rotational constants in cm-1:     0.132202     0.032916     0.032678
Rotational constants in MHz :  3963.303826   986.782125   979.648020

                             ****ORCA TERMINATED NORMALLY****
TOTAL RUN TIME: 0 days 0 hours 1 minutes 15 seconds 364 msec
