                         Program Version 5.0.3 -  RELEASE  -
|  1> !ri-mp2 aug-cc-pvdz aug-cc-pvdz/c tightscf
|  2> %pal nprocs 16 end
|  3>
|  4> * xyz 0 1
|  5> S    -1.754466   -0.335189   -0.197249
|  6> F     1.013789    1.522561   -0.771068
|  7> F     2.045030   -1.036519    0.178958
|  8> N     0.632941    0.772412    0.482854
|  9> C     0.799133   -0.571033    0.149039
| 10> C    -0.780143    1.004087    0.668274
| 11> C    -0.280485   -1.267924   -0.221740
| 12> H    -0.988442    0.907291    1.731910
| 13> H    -1.050908    1.989954    0.309837
| 14> H    -0.280179   -2.306271   -0.510189
| 15> *
| 16>
| 17>                          ****END OF INPUT****

CARTESIAN COORDINATES (ANGSTROEM)
---------------------------------
  S     -1.754466   -0.335189   -0.197249
  F      1.013789    1.522561   -0.771068
  F      2.045030   -1.036519    0.178958
  N      0.632941    0.772412    0.482854
  C      0.799133   -0.571033    0.149039
  C     -0.780143    1.004087    0.668274
  C     -0.280485   -1.267924   -0.221740
  H     -0.988442    0.907291    1.731910
  H     -1.050908    1.989954    0.309837
  H     -0.280179   -2.306271   -0.510189

 Total Charge           Charge          ....    0
 Multiplicity           Mult            ....    1
 Number of Electrons    NEL             ....   62
 Basis Dimension        Dim             ....  192

ORBITAL ENERGIES
----------------

  NO   OCC          E(Eh)            E(eV)
   0   2.0000     -91.993919     -2503.2818
   1   2.0000     -26.349132      -716.9963
   2   2.0000     -26.311834      -715.9814
   3   2.0000     -15.708659      -427.4543
   4   2.0000     -11.383536      -309.7618
   5   2.0000     -11.337582      -308.5113
   6   2.0000     -11.309920      -307.7586
   7   2.0000      -8.996029      -244.7944
   8   2.0000      -6.677751      -181.7108
   9   2.0000      -6.676646      -181.6808
  10   2.0000      -6.674237      -181.6152
  11   2.0000      -1.663869       -45.2762
  12   2.0000      -1.584101       -43.1056
  13   2.0000      -1.286165       -34.9983
  14   2.0000      -1.091365       -29.6976
  15   2.0000      -1.035124       -28.1672
  16   2.0000      -0.881712       -23.9926
  17   2.0000      -0.831929       -22.6379
  18   2.0000      -0.765315       -20.8253
  19   2.0000      -0.736480       -20.0406
  20   2.0000      -0.721105       -19.6223
  21   2.0000      -0.688027       -18.7222
  22   2.0000      -0.673929       -18.3385
  23   2.0000      -0.656257       -17.8577
  24   2.0000      -0.605295       -16.4709
  25   2.0000      -0.596432       -16.2297
  26   2.0000      -0.553757       -15.0685
  27   2.0000      -0.538055       -14.6412
  28   2.0000      -0.479261       -13.0414
  29   2.0000      -0.448005       -12.1908
  30   2.0000      -0.339779        -9.2459
  31   0.0000       0.033499         0.9116
  32   0.0000       0.038770         1.0550
  33   0.0000       0.052619         1.4318
  34   0.0000       0.069607         1.8941
  35   0.0000       0.082639         2.2487

MULLIKEN ATOMIC CHARGES
-----------------------
   0 S :    0.394315
   1 F :   -0.589806
   2 F :   -0.694695
   3 N :   -0.299215
   4 C :    1.345346
   5 C :    0.367585
   6 C :    0.001490
   7 H :   -0.090193
   8 H :   -0.118716
   9 H :   -0.316111
Sum of atomic charges:   -0.0000000

LOEWDIN ATOMIC CHARGES
----------------------
   0 S :    0.860281
   1 F :   -0.042966
   2 F :    0.085909
   3 N :   -0.057748
   4 C :   -0.336563
   5 C :   -0.198689
   6 C :   -0.237596
   7 H :   -0.019039
   8 H :   -0.019095
   9 H :   -0.034494

  Mayer bond orders larger than 0.100000
B(  0-S ,  5-C ) :   1.0975 B(  0-S ,  6-C ) :   0.9817 B(  1-F ,  3-N ) :   0.6841
B(  1-F ,  4-C ) :  -0.1153 B(  2-F ,  6-C ) :   0.1607 B(  3-N ,  4-C ) :   0.6735
B(  3-N ,  5-C ) :   0.8074 B(  4-C ,  5-C ) :  -0.1006 B(  4-C ,  6-C ) :   1.8290
B(  5-C ,  7-H ) :   0.9828 B(  5-C ,  8-H ) :   1.0230 B(  6-C ,  9-H ) :   0.9549

MP2 TOTAL ENERGY:     -767.259877144 Eh
FINAL SINGLE POINT ENERGY      -767.259877143595

DIPOLE MOMENT
-------------
                                X             Y             Z
Electronic contribution:      4.01597      -0.50080      -1.49799
Nuclear contribution   :     -4.99595       0.11901       2.00994
                        -----------------------------------------
Total Dipole Moment    :     -0.97998      -0.38179       0.51195
                        -----------------------------------------
Magnitude (a.u.)       :      1.16971
Magnitude (Debye)      :      2.97316

Rotational constants in cm-1:     0.114003     0.068266     0.049101
Rotational constants in MHz :  3417.735676  2046.570339  1472.018176

                             ****ORCA TERMINATED NORMALLY****
TOTAL RUN TIME: 0 days 0 hours 0 minutes 35 seconds 219 msec
