                         Program Version 5.0.3 -  RELEASE  -
|  1> !ri-mp2 aug-cc-pvdz aug-cc-pvdz/c tightscf
|  2> %pal nprocs 16 end
|  3>
|  4> * xyz 0 1
|  5> F      1.398463    1.484940   -0.000003
|  6> F      1.398463   -1.484940   -0.000003
|  7> O     -1.779157    0.000000    0.000004
|  8> C      0.314030    0.712057    0.000000
|  9> C      0.314030   -0.712057    0.000000
| 10> C     -0.981873    1.104503    0.000002
| 11> C     -0.981873   -1.104503    0.000002
| 12> H     -1.462488    2.064029    0.000004
| 13> H     -1.462488   -2.064029    0.000003
| 14> *
| 15>
| 16>                          ****END OF INPUT****

CARTESIAN COORDINATES (ANGSTROEM)
---------------------------------
  F      1.398463    1.484940   -0.000003
  F      1.398463   -1.484940   -0.000003
  O     -1.779157    0.000000    0.000004
  C      0.314030    0.712057    0.000000
  C      0.314030   -0.712057    0.000000
  C     -0.981873    1.104503    0.000002
  C     -0.981873   -1.104503    0.000002
  H     -1.462488    2.064029    0.000004
  H     -1.462488   -2.064029    0.000003

 Total Charge           Charge          ....    0
 Multiplicity           Mult            ....    1
 Number of Electrons    NEL             ....   52
 Basis Dimension        Dim             ....  179

ORBITAL ENERGIES
----------------

  NO   OCC          E(Eh)            E(eV)
   0   2.0000     -26.348476      -716.9785
   1   2.0000     -26.348474      -716.9784
   2   2.0000     -20.659514      -562.1740
   3   2.0000     -11.350686      -308.8679
   4   2.0000     -11.349701      -308.8411
   5   2.0000     -11.319947      -308.0314
   6   2.0000     -11.319900      -308.0301
   7   2.0000      -1.662097       -45.2280
   8   2.0000      -1.653793       -45.0020
   9   2.0000      -1.490064       -40.5467
  10   2.0000      -1.120069       -30.4786
  11   2.0000      -1.041963       -28.3532
  12   2.0000      -0.859682       -23.3931
  13   2.0000      -0.858384       -23.3578
  14   2.0000      -0.799931       -21.7672
  15   2.0000      -0.737248       -20.0615
  16   2.0000      -0.733548       -19.9609
  17   2.0000      -0.727030       -19.7835
  18   2.0000      -0.707911       -19.2632
  19   2.0000      -0.669657       -18.2223
  20   2.0000      -0.652389       -17.7524
  21   2.0000      -0.638977       -17.3875
  22   2.0000      -0.636083       -17.3087
  23   2.0000      -0.544286       -14.8108
  24   2.0000      -0.413145       -11.2422
  25   2.0000      -0.346596        -9.4313
  26   0.0000       0.034728         0.9450
  27   0.0000       0.040422         1.0999
  28   0.0000       0.070153         1.9090
  29   0.0000       0.082068         2.2332
  30   0.0000       0.088973         2.4211

MULLIKEN ATOMIC CHARGES
-----------------------
   0 F :   -0.725934
   1 F :   -0.725934
   2 O :   -0.717287
   3 C :    0.675679
   4 C :    0.675679
   5 C :    0.658126
   6 C :    0.658126
   7 H :   -0.249228
   8 H :   -0.249228
Sum of atomic charges:    0.0000000

LOEWDIN ATOMIC CHARGES
----------------------
   0 F :    0.085144
   1 F :    0.085144
   2 O :    0.069699
   3 C :   -0.183916
   4 C :   -0.183916
   5 C :    0.066771
   6 C :    0.066771
   7 H :   -0.002849
   8 H :   -0.002849

  Mayer bond orders larger than 0.100000
B(  0-F ,  3-C ) :  -0.1082 B(  0-F ,  4-C ) :   0.2441 B(  0-F ,  5-C ) :   0.1446
B(  1-F ,  3-C ) :   0.2441 B(  1-F ,  4-C ) :  -0.1082 B(  1-F ,  6-C ) :   0.1446
B(  2-O ,  5-C ) :   0.7308 B(  2-O ,  6-C ) :   0.7308 B(  3-C ,  4-C ) :   1.3004
B(  3-C ,  5-C ) :   1.6703 B(  4-C ,  6-C ) :   1.6703 B(  5-C ,  6-C ) :   0.1294
B(  5-C ,  7-H ) :   0.9174 B(  6-C ,  8-H ) :   0.9174

MP2 TOTAL ENERGY:     -427.481456852 Eh
FINAL SINGLE POINT ENERGY      -427.481456851596

DIPOLE MOMENT
-------------
                                X             Y             Z
Electronic contribution:      4.65014       0.00000      -0.00001
Nuclear contribution   :     -5.36398       0.00000       0.00001
                        -----------------------------------------
Total Dipole Moment    :     -0.71384       0.00000       0.00000
                        -----------------------------------------
Magnitude (a.u.)       :      0.71384
Magnitude (Debye)      :      1.81443

Rotational constants in cm-1:     0.125938     0.109124     0.058465
Rotational constants in MHz :  3775.534807  3271.449952  1752.731641

                             ****ORCA TERMINATED NORMALLY****
TOTAL RUN TIME: 0 days 0 hours 0 minutes 36 seconds 580 msec
