                         Program Version 5.0.3 -  RELEASE  -
|  1> !ri-mp2 aug-cc-pvdz aug-cc-pvdz/c tightscf
|  2> %pal nprocs 16 end
|  3>
|  4> * xyz 0 1
|  5> C     -0.725688    1.839957    0.003904
|  6> C     -1.772672    0.931790   -0.002269
|  7> C      0.599144    1.416167    0.004591
|  8> C     -0.184148   -0.880797   -0.007062
|  9> C     -1.513782   -0.444159   -0.007235
| 10> C      0.841141    0.050127   -0.000913
| 11> N     -2.554624   -1.364322   -0.068662
| 12> Cl     2.499376   -0.526961    0.002399
| 13> H     -0.942366    2.899755    0.008952
| 14> H     -2.796213    1.283658   -0.007912
| 15> H      1.416937    2.119885    0.009926
| 16> H      0.045646   -1.937052   -0.016153
| 17> H     -3.451270   -1.039482    0.252768
| 18> H     -2.343722   -2.296693    0.246175
| 19> *
| 20>
| 21>                          ****END OF INPUT****

CARTESIAN COORDINATES (ANGSTROEM)
---------------------------------
  C     -0.725688    1.839957    0.003904
  C     -1.772672    0.931790   -0.002269
  C      0.599144    1.416167    0.004591
  C     -0.184148   -0.880797   -0.007062
  C     -1.513782   -0.444159   -0.007235
  C      0.841141    0.050127   -0.000913
  N     -2.554624   -1.364322   -0.068662
  Cl     2.499376   -0.526961    0.002399
  H     -0.942366    2.899755    0.008952
  H     -2.796213    1.283658   -0.007912
  H      1.416937    2.119885    0.009926
  H      0.045646   -1.937052   -0.016153
  H     -3.451270   -1.039482    0.252768
  H     -2.343722   -2.296693    0.246175

 Total Charge           Charge          ....    0
 Multiplicity           Mult            ....    1
 Number of Electrons    NEL             ....   66
 Basis Dimension        Dim             ....  242

ORBITAL ENERGIES
----------------

  NO   OCC          E(Eh)            E(eV)
   0   2.0000    -104.835586     -2852.7213
   1   2.0000     -15.584607      -424.0787
   2   2.0000     -11.309962      -307.7597
   3   2.0000     -11.300098      -307.4913
   4   2.0000     -11.255162      -306.2685
   5   2.0000     -11.243710      -305.9569
   6   2.0000     -11.239409      -305.8399
   7   2.0000     -11.239030      -305.8296
   8   2.0000     -10.561535      -287.3940
   9   2.0000      -8.029324      -218.4890
  10   2.0000      -8.026041      -218.3997
  11   2.0000      -8.025928      -218.3966
  12   2.0000      -1.242642       -33.8140
  13   2.0000      -1.177046       -32.0290
  14   2.0000      -1.106601       -30.1121
  15   2.0000      -1.016775       -27.6679
  16   2.0000      -0.992072       -26.9957
  17   2.0000      -0.845015       -22.9940
  18   2.0000      -0.822485       -22.3809
  19   2.0000      -0.712350       -19.3840
  20   2.0000      -0.702809       -19.1244
  21   2.0000      -0.669402       -18.2154
  22   2.0000      -0.619302       -16.8521
  23   2.0000      -0.609640       -16.5892
  24   2.0000      -0.585517       -15.9327
  25   2.0000      -0.558126       -15.1874
  26   2.0000      -0.530987       -14.4489
  27   2.0000      -0.506083       -13.7712
  28   2.0000      -0.500284       -13.6134
  29   2.0000      -0.452558       -12.3147
  30   2.0000      -0.440769       -11.9939
  31   2.0000      -0.342223        -9.3123
  32   2.0000      -0.306119        -8.3299
  33   0.0000       0.029115         0.7923
  34   0.0000       0.038497         1.0476
  35   0.0000       0.045800         1.2463
  36   0.0000       0.057635         1.5683
  37   0.0000       0.063081         1.7165

MULLIKEN ATOMIC CHARGES
-----------------------
   0 C :    0.780015
   1 C :    0.504175
   2 C :    0.392571
   3 C :    0.881223
   4 C :    0.536155
   5 C :   -0.303136
   6 N :   -0.415149
   7 Cl:   -0.400561
   8 H :   -0.442803
   9 H :   -0.560486
  10 H :   -0.411507
  11 H :   -0.476869
  12 H :   -0.041934
  13 H :   -0.041693
Sum of atomic charges:   -0.0000000

LOEWDIN ATOMIC CHARGES
----------------------
   0 C :    0.006976
   1 C :    0.046828
   2 C :   -0.031005
   3 C :    0.019045
   4 C :   -0.235771
   5 C :   -0.546561
   6 N :    0.244763
   7 Cl:    0.556859
   8 H :    0.005554
   9 H :    0.000478
  10 H :   -0.009081
  11 H :   -0.002591
  12 H :   -0.027861
  13 H :   -0.027632

  Mayer bond orders larger than 0.100000
B(  0-C ,  1-C ) :   1.6799 B(  0-C ,  2-C ) :   1.4882 B(  0-C ,  5-C ) :  -0.2662
B(  0-C ,  8-H ) :   0.2621 B(  0-C ,  9-H ) :   0.1360 B(  1-C ,  2-C ) :   0.3763
B(  1-C ,  3-C ) :   0.1433 B(  1-C ,  4-C ) :   1.5322 B(  1-C ,  5-C ) :   0.1729
B(  1-C ,  6-N ) :  -0.1064 B(  1-C ,  8-H ) :   0.3248 B(  2-C ,  3-C ) :   0.4782
B(  2-C ,  4-C ) :  -0.3281 B(  2-C ,  5-C ) :   1.5910 B(  2-C ,  7-Cl) :  -0.2191
B(  2-C ,  8-H ) :   0.2585 B(  2-C , 10-H ) :   0.2805 B(  3-C ,  4-C ) :   1.5909
B(  3-C ,  5-C ) :   1.3996 B(  3-C ,  7-Cl) :  -0.3585 B(  3-C ,  8-H ) :   0.1231
B(  3-C , 11-H ) :   0.1417 B(  4-C ,  5-C ) :  -0.2116 B(  4-C ,  6-N ) :   0.8845
B(  4-C ,  9-H ) :   0.4745 B(  4-C , 11-H ) :   0.2559 B(  5-C ,  7-Cl) :   1.0327
B(  5-C ,  8-H ) :  -0.1555 B(  5-C , 10-H ) :   0.3673 B(  5-C , 11-H ) :   0.3140
B(  6-N , 12-H ) :   1.1089 B(  6-N , 13-H ) :   1.1132

MP2 TOTAL ENERGY:     -745.829090499 Eh
FINAL SINGLE POINT ENERGY      -745.829090498653

DIPOLE MOMENT
-------------
                                X             Y             Z
Electronic contribution:     10.20058      -1.77902      -0.11616
Nuclear contribution   :    -11.33071       1.72555       0.47601
                        -----------------------------------------
Total Dipole Moment    :     -1.13013      -0.05347       0.35986
                        -----------------------------------------
Magnitude (a.u.)       :      1.18725
Magnitude (Debye)      :      3.01775

Rotational constants in cm-1:     0.114179     0.039631     0.029439
Rotational constants in MHz :  3423.004681  1188.117452   882.546841

                             ****ORCA TERMINATED NORMALLY****
TOTAL RUN TIME: 0 days 0 hours 0 minutes 46 seconds 644 msec
