                         Program Version 5.0.3 -  RELEASE  -
|  1> !ri-mp2 aug-cc-pvdz aug-cc-pvdz/c tightscf
|  2> %pal nprocs 16 end
|  3>
|  4> * xyz 0 1
|  5> C      0.038790   -2.151291    0.000000
|  6> C     -0.466392   -0.924162    0.000000
|  7> C      0.038790    1.174358    1.264341
|  8> C      0.038790    1.174358   -1.264341
|  9> C      0.328419    0.351813    0.000000
| 10> H     -0.595889   -3.027411    0.000000
| 11> H      1.108765   -2.324083    0.000000
| 12> H     -1.547581   -0.800215    0.000000
| 13> H      0.621162    2.097450    1.268423
| 14> H      0.283840    0.612320    2.165774
| 15> H     -1.017756    1.447586    1.316867
| 16> H     -1.017756    1.447586   -1.316867
| 17> H      0.621162    2.097450   -1.268423
| 18> H      0.283840    0.612320   -2.165774
| 19> H      1.389834    0.086538    0.000000
| 20> *
| 21>
| 22>                          ****END OF INPUT****

CARTESIAN COORDINATES (ANGSTROEM)
---------------------------------
  C      0.038790   -2.151291    0.000000
  C     -0.466392   -0.924162    0.000000
  C      0.038790    1.174358    1.264341
  C      0.038790    1.174358   -1.264341
  C      0.328419    0.351813    0.000000
  H     -0.595889   -3.027411    0.000000
  H      1.108765   -2.324083    0.000000
  H     -1.547581   -0.800215    0.000000
  H      0.621162    2.097450    1.268423
  H      0.283840    0.612320    2.165774
  H     -1.017756    1.447586    1.316867
  H     -1.017756    1.447586   -1.316867
  H      0.621162    2.097450   -1.268423
  H      0.283840    0.612320   -2.165774
  H      1.389834    0.086538    0.000000

 Total Charge           Charge          ....    0
 Multiplicity           Mult            ....    1
 Number of Electrons    NEL             ....   40
 Basis Dimension        Dim             ....  205

ORBITAL ENERGIES
----------------

  NO   OCC          E(Eh)            E(eV)
   0   2.0000     -11.236208      -305.7528
   1   2.0000     -11.234633      -305.7099
   2   2.0000     -11.223601      -305.4097
   3   2.0000     -11.219905      -305.3091
   4   2.0000     -11.219882      -305.3085
   5   2.0000      -1.099201       -29.9108
   6   2.0000      -1.004908       -27.3449
   7   2.0000      -0.930951       -25.3325
   8   2.0000      -0.827766       -22.5247
   9   2.0000      -0.750946       -20.4343
  10   2.0000      -0.634264       -17.2592
  11   2.0000      -0.620490       -16.8844
  12   2.0000      -0.582010       -15.8373
  13   2.0000      -0.562798       -15.3145
  14   2.0000      -0.535371       -14.5682
  15   2.0000      -0.532470       -14.4892
  16   2.0000      -0.482913       -13.1407
  17   2.0000      -0.471543       -12.8313
  18   2.0000      -0.463480       -12.6119
  19   2.0000      -0.359019        -9.7694
  20   0.0000       0.037753         1.0273
  21   0.0000       0.043944         1.1958
  22   0.0000       0.046637         1.2691
  23   0.0000       0.050541         1.3753
  24   0.0000       0.064487         1.7548

MULLIKEN ATOMIC CHARGES
-----------------------
   0 C :    0.348221
   1 C :    0.921217
   2 C :    0.679592
   3 C :    0.679592
   4 C :   -1.029387
   5 H :   -0.293743
   6 H :   -0.312158
   7 H :   -0.459928
   8 H :   -0.083837
   9 H :   -0.073346
  10 H :   -0.025528
  11 H :   -0.025528
  12 H :   -0.083837
  13 H :   -0.073346
  14 H :   -0.167983
Sum of atomic charges:   -0.0000000

LOEWDIN ATOMIC CHARGES
----------------------
   0 C :    0.164699
   1 C :   -0.053865
   2 C :    0.155481
   3 C :    0.155481
   4 C :   -0.295560
   5 H :   -0.045236
   6 H :   -0.038536
   7 H :    0.007240
   8 H :   -0.015639
   9 H :   -0.013459
  10 H :   -0.013071
  11 H :   -0.013071
  12 H :   -0.015639
  13 H :   -0.013459
  14 H :    0.034632

  Mayer bond orders larger than 0.100000
B(  0-C ,  1-C ) :   1.9617 B(  0-C ,  5-H ) :   0.7296 B(  0-C ,  6-H ) :   0.9326
B(  1-C ,  4-C ) :   1.0257 B(  1-C ,  5-H ) :   0.1707 B(  1-C ,  7-H ) :   0.6301
B(  2-C ,  3-C ) :  -0.1543 B(  2-C ,  4-C ) :   1.3602 B(  2-C ,  8-H ) :   0.8067
B(  2-C ,  9-H ) :   0.8753 B(  2-C , 10-H ) :   0.8819 B(  3-C ,  4-C ) :   1.3602
B(  3-C , 11-H ) :   0.8819 B(  3-C , 12-H ) :   0.8067 B(  3-C , 13-H ) :   0.8753
B(  4-C ,  7-H ) :  -0.2314 B(  4-C ,  8-H ) :   0.1532 B(  4-C , 12-H ) :   0.1532
B(  4-C , 14-H ) :   0.6690 B(  5-H ,  6-H ) :  -0.2089

MP2 TOTAL ENERGY:     -195.897354351 Eh
FINAL SINGLE POINT ENERGY      -195.897354350803

DIPOLE MOMENT
-------------
                                X             Y             Z
Electronic contribution:     -0.10269      -2.26155       0.00000
Nuclear contribution   :      0.13884       2.40953      -0.00000
                        -----------------------------------------
Total Dipole Moment    :      0.03615       0.14797       0.00000
                        -----------------------------------------
Magnitude (a.u.)       :      0.15232
Magnitude (Debye)      :      0.38718

Rotational constants in cm-1:     0.251245     0.118279     0.091309
Rotational constants in MHz :  7532.141939  3545.903633  2737.386713

                             ****ORCA TERMINATED NORMALLY****
TOTAL RUN TIME: 0 days 0 hours 0 minutes 39 seconds 831 msec
