                         Program Version 5.0.3 -  RELEASE  -
|  1> !ri-mp2 aug-cc-pvdz aug-cc-pvdz/c tightscf
|  2> %pal nprocs 16 end
|  3>
|  4> * xyz 0 1
|  5> C     -1.385093   -0.119037   -0.191443
|  6> C      1.198586    1.436061    0.377759
|  7> C      2.456843   -0.677449   -0.193579
|  8> C     -0.014446   -0.553958   -0.640655
|  9> C      1.127999   -0.090146    0.287288
| 10> O     -2.127693    0.617199   -0.789592
| 11> O     -1.722647   -0.661713    1.007831
| 12> H      0.267397    1.867338    0.747324
| 13> H      1.400121    1.875664   -0.601872
| 14> H      1.997897    1.744882    1.052719
| 15> H      2.699166   -0.326079   -1.199339
| 16> H      3.273423   -0.380691    0.466040
| 17> H      2.426108   -1.767952   -0.218522
| 18> H     -0.012100   -1.645227   -0.691635
| 19> H      0.133247   -0.165542   -1.647605
| 20> H      0.921724   -0.484958    1.284881
| 21> H     -2.607598   -0.334141    1.225892
| 22> *
| 23>
| 24>                          ****END OF INPUT****

CARTESIAN COORDINATES (ANGSTROEM)
---------------------------------
  C     -1.385093   -0.119037   -0.191443
  C      1.198586    1.436061    0.377759
  C      2.456843   -0.677449   -0.193579
  C     -0.014446   -0.553958   -0.640655
  C      1.127999   -0.090146    0.287288
  O     -2.127693    0.617199   -0.789592
  O     -1.722647   -0.661713    1.007831
  H      0.267397    1.867338    0.747324
  H      1.400121    1.875664   -0.601872
  H      1.997897    1.744882    1.052719
  H      2.699166   -0.326079   -1.199339
  H      3.273423   -0.380691    0.466040
  H      2.426108   -1.767952   -0.218522
  H     -0.012100   -1.645227   -0.691635
  H      0.133247   -0.165542   -1.647605
  H      0.921724   -0.484958    1.284881
  H     -2.607598   -0.334141    1.225892

 Total Charge           Charge          ....    0
 Multiplicity           Mult            ....    1
 Number of Electrons    NEL             ....   56
 Basis Dimension        Dim             ....  251

ORBITAL ENERGIES
----------------

  NO   OCC          E(Eh)            E(eV)
   0   2.0000     -20.620109      -561.1017
   1   2.0000     -20.559789      -559.4603
   2   2.0000     -11.393066      -310.0211
   3   2.0000     -11.249192      -306.1061
   4   2.0000     -11.248279      -306.0812
   5   2.0000     -11.228215      -305.5353
   6   2.0000     -11.224931      -305.4459
   7   2.0000      -1.467292       -39.9271
   8   2.0000      -1.364350       -37.1259
   9   2.0000      -1.107328       -30.1319
  10   2.0000      -0.991018       -26.9670
  11   2.0000      -0.940601       -25.5950
  12   2.0000      -0.831159       -22.6170
  13   2.0000      -0.787573       -21.4310
  14   2.0000      -0.704919       -19.1818
  15   2.0000      -0.680736       -18.5238
  16   2.0000      -0.651576       -17.7303
  17   2.0000      -0.630414       -17.1544
  18   2.0000      -0.597725       -16.2649
  19   2.0000      -0.585489       -15.9320
  20   2.0000      -0.555047       -15.1036
  21   2.0000      -0.547851       -14.9078
  22   2.0000      -0.537855       -14.6358
  23   2.0000      -0.495578       -13.4854
  24   2.0000      -0.490318       -13.3422
  25   2.0000      -0.476855       -12.9759
  26   2.0000      -0.469100       -12.7649
  27   2.0000      -0.442067       -12.0293
  28   0.0000       0.033597         0.9142
  29   0.0000       0.041666         1.1338
  30   0.0000       0.045569         1.2400
  31   0.0000       0.049754         1.3539
  32   0.0000       0.062165         1.6916

MULLIKEN ATOMIC CHARGES
-----------------------
   0 C :    1.152611
   1 C :    0.761177
   2 C :    0.900002
   3 C :    0.610942
   4 C :   -1.424333
   5 O :   -0.779237
   6 O :   -0.741621
   7 H :   -0.104340
   8 H :   -0.019588
   9 H :   -0.069920
  10 H :   -0.014863
  11 H :   -0.061178
  12 H :   -0.084224
  13 H :   -0.017789
  14 H :   -0.091900
  15 H :   -0.203110
  16 H :    0.187372
Sum of atomic charges:   -0.0000000

LOEWDIN ATOMIC CHARGES
----------------------
   0 C :   -0.341032
   1 C :    0.163335
   2 C :    0.159700
   3 C :    0.049877
   4 C :   -0.277771
   5 O :    0.040440
   6 O :    0.198094
   7 H :   -0.014313
   8 H :   -0.005568
   9 H :   -0.012155
  10 H :   -0.009119
  11 H :   -0.012574
  12 H :   -0.013338
  13 H :    0.028991
  14 H :    0.029927
  15 H :    0.035750
  16 H :   -0.020245

  Mayer bond orders larger than 0.100000
B(  0-C ,  3-C ) :   0.9742 B(  0-C ,  5-O ) :   1.2808 B(  0-C ,  6-O ) :   0.3932
B(  1-C ,  2-C ) :  -0.1880 B(  1-C ,  3-C ) :  -0.1304 B(  1-C ,  4-C ) :   1.3753
B(  1-C ,  7-H ) :   0.8585 B(  1-C ,  8-H ) :   0.8652 B(  1-C ,  9-H ) :   0.8135
B(  2-C ,  4-C ) :   1.3091 B(  2-C , 10-H ) :   0.8987 B(  2-C , 11-H ) :   0.8271
B(  2-C , 12-H ) :   0.8042 B(  3-C ,  4-C ) :   1.0803 B(  3-C ,  5-O ) :   0.1009
B(  3-C ,  6-O ) :   0.1715 B(  3-C ,  8-H ) :  -0.1385 B(  3-C , 13-H ) :   0.7428
B(  3-C , 14-H ) :   0.7605 B(  4-C ,  7-H ) :   0.1042 B(  4-C ,  8-H ) :   0.2369
B(  4-C ,  9-H ) :   0.1431 B(  4-C , 10-H ) :   0.1176 B(  4-C , 11-H ) :   0.1434
B(  4-C , 12-H ) :   0.1387 B(  4-C , 13-H ) :   0.1852 B(  4-C , 14-H ) :   0.1086
B(  4-C , 15-H ) :   0.6866 B(  5-O ,  6-O ) :   0.1096 B(  6-O , 16-H ) :   1.0186

MP2 TOTAL ENERGY:     -346.089510644 Eh
FINAL SINGLE POINT ENERGY      -346.089510644444

DIPOLE MOMENT
-------------
                                X             Y             Z
Electronic contribution:    -10.14567      -0.82071       0.01334
Nuclear contribution   :     10.74930       0.39398       0.43386
                        -----------------------------------------
Total Dipole Moment    :      0.60363      -0.42673       0.44719
                        -----------------------------------------
Magnitude (a.u.)       :      0.86397
Magnitude (Debye)      :      2.19605

Rotational constants in cm-1:     0.154879     0.051200     0.048262
Rotational constants in MHz :  4643.141480  1534.933697  1446.859416

                             ****ORCA TERMINATED NORMALLY****
TOTAL RUN TIME: 0 days 0 hours 0 minutes 48 seconds 878 msec
