                         Program Version 5.0.3 -  RELEASE  -
|  1> !ri-mp2 aug-cc-pvdz aug-cc-pvdz/c tightscf
|  2> %pal nprocs 16 end
|  3> %maxcore 3800
|  4>
|  5> * xyz 0 1
|  6> C      0.135051   -1.341137   -0.005889
|  7> C     -1.264169    0.607942    0.005249
|  8> C      1.139570    0.840940   -0.006939
|  9> C     -1.138604   -0.783210    0.001330
| 10> C      1.282088   -0.540466   -0.008323
| 11> C     -0.131706    1.410882    0.000566
| 12> C     -2.369752   -1.651925    0.000466
| 13> C      2.650233   -1.171347    0.006646
| 14> O     -0.202773    2.778770    0.000841
| 15> H      0.240904   -2.419111   -0.011504
| 16> H     -2.248573    1.063933    0.008732
| 17> H      2.003339    1.491882   -0.012720
| 18> H     -2.995986   -1.450770    0.871977
| 19> H     -2.981562   -1.469036   -0.885355
| 20> H     -2.107933   -2.708818    0.013301
| 21> H      3.426357   -0.446250   -0.234263
| 22> H      2.878024   -1.585952    0.991583
| 23> H      2.715992   -1.990403   -0.710787
| 24> H     -1.124645    3.054300    0.003665
| 25> *
| 26>
| 27>                          ****END OF INPUT****

CARTESIAN COORDINATES (ANGSTROEM)
---------------------------------
  C      0.135051   -1.341137   -0.005889
  C     -1.264169    0.607942    0.005249
  C      1.139570    0.840940   -0.006939
  C     -1.138604   -0.783210    0.001330
  C      1.282088   -0.540466   -0.008323
  C     -0.131706    1.410882    0.000566
  C     -2.369752   -1.651925    0.000466
  C      2.650233   -1.171347    0.006646
  O     -0.202773    2.778770    0.000841
  H      0.240904   -2.419111   -0.011504
  H     -2.248573    1.063933    0.008732
  H      2.003339    1.491882   -0.012720
  H     -2.995986   -1.450770    0.871977
  H     -2.981562   -1.469036   -0.885355
  H     -2.107933   -2.708818    0.013301
  H      3.426357   -0.446250   -0.234263
  H      2.878024   -1.585952    0.991583
  H      2.715992   -1.990403   -0.710787
  H     -1.124645    3.054300    0.003665

 Total Charge           Charge          ....    0
 Multiplicity           Mult            ....    1
 Number of Electrons    NEL             ....   66
 Basis Dimension        Dim             ....  297

ORBITAL ENERGIES
----------------

  NO   OCC          E(Eh)            E(eV)
   0   2.0000     -20.597305      -560.4811
   1   2.0000     -11.305122      -307.6280
   2   2.0000     -11.250720      -306.1477
   3   2.0000     -11.248882      -306.0976
   4   2.0000     -11.231640      -305.6285
   5   2.0000     -11.228935      -305.5549
   6   2.0000     -11.226404      -305.4860
   7   2.0000     -11.221537      -305.3535
   8   2.0000     -11.219395      -305.2953
   9   2.0000      -1.405448       -38.2442
  10   2.0000      -1.155941       -31.4548
  11   2.0000      -1.061383       -28.8817
  12   2.0000      -1.021649       -27.8005
  13   2.0000      -0.941012       -25.6062
  14   2.0000      -0.936409       -25.4810
  15   2.0000      -0.824285       -22.4299
  16   2.0000      -0.793559       -21.5938
  17   2.0000      -0.712843       -19.3974
  18   2.0000      -0.679491       -18.4899
  19   2.0000      -0.654184       -17.8013
  20   2.0000      -0.593583       -16.1522
  21   2.0000      -0.589221       -16.0335
  22   2.0000      -0.573450       -15.6044
  23   2.0000      -0.570572       -15.5261
  24   2.0000      -0.568454       -15.4684
  25   2.0000      -0.564619       -15.3641
  26   2.0000      -0.551359       -15.0032
  27   2.0000      -0.520312       -14.1584
  28   2.0000      -0.500355       -13.6153
  29   2.0000      -0.480775       -13.0826
  30   2.0000      -0.458722       -12.4825
  31   2.0000      -0.324159        -8.8208
  32   2.0000      -0.308852        -8.4043
  33   0.0000       0.032867         0.8944
  34   0.0000       0.039245         1.0679
  35   0.0000       0.042054         1.1443
  36   0.0000       0.054567         1.4849
  37   0.0000       0.055494         1.5101

MULLIKEN ATOMIC CHARGES
-----------------------
   0 C :    0.686202
   1 C :    0.498401
   2 C :    0.884099
   3 C :   -0.401635
   4 C :   -0.010643
   5 C :    0.210922
   6 C :    0.407893
   7 C :    0.341726
   8 O :   -0.915666
   9 H :   -0.648284
  10 H :   -0.674153
  11 H :   -0.572581
  12 H :    0.113216
  13 H :    0.120559
  14 H :   -0.201941
  15 H :   -0.162633
  16 H :    0.122770
  17 H :    0.033349
  18 H :    0.168398
Sum of atomic charges:    0.0000000

LOEWDIN ATOMIC CHARGES
----------------------
   0 C :    0.058931
   1 C :    0.066845
   2 C :    0.077056
   3 C :   -0.217708
   4 C :   -0.212383
   5 C :   -0.223052
   6 C :    0.177593
   7 C :    0.178435
   8 O :    0.183208
   9 H :    0.003394
  10 H :    0.004616
  11 H :    0.008559
  12 H :   -0.008190
  13 H :   -0.007760
  14 H :   -0.016266
  15 H :   -0.015545
  16 H :   -0.005369
  17 H :   -0.010477
  18 H :   -0.041887

  Mayer bond orders larger than 0.100000
B(  0-C ,  1-C ) :  -0.6215 B(  0-C ,  2-C ) :  -0.3343 B(  0-C ,  3-C ) :   2.1168
B(  0-C ,  4-C ) :   1.1320 B(  0-C ,  5-C ) :   0.1458 B(  0-C ,  6-C ) :  -0.4489
B(  0-C ,  7-C ) :  -0.6730 B(  0-C ,  9-H ) :  -0.2169 B(  0-C , 14-H ) :  -0.2018
B(  1-C ,  2-C ) :   0.3503 B(  1-C ,  3-C ) :   1.4204 B(  1-C ,  4-C ) :   0.2120
B(  1-C ,  5-C ) :   1.5895 B(  1-C ,  6-C ) :  -0.6780 B(  1-C ,  8-O ) :   0.2264
B(  1-C , 10-H ) :  -0.2783 B(  2-C ,  4-C ) :   1.9344 B(  2-C ,  5-C ) :   1.2120
B(  2-C ,  7-C ) :  -0.4651 B(  2-C ,  8-O ) :  -0.1150 B(  2-C , 11-H ) :  -0.3012
B(  2-C , 15-H ) :  -0.1411 B(  3-C ,  6-C ) :   1.5393 B(  3-C ,  9-H ) :   0.4826
B(  3-C , 10-H ) :   0.4390 B(  3-C , 12-H ) :   0.1518 B(  3-C , 13-H ) :   0.1499
B(  3-C , 14-H ) :   0.5429 B(  4-C ,  5-C ) :  -0.2907 B(  4-C ,  6-C ) :   0.2491
B(  4-C ,  7-C ) :   1.5080 B(  4-C ,  9-H ) :   0.1644 B(  4-C , 11-H ) :   0.2257
B(  4-C , 15-H ) :   0.4299 B(  4-C , 16-H ) :   0.2248 B(  4-C , 17-H ) :   0.2647
B(  5-C ,  6-C ) :   0.1939 B(  5-C ,  7-C ) :   0.4657 B(  5-C , 10-H ) :   0.3444
B(  5-C , 11-H ) :   0.4846 B(  5-C , 18-H ) :  -0.1018 B(  6-C ,  7-C ) :   0.1608
B(  6-C , 10-H ) :   0.1666 B(  6-C , 12-H ) :   0.8715 B(  6-C , 13-H ) :   0.8756
B(  6-C , 14-H ) :   0.5035 B(  7-C ,  9-H ) :   0.1105 B(  7-C , 11-H ) :   0.1002
B(  7-C , 15-H ) :   0.6136 B(  7-C , 16-H ) :   0.9054 B(  7-C , 17-H ) :   0.8208
B(  8-O , 18-H ) :   1.0528

MP2 TOTAL ENERGY:     -384.993096301 Eh
FINAL SINGLE POINT ENERGY      -384.993096301358

DIPOLE MOMENT
-------------
                                X             Y             Z
Electronic contribution:     -0.29880       6.20028      -0.02530
Nuclear contribution   :     -0.20016      -6.51022       0.03515
                        -----------------------------------------
Total Dipole Moment    :     -0.49896      -0.30993       0.00985
                        -----------------------------------------
Magnitude (a.u.)       :      0.58747
Magnitude (Debye)      :      1.49322

Rotational constants in cm-1:     0.059788     0.058789     0.029970
Rotational constants in MHz :  1792.387066  1762.437079   898.487115

                             ****ORCA TERMINATED NORMALLY****
TOTAL RUN TIME: 0 days 0 hours 1 minutes 25 seconds 189 msec
