                         Program Version 5.0.3 -  RELEASE  -
|  1> !ri-mp2 aug-cc-pvdz aug-cc-pvdz/c tightscf
|  2> %pal nprocs 16 end
|  3> %maxcore 3800
|  4>
|  5> * xyz 0 1
|  6> O      1.270396   -1.072639   -0.506582
|  7> O      1.517293    1.629822    0.199626
|  8> O      2.683542   -0.799493   -0.331343
|  9> C      0.563240   -0.576995    0.629280
| 10> C      0.307919    0.934523    0.521011
| 11> C     -1.624769   -0.258153   -0.451572
| 12> C     -0.849525   -1.149198    0.553638
| 13> C     -0.801644    1.058787   -0.534497
| 14> C     -3.086772   -0.053090   -0.062299
| 15> H      1.309055    2.536080   -0.044132
| 16> H      2.700175    0.168020   -0.431915
| 17> H      1.109271   -0.857959    1.530822
| 18> H     -0.053565    1.281853    1.495981
| 19> H     -1.598532   -0.739344   -1.429450
| 20> H     -1.302471   -1.082953    1.545764
| 21> H     -0.834433   -2.200567    0.271677
| 22> H     -0.336755    1.157769   -1.515782
| 23> H     -1.419865    1.942579   -0.368709
| 24> H     -3.610629   -1.007454    0.018344
| 25> H     -3.169359    0.453398    0.902715
| 26> H     -3.613427    0.551813   -0.802280
| 27> *
| 28>
| 29>                          ****END OF INPUT****

CARTESIAN COORDINATES (ANGSTROEM)
---------------------------------
  O      1.270396   -1.072639   -0.506582
  O      1.517293    1.629822    0.199626
  O      2.683542   -0.799493   -0.331343
  C      0.563240   -0.576995    0.629280
  C      0.307919    0.934523    0.521011
  C     -1.624769   -0.258153   -0.451572
  C     -0.849525   -1.149198    0.553638
  C     -0.801644    1.058787   -0.534497
  C     -3.086772   -0.053090   -0.062299
  H      1.309055    2.536080   -0.044132
  H      2.700175    0.168020   -0.431915
  H      1.109271   -0.857959    1.530822
  H     -0.053565    1.281853    1.495981
  H     -1.598532   -0.739344   -1.429450
  H     -1.302471   -1.082953    1.545764
  H     -0.834433   -2.200567    0.271677
  H     -0.336755    1.157769   -1.515782
  H     -1.419865    1.942579   -0.368709
  H     -3.610629   -1.007454    0.018344
  H     -3.169359    0.453398    0.902715
  H     -3.613427    0.551813   -0.802280

 Total Charge           Charge          ....    0
 Multiplicity           Mult            ....    1
 Number of Electrons    NEL             ....   72
 Basis Dimension        Dim             ....  315

ORBITAL ENERGIES
----------------

  NO   OCC          E(Eh)            E(eV)
   0   2.0000     -20.618339      -561.0535
   1   2.0000     -20.610503      -560.8403
   2   2.0000     -20.589294      -560.2632
   3   2.0000     -11.296972      -307.4062
   4   2.0000     -11.288302      -307.1703
   5   2.0000     -11.240670      -305.8742
   6   2.0000     -11.233090      -305.6679
   7   2.0000     -11.233049      -305.6668
   8   2.0000     -11.227535      -305.5168
   9   2.0000      -1.461805       -39.7777
  10   2.0000      -1.382145       -37.6101
  11   2.0000      -1.222960       -33.2784
  12   2.0000      -1.117939       -30.4207
  13   2.0000      -1.006449       -27.3869
  14   2.0000      -0.971671       -26.4405
  15   2.0000      -0.903711       -24.5912
  16   2.0000      -0.793049       -21.5800
  17   2.0000      -0.781735       -21.2721
  18   2.0000      -0.726383       -19.7659
  19   2.0000      -0.698949       -19.0194
  20   2.0000      -0.660219       -17.9655
  21   2.0000      -0.653930       -17.7943
  22   2.0000      -0.624831       -17.0025
  23   2.0000      -0.619905       -16.8685
  24   2.0000      -0.575848       -15.6696
  25   2.0000      -0.567874       -15.4526
  26   2.0000      -0.554213       -15.0809
  27   2.0000      -0.541875       -14.7452
  28   2.0000      -0.534845       -14.5539
  29   2.0000      -0.520071       -14.1519
  30   2.0000      -0.482197       -13.1212
  31   2.0000      -0.467686       -12.7264
  32   2.0000      -0.463633       -12.6161
  33   2.0000      -0.460708       -12.5365
  34   2.0000      -0.443123       -12.0580
  35   2.0000      -0.427757       -11.6399
  36   0.0000       0.029919         0.8141
  37   0.0000       0.038280         1.0416
  38   0.0000       0.040910         1.1132
  39   0.0000       0.048899         1.3306
  40   0.0000       0.058387         1.5888

MULLIKEN ATOMIC CHARGES
-----------------------
   0 O :   -0.703853
   1 O :   -0.905251
   2 O :   -0.363323
   3 C :    0.793248
   4 C :    0.749398
   5 C :   -0.635314
   6 C :    0.610644
   7 C :    0.573725
   8 C :    0.639356
   9 H :    0.149842
  10 H :    0.296790
  11 H :   -0.163732
  12 H :   -0.180569
  13 H :   -0.168024
  14 H :   -0.117131
  15 H :   -0.137747
  16 H :   -0.116616
  17 H :   -0.198713
  18 H :   -0.061087
  19 H :    0.001493
  20 H :   -0.063134
Sum of atomic charges:    0.0000000

LOEWDIN ATOMIC CHARGES
----------------------
   0 O :    0.025996
   1 O :    0.155829
   2 O :    0.124389
   3 C :   -0.186122
   4 C :   -0.171028
   5 C :   -0.196457
   6 C :    0.046813
   7 C :    0.056545
   8 C :    0.153493
   9 H :   -0.044607
  10 H :   -0.127949
  11 H :    0.039778
  12 H :    0.042187
  13 H :    0.036668
  14 H :    0.022207
  15 H :    0.024208
  16 H :    0.022409
  17 H :    0.012523
  18 H :   -0.011769
  19 H :   -0.011380
  20 H :   -0.013733

  Mayer bond orders larger than 0.100000
B(  0-O ,  2-O ) :   0.9036 B(  0-O ,  3-C ) :   0.1279 B(  0-O ,  4-C ) :   0.1351
B(  1-O ,  3-C ) :   0.1416 B(  1-O ,  7-C ) :   0.1457 B(  1-O ,  9-H ) :   1.1242
B(  2-O , 10-H ) :   0.8689 B(  3-C ,  4-C ) :   1.1894 B(  3-C ,  6-C ) :   1.2078
B(  3-C , 11-H ) :   0.5950 B(  4-C ,  7-C ) :   1.2865 B(  4-C , 11-H ) :   0.1717
B(  4-C , 12-H ) :   0.5681 B(  4-C , 16-H ) :   0.1215 B(  4-C , 17-H ) :   0.1097
B(  5-C ,  6-C ) :   1.1188 B(  5-C ,  7-C ) :   1.0148 B(  5-C ,  8-C ) :   1.2052
B(  5-C , 13-H ) :   0.5858 B(  5-C , 14-H ) :   0.1462 B(  5-C , 19-H ) :   0.1299
B(  6-C ,  8-C ) :  -0.1203 B(  6-C , 14-H ) :   0.7322 B(  6-C , 15-H ) :   0.7020
B(  7-C ,  8-C ) :  -0.1235 B(  7-C , 12-H ) :   0.1410 B(  7-C , 13-H ) :   0.1527
B(  7-C , 16-H ) :   0.6613 B(  7-C , 17-H ) :   0.7427 B(  7-C , 19-H ) :  -0.1041
B(  8-C , 18-H ) :   0.8450 B(  8-C , 19-H ) :   0.9190 B(  8-C , 20-H ) :   0.8613
B( 14-H , 15-H ) :  -0.1506 B( 16-H , 17-H ) :  -0.1744

MP2 TOTAL ENERGY:     -460.220587173 Eh
FINAL SINGLE POINT ENERGY      -460.220587173131

DIPOLE MOMENT
-------------
                                X             Y             Z
Electronic contribution:      9.81141      -1.11110      -0.80594
Nuclear contribution   :    -10.98301       2.25038       1.18992
                        -----------------------------------------
Total Dipole Moment    :     -1.17161       1.13928       0.38398
                        -----------------------------------------
Magnitude (a.u.)       :      1.67871
Magnitude (Debye)      :      4.26694

Rotational constants in cm-1:     0.096173     0.038689     0.031425
Rotational constants in MHz :  2883.192244  1159.866105   942.085946

                             ****ORCA TERMINATED NORMALLY****
TOTAL RUN TIME: 0 days 0 hours 1 minutes 36 seconds 5 msec
