                         Program Version 5.0.3 -  RELEASE  -
|  1> !ri-mp2 aug-cc-pvdz aug-cc-pvdz/c tightscf
|  2> %pal nprocs 16 end
|  3> %maxcore 3800
|  4>
|  5> * xyz 0 1
|  6> C      0.771928    0.031892    0.002176
|  7> N      1.373089   -1.135533   -0.268058
|  8> C      1.517491    1.185214    0.283493
|  9> C      2.888656    1.088544    0.253045
| 10> C      3.435576   -0.156370   -0.042961
| 11> N      2.692576   -1.231573   -0.286051
| 12> C     -0.709720    0.022857   -0.000158
| 13> C     -1.402884   -1.169419    0.234804
| 14> C     -2.789799   -1.189168    0.240834
| 15> C     -3.510661   -0.022683    0.006144
| 16> C     -2.832600    1.165699   -0.237604
| 17> C     -1.444071    1.188439   -0.239574
| 18> H      4.505517   -0.314225   -0.081356
| 19> H      3.523963    1.938063    0.462583
| 20> H      1.028770    2.114805    0.536243
| 21> H     -3.383886    2.075335   -0.434047
| 22> H     -4.592120   -0.040627    0.009324
| 23> H     -3.310530   -2.118188    0.430151
| 24> H     -0.839342   -2.073585    0.409647
| 25> H     -0.935526    2.118137   -0.454969
| 26> *
| 27>
| 28>                          ****END OF INPUT****

CARTESIAN COORDINATES (ANGSTROEM)
---------------------------------
  C      0.771928    0.031892    0.002176
  N      1.373089   -1.135533   -0.268058
  C      1.517491    1.185214    0.283493
  C      2.888656    1.088544    0.253045
  C      3.435576   -0.156370   -0.042961
  N      2.692576   -1.231573   -0.286051
  C     -0.709720    0.022857   -0.000158
  C     -1.402884   -1.169419    0.234804
  C     -2.789799   -1.189168    0.240834
  C     -3.510661   -0.022683    0.006144
  C     -2.832600    1.165699   -0.237604
  C     -1.444071    1.188439   -0.239574
  H      4.505517   -0.314225   -0.081356
  H      3.523963    1.938063    0.462583
  H      1.028770    2.114805    0.536243
  H     -3.383886    2.075335   -0.434047
  H     -4.592120   -0.040627    0.009324
  H     -3.310530   -2.118188    0.430151
  H     -0.839342   -2.073585    0.409647
  H     -0.935526    2.118137   -0.454969

 Total Charge           Charge          ....    0
 Multiplicity           Mult            ....    1
 Number of Electrons    NEL             ....   82
 Basis Dimension        Dim             ....  348

ORBITAL ENERGIES
----------------

  NO   OCC          E(Eh)            E(eV)
   0   2.0000     -15.619041      -425.0157
   1   2.0000     -15.614111      -424.8816
   2   2.0000     -11.299019      -307.4619
   3   2.0000     -11.286191      -307.1129
   4   2.0000     -11.275362      -306.8182
   5   2.0000     -11.272973      -306.7532
   6   2.0000     -11.256879      -306.3153
   7   2.0000     -11.250606      -306.1445
   8   2.0000     -11.247473      -306.0593
   9   2.0000     -11.246099      -306.0219
  10   2.0000     -11.244071      -305.9667
  11   2.0000     -11.242557      -305.9255
  12   2.0000      -1.352527       -36.8041
  13   2.0000      -1.175011       -31.9737
  14   2.0000      -1.123924       -30.5835
  15   2.0000      -1.116003       -30.3680
  16   2.0000      -1.026889       -27.9431
  17   2.0000      -1.023831       -27.8599
  18   2.0000      -0.907345       -24.6901
  19   2.0000      -0.898839       -24.4586
  20   2.0000      -0.831437       -22.6246
  21   2.0000      -0.820087       -22.3157
  22   2.0000      -0.736422       -20.0391
  23   2.0000      -0.706587       -19.2272
  24   2.0000      -0.698296       -19.0016
  25   2.0000      -0.668495       -18.1907
  26   2.0000      -0.629735       -17.1360
  27   2.0000      -0.618508       -16.8305
  28   2.0000      -0.601357       -16.3638
  29   2.0000      -0.594961       -16.1897
  30   2.0000      -0.587212       -15.9788
  31   2.0000      -0.578388       -15.7387
  32   2.0000      -0.517436       -14.0801
  33   2.0000      -0.512619       -13.9491
  34   2.0000      -0.500364       -13.6156
  35   2.0000      -0.480125       -13.0649
  36   2.0000      -0.407763       -11.0958
  37   2.0000      -0.402770       -10.9599
  38   2.0000      -0.399475       -10.8703
  39   2.0000      -0.343388        -9.3441
  40   2.0000      -0.319721        -8.7001
  41   0.0000       0.028079         0.7641
  42   0.0000       0.034243         0.9318
  43   0.0000       0.041426         1.1273
  44   0.0000       0.048216         1.3120
  45   0.0000       0.053105         1.4451

MULLIKEN ATOMIC CHARGES
-----------------------
   0 C :    0.026721
   1 N :   -0.815798
   2 C :    0.932773
   3 C :    0.501033
   4 C :    0.519760
   5 N :   -0.496978
   6 C :    1.874854
   7 C :    0.178069
   8 C :    0.354357
   9 C :    0.401303
  10 C :    0.265883
  11 C :    0.062723
  12 H :   -0.293056
  13 H :   -0.400724
  14 H :   -0.536170
  15 H :   -0.465091
  16 H :   -0.440062
  17 H :   -0.440951
  18 H :   -0.620153
  19 H :   -0.608493
Sum of atomic charges:    0.0000000

LOEWDIN ATOMIC CHARGES
----------------------
   0 C :   -0.174866
   1 N :    0.040482
   2 C :    0.075644
   3 C :    0.037766
   4 C :   -0.025974
   5 N :    0.007096
   6 C :   -0.141442
   7 C :    0.065102
   8 C :    0.019122
   9 C :    0.013627
  10 C :    0.012451
  11 C :    0.049038
  12 H :    0.000453
  13 H :    0.009436
  14 H :    0.007493
  15 H :    0.000661
  16 H :    0.000781
  17 H :    0.002094
  18 H :    0.003033
  19 H :   -0.001994

  Mayer bond orders larger than 0.100000
B(  0-C ,  1-N ) :   1.4877 B(  0-C ,  2-C ) :   1.4582 B(  0-C ,  5-N ) :  -0.2279
B(  0-C ,  6-C ) :   1.5853 B(  0-C ,  7-C ) :  -0.7135 B(  0-C ,  8-C ) :   0.2968
B(  0-C , 10-C ) :   0.2752 B(  0-C , 11-C ) :  -0.6192 B(  0-C , 14-H ) :   0.6728
B(  0-C , 19-H ) :  -0.1029 B(  1-N ,  2-C ) :  -0.1219 B(  1-N ,  3-C ) :   0.1237
B(  1-N ,  5-N ) :   0.9687 B(  1-N ,  6-C ) :  -0.2298 B(  2-C ,  3-C ) :   1.5678
B(  2-C ,  4-C ) :   0.2440 B(  2-C ,  6-C ) :  -0.1193 B(  2-C ,  7-C ) :   0.1515
B(  2-C , 12-H ) :   0.1083 B(  2-C , 13-H ) :   0.3370 B(  2-C , 14-H ) :  -0.1026
B(  3-C ,  4-C ) :   1.2027 B(  3-C , 13-H ) :   0.3225 B(  3-C , 14-H ) :   0.2012
B(  4-C ,  5-N ) :   1.3128 B(  4-C , 12-H ) :   0.8099 B(  4-C , 13-H ) :   0.1810
B(  5-N ,  6-C ) :   0.1365 B(  6-C ,  7-C ) :   1.2235 B(  6-C ,  8-C ) :  -0.4145
B(  6-C , 10-C ) :  -0.6379 B(  6-C , 11-C ) :   1.6943 B(  6-C , 14-H ) :  -0.2102
B(  6-C , 18-H ) :   0.5050 B(  6-C , 19-H ) :   0.4738 B(  7-C ,  8-C ) :   2.0308
B(  7-C , 10-C ) :   0.1524 B(  7-C , 11-C ) :  -0.9329 B(  7-C , 17-H ) :   0.4840
B(  8-C ,  9-C ) :   1.7833 B(  8-C , 15-H ) :  -0.1273 B(  8-C , 16-H ) :   0.2095
B(  8-C , 17-H ) :   0.1667 B(  8-C , 18-H ) :   0.1925 B(  9-C , 10-C ) :   1.8200
B(  9-C , 15-H ) :   0.1679 B(  9-C , 16-H ) :   0.3364 B(  9-C , 17-H ) :   0.1068
B( 10-C , 11-C ) :   1.9520 B( 10-C , 16-H ) :   0.1757 B( 10-C , 17-H ) :  -0.1151
B( 10-C , 19-H ) :   0.2602 B( 11-C , 15-H ) :   0.5465

MP2 TOTAL ENERGY:     -493.933664112 Eh
FINAL SINGLE POINT ENERGY      -493.933664111702

DIPOLE MOMENT
-------------
                                X             Y             Z
Electronic contribution:      3.83155      -2.14810      -0.48872
Nuclear contribution   :     -3.92360       3.63423       0.86209
                        -----------------------------------------
Total Dipole Moment    :     -0.09205       1.48613       0.37337
                        -----------------------------------------
Magnitude (a.u.)       :      1.53508
Magnitude (Debye)      :      3.90187

Rotational constants in cm-1:     0.098425     0.019054     0.016205
Rotational constants in MHz :  2950.720763   571.224008   485.826739

                             ****ORCA TERMINATED NORMALLY****
TOTAL RUN TIME: 0 days 0 hours 2 minutes 10 seconds 142 msec
