                         Program Version 5.0.3 -  RELEASE  -
|  1> !ri-mp2 aug-cc-pvdz aug-cc-pvdz/c tightscf
|  2> %pal nprocs 16 end
|  3>
|  4> * xyz 0 1
|  5> C      2.334677    0.206360        0.000000
|  6> C     -0.822717   -1.740768        0.000000
|  7> C      0.532576   -1.450511        0.000000
|  8> C     -1.767452   -0.721730        0.000000
|  9> C      0.000000    0.919953        0.000000
| 10> C      0.939278   -0.111681        0.000000
| 11> C     -1.355148    0.609356        0.000000
| 12> N      3.459374    0.456490        0.000000
| 13> O     -2.231417    1.653229        0.000000
| 14> H     -1.151422   -2.770634        0.000000
| 15> H      1.270287   -2.238560        0.000000
| 16> H     -2.824291   -0.959587        0.000000
| 17> H      0.311031    1.954012        0.000000
| 18> H     -3.137157    1.327635        0.000000
| 19> *
| 20>
| 21>                          ****END OF INPUT****

CARTESIAN COORDINATES (ANGSTROEM)
---------------------------------
  C      2.334677    0.206360    0.000000
  C     -0.822717   -1.740768    0.000000
  C      0.532576   -1.450511    0.000000
  C     -1.767452   -0.721730    0.000000
  C      0.000000    0.919953    0.000000
  C      0.939278   -0.111681    0.000000
  C     -1.355148    0.609356    0.000000
  N      3.459374    0.456490    0.000000
  O     -2.231417    1.653229    0.000000
  H     -1.151422   -2.770634    0.000000
  H      1.270287   -2.238560    0.000000
  H     -2.824291   -0.959587    0.000000
  H      0.311031    1.954012    0.000000
  H     -3.137157    1.327635    0.000000

 Total Charge           Charge          ....    0
 Multiplicity           Mult            ....    1
 Number of Electrons    NEL             ....   62
 Basis Dimension        Dim             ....  252

ORBITAL ENERGIES
----------------

  NO   OCC          E(Eh)            E(eV)
   0   2.0000     -20.623210      -561.1861
   1   2.0000     -15.586055      -424.1181
   2   2.0000     -11.336965      -308.4945
   3   2.0000     -11.301676      -307.5342
   4   2.0000     -11.287269      -307.1422
   5   2.0000     -11.274576      -306.7968
   6   2.0000     -11.271090      -306.7020
   7   2.0000     -11.270496      -306.6858
   8   2.0000     -11.268861      -306.6413
   9   2.0000      -1.434450       -39.0334
  10   2.0000      -1.233277       -33.5592
  11   2.0000      -1.185911       -32.2703
  12   2.0000      -1.069514       -29.1030
  13   2.0000      -1.044771       -28.4297
  14   2.0000      -0.906854       -24.6767
  15   2.0000      -0.861406       -23.4400
  16   2.0000      -0.797619       -21.7043
  17   2.0000      -0.717687       -19.5293
  18   2.0000      -0.698285       -19.0013
  19   2.0000      -0.674648       -18.3581
  20   2.0000      -0.632582       -17.2134
  21   2.0000      -0.616716       -16.7817
  22   2.0000      -0.601146       -16.3580
  23   2.0000      -0.570443       -15.5225
  24   2.0000      -0.552705       -15.0399
  25   2.0000      -0.541899       -14.7458
  26   2.0000      -0.531622       -14.4662
  27   2.0000      -0.476324       -12.9614
  28   2.0000      -0.471982       -12.8433
  29   2.0000      -0.366721        -9.9790
  30   2.0000      -0.343387        -9.3440
  31   0.0000       0.021630         0.5886
  32   0.0000       0.034786         0.9466
  33   0.0000       0.045319         1.2332
  34   0.0000       0.055703         1.5157
  35   0.0000       0.061266         1.6671

MULLIKEN ATOMIC CHARGES
-----------------------
   0 C :   -1.116627
   1 C :    0.409731
   2 C :    0.170622
   3 C :    0.351421
   4 C :    0.228603
   5 C :    2.256937
   6 C :    0.742215
   7 N :   -0.269421
   8 O :   -0.902491
   9 H :   -0.429141
  10 H :   -0.551153
  11 H :   -0.559306
  12 H :   -0.511937
  13 H :    0.180546
Sum of atomic charges:    0.0000000

LOEWDIN ATOMIC CHARGES
----------------------
   0 C :   -0.117237
   1 C :    0.024304
   2 C :    0.054681
   3 C :    0.059987
   4 C :    0.107945
   5 C :   -0.210636
   6 C :   -0.216110
   7 N :    0.090705
   8 O :    0.191564
   9 H :    0.008121
  10 H :    0.011845
  11 H :    0.006397
  12 H :    0.023304
  13 H :   -0.034870

  Mayer bond orders larger than 0.100000
B(  0-C ,  2-C ) :  -0.2489 B(  0-C ,  3-C ) :   0.1249 B(  0-C ,  4-C ) :  -0.2849
B(  0-C ,  5-C ) :  -0.4114 B(  0-C ,  7-N ) :   2.4827 B(  1-C ,  2-C ) :   1.9099
B(  1-C ,  3-C ) :   1.8957 B(  1-C ,  5-C ) :  -0.2140 B(  1-C ,  6-C ) :  -0.2820
B(  1-C ,  9-H ) :   0.2847 B(  1-C , 10-H ) :   0.1758 B(  1-C , 11-H ) :   0.1619
B(  2-C ,  3-C ) :   0.3054 B(  2-C ,  4-C ) :  -0.3885 B(  2-C ,  5-C ) :   1.3442
B(  2-C ,  9-H ) :   0.2392 B(  2-C , 10-H ) :   0.2567 B(  3-C ,  5-C ) :  -0.1156
B(  3-C ,  6-C ) :   1.5612 B(  3-C ,  8-O ) :   0.1934 B(  3-C ,  9-H ) :   0.2485
B(  4-C ,  5-C ) :   1.5865 B(  4-C ,  6-C ) :   1.8724 B(  4-C , 12-H ) :   0.2182
B(  5-C ,  6-C ) :  -0.1512 B(  5-C ,  7-N ) :  -0.1864 B(  5-C , 10-H ) :   0.2124
B(  6-C ,  8-O ) :  -0.1060 B(  6-C , 11-H ) :   0.4452 B(  6-C , 12-H ) :   0.3519
B(  8-O , 13-H ) :   1.0431

MP2 TOTAL ENERGY:     -398.629138305 Eh
FINAL SINGLE POINT ENERGY      -398.629138305090

DIPOLE MOMENT
-------------
                                X             Y             Z
Electronic contribution:      3.17709       1.77367       0.00000
Nuclear contribution   :     -5.42153      -2.59853       0.00000
                        -----------------------------------------
Total Dipole Moment    :     -2.24444      -0.82486       0.00000
                        -----------------------------------------
Magnitude (a.u.)       :      2.39121
Magnitude (Debye)      :      6.07797

Rotational constants in cm-1:     0.114139     0.040457     0.029870
Rotational constants in MHz :  3421.799015  1212.867869   895.466747

                             ****ORCA TERMINATED NORMALLY****
TOTAL RUN TIME: 0 days 0 hours 0 minutes 55 seconds 283 msec
