                         Program Version 5.0.3 -  RELEASE  -
|  1> !ri-mp2 aug-cc-pvdz aug-cc-pvdz/c tightscf
|  2> %pal nprocs 16 end
|  3>
|  4> * xyz 0 1
|  5> C     -0.533337    1.799111    0.003615
|  6> C     -1.705095    1.064563   -0.002894
|  7> C      0.717403    1.184420    0.004395
|  8> C     -0.402266   -0.962277   -0.006106
|  9> C     -1.646552   -0.337109   -0.007512
| 10> C      0.770726   -0.209050   -0.000830
| 11> C      3.162146   -0.235899    0.003261
| 12> N     -2.816974   -1.091799   -0.070750
| 13> O      1.927453   -0.933333    0.000800
| 14> H     -0.586702    2.879891    0.008420
| 15> H     -2.664991    1.564249   -0.010323
| 16> H      1.613061    1.784526    0.009583
| 17> H     -0.323439   -2.041438   -0.015180
| 18> H      3.268427    0.385502    0.896029
| 19> H      3.269501    0.389402   -0.886596
| 20> H      3.936497   -0.998414    0.002060
| 21> H     -3.647664   -0.634953    0.267787
| 22> H     -2.743642   -2.042069    0.253499
| 23> *
| 24>
| 25>                          ****END OF INPUT****

CARTESIAN COORDINATES (ANGSTROEM)
---------------------------------
  C     -0.533337    1.799111    0.003615
  C     -1.705095    1.064563   -0.002894
  C      0.717403    1.184420    0.004395
  C     -0.402266   -0.962277   -0.006106
  C     -1.646552   -0.337109   -0.007512
  C      0.770726   -0.209050   -0.000830
  C      3.162146   -0.235899    0.003261
  N     -2.816974   -1.091799   -0.070750
  O      1.927453   -0.933333    0.000800
  H     -0.586702    2.879891    0.008420
  H     -2.664991    1.564249   -0.010323
  H      1.613061    1.784526    0.009583
  H     -0.323439   -2.041438   -0.015180
  H      3.268427    0.385502    0.896029
  H      3.269501    0.389402   -0.886596
  H      3.936497   -0.998414    0.002060
  H     -3.647664   -0.634953    0.267787
  H     -2.743642   -2.042069    0.253499

 Total Charge           Charge          ....    0
 Multiplicity           Mult            ....    1
 Number of Electrons    NEL             ....   66
 Basis Dimension        Dim             ....  288

ORBITAL ENERGIES
----------------

  NO   OCC          E(Eh)            E(eV)
   0   2.0000     -20.590565      -560.2978
   1   2.0000     -15.572656      -423.7535
   2   2.0000     -11.304159      -307.6018
   3   2.0000     -11.287936      -307.1603
   4   2.0000     -11.285406      -307.0915
   5   2.0000     -11.243137      -305.9413
   6   2.0000     -11.219319      -305.2932
   7   2.0000     -11.219204      -305.2901
   8   2.0000     -11.217267      -305.2373
   9   2.0000      -1.409303       -38.3491
  10   2.0000      -1.226952       -33.3871
  11   2.0000      -1.126609       -30.6566
  12   2.0000      -1.021331       -27.7918
  13   2.0000      -0.989458       -26.9245
  14   2.0000      -0.940340       -25.5880
  15   2.0000      -0.833373       -22.6772
  16   2.0000      -0.804930       -21.9033
  17   2.0000      -0.718977       -19.5644
  18   2.0000      -0.699611       -19.0374
  19   2.0000      -0.663396       -18.0519
  20   2.0000      -0.650684       -17.7060
  21   2.0000      -0.638816       -17.3831
  22   2.0000      -0.634890       -17.2762
  23   2.0000      -0.586793       -15.9675
  24   2.0000      -0.567611       -15.4455
  25   2.0000      -0.539708       -14.6862
  26   2.0000      -0.526027       -14.3139
  27   2.0000      -0.516450       -14.0533
  28   2.0000      -0.495073       -13.4716
  29   2.0000      -0.481377       -13.0989
  30   2.0000      -0.431714       -11.7475
  31   2.0000      -0.317153        -8.6302
  32   2.0000      -0.293104        -7.9758
  33   0.0000       0.033901         0.9225
  34   0.0000       0.038035         1.0350
  35   0.0000       0.041698         1.1346
  36   0.0000       0.053137         1.4459
  37   0.0000       0.057560         1.5663

MULLIKEN ATOMIC CHARGES
-----------------------
   0 C :    0.565652
   1 C :    0.646246
   2 C :    0.176702
   3 C :    0.503003
   4 C :    0.489250
   5 C :    1.277973
   6 C :    0.873647
   7 N :   -0.416191
   8 O :   -1.117111
   9 H :   -0.472081
  10 H :   -0.568444
  11 H :   -0.767679
  12 H :   -0.631695
  13 H :   -0.069210
  14 H :   -0.068617
  15 H :   -0.335655
  16 H :   -0.043189
  17 H :   -0.042599
Sum of atomic charges:    0.0000000

LOEWDIN ATOMIC CHARGES
----------------------
   0 C :    0.004199
   1 C :    0.034834
   2 C :    0.024301
   3 C :    0.084234
   4 C :   -0.237174
   5 C :   -0.207156
   6 C :    0.151962
   7 N :    0.243401
   8 O :    0.033807
   9 H :    0.004482
  10 H :   -0.005057
  11 H :   -0.021059
  12 H :    0.006970
  13 H :   -0.016768
  14 H :   -0.016532
  15 H :   -0.023814
  16 H :   -0.030841
  17 H :   -0.029790

  Mayer bond orders larger than 0.100000
B(  0-C ,  1-C ) :   1.6263 B(  0-C ,  2-C ) :   1.7816 B(  0-C ,  4-C ) :  -0.3082
B(  0-C ,  5-C ) :  -0.3111 B(  0-C ,  6-C ) :   0.1615 B(  0-C , 10-H ) :   0.1836
B(  0-C , 11-H ) :   0.3823 B(  1-C ,  2-C ) :   0.5140 B(  1-C ,  3-C ) :   0.2738
B(  1-C ,  4-C ) :   1.6145 B(  1-C ,  9-H ) :   0.1703 B(  2-C ,  3-C ) :   0.1349
B(  2-C ,  5-C ) :   1.3821 B(  2-C ,  8-O ) :   0.1600 B(  2-C ,  9-H ) :   0.6253
B(  2-C , 11-H ) :  -0.1734 B(  2-C , 13-H ) :   0.1051 B(  3-C ,  4-C ) :   1.7757
B(  3-C ,  5-C ) :   2.0297 B(  3-C ,  6-C ) :  -0.1194 B(  3-C ,  8-O ) :   0.1647
B(  3-C , 12-H ) :  -0.1682 B(  4-C ,  5-C ) :  -0.2670 B(  4-C ,  7-N ) :   0.8348
B(  4-C ,  9-H ) :  -0.1729 B(  4-C , 10-H ) :   0.5389 B(  4-C , 12-H ) :   0.4624
B(  5-C ,  6-C ) :  -0.1623 B(  5-C ,  8-O ) :  -0.1995 B(  5-C , 11-H ) :   0.2000
B(  5-C , 12-H ) :   0.3967 B(  5-C , 13-H ) :  -0.1142 B(  5-C , 14-H ) :  -0.1114
B(  6-C ,  8-O ) :   0.7135 B(  6-C , 13-H ) :   0.9694 B(  6-C , 14-H ) :   0.9708
B(  6-C , 15-H ) :   0.9971 B(  7-N , 16-H ) :   1.1055 B(  7-N , 17-H ) :   1.1127
B( 13-H , 15-H ) :  -0.1078 B( 14-H , 15-H ) :  -0.1076

MP2 TOTAL ENERGY:     -401.000333099 Eh
FINAL SINGLE POINT ENERGY      -401.000333099486

DIPOLE MOMENT
-------------
                                X             Y             Z
Electronic contribution:     -2.16264      -1.11323      -0.15549
Nuclear contribution   :      2.14873       1.27377       0.52828
                        -----------------------------------------
Total Dipole Moment    :     -0.01391       0.16055       0.37278
                        -----------------------------------------
Magnitude (a.u.)       :      0.40612
Magnitude (Debye)      :      1.03228

Rotational constants in cm-1:     0.120808     0.037707     0.028915
Rotational constants in MHz :  3621.734718  1130.422488   866.843138

                             ****ORCA TERMINATED NORMALLY****
TOTAL RUN TIME: 0 days 0 hours 1 minutes 13 seconds 106 msec
