                         Program Version 5.0.3 -  RELEASE  -
|  1> !ri-mp2 aug-cc-pvdz aug-cc-pvdz/c tightscf
|  2> %pal nprocs 16 end
|  3>
|  4> * xyz 0 1
|  5> C     -0.002611   -1.733711    0.000000
|  6> C     -0.002408   -1.024146    1.207301
|  7> C     -0.002408    0.359331    1.183235
|  8> C     -0.002586    1.085107    0.000000
|  9> C     -0.002408    0.359331   -1.183235
| 10> C     -0.002408   -1.024146   -1.207301
| 11> N     -0.060193   -3.118911    0.000000
| 12> H     -0.007345   -1.548683    2.151914
| 13> Cl     0.000346    1.229076    2.704581
| 14> H     -0.002009    2.162516    0.000000
| 15> Cl     0.000346    1.229076   -2.704581
| 16> H     -0.007345   -1.548683   -2.151914
| 17> H      0.257626   -3.575977   -0.838380
| 18> H      0.257626   -3.575977    0.838380
| 19> *
| 20>
| 21>                          ****END OF INPUT****

CARTESIAN COORDINATES (ANGSTROEM)
---------------------------------
  C     -0.002611   -1.733711    0.000000
  C     -0.002408   -1.024146    1.207301
  C     -0.002408    0.359331    1.183235
  C     -0.002586    1.085107    0.000000
  C     -0.002408    0.359331   -1.183235
  C     -0.002408   -1.024146   -1.207301
  N     -0.060193   -3.118911    0.000000
  H     -0.007345   -1.548683    2.151914
  Cl     0.000346    1.229076    2.704581
  H     -0.002009    2.162516    0.000000
  Cl     0.000346    1.229076   -2.704581
  H     -0.007345   -1.548683   -2.151914
  H      0.257626   -3.575977   -0.838380
  H      0.257626   -3.575977    0.838380

 Total Charge           Charge          ....    0
 Multiplicity           Mult            ....    1
 Number of Electrons    NEL             ....   82
 Basis Dimension        Dim             ....  260

ORBITAL ENERGIES
----------------

  NO   OCC          E(Eh)            E(eV)
   0   2.0000    -104.845806     -2852.9994
   1   2.0000    -104.845806     -2852.9994
   2   2.0000     -15.595133      -424.3651
   3   2.0000     -11.324360      -308.1515
   4   2.0000     -11.324353      -308.1513
   5   2.0000     -11.315163      -307.9012
   6   2.0000     -11.253959      -306.2358
   7   2.0000     -11.253941      -306.2353
   8   2.0000     -11.253749      -306.2301
   9   2.0000     -10.571727      -287.6713
  10   2.0000     -10.571724      -287.6712
  11   2.0000      -8.039532      -218.7668
  12   2.0000      -8.039532      -218.7668
  13   2.0000      -8.036186      -218.6757
  14   2.0000      -8.036186      -218.6757
  15   2.0000      -8.036080      -218.6729
  16   2.0000      -8.036080      -218.6729
  17   2.0000      -1.256999       -34.2047
  18   2.0000      -1.200715       -32.6731
  19   2.0000      -1.160446       -31.5773
  20   2.0000      -1.091659       -29.7056
  21   2.0000      -1.011934       -27.5361
  22   2.0000      -1.005460       -27.3599
  23   2.0000      -0.844429       -22.9781
  24   2.0000      -0.832626       -22.6569
  25   2.0000      -0.723408       -19.6849
  26   2.0000      -0.715266       -19.4634
  27   2.0000      -0.679672       -18.4948
  28   2.0000      -0.638274       -17.3683
  29   2.0000      -0.608808       -16.5665
  30   2.0000      -0.597018       -16.2457
  31   2.0000      -0.579370       -15.7655
  32   2.0000      -0.551520       -15.0076
  33   2.0000      -0.521866       -14.2007
  34   2.0000      -0.513144       -13.9634
  35   2.0000      -0.507886       -13.8203
  36   2.0000      -0.467861       -12.7312
  37   2.0000      -0.457491       -12.4490
  38   2.0000      -0.433350       -11.7921
  39   2.0000      -0.346848        -9.4382
  40   2.0000      -0.318564        -8.6686
  41   0.0000       0.026399         0.7184
  42   0.0000       0.041592         1.1318
  43   0.0000       0.049578         1.3491
  44   0.0000       0.058462         1.5908
  45   0.0000       0.073802         2.0083

MULLIKEN ATOMIC CHARGES
-----------------------
   0 C :    0.483229
   1 C :    0.918557
   2 C :   -0.330552
   3 C :    0.954353
   4 C :   -0.330552
   5 C :    0.918557
   6 N :   -0.416791
   7 H :   -0.490522
   8 Cl:   -0.388332
   9 H :   -0.371437
  10 Cl:   -0.388332
  11 H :   -0.490522
  12 H :   -0.033828
  13 H :   -0.033828
Sum of atomic charges:    0.0000000

LOEWDIN ATOMIC CHARGES
----------------------
   0 C :   -0.233850
   1 C :    0.023124
   2 C :   -0.547065
   3 C :   -0.055194
   4 C :   -0.547065
   5 C :    0.023124
   6 N :    0.250866
   7 H :   -0.001143
   8 Cl:    0.573150
   9 H :   -0.009972
  10 Cl:    0.573150
  11 H :   -0.001143
  12 H :   -0.023992
  13 H :   -0.023992

  Mayer bond orders larger than 0.100000
B(  0-C ,  1-C ) :   1.4663 B(  0-C ,  3-C ) :  -0.4648 B(  0-C ,  5-C ) :   1.4663
B(  0-C ,  6-N ) :   0.8717 B(  0-C ,  7-H ) :   0.2832 B(  0-C ,  8-Cl) :   0.1583
B(  0-C , 10-Cl) :   0.1583 B(  0-C , 11-H ) :   0.2832 B(  1-C ,  2-C ) :   1.3906
B(  1-C ,  3-C ) :   0.5001 B(  1-C ,  8-Cl) :  -0.3660 B(  1-C , 10-Cl) :   0.1005
B(  2-C ,  3-C ) :   1.3074 B(  2-C ,  4-C ) :  -0.3163 B(  2-C ,  7-H ) :   0.2737
B(  2-C ,  8-Cl) :   1.1143 B(  2-C ,  9-H ) :   0.2163 B(  2-C , 10-Cl) :   0.1175
B(  3-C ,  4-C ) :   1.3074 B(  3-C ,  5-C ) :   0.5001 B(  3-C ,  8-Cl) :  -0.3983
B(  3-C ,  9-H ) :   0.2134 B(  3-C , 10-Cl) :  -0.3983 B(  4-C ,  5-C ) :   1.3906
B(  4-C ,  8-Cl) :   0.1175 B(  4-C ,  9-H ) :   0.2163 B(  4-C , 10-Cl) :   1.1143
B(  4-C , 11-H ) :   0.2737 B(  5-C ,  8-Cl) :   0.1005 B(  5-C , 10-Cl) :  -0.3660
B(  6-N , 12-H ) :   1.1069 B(  6-N , 13-H ) :   1.1069

MP2 TOTAL ENERGY:    -1204.896007443 Eh
FINAL SINGLE POINT ENERGY     -1204.896007443482

DIPOLE MOMENT
-------------
                                X             Y             Z
Electronic contribution:     -0.11419       9.77135       0.00000
Nuclear contribution   :      0.47261     -11.04681      -0.00000
                        -----------------------------------------
Total Dipole Moment    :      0.35842      -1.27545       0.00000
                        -----------------------------------------
Magnitude (a.u.)       :      1.32485
Magnitude (Debye)      :      3.36751

Rotational constants in cm-1:     0.047273     0.028179     0.017662
Rotational constants in MHz :  1417.222301   844.777359   529.483735

                             ****ORCA TERMINATED NORMALLY****
TOTAL RUN TIME: 0 days 0 hours 1 minutes 9 seconds 389 msec
