                         Program Version 5.0.3 -  RELEASE  -
|  1> !ri-mp2 aug-cc-pvdz aug-cc-pvdz/c tightscf
|  2> %pal nprocs 16 end
|  3>
|  4> * xyz 0 1
|  5> N      1.200532   -1.192190    0.000009
|  6> C     -0.248247   -1.251538    0.000100
|  7> C     -1.059500    0.036614    0.000061
|  8> C     -0.288709    1.286859    0.000113
|  9> C      1.051418    1.235550   -0.000006
| 10> C      1.757680   -0.047837   -0.000095
| 11> O     -2.276005    0.018306   -0.000145
| 12> H     -0.559635   -1.846968    0.864275
| 13> H     -0.843315    2.215844    0.000201
| 14> H      1.646021    2.141077   -0.000054
| 15> H      2.845073   -0.022117   -0.000226
| 16> H     -0.559677   -1.846841   -0.864144
| 17> *
| 18>
| 19>                          ****END OF INPUT****

CARTESIAN COORDINATES (ANGSTROEM)
---------------------------------
  N      1.200532   -1.192190    0.000009
  C     -0.248247   -1.251538    0.000100
  C     -1.059500    0.036614    0.000061
  C     -0.288709    1.286859    0.000113
  C      1.051418    1.235550   -0.000006
  C      1.757680   -0.047837   -0.000095
  O     -2.276005    0.018306   -0.000145
  H     -0.559635   -1.846968    0.864275
  H     -0.843315    2.215844    0.000201
  H      1.646021    2.141077   -0.000054
  H      2.845073   -0.022117   -0.000226
  H     -0.559677   -1.846841   -0.864144

 Total Charge           Charge          ....    0
 Multiplicity           Mult            ....    1
 Number of Electrons    NEL             ....   50
 Basis Dimension        Dim             ....  206

ORBITAL ENERGIES
----------------

  NO   OCC          E(Eh)            E(eV)
   0   2.0000     -20.563212      -559.5534
   1   2.0000     -15.595193      -424.3668
   2   2.0000     -11.349781      -308.8432
   3   2.0000     -11.306942      -307.6775
   4   2.0000     -11.289155      -307.1935
   5   2.0000     -11.281163      -306.9761
   6   2.0000     -11.273691      -306.7727
   7   2.0000      -1.398082       -38.0437
   8   2.0000      -1.267976       -34.5034
   9   2.0000      -1.103103       -30.0170
  10   2.0000      -1.025699       -27.9107
  11   2.0000      -0.893737       -24.3198
  12   2.0000      -0.836260       -22.7558
  13   2.0000      -0.728575       -19.8255
  14   2.0000      -0.695178       -18.9167
  15   2.0000      -0.676254       -18.4018
  16   2.0000      -0.639265       -17.3953
  17   2.0000      -0.610065       -16.6007
  18   2.0000      -0.599301       -16.3078
  19   2.0000      -0.563965       -15.3463
  20   2.0000      -0.525530       -14.3004
  21   2.0000      -0.483670       -13.1613
  22   2.0000      -0.474227       -12.9044
  23   2.0000      -0.399305       -10.8656
  24   2.0000      -0.375768       -10.2252
  25   0.0000       0.026926         0.7327
  26   0.0000       0.035118         0.9556
  27   0.0000       0.042312         1.1514
  28   0.0000       0.046035         1.2527
  29   0.0000       0.059876         1.6293

MULLIKEN ATOMIC CHARGES
-----------------------
   0 N :   -0.542304
   1 C :    0.570772
   2 C :    0.062134
   3 C :    0.558694
   4 C :    0.740089
   5 C :    0.455188
   6 O :   -0.851417
   7 H :    0.042789
   8 H :   -0.384508
   9 H :   -0.390372
  10 H :   -0.303910
  11 H :    0.042845
Sum of atomic charges:    0.0000000

LOEWDIN ATOMIC CHARGES
----------------------
   0 N :    0.040017
   1 C :    0.019839
   2 C :   -0.272796
   3 C :    0.077242
   4 C :    0.050707
   5 C :   -0.038863
   6 O :    0.038335
   7 H :    0.030103
   8 H :    0.011985
   9 H :    0.007640
  10 H :    0.005691
  11 H :    0.030100

  Mayer bond orders larger than 0.100000
B(  0-N ,  1-C ) :   0.8540 B(  0-N ,  4-C ) :  -0.1001 B(  0-N ,  5-C ) :   1.7574
B(  0-N , 10-H ) :  -0.1005 B(  1-C ,  2-C ) :   1.0902 B(  1-C ,  7-H ) :   0.8184
B(  1-C , 11-H ) :   0.8183 B(  2-C ,  3-C ) :   1.0403 B(  2-C ,  6-O ) :   1.3141
B(  2-C ,  7-H ) :   0.1230 B(  2-C ,  8-H ) :   0.1169 B(  2-C , 11-H ) :   0.1231
B(  3-C ,  4-C ) :   1.9502 B(  3-C ,  5-C ) :   0.1202 B(  3-C ,  6-O ) :  -0.1057
B(  3-C ,  8-H ) :   0.6253 B(  3-C ,  9-H ) :   0.1655 B(  4-C ,  5-C ) :   1.0195
B(  4-C ,  9-H ) :   0.6307 B(  5-C , 10-H ) :   0.8292

MP2 TOTAL ENERGY:     -322.595460071 Eh
FINAL SINGLE POINT ENERGY      -322.595460070917

DIPOLE MOMENT
-------------
                                X             Y             Z
Electronic contribution:     -1.27364       0.14498       0.00009
Nuclear contribution   :      2.46816       0.62630       0.00005
                        -----------------------------------------
Total Dipole Moment    :      1.19452       0.77128       0.00014
                        -----------------------------------------
Magnitude (a.u.)       :      1.42188
Magnitude (Debye)      :      3.61414

Rotational constants in cm-1:     0.177835     0.092367     0.061459
Rotational constants in MHz :  5331.350290  2769.105818  1842.507646

                             ****ORCA TERMINATED NORMALLY****
TOTAL RUN TIME: 0 days 0 hours 0 minutes 40 seconds 818 msec
