                         Program Version 5.0.3 -  RELEASE  -
|  1> !ri-mp2 aug-cc-pvdz aug-cc-pvdz/c tightscf
|  2> %pal nprocs 16 end
|  3>
|  4> * xyz 0 1
|  5> S     1.646373   -0.642200   -0.000046
|  6> N    -3.679210    0.273566    0.000060
|  7> C     2.361907    1.048758    0.000007
|  8> C     0.007828   -0.301890   -0.000011
|  9> C    -1.191000   -0.121742    0.000012
| 10> C    -2.535848    0.090366    0.000037
| 11> H     2.057644    1.581413    0.895536
| 12> H     3.439906    0.904390   -0.000013
| 13> H     2.057620    1.581480   -0.895474
| 14> *
| 15>
| 16>                          ****END OF INPUT****

CARTESIAN COORDINATES (ANGSTROEM)
---------------------------------
  S      1.646373   -0.642200   -0.000046
  N     -3.679210    0.273566    0.000060
  C      2.361907    1.048758    0.000007
  C      0.007828   -0.301890   -0.000011
  C     -1.191000   -0.121742    0.000012
  C     -2.535848    0.090366    0.000037
  H      2.057644    1.581413    0.895536
  H      3.439906    0.904390   -0.000013
  H      2.057620    1.581480   -0.895474

 Total Charge           Charge          ....    0
 Multiplicity           Mult            ....    1
 Number of Electrons    NEL             ....   50
 Basis Dimension        Dim             ....  169

ORBITAL ENERGIES
----------------

  NO   OCC          E(Eh)            E(eV)
   0   2.0000     -92.020084     -2503.9938
   1   2.0000     -15.605991      -424.6606
   2   2.0000     -11.319749      -308.0260
   3   2.0000     -11.312842      -307.8381
   4   2.0000     -11.301659      -307.5338
   5   2.0000     -11.294263      -307.3325
   6   2.0000      -9.020883      -245.4707
   7   2.0000      -6.703280      -182.4055
   8   2.0000      -6.701227      -182.3497
   9   2.0000      -6.699363      -182.2989
  10   2.0000      -1.242441       -33.8085
  11   2.0000      -1.135775       -30.9060
  12   2.0000      -1.062570       -28.9140
  13   2.0000      -0.949105       -25.8265
  14   2.0000      -0.870955       -23.6999
  15   2.0000      -0.667517       -18.1641
  16   2.0000      -0.630506       -17.1569
  17   2.0000      -0.603038       -16.4095
  18   2.0000      -0.579638       -15.7728
  19   2.0000      -0.549156       -14.9433
  20   2.0000      -0.549002       -14.9391
  21   2.0000      -0.511360       -13.9148
  22   2.0000      -0.469931       -12.7875
  23   2.0000      -0.406747       -11.0681
  24   2.0000      -0.358708        -9.7609
  25   0.0000       0.024493         0.6665
  26   0.0000       0.046358         1.2615
  27   0.0000       0.050132         1.3642
  28   0.0000       0.059772         1.6265
  29   0.0000       0.071251         1.9388

MULLIKEN ATOMIC CHARGES
-----------------------
   0 S :    0.266419
   1 N :   -0.370243
   2 C :    0.044236
   3 C :    0.164826
   4 C :    0.899322
   5 C :   -0.842070
   6 H :   -0.025841
   7 H :   -0.110809
   8 H :   -0.025841
Sum of atomic charges:   -0.0000000

LOEWDIN ATOMIC CHARGES
----------------------
   0 S :    0.867306
   1 N :    0.096765
   2 C :   -0.074322
   3 C :   -0.380778
   4 C :   -0.116254
   5 C :   -0.214499
   6 H :   -0.057702
   7 H :   -0.062814
   8 H :   -0.057702

  Mayer bond orders larger than 0.100000
B(  0-S ,  2-C ) :   1.0474 B(  0-S ,  3-C ) :   1.1608 B(  0-S ,  4-C ) :  -0.1516
B(  0-S ,  5-C ) :  -0.1042 B(  1-N ,  3-C ) :   0.3372 B(  1-N ,  4-C ) :  -0.5620
B(  1-N ,  5-C ) :   2.8516 B(  2-C ,  3-C ) :  -0.1410 B(  2-C ,  6-H ) :   0.9966
B(  2-C ,  7-H ) :   1.0388 B(  2-C ,  8-H ) :   0.9966 B(  3-C ,  4-C ) :   2.0029
B(  3-C ,  5-C ) :   0.1636 B(  4-C ,  5-C ) :   1.0401

MP2 TOTAL ENERGY:     -605.971261007 Eh
FINAL SINGLE POINT ENERGY      -605.971261007398

DIPOLE MOMENT
-------------
                                X             Y             Z
Electronic contribution:     -5.06074      -3.52279      -0.00006
Nuclear contribution   :      7.23385       3.95269       0.00005
                        -----------------------------------------
Total Dipole Moment    :      2.17311       0.42990      -0.00001
                        -----------------------------------------
Magnitude (a.u.)       :      2.21522
Magnitude (Debye)      :      5.63064

Rotational constants in cm-1:     0.469131     0.036685     0.034248
Rotational constants in MHz : 14064.186618  1099.778186  1026.716261

                             ****ORCA TERMINATED NORMALLY****
TOTAL RUN TIME: 0 days 0 hours 0 minutes 33 seconds 215 msec
