                         Program Version 5.0.3 -  RELEASE  -
|  1> !ri-mp2 aug-cc-pvdz aug-cc-pvdz/c tightscf
|  2> %pal nprocs 16 end
|  3>
|  4> * xyz 0 1
|  5> S      2.304780    0.469076    0.000055
|  6> N     -0.000276   -1.064889   -0.000264
|  7> C     -1.440161   -1.078448    0.000154
|  8> C     -2.045252    0.250085    0.000038
|  9> C      0.961067   -0.361593   -0.000087
| 10> C     -2.535008    1.342919   -0.000048
| 11> H     -1.775353   -1.640578   -0.874688
| 12> H     -1.774829   -1.640184    0.875452
| 13> H     -2.968251    2.311985   -0.000143
| 14> *
| 15>
| 16>                          ****END OF INPUT****

CARTESIAN COORDINATES (ANGSTROEM)
---------------------------------
  S      2.304780    0.469076    0.000055
  N     -0.000276   -1.064889   -0.000264
  C     -1.440161   -1.078448    0.000154
  C     -2.045252    0.250085    0.000038
  C      0.961067   -0.361593   -0.000087
  C     -2.535008    1.342919   -0.000048
  H     -1.775353   -1.640578   -0.874688
  H     -1.774829   -1.640184    0.875452
  H     -2.968251    2.311985   -0.000143

 Total Charge           Charge          ....    0
 Multiplicity           Mult            ....    1
 Number of Electrons    NEL             ....   50
 Basis Dimension        Dim             ....  169

ORBITAL ENERGIES
----------------

  NO   OCC          E(Eh)            E(eV)
   0   2.0000     -91.955639     -2502.2402
   1   2.0000     -15.621220      -425.0750
   2   2.0000     -11.388879      -309.9072
   3   2.0000     -11.345757      -308.7338
   4   2.0000     -11.265534      -306.5508
   5   2.0000     -11.258838      -306.3686
   6   2.0000      -8.959009      -243.7870
   7   2.0000      -6.641671      -180.7291
   8   2.0000      -6.637944      -180.6276
   9   2.0000      -6.637524      -180.6162
  10   2.0000      -1.306652       -35.5558
  11   2.0000      -1.102633       -30.0042
  12   2.0000      -1.041823       -28.3494
  13   2.0000      -0.993882       -27.0449
  14   2.0000      -0.787945       -21.4411
  15   2.0000      -0.726649       -19.7731
  16   2.0000      -0.681245       -18.5376
  17   2.0000      -0.672538       -18.3007
  18   2.0000      -0.599079       -16.3018
  19   2.0000      -0.549991       -14.9660
  20   2.0000      -0.540330       -14.7031
  21   2.0000      -0.423946       -11.5361
  22   2.0000      -0.415137       -11.2964
  23   2.0000      -0.371261       -10.1025
  24   2.0000      -0.358618        -9.7585
  25   0.0000       0.029706         0.8083
  26   0.0000       0.036568         0.9951
  27   0.0000       0.050560         1.3758
  28   0.0000       0.069638         1.8950
  29   0.0000       0.083626         2.2756

MULLIKEN ATOMIC CHARGES
-----------------------
   0 S :    0.168942
   1 N :   -0.434519
   2 C :    0.679528
   3 C :   -0.558268
   4 C :   -0.323536
   5 C :    1.055358
   6 H :   -0.046545
   7 H :   -0.046444
   8 H :   -0.494517
Sum of atomic charges:   -0.0000000

LOEWDIN ATOMIC CHARGES
----------------------
   0 S :    0.601041
   1 N :   -0.014842
   2 C :   -0.047915
   3 C :   -0.085513
   4 C :   -0.634492
   5 C :    0.225713
   6 H :    0.026199
   7 H :    0.026209
   8 H :   -0.096401

  Mayer bond orders larger than 0.100000
B(  0-S ,  4-C ) :   1.8332 B(  1-N ,  2-C ) :   0.7194 B(  1-N ,  4-C ) :   1.9961
B(  2-C ,  3-C ) :   1.2324 B(  2-C ,  4-C ) :  -0.1252 B(  2-C ,  5-C ) :   0.1187
B(  2-C ,  6-H ) :   0.8589 B(  2-C ,  7-H ) :   0.8589 B(  2-C ,  8-H ) :   0.1201
B(  3-C ,  5-C ) :   2.6869 B(  3-C ,  8-H ) :   0.5143 B(  5-C ,  8-H ) :  -0.1314

MP2 TOTAL ENERGY:     -605.966293000 Eh
FINAL SINGLE POINT ENERGY      -605.966292999770

DIPOLE MOMENT
-------------
                                X             Y             Z
Electronic contribution:      5.14465       0.67960      -0.00039
Nuclear contribution   :     -6.37034      -0.95658       0.00060
                        -----------------------------------------
Total Dipole Moment    :     -1.22569      -0.27699       0.00021
                        -----------------------------------------
Magnitude (a.u.)       :      1.25660
Magnitude (Debye)      :      3.19402

Rotational constants in cm-1:     0.230192     0.048154     0.040116
Rotational constants in MHz :  6900.977400  1443.626666  1202.649275

                             ****ORCA TERMINATED NORMALLY****
TOTAL RUN TIME: 0 days 0 hours 0 minutes 43 seconds 54 msec
