                         Program Version 5.0.3 -  RELEASE  -
|  1> !ri-mp2 aug-cc-pvdz aug-cc-pvdz/c tightscf
|  2> %pal nprocs 16 end
|  3>
|  4> * xyz 0 1
|  5> S     1.022965   -1.331872    0.000004
|  6> S    -2.014356   -0.693644   -0.000004
|  7> O    -0.819041    2.032145   -0.000005
|  8> N     0.058506    0.978276    0.000000
|  9> C     1.414989    1.194251    0.000002
| 10> C    -0.395063   -0.296584    0.000000
| 11> C     2.103807    0.039075    0.000005
| 12> H     1.783115    2.205430    0.000001
| 13> H     3.171199   -0.084468    0.000008
| 14> H    -1.691668    1.561773   -0.000006
| 15> *
| 16>
| 17>                          ****END OF INPUT****

CARTESIAN COORDINATES (ANGSTROEM)
---------------------------------
  S      1.022965   -1.331872    0.000004
  S     -2.014356   -0.693644   -0.000004
  O     -0.819041    2.032145   -0.000005
  N      0.058506    0.978276    0.000000
  C      1.414989    1.194251    0.000002
  C     -0.395063   -0.296584    0.000000
  C      2.103807    0.039075    0.000005
  H      1.783115    2.205430    0.000001
  H      3.171199   -0.084468    0.000008
  H     -1.691668    1.561773   -0.000006

 Total Charge           Charge          ....    0
 Multiplicity           Mult            ....    1
 Number of Electrons    NEL             ....   68
 Basis Dimension        Dim             ....  196

ORBITAL ENERGIES
----------------

  NO   OCC          E(Eh)            E(eV)
   0   2.0000     -92.025375     -2504.1378
   1   2.0000     -91.922873     -2501.3485
   2   2.0000     -20.655021      -562.0517
   3   2.0000     -15.719070      -427.7376
   4   2.0000     -11.391359      -309.9746
   5   2.0000     -11.329368      -308.2878
   6   2.0000     -11.304095      -307.6001
   7   2.0000      -9.027516      -245.6512
   8   2.0000      -8.926089      -242.8912
   9   2.0000      -6.708963      -182.5602
  10   2.0000      -6.707968      -182.5331
  11   2.0000      -6.705895      -182.4767
  12   2.0000      -6.608571      -179.8283
  13   2.0000      -6.605226      -179.7373
  14   2.0000      -6.604812      -179.7261
  15   2.0000      -1.504553       -40.9410
  16   2.0000      -1.290387       -35.1132
  17   2.0000      -1.097250       -29.8577
  18   2.0000      -1.086494       -29.5650
  19   2.0000      -0.951243       -25.8846
  20   2.0000      -0.870161       -23.6783
  21   2.0000      -0.811160       -22.0728
  22   2.0000      -0.729559       -19.8523
  23   2.0000      -0.694307       -18.8930
  24   2.0000      -0.686281       -18.6747
  25   2.0000      -0.656058       -17.8522
  26   2.0000      -0.597090       -16.2476
  27   2.0000      -0.549457       -14.9515
  28   2.0000      -0.534128       -14.5344
  29   2.0000      -0.519949       -14.1485
  30   2.0000      -0.430789       -11.7224
  31   2.0000      -0.419855       -11.4248
  32   2.0000      -0.353366        -9.6156
  33   2.0000      -0.310916        -8.4605
  34   0.0000       0.026231         0.7138
  35   0.0000       0.039787         1.0827
  36   0.0000       0.055997         1.5238
  37   0.0000       0.072360         1.9690
  38   0.0000       0.078706         2.1417

MULLIKEN ATOMIC CHARGES
-----------------------
   0 S :    0.551480
   1 S :   -0.157819
   2 O :   -0.741593
   3 N :   -0.041170
   4 C :    0.773455
   5 C :   -0.137916
   6 C :    0.085268
   7 H :   -0.208979
   8 H :   -0.343790
   9 H :    0.221063
Sum of atomic charges:    0.0000000

LOEWDIN ATOMIC CHARGES
----------------------
   0 S :    0.973153
   1 S :    0.502308
   2 O :    0.187241
   3 N :   -0.280328
   4 C :   -0.021603
   5 C :   -0.934287
   6 C :   -0.258381
   7 H :    0.015309
   8 H :   -0.050944
   9 H :   -0.132469

  Mayer bond orders larger than 0.100000
B(  0-S ,  3-N ) :  -0.1141 B(  0-S ,  5-C ) :   1.0197 B(  0-S ,  6-C ) :   0.9892
B(  0-S ,  8-H ) :  -0.1341 B(  1-S ,  3-N ) :  -0.1650 B(  1-S ,  5-C ) :   1.6913
B(  1-S ,  9-H ) :   0.1072 B(  2-O ,  3-N ) :   0.8462 B(  2-O ,  4-C ) :  -0.1104
B(  2-O ,  5-C ) :  -0.2277 B(  2-O ,  9-H ) :   1.0318 B(  3-N ,  4-C ) :   0.9200
B(  3-N ,  5-C ) :   1.3233 B(  3-N ,  6-C ) :  -0.1010 B(  4-C ,  6-C ) :   1.9348
B(  4-C ,  7-H ) :   0.8347 B(  4-C ,  8-H ) :   0.1402 B(  6-C ,  8-H ) :   0.9297

MP2 TOTAL ENERGY:    -1040.742938889 Eh
FINAL SINGLE POINT ENERGY     -1040.742938889153

DIPOLE MOMENT
-------------
                                X             Y             Z
Electronic contribution:     -1.40316      -3.00550       0.00000
Nuclear contribution   :      3.14583       3.62752       0.00000
                        -----------------------------------------
Total Dipole Moment    :      1.74267       0.62202       0.00000
                        -----------------------------------------
Magnitude (a.u.)       :      1.85035
Magnitude (Debye)      :      4.70322

Rotational constants in cm-1:     0.095119     0.062514     0.037722
Rotational constants in MHz :  2851.609149  1874.131485  1130.889506

                             ****ORCA TERMINATED NORMALLY****
TOTAL RUN TIME: 0 days 0 hours 0 minutes 43 seconds 554 msec
