                         Program Version 5.0.3 -  RELEASE  -
|  1> !ri-mp2 aug-cc-pvdz aug-cc-pvdz/c tightscf
|  2> %pal nprocs 16 end
|  3>
|  4> * xyz 0 1
|  5> O      1.772604   -1.164175    0.005094
|  6> O      1.810770    1.063763    0.003743
|  7> N     -2.805856    0.007250   -0.044985
|  8> C      1.155229   -0.132919    0.000440
|  9> C     -0.273472   -0.038262   -0.008028
| 10> C     -1.481370   -0.002709   -0.003032
| 11> H      1.173225    1.788219   -0.008235
| 12> H     -3.302718   -0.848895    0.140583
| 13> H     -3.298834    0.856562    0.175579
| 14> *
| 15>
| 16>                          ****END OF INPUT****

CARTESIAN COORDINATES (ANGSTROEM)
---------------------------------
  O      1.772604   -1.164175    0.005094
  O      1.810770    1.063763    0.003743
  N     -2.805856    0.007250   -0.044985
  C      1.155229   -0.132919    0.000440
  C     -0.273472   -0.038262   -0.008028
  C     -1.481370   -0.002709   -0.003032
  H      1.173225    1.788219   -0.008235
  H     -3.302718   -0.848895    0.140583
  H     -3.298834    0.856562    0.175579

 Total Charge           Charge          ....    0
 Multiplicity           Mult            ....    1
 Number of Electrons    NEL             ....   44
 Basis Dimension        Dim             ....  165

ORBITAL ENERGIES
----------------

  NO   OCC          E(Eh)            E(eV)
   0   2.0000     -20.621462      -561.1385
   1   2.0000     -20.553787      -559.2970
   2   2.0000     -15.638173      -425.5363
   3   2.0000     -11.413233      -310.5699
   4   2.0000     -11.323072      -308.1165
   5   2.0000     -11.255215      -306.2700
   6   2.0000      -1.461927       -39.7810
   7   2.0000      -1.367154       -37.2022
   8   2.0000      -1.275820       -34.7168
   9   2.0000      -1.058552       -28.8047
  10   2.0000      -0.896113       -24.3845
  11   2.0000      -0.808682       -22.0053
  12   2.0000      -0.774187       -21.0667
  13   2.0000      -0.750957       -20.4346
  14   2.0000      -0.660587       -17.9755
  15   2.0000      -0.632707       -17.2168
  16   2.0000      -0.601227       -16.3602
  17   2.0000      -0.559805       -15.2331
  18   2.0000      -0.484450       -13.1826
  19   2.0000      -0.470063       -12.7911
  20   2.0000      -0.422975       -11.5097
  21   2.0000      -0.374121       -10.1804
  22   0.0000       0.015494         0.4216
  23   0.0000       0.036819         1.0019
  24   0.0000       0.049821         1.3557
  25   0.0000       0.090491         2.4624
  26   0.0000       0.091433         2.4880

MULLIKEN ATOMIC CHARGES
-----------------------
   0 O :   -0.698163
   1 O :   -0.672655
   2 N :   -0.216828
   3 C :    1.127037
   4 C :    0.640986
   5 C :   -0.458528
   6 H :    0.206204
   7 H :    0.033941
   8 H :    0.038006
Sum of atomic charges:   -0.0000000

LOEWDIN ATOMIC CHARGES
----------------------
   0 O :    0.050272
   1 O :    0.199742
   2 N :    0.235934
   3 C :   -0.406710
   4 C :    0.063415
   5 C :   -0.088722
   6 H :   -0.040148
   7 H :   -0.005074
   8 H :   -0.008710

  Mayer bond orders larger than 0.100000
B(  0-O ,  3-C ) :   1.5566 B(  1-O ,  3-C ) :   0.4311 B(  1-O ,  4-C ) :   0.1744
B(  1-O ,  6-H ) :   0.9962 B(  2-N ,  4-C ) :  -0.1751 B(  2-N ,  5-C ) :   1.4930
B(  2-N ,  7-H ) :   1.0513 B(  2-N ,  8-H ) :   1.0446 B(  3-C ,  4-C ) :   0.9152
B(  3-C ,  5-C ) :   0.2228 B(  4-C ,  5-C ) :   2.3132

MP2 TOTAL ENERGY:     -320.463637001 Eh
FINAL SINGLE POINT ENERGY      -320.463637000555

DIPOLE MOMENT
-------------
                                X             Y             Z
Electronic contribution:      2.69744      -0.59462      -0.05544
Nuclear contribution   :     -5.23458       1.74315       0.29902
                        -----------------------------------------
Total Dipole Moment    :     -2.53714       1.14854       0.24359
                        -----------------------------------------
Magnitude (a.u.)       :      2.79563
Magnitude (Debye)      :      7.10594

Rotational constants in cm-1:     0.376876     0.060335     0.052033
Rotational constants in MHz : 11298.466461  1808.798620  1559.914252

                             ****ORCA TERMINATED NORMALLY****
TOTAL RUN TIME: 0 days 0 hours 0 minutes 29 seconds 263 msec
