                         Program Version 5.0.3 -  RELEASE  -
|  1> !ri-mp2 aug-cc-pvdz aug-cc-pvdz/c tightscf
|  2> %pal nprocs 16 end
|  3>
|  4> * xyz 0 1
|  5> O     1.731880    0.108377   -0.831919
|  6> O    -0.233133   -1.544013   -0.196714
|  7> O    -2.691735   -0.847458    0.265518
|  8> N    -1.675720    0.124252    0.257316
|  9> N     0.522172    0.666970   -0.284536
| 10> C    -0.460475   -0.351147   -0.115603
| 11> C    -2.198971    1.462610    0.154511
| 12> C     2.699348    0.095191    0.044841
| 13> C     3.640521    0.058237    0.782977
| 14> H    -2.181394   -1.673843    0.154736
| 15> H     0.256709    1.383325   -0.950263
| 16> H    -2.597488    1.677053   -0.841848
| 17> H    -2.998686    1.573387    0.884085
| 18> H    -1.411630    2.169530    0.406162
| 19> H     4.468689    0.007404    1.442234
| 20> *
| 21>
| 22>                          ****END OF INPUT****

CARTESIAN COORDINATES (ANGSTROEM)
---------------------------------
  O      1.731880    0.108377   -0.831919
  O     -0.233133   -1.544013   -0.196714
  O     -2.691735   -0.847458    0.265518
  N     -1.675720    0.124252    0.257316
  N      0.522172    0.666970   -0.284536
  C     -0.460475   -0.351147   -0.115603
  C     -2.198971    1.462610    0.154511
  C      2.699348    0.095191    0.044841
  C      3.640521    0.058237    0.782977
  H     -2.181394   -1.673843    0.154736
  H      0.256709    1.383325   -0.950263
  H     -2.597488    1.677053   -0.841848
  H     -2.998686    1.573387    0.884085
  H     -1.411630    2.169530    0.406162
  H      4.468689    0.007404    1.442234

 Total Charge           Charge          ....    0
 Multiplicity           Mult            ....    1
 Number of Electrons    NEL             ....   68
 Basis Dimension        Dim             ....  261

ORBITAL ENERGIES
----------------

  NO   OCC          E(Eh)            E(eV)
   0   2.0000     -20.682692      -562.8047
   1   2.0000     -20.628425      -561.3280
   2   2.0000     -20.563046      -559.5489
   3   2.0000     -15.688645      -426.9097
   4   2.0000     -15.667635      -426.3380
   5   2.0000     -11.421719      -310.8008
   6   2.0000     -11.307063      -307.6808
   7   2.0000     -11.302344      -307.5524
   8   2.0000     -11.237568      -305.7898
   9   2.0000      -1.509903       -41.0865
  10   2.0000      -1.472884       -40.0792
  11   2.0000      -1.397455       -38.0267
  12   2.0000      -1.238773       -33.7087
  13   2.0000      -1.162815       -31.6418
  14   2.0000      -1.025065       -27.8934
  15   2.0000      -0.992070       -26.9956
  16   2.0000      -0.843484       -22.9524
  17   2.0000      -0.805952       -21.9311
  18   2.0000      -0.780114       -21.2280
  19   2.0000      -0.727483       -19.7958
  20   2.0000      -0.706784       -19.2326
  21   2.0000      -0.697529       -18.9807
  22   2.0000      -0.683774       -18.6064
  23   2.0000      -0.646108       -17.5815
  24   2.0000      -0.618513       -16.8306
  25   2.0000      -0.604404       -16.4467
  26   2.0000      -0.587776       -15.9942
  27   2.0000      -0.581737       -15.8299
  28   2.0000      -0.558432       -15.1957
  29   2.0000      -0.493245       -13.4219
  30   2.0000      -0.465779       -12.6745
  31   2.0000      -0.402145       -10.9429
  32   2.0000      -0.391433       -10.6514
  33   2.0000      -0.381616       -10.3843
  34   0.0000       0.025020         0.6808
  35   0.0000       0.040573         1.1041
  36   0.0000       0.043617         1.1869
  37   0.0000       0.049772         1.3544
  38   0.0000       0.059559         1.6207

MULLIKEN ATOMIC CHARGES
-----------------------
   0 O :   -0.877958
   1 O :   -0.690902
   2 O :   -0.690932
   3 N :   -0.143259
   4 N :    0.015264
   5 C :    1.071194
   6 C :    0.956506
   7 C :   -0.223874
   8 C :    1.036109
   9 H :    0.169787
  10 H :    0.097668
  11 H :   -0.067728
  12 H :   -0.149327
  13 H :   -0.112495
  14 H :   -0.390053
Sum of atomic charges:    0.0000000

LOEWDIN ATOMIC CHARGES
----------------------
   0 O :    0.069455
   1 O :    0.060160
   2 O :    0.185645
   3 N :   -0.132145
   4 N :    0.164903
   5 C :   -0.348954
   6 C :    0.198460
   7 C :   -0.191141
   8 C :    0.199351
   9 H :   -0.074569
  10 H :   -0.005953
  11 H :   -0.001426
  12 H :   -0.003034
  13 H :   -0.012050
  14 H :   -0.108702

  Mayer bond orders larger than 0.100000
B(  0-O ,  4-N ) :   0.8609 B(  0-O ,  7-C ) :   1.1327 B(  0-O ,  8-C ) :  -0.3142
B(  1-O ,  5-C ) :   1.5694 B(  2-O ,  3-N ) :   0.7535 B(  2-O ,  5-C ) :  -0.1740
B(  2-O ,  9-H ) :   1.0239 B(  3-N ,  5-C ) :   1.1079 B(  3-N ,  6-C ) :   0.8116
B(  4-N ,  5-C ) :   0.8868 B(  4-N ,  7-C ) :  -0.2278 B(  4-N , 10-H ) :   1.0200
B(  6-C , 11-H ) :   0.8756 B(  6-C , 12-H ) :   0.9983 B(  6-C , 13-H ) :   0.9468
B(  7-C ,  8-C ) :   2.8562 B(  7-C , 14-H ) :   0.4365 B(  8-C , 14-H ) :   0.1574

MP2 TOTAL ENERGY:     -489.777199840 Eh
FINAL SINGLE POINT ENERGY      -489.777199839549

DIPOLE MOMENT
-------------
                                X             Y             Z
Electronic contribution:      3.86675      -3.47614      -1.19757
Nuclear contribution   :     -4.40677       5.01156       1.06299
                        -----------------------------------------
Total Dipole Moment    :     -0.54001       1.53542      -0.13458
                        -----------------------------------------
Magnitude (a.u.)       :      1.63317
Magnitude (Debye)      :      4.15119

Rotational constants in cm-1:     0.134387     0.028791     0.025688
Rotational constants in MHz :  4028.819304   863.136601   770.111493

                             ****ORCA TERMINATED NORMALLY****
TOTAL RUN TIME: 0 days 0 hours 0 minutes 59 seconds 329 msec
