                         Program Version 5.0.3 -  RELEASE  -
|  1> !ri-mp2 aug-cc-pvdz aug-cc-pvdz/c tightscf
|  2> %pal nprocs 16 end
|  3> %maxcore 3800
|  4>
|  5> * xyz 0 1
|  6> C      2.517544   -1.436630   -0.005275
|  7> C      1.212170   -0.683611    0.014104
|  8> C     -0.002777   -1.367699    0.003328
|  9> C     -1.215431   -0.678269   -0.013052
| 10> C     -2.523027   -1.427228    0.013340
| 11> C     -1.202251    0.712541   -0.023179
| 12> C      0.003078    1.420199   -0.008027
| 13> C      1.204894    0.707957    0.012682
| 14> N      0.006024    2.814868   -0.071872
| 15> H      2.865912   -1.586339   -1.030476
| 16> H      2.415107   -2.420997    0.451010
| 17> H      3.299264   -0.894762    0.527510
| 18> H     -0.005117   -2.450862    0.008225
| 19> H     -3.318321   -0.859422   -0.469576
| 20> H     -2.839478   -1.624369    1.040910
| 21> H     -2.438852   -2.390051   -0.490594
| 22> H     -2.138287    1.258871   -0.046205
| 23> H      2.143579    1.250287    0.019305
| 24> H      0.839819    3.263374    0.270906
| 25> H     -0.830989    3.266634    0.258566
| 26> *
| 27>
| 28>                          ****END OF INPUT****

CARTESIAN COORDINATES (ANGSTROEM)
---------------------------------
  C      2.517544   -1.436630   -0.005275
  C      1.212170   -0.683611    0.014104
  C     -0.002777   -1.367699    0.003328
  C     -1.215431   -0.678269   -0.013052
  C     -2.523027   -1.427228    0.013340
  C     -1.202251    0.712541   -0.023179
  C      0.003078    1.420199   -0.008027
  C      1.204894    0.707957    0.012682
  N      0.006024    2.814868   -0.071872
  H      2.865912   -1.586339   -1.030476
  H      2.415107   -2.420997    0.451010
  H      3.299264   -0.894762    0.527510
  H     -0.005117   -2.450862    0.008225
  H     -3.318321   -0.859422   -0.469576
  H     -2.839478   -1.624369    1.040910
  H     -2.438852   -2.390051   -0.490594
  H     -2.138287    1.258871   -0.046205
  H      2.143579    1.250287    0.019305
  H      0.839819    3.263374    0.270906
  H     -0.830989    3.266634    0.258566

 Total Charge           Charge          ....    0
 Multiplicity           Mult            ....    1
 Number of Electrons    NEL             ....   66
 Basis Dimension        Dim             ....  306

ORBITAL ENERGIES
----------------

  NO   OCC          E(Eh)            E(eV)
   0   2.0000     -15.569675      -423.6724
   1   2.0000     -11.278793      -306.9116
   2   2.0000     -11.242480      -305.9234
   3   2.0000     -11.242465      -305.9230
   4   2.0000     -11.225298      -305.4559
   5   2.0000     -11.225249      -305.4546
   6   2.0000     -11.215327      -305.1846
   7   2.0000     -11.215156      -305.1799
   8   2.0000     -11.210031      -305.0404
   9   2.0000      -1.223424       -33.2911
  10   2.0000      -1.135805       -30.9068
  11   2.0000      -1.053952       -28.6795
  12   2.0000      -1.000603       -27.2278
  13   2.0000      -0.933591       -25.4043
  14   2.0000      -0.926943       -25.2234
  15   2.0000      -0.802852       -21.8467
  16   2.0000      -0.787341       -21.4246
  17   2.0000      -0.688902       -18.7460
  18   2.0000      -0.677103       -18.4249
  19   2.0000      -0.645885       -17.5754
  20   2.0000      -0.612563       -16.6687
  21   2.0000      -0.577703       -15.7201
  22   2.0000      -0.569683       -15.5019
  23   2.0000      -0.563343       -15.3293
  24   2.0000      -0.554861       -15.0985
  25   2.0000      -0.546144       -14.8613
  26   2.0000      -0.519032       -14.1236
  27   2.0000      -0.517441       -14.0803
  28   2.0000      -0.490062       -13.3353
  29   2.0000      -0.474015       -12.8986
  30   2.0000      -0.428380       -11.6568
  31   2.0000      -0.317456        -8.6384
  32   2.0000      -0.287451        -7.8219
  33   0.0000       0.033117         0.9011
  34   0.0000       0.040102         1.0912
  35   0.0000       0.041145         1.1196
  36   0.0000       0.053126         1.4456
  37   0.0000       0.055268         1.5039

MULLIKEN ATOMIC CHARGES
-----------------------
   0 C :    0.314721
   1 C :   -0.141196
   2 C :    0.670391
   3 C :   -0.145618
   4 C :    0.320605
   5 C :    1.002624
   6 C :   -0.596821
   7 C :    1.010330
   8 N :   -0.398000
   9 H :    0.131526
  10 H :   -0.066304
  11 H :   -0.045665
  12 H :   -0.668613
  13 H :   -0.068470
  14 H :    0.132856
  15 H :   -0.045355
  16 H :   -0.652747
  17 H :   -0.657144
  18 H :   -0.047513
  19 H :   -0.049606
Sum of atomic charges:    0.0000000

LOEWDIN ATOMIC CHARGES
----------------------
   0 C :    0.177014
   1 C :   -0.218366
   2 C :    0.054906
   3 C :   -0.218176
   4 C :    0.177082
   5 C :    0.072178
   6 C :   -0.232373
   7 C :    0.071975
   8 N :    0.241862
   9 H :   -0.005121
  10 H :   -0.014706
  11 H :   -0.014584
  12 H :    0.001139
  13 H :   -0.015006
  14 H :   -0.005523
  15 H :   -0.013939
  16 H :    0.002465
  17 H :    0.002831
  18 H :   -0.031825
  19 H :   -0.031830

  Mayer bond orders larger than 0.100000
B(  0-C ,  1-C ) :   1.3839 B(  0-C ,  2-C ) :  -0.4995 B(  0-C ,  3-C ) :   0.2341
B(  0-C ,  4-C ) :   0.1265 B(  0-C ,  6-C ) :   0.3357 B(  0-C ,  7-C ) :  -0.5097
B(  0-C ,  9-H ) :   0.9390 B(  0-C , 10-H ) :   0.7106 B(  0-C , 11-H ) :   0.7670
B(  0-C , 17-H ) :   0.1143 B(  1-C ,  2-C ) :   1.6069 B(  1-C ,  4-C ) :   0.2084
B(  1-C ,  6-C ) :  -0.1632 B(  1-C ,  7-C ) :   1.5921 B(  1-C ,  9-H ) :   0.2162
B(  1-C , 10-H ) :   0.3459 B(  1-C , 11-H ) :   0.2712 B(  1-C , 12-H ) :   0.3925
B(  1-C , 17-H ) :   0.3679 B(  2-C ,  3-C ) :   1.4942 B(  2-C ,  4-C ) :  -0.5391
B(  2-C ,  5-C ) :  -0.3821 B(  2-C ,  6-C ) :   0.2288 B(  2-C ,  7-C ) :  -0.3857
B(  2-C , 10-H ) :  -0.1377 B(  2-C , 12-H ) :  -0.3161 B(  2-C , 15-H ) :  -0.1437
B(  3-C ,  4-C ) :   1.3991 B(  3-C ,  5-C ) :   1.6842 B(  3-C ,  6-C ) :  -0.1818
B(  3-C , 12-H ) :   0.3645 B(  3-C , 13-H ) :   0.3135 B(  3-C , 14-H ) :   0.2250
B(  3-C , 15-H ) :   0.3429 B(  3-C , 16-H ) :   0.3440 B(  4-C ,  5-C ) :  -0.4688
B(  4-C ,  6-C ) :   0.3500 B(  4-C , 13-H ) :   0.7391 B(  4-C , 14-H ) :   0.9350
B(  4-C , 15-H ) :   0.7393 B(  4-C , 16-H ) :   0.1058 B(  5-C ,  6-C ) :   1.1674
B(  5-C ,  7-C ) :   0.5356 B(  5-C , 16-H ) :  -0.4410 B(  6-C ,  7-C ) :   1.2660
B(  6-C ,  8-N ) :   0.8084 B(  6-C , 16-H ) :   0.5711 B(  6-C , 17-H ) :   0.5385
B(  7-C ,  8-N ) :  -0.1104 B(  7-C , 17-H ) :  -0.4394 B(  8-N , 18-H ) :   1.0975
B(  8-N , 19-H ) :   1.1056

MP2 TOTAL ENERGY:     -365.145207609 Eh
FINAL SINGLE POINT ENERGY      -365.145207609265

DIPOLE MOMENT
-------------
                                X             Y             Z
Electronic contribution:      0.00503       3.51098      -0.17601
Nuclear contribution   :     -0.00750      -3.24359       0.55148
                        -----------------------------------------
Total Dipole Moment    :     -0.00247       0.26739       0.37548
                        -----------------------------------------
Magnitude (a.u.)       :      0.46096
Magnitude (Debye)      :      1.17166

Rotational constants in cm-1:     0.059655     0.058715     0.029941
Rotational constants in MHz :  1788.421145  1760.235491   897.613224

                             ****ORCA TERMINATED NORMALLY****
TOTAL RUN TIME: 0 days 0 hours 1 minutes 31 seconds 37 msec
