                         Program Version 5.0.3 -  RELEASE  -
|  1> !ri-mp2 aug-cc-pvdz aug-cc-pvdz/c tightscf
|  2> %pal nprocs 16 end
|  3>
|  4> * xyz 0 1
|  5> S    -1.131399   -1.070775   -0.000017
|  6> N     1.538046   -1.000510   -0.000058
|  7> N     0.653008    1.084197    0.000038
|  8> N     2.510851   -0.057395   -0.000035
|  9> C     0.445498   -0.256528   -0.000012
| 10> C     1.967699    1.170963    0.000021
| 11> C    -2.199076    0.233648    0.000030
| 12> C    -3.054062    1.079168    0.000059
| 13> H     3.478056   -0.332882   -0.000061
| 14> H     2.546140    2.079525    0.000047
| 15> H    -3.795499    1.838204    0.000079
| 16> *
| 17>
| 18>                          ****END OF INPUT****

CARTESIAN COORDINATES (ANGSTROEM)
---------------------------------
  S     -1.131399   -1.070775   -0.000017
  N      1.538046   -1.000510   -0.000058
  N      0.653008    1.084197    0.000038
  N      2.510851   -0.057395   -0.000035
  C      0.445498   -0.256528   -0.000012
  C      1.967699    1.170963    0.000021
  C     -2.199076    0.233648    0.000030
  C     -3.054062    1.079168    0.000059
  H      3.478056   -0.332882   -0.000061
  H      2.546140    2.079525    0.000047
  H     -3.795499    1.838204    0.000079

 Total Charge           Charge          ....    0
 Multiplicity           Mult            ....    1
 Number of Electrons    NEL             ....   64
 Basis Dimension        Dim             ....  215

ORBITAL ENERGIES
----------------

  NO   OCC          E(Eh)            E(eV)
   0   2.0000     -92.006542     -2503.6253
   1   2.0000     -15.675379      -426.5487
   2   2.0000     -15.616549      -424.9479
   3   2.0000     -15.582972      -424.0342
   4   2.0000     -11.344215      -308.6918
   5   2.0000     -11.341152      -308.6084
   6   2.0000     -11.265344      -306.5456
   7   2.0000     -11.246390      -306.0298
   8   2.0000      -9.007139      -245.0967
   9   2.0000      -6.689508      -182.0308
  10   2.0000      -6.687713      -181.9819
  11   2.0000      -6.685582      -181.9239
  12   2.0000      -1.437698       -39.1217
  13   2.0000      -1.222759       -33.2730
  14   2.0000      -1.151819       -31.3426
  15   2.0000      -1.080137       -29.3920
  16   2.0000      -0.988351       -26.8944
  17   2.0000      -0.885049       -24.0834
  18   2.0000      -0.821004       -22.3406
  19   2.0000      -0.787429       -21.4270
  20   2.0000      -0.722013       -19.6470
  21   2.0000      -0.657001       -17.8779
  22   2.0000      -0.656164       -17.8551
  23   2.0000      -0.626491       -17.0477
  24   2.0000      -0.537984       -14.6393
  25   2.0000      -0.513791       -13.9810
  26   2.0000      -0.496294       -13.5048
  27   2.0000      -0.466354       -12.6901
  28   2.0000      -0.431294       -11.7361
  29   2.0000      -0.404911       -11.0182
  30   2.0000      -0.400312       -10.8930
  31   2.0000      -0.326884        -8.8950
  32   0.0000       0.023503         0.6395
  33   0.0000       0.041225         1.1218
  34   0.0000       0.045323         1.2333
  35   0.0000       0.077496         2.1088
  36   0.0000       0.082245         2.2380

MULLIKEN ATOMIC CHARGES
-----------------------
   0 S :    0.644210
   1 N :   -0.618971
   2 N :   -0.680289
   3 N :   -0.262415
   4 C :    0.206860
   5 C :    1.023786
   6 C :   -0.406291
   7 C :    0.658317
   8 H :    0.007533
   9 H :   -0.127014
  10 H :   -0.445725
Sum of atomic charges:   -0.0000000

LOEWDIN ATOMIC CHARGES
----------------------
   0 S :    0.939960
   1 N :    0.007831
   2 N :    0.012866
   3 N :    0.026587
   4 C :   -0.579245
   5 C :    0.007441
   6 C :   -0.480347
   7 C :    0.126940
   8 H :    0.032772
   9 H :    0.016113
  10 H :   -0.110918

  Mayer bond orders larger than 0.100000
B(  0-S ,  4-C ) :   0.9723 B(  0-S ,  6-C ) :   0.9494 B(  0-S ,  7-C ) :  -0.1650
B(  0-S , 10-H ) :   0.1503 B(  1-N ,  3-N ) :   0.9773 B(  1-N ,  4-C ) :   1.3455
B(  1-N ,  8-H ) :  -0.1358 B(  2-N ,  4-C ) :   1.1178 B(  2-N ,  5-C ) :   1.4020
B(  3-N ,  5-C ) :   1.0222 B(  3-N ,  8-H ) :   1.1599 B(  4-C ,  6-C ) :   0.1467
B(  5-C ,  8-H ) :  -0.1147 B(  5-C ,  9-H ) :   0.9188 B(  6-C ,  7-C ) :   2.7839
B(  6-C , 10-H ) :   0.4138 B(  7-C , 10-H ) :   0.1091

MP2 TOTAL ENERGY:     -715.205234500 Eh
FINAL SINGLE POINT ENERGY      -715.205234499581

DIPOLE MOMENT
-------------
                                X             Y             Z
Electronic contribution:     -0.84626      -2.75242      -0.00006
Nuclear contribution   :      2.20054       3.47487       0.00006
                        -----------------------------------------
Total Dipole Moment    :      1.35428       0.72245      -0.00000
                        -----------------------------------------
Magnitude (a.u.)       :      1.53493
Magnitude (Debye)      :      3.90148

Rotational constants in cm-1:     0.157633     0.040072     0.031950
Rotational constants in MHz :  4725.705923  1201.317228   957.828542

                             ****ORCA TERMINATED NORMALLY****
TOTAL RUN TIME: 0 days 0 hours 0 minutes 46 seconds 874 msec
