                         Program Version 5.0.3 -  RELEASE  -
|  1> !ri-mp2 aug-cc-pvdz aug-cc-pvdz/c tightscf
|  2> %pal nprocs 16 end
|  3>
|  4> * xyz 0 1
|  5> H     -0.288253    2.211377    0.113712
|  6> C      0.103075    1.202002    0.097091
|  7> H      2.155830    1.583915   -0.380964
|  8> C      1.366429    0.878250   -0.158285
|  9> H      2.158926   -0.837607    0.868606
| 10> H      2.190120   -1.009750   -0.873105
| 11> C      1.601620   -0.607266   -0.046137
| 12> H      0.072016   -2.042382    0.656132
| 13> H     -0.122787   -1.505070   -1.005335
| 14> C      0.165989   -1.180038   -0.003279
| 15> H     -0.908864   -0.034062    1.507559
| 16> C     -0.750290   -0.003256    0.421562
| 17> H     -2.727516    0.841153    0.071891
| 18> H     -2.677022   -0.918993   -0.000210
| 19> H     -2.025849    0.037111   -1.334613
| 20> C     -2.124590   -0.010641   -0.248232
| 21> *
| 22>
| 23>                          ****END OF INPUT****

CARTESIAN COORDINATES (ANGSTROEM)
---------------------------------
  H     -0.288253    2.211377    0.113712
  C      0.103075    1.202002    0.097091
  H      2.155830    1.583915   -0.380964
  C      1.366429    0.878250   -0.158285
  H      2.158926   -0.837607    0.868606
  H      2.190120   -1.009750   -0.873105
  C      1.601620   -0.607266   -0.046137
  H      0.072016   -2.042382    0.656132
  H     -0.122787   -1.505070   -1.005335
  C      0.165989   -1.180038   -0.003279
  H     -0.908864   -0.034062    1.507559
  C     -0.750290   -0.003256    0.421562
  H     -2.727516    0.841153    0.071891
  H     -2.677022   -0.918993   -0.000210
  H     -2.025849    0.037111   -1.334613
  C     -2.124590   -0.010641   -0.248232

 Total Charge           Charge          ....    0
 Multiplicity           Mult            ....    1
 Number of Electrons    NEL             ....   46
 Basis Dimension        Dim             ....  228

ORBITAL ENERGIES
----------------

  NO   OCC          E(Eh)            E(eV)
   0   2.0000     -11.230745      -305.6041
   1   2.0000     -11.225562      -305.4631
   2   2.0000     -11.224914      -305.4454
   3   2.0000     -11.222054      -305.3676
   4   2.0000     -11.220962      -305.3379
   5   2.0000     -11.217319      -305.2388
   6   2.0000      -1.135474       -30.8978
   7   2.0000      -1.008350       -27.4386
   8   2.0000      -0.962866       -26.2009
   9   2.0000      -0.884036       -24.0559
  10   2.0000      -0.773916       -21.0593
  11   2.0000      -0.720770       -19.6132
  12   2.0000      -0.667388       -18.1606
  13   2.0000      -0.629423       -17.1275
  14   2.0000      -0.573458       -15.6046
  15   2.0000      -0.564644       -15.3647
  16   2.0000      -0.520053       -14.1514
  17   2.0000      -0.512010       -13.9325
  18   2.0000      -0.483579       -13.1589
  19   2.0000      -0.480574       -13.0771
  20   2.0000      -0.467629       -12.7248
  21   2.0000      -0.452981       -12.3262
  22   2.0000      -0.339669        -9.2429
  23   0.0000       0.037368         1.0168
  24   0.0000       0.044123         1.2007
  25   0.0000       0.046653         1.2695
  26   0.0000       0.049279         1.3409
  27   0.0000       0.061191         1.6651

MULLIKEN ATOMIC CHARGES
-----------------------
   0 H :   -0.357163
   1 C :    0.490478
   2 H :   -0.288496
   3 C :    0.083940
   4 H :   -0.066287
   5 H :   -0.070189
   6 C :    0.349073
   7 H :   -0.093333
   8 H :   -0.186348
   9 C :    0.469376
  10 H :   -0.084790
  11 C :   -0.662291
  12 H :   -0.098440
  13 H :   -0.060308
  14 H :    0.001332
  15 C :    0.573446
Sum of atomic charges:    0.0000000

LOEWDIN ATOMIC CHARGES
----------------------
   0 H :   -0.001114
   1 C :    0.027870
   2 H :   -0.007663
   3 C :    0.009281
   4 H :    0.010175
   5 H :    0.005852
   6 C :   -0.009385
   7 H :    0.010936
   8 H :    0.012512
   9 C :    0.029415
  10 H :    0.037337
  11 C :   -0.233931
  12 H :   -0.017666
  13 H :   -0.014353
  14 H :   -0.012782
  15 C :    0.153516

  Mayer bond orders larger than 0.100000
B(  0-H ,  1-C ) :   0.5453 B(  0-H ,  3-C ) :   0.1535 B(  1-C ,  2-H ) :   0.1368
B(  1-C ,  3-C ) :   2.1736 B(  1-C , 11-C ) :   1.1449 B(  2-H ,  3-C ) :   0.6686
B(  3-C ,  6-C ) :   1.2101 B(  3-C , 11-C ) :  -0.1808 B(  3-C , 15-C ) :   0.1910
B(  4-H ,  5-H ) :  -0.1164 B(  4-H ,  6-C ) :   0.7413 B(  5-H ,  6-C ) :   0.7667
B(  6-C ,  9-C ) :   1.2265 B(  7-H ,  8-H ) :  -0.1113 B(  7-H ,  9-C ) :   0.7277
B(  7-H , 11-C ) :   0.1158 B(  8-H ,  9-C ) :   0.8622 B(  9-C , 11-C ) :   1.1102
B(  9-C , 15-C ) :  -0.1125 B( 10-H , 11-C ) :   0.6918 B( 11-C , 13-H ) :   0.1199
B( 11-C , 15-C ) :   1.2183 B( 12-H , 15-C ) :   0.8555 B( 13-H , 15-C ) :   0.8138
B( 14-H , 15-C ) :   0.9284

MP2 TOTAL ENERGY:     -233.898887514 Eh
FINAL SINGLE POINT ENERGY      -233.898887513873

DIPOLE MOMENT
-------------
                                X             Y             Z
Electronic contribution:      2.28216       1.68203       0.46248
Nuclear contribution   :     -2.28572      -1.76084      -0.39577
                        -----------------------------------------
Total Dipole Moment    :     -0.00356      -0.07881       0.06671
                        -----------------------------------------
Magnitude (a.u.)       :      0.10332
Magnitude (Debye)      :      0.26261

Rotational constants in cm-1:     0.223222     0.105897     0.078914
Rotational constants in MHz :  6692.015874  3174.726812  2365.785255

                             ****ORCA TERMINATED NORMALLY****
TOTAL RUN TIME: 0 days 0 hours 0 minutes 39 seconds 829 msec
