                         Program Version 5.0.3 -  RELEASE  -
|  1> !ri-mp2 aug-cc-pvdz aug-cc-pvdz/c tightscf
|  2> %pal nprocs 16 end
|  3>
|  4> * xyz 0 1
|  5> Cl   -3.091891   -0.553378   -0.200574
|  6> S     3.632310   -0.266570   -0.128147
|  7> O    -0.699111    2.368642   -0.205516
|  8> N     0.897212   -0.474689    0.245548
|  9> C    -0.405066   -0.025285   -0.173044
| 10> C    -1.436255   -1.039052    0.315660
| 11> C    -0.633145    1.364267    0.442426
| 12> C     2.069088   -0.345652    0.048062
| 13> H    -0.443611    0.071906   -1.258723
| 14> H    -1.234330   -2.019402   -0.103642
| 15> H    -1.437139   -1.102639    1.400744
| 16> H    -0.695064    1.370700    1.548388
| 17> *
| 18>
| 19>                          ****END OF INPUT****

CARTESIAN COORDINATES (ANGSTROEM)
---------------------------------
  Cl    -3.091891   -0.553378   -0.200574
  S      3.632310   -0.266570   -0.128147
  O     -0.699111    2.368642   -0.205516
  N      0.897212   -0.474689    0.245548
  C     -0.405066   -0.025285   -0.173044
  C     -1.436255   -1.039052    0.315660
  C     -0.633145    1.364267    0.442426
  C      2.069088   -0.345652    0.048062
  H     -0.443611    0.071906   -1.258723
  H     -1.234330   -2.019402   -0.103642
  H     -1.437139   -1.102639    1.400744
  H     -0.695064    1.370700    1.548388

 Total Charge           Charge          ....    0
 Multiplicity           Mult            ....    1
 Number of Electrons    NEL             ....   76
 Basis Dimension        Dim             ....  228

ORBITAL ENERGIES
----------------

  NO   OCC          E(Eh)            E(eV)
   0   2.0000    -104.852157     -2853.1722
   1   2.0000     -91.974228     -2502.7460
   2   2.0000     -20.603302      -560.6443
   3   2.0000     -15.637941      -425.5300
   4   2.0000     -11.408634      -310.4447
   5   2.0000     -11.373324      -309.4839
   6   2.0000     -11.349806      -308.8439
   7   2.0000     -11.338613      -308.5393
   8   2.0000     -10.577992      -287.8418
   9   2.0000      -8.977544      -244.2914
  10   2.0000      -8.045648      -218.9332
  11   2.0000      -8.042440      -218.8459
  12   2.0000      -8.042355      -218.8436
  13   2.0000      -6.660146      -181.2318
  14   2.0000      -6.656403      -181.1299
  15   2.0000      -6.656053      -181.1204
  16   2.0000      -1.437551       -39.1177
  17   2.0000      -1.325613       -36.0718
  18   2.0000      -1.177446       -32.0399
  19   2.0000      -1.094553       -29.7843
  20   2.0000      -1.036873       -28.2148
  21   2.0000      -0.921916       -25.0866
  22   2.0000      -0.855117       -23.2689
  23   2.0000      -0.780375       -21.2351
  24   2.0000      -0.704418       -19.1682
  25   2.0000      -0.689160       -18.7530
  26   2.0000      -0.651470       -17.7274
  27   2.0000      -0.626176       -17.0391
  28   2.0000      -0.615989       -16.7619
  29   2.0000      -0.584718       -15.9110
  30   2.0000      -0.561592       -15.2817
  31   2.0000      -0.553573       -15.0635
  32   2.0000      -0.545066       -14.8320
  33   2.0000      -0.471569       -12.8320
  34   2.0000      -0.464215       -12.6319
  35   2.0000      -0.452625       -12.3166
  36   2.0000      -0.387685       -10.5494
  37   2.0000      -0.375805       -10.2262
  38   0.0000       0.030019         0.8168
  39   0.0000       0.039228         1.0674
  40   0.0000       0.048114         1.3092
  41   0.0000       0.061665         1.6780
  42   0.0000       0.065227         1.7749

MULLIKEN ATOMIC CHARGES
-----------------------
   0 Cl:   -0.080911
   1 S :    0.182206
   2 O :   -0.638214
   3 N :   -0.360232
   4 C :    0.317244
   5 C :    0.232776
   6 C :    0.960084
   7 C :   -0.452353
   8 H :   -0.206393
   9 H :    0.048977
  10 H :    0.051895
  11 H :   -0.055079
Sum of atomic charges:    0.0000000

LOEWDIN ATOMIC CHARGES
----------------------
   0 Cl:    0.501277
   1 S :    0.634970
   2 O :    0.061669
   3 N :   -0.007864
   4 C :   -0.252335
   5 C :   -0.286694
   6 C :   -0.057059
   7 C :   -0.625414
   8 H :    0.045625
   9 H :   -0.020167
  10 H :   -0.022014
  11 H :    0.028006

  Mayer bond orders larger than 0.100000
B(  0-Cl,  4-C ) :  -0.3822 B(  0-Cl,  5-C ) :   1.2981 B(  1-S ,  7-C ) :   1.9105
B(  2-O ,  6-C ) :   1.6014 B(  3-N ,  4-C ) :   0.6068 B(  3-N ,  7-C ) :   1.9360
B(  4-C ,  5-C ) :   1.3773 B(  4-C ,  6-C ) :   1.1756 B(  4-C ,  8-H ) :   0.5844
B(  4-C ,  9-H ) :   0.2443 B(  4-C , 10-H ) :   0.2052 B(  4-C , 11-H ) :   0.1476
B(  5-C ,  9-H ) :   0.7827 B(  5-C , 10-H ) :   0.8269 B(  6-C ,  8-H ) :   0.1351
B(  6-C , 11-H ) :   0.7658

MP2 TOTAL ENERGY:    -1141.352392823 Eh
FINAL SINGLE POINT ENERGY     -1141.352392822682

DIPOLE MOMENT
-------------
                                X             Y             Z
Electronic contribution:     -0.71493      -0.17032      -1.27759
Nuclear contribution   :      0.47273      -0.80621       1.78983
                        -----------------------------------------
Total Dipole Moment    :     -0.24220      -0.97653       0.51224
                        -----------------------------------------
Magnitude (a.u.)       :      1.12901
Magnitude (Debye)      :      2.86971

Rotational constants in cm-1:     0.103153     0.019120     0.016554
Rotational constants in MHz :  3092.459765   573.201970   496.270583

                             ****ORCA TERMINATED NORMALLY****
TOTAL RUN TIME: 0 days 0 hours 0 minutes 44 seconds 529 msec
