                         Program Version 5.0.3 -  RELEASE  -
|  1> !ri-mp2 aug-cc-pvdz aug-cc-pvdz/c tightscf
|  2> %pal nprocs 16 end
|  3>
|  4> * xyz 0 1
|  5> F     0.465018    1.425630    0.535618
|  6> F     0.389467   -0.599318    1.371080
|  7> O    -1.954835    0.979221   -0.552404
|  8> O    -1.763085   -1.212817   -0.059693
|  9> N     2.517481   -0.276918   -0.574374
| 10> C     0.176013    0.131313    0.230920
| 11> C    -1.311942    0.050048   -0.156467
| 12> C     1.107414   -0.362137   -0.884322
| 13> H    -2.687110   -1.216711   -0.352628
| 14> H     2.799763    0.676454   -0.387399
| 15> H     2.755145   -0.838551    0.232905
| 16> H     0.841761   -1.396806   -1.101889
| 17> H     0.892172    0.230650   -1.774659
| 18> *
| 19>
| 20>                          ****END OF INPUT****

CARTESIAN COORDINATES (ANGSTROEM)
---------------------------------
  F      0.465018    1.425630    0.535618
  F      0.389467   -0.599318    1.371080
  O     -1.954835    0.979221   -0.552404
  O     -1.763085   -1.212817   -0.059693
  N      2.517481   -0.276918   -0.574374
  C      0.176013    0.131313    0.230920
  C     -1.311942    0.050048   -0.156467
  C      1.107414   -0.362137   -0.884322
  H     -2.687110   -1.216711   -0.352628
  H      2.799763    0.676454   -0.387399
  H      2.755145   -0.838551    0.232905
  H      0.841761   -1.396806   -1.101889
  H      0.892172    0.230650   -1.774659

 Total Charge           Charge          ....    0
 Multiplicity           Mult            ....    1
 Number of Electrons    NEL             ....   64
 Basis Dimension        Dim             ....  229

ORBITAL ENERGIES
----------------

  NO   OCC          E(Eh)            E(eV)
   0   2.0000     -26.341546      -716.7899
   1   2.0000     -26.339363      -716.7305
   2   2.0000     -20.651959      -561.9684
   3   2.0000     -20.595065      -560.4202
   4   2.0000     -15.573338      -423.7721
   5   2.0000     -11.444548      -311.4220
   6   2.0000     -11.427932      -310.9698
   7   2.0000     -11.296317      -307.3884
   8   2.0000      -1.683458       -45.8092
   9   2.0000      -1.620218       -44.0884
  10   2.0000      -1.501342       -40.8536
  11   2.0000      -1.401997       -38.1503
  12   2.0000      -1.213319       -33.0161
  13   2.0000      -1.056016       -28.7357
  14   2.0000      -0.928078       -25.2543
  15   2.0000      -0.866594       -23.5812
  16   2.0000      -0.794414       -21.6171
  17   2.0000      -0.774082       -21.0638
  18   2.0000      -0.758007       -20.6264
  19   2.0000      -0.730281       -19.8719
  20   2.0000      -0.706192       -19.2165
  21   2.0000      -0.679772       -18.4975
  22   2.0000      -0.667303       -18.1582
  23   2.0000      -0.658777       -17.9262
  24   2.0000      -0.644452       -17.5364
  25   2.0000      -0.629402       -17.1269
  26   2.0000      -0.595646       -16.2083
  27   2.0000      -0.573403       -15.6031
  28   2.0000      -0.555444       -15.1144
  29   2.0000      -0.512680       -13.9507
  30   2.0000      -0.488066       -13.2810
  31   2.0000      -0.417006       -11.3473
  32   0.0000       0.030314         0.8249
  33   0.0000       0.040640         1.1059
  34   0.0000       0.052867         1.4386
  35   0.0000       0.055670         1.5149
  36   0.0000       0.078481         2.1356

MULLIKEN ATOMIC CHARGES
-----------------------
   0 F :   -0.755523
   1 F :   -0.725319
   2 O :   -0.724987
   3 O :   -0.701307
   4 N :   -0.403467
   5 C :    1.648642
   6 C :    0.998097
   7 C :    0.519832
   8 H :    0.211625
   9 H :    0.021976
  10 H :    0.018833
  11 H :   -0.046493
  12 H :   -0.061909
Sum of atomic charges:    0.0000000

LOEWDIN ATOMIC CHARGES
----------------------
   0 F :    0.077249
   1 F :    0.065497
   2 O :    0.076308
   3 O :    0.219999
   4 N :    0.200286
   5 C :   -0.292595
   6 C :   -0.291486
   7 C :   -0.022033
   8 H :   -0.006561
   9 H :   -0.041832
  10 H :   -0.042044
  11 H :    0.027011
  12 H :    0.030201

  Mayer bond orders larger than 0.100000
B(  0-F ,  5-C ) :  -0.1534 B(  0-F ,  6-C ) :   0.2117 B(  0-F ,  7-C ) :   0.1943
B(  1-F ,  7-C ) :   0.1975 B(  2-O ,  3-O ) :   0.1100 B(  2-O ,  6-C ) :   1.4802
B(  3-O ,  6-C ) :   0.6173 B(  3-O ,  8-H ) :   1.0054 B(  4-N ,  7-C ) :   0.8178
B(  4-N ,  9-H ) :   1.0405 B(  4-N , 10-H ) :   1.0496 B(  5-C ,  6-C ) :   0.7773
B(  5-C ,  7-C ) :   0.9925 B(  7-C , 11-H ) :   0.9020 B(  7-C , 12-H ) :   0.9307

MP2 TOTAL ENERGY:     -521.045343105 Eh
FINAL SINGLE POINT ENERGY      -521.045343105317

DIPOLE MOMENT
-------------
                                X             Y             Z
Electronic contribution:     -3.67999       2.46614       4.80795
Nuclear contribution   :      3.56919      -3.23506      -5.07384
                        -----------------------------------------
Total Dipole Moment    :     -0.11080      -0.76892      -0.26589
                        -----------------------------------------
Magnitude (a.u.)       :      0.82110
Magnitude (Debye)      :      2.08707

Rotational constants in cm-1:     0.107170     0.050752     0.047018
Rotational constants in MHz :  3212.881922  1521.504189  1409.550641

                             ****ORCA TERMINATED NORMALLY****
TOTAL RUN TIME: 0 days 0 hours 0 minutes 48 seconds 567 msec
