                         Program Version 5.0.3 -  RELEASE  -
|  1> !ri-mp2 aug-cc-pvdz aug-cc-pvdz/c tightscf
|  2> %pal nprocs 16 end
|  3>
|  4> * xyz 0 1
|  5> O    -2.290204   -0.882999   -0.151424
|  6> O     1.444926    1.959948    0.003154
|  7> O     2.919242   -0.207425   -0.239915
|  8> N    -0.081213   -1.807611    0.272914
|  9> N     1.538222   -0.300125   -0.183639
| 10> N     1.139137   -1.556445    0.277999
| 11> C    -0.561361    0.592228    0.420127
| 12> C    -0.879772   -0.732796   -0.252028
| 13> C    -1.815431    1.347987    0.067672
| 14> C     0.851036    0.905794    0.038355
| 15> C    -2.746502    0.420002   -0.163318
| 16> H    -0.516052    0.455732    1.514116
| 17> H    -0.629924   -0.648724   -1.323073
| 18> H    -1.972359    2.408820    0.151036
| 19> H    -3.804155    0.525826   -0.340190
| 20> H     3.069933    0.752129   -0.132165
| 21> *
| 22>
| 23>                          ****END OF INPUT****

CARTESIAN COORDINATES (ANGSTROEM)
---------------------------------
  O     -2.290204   -0.882999   -0.151424
  O      1.444926    1.959948    0.003154
  O      2.919242   -0.207425   -0.239915
  N     -0.081213   -1.807611    0.272914
  N      1.538222   -0.300125   -0.183639
  N      1.139137   -1.556445    0.277999
  C     -0.561361    0.592228    0.420127
  C     -0.879772   -0.732796   -0.252028
  C     -1.815431    1.347987    0.067672
  C      0.851036    0.905794    0.038355
  C     -2.746502    0.420002   -0.163318
  H     -0.516052    0.455732    1.514116
  H     -0.629924   -0.648724   -1.323073
  H     -1.972359    2.408820    0.151036
  H     -3.804155    0.525826   -0.340190
  H      3.069933    0.752129   -0.132165

 Total Charge           Charge          ....    0
 Multiplicity           Mult            ....    1
 Number of Electrons    NEL             ....   80
 Basis Dimension        Dim             ....  298

ORBITAL ENERGIES
----------------

  NO   OCC          E(Eh)            E(eV)
   0   2.0000     -20.643048      -561.7259
   1   2.0000     -20.632042      -561.4264
   2   2.0000     -20.596293      -560.4536
   3   2.0000     -15.720567      -427.7784
   4   2.0000     -15.711203      -427.5236
   5   2.0000     -15.664546      -426.2540
   6   2.0000     -11.417460      -310.6849
   7   2.0000     -11.365334      -309.2665
   8   2.0000     -11.336008      -308.4685
   9   2.0000     -11.300867      -307.5122
  10   2.0000     -11.270574      -306.6879
  11   2.0000      -1.519322       -41.3429
  12   2.0000      -1.465181       -39.8696
  13   2.0000      -1.434176       -39.0259
  14   2.0000      -1.409654       -38.3586
  15   2.0000      -1.191982       -32.4355
  16   2.0000      -1.144482       -31.1429
  17   2.0000      -1.078960       -29.3600
  18   2.0000      -0.946027       -25.7427
  19   2.0000      -0.933635       -25.4055
  20   2.0000      -0.828675       -22.5494
  21   2.0000      -0.805597       -21.9214
  22   2.0000      -0.775195       -21.0941
  23   2.0000      -0.762301       -20.7433
  24   2.0000      -0.719584       -19.5809
  25   2.0000      -0.691415       -18.8144
  26   2.0000      -0.667704       -18.1691
  27   2.0000      -0.659195       -17.9376
  28   2.0000      -0.634535       -17.2666
  29   2.0000      -0.621907       -16.9229
  30   2.0000      -0.598960       -16.2985
  31   2.0000      -0.589620       -16.0444
  32   2.0000      -0.584068       -15.8933
  33   2.0000      -0.560726       -15.2581
  34   2.0000      -0.545670       -14.8484
  35   2.0000      -0.520144       -14.1538
  36   2.0000      -0.484498       -13.1839
  37   2.0000      -0.449665       -12.2360
  38   2.0000      -0.399131       -10.8609
  39   2.0000      -0.374752       -10.1975
  40   0.0000       0.027951         0.7606
  41   0.0000       0.041229         1.1219
  42   0.0000       0.045260         1.2316
  43   0.0000       0.048134         1.3098
  44   0.0000       0.057581         1.5669

MULLIKEN ATOMIC CHARGES
-----------------------
   0 O :   -1.051922
   1 O :   -0.794998
   2 O :   -0.675401
   3 N :   -0.474899
   4 N :    0.084827
   5 N :   -0.152102
   6 C :   -0.128844
   7 C :    1.416004
   8 C :    0.496291
   9 C :    0.721756
  10 C :    0.920675
  11 H :   -0.002430
  12 H :    0.035757
  13 H :   -0.303003
  14 H :   -0.269694
  15 H :    0.177984
Sum of atomic charges:   -0.0000000

LOEWDIN ATOMIC CHARGES
----------------------
   0 O :    0.074105
   1 O :    0.078464
   2 O :    0.193458
   3 N :    0.075302
   4 N :   -0.130537
   5 N :    0.088510
   6 C :   -0.112132
   7 C :   -0.208569
   8 C :    0.077048
   9 C :   -0.234934
  10 C :    0.028154
  11 H :    0.073970
  12 H :    0.060270
  13 H :   -0.001950
  14 H :    0.007911
  15 H :   -0.069067

  Mayer bond orders larger than 0.100000
B(  0-O ,  7-C ) :   0.4871 B(  0-O ,  8-C ) :   0.2024 B(  0-O , 10-C ) :   0.4649
B(  0-O , 14-H ) :  -0.1155 B(  1-O ,  9-C ) :   1.3637 B(  2-O ,  4-N ) :   0.6583
B(  2-O ,  5-N ) :  -0.1061 B(  2-O ,  9-C ) :  -0.1312 B(  2-O , 15-H ) :   1.0551
B(  3-N ,  5-N ) :   1.1915 B(  3-N ,  7-C ) :   0.4646 B(  4-N ,  5-N ) :   0.8863
B(  4-N ,  9-C ) :   0.9363 B(  6-C ,  7-C ) :   1.0553 B(  6-C ,  8-C ) :   0.8740
B(  6-C ,  9-C ) :   0.5631 B(  6-C , 11-H ) :   0.8005 B(  7-C , 12-H ) :   0.7857
B(  8-C ,  9-C ) :   0.3331 B(  8-C , 10-C ) :   1.7560 B(  8-C , 13-H ) :   0.7341
B(  9-C , 13-H ) :   0.1069 B( 10-C , 14-H ) :   0.9161

MP2 TOTAL ENERGY:     -581.859026060 Eh
FINAL SINGLE POINT ENERGY      -581.859026059705

DIPOLE MOMENT
-------------
                                X             Y             Z
Electronic contribution:      2.63760      -2.47700       0.10708
Nuclear contribution   :     -3.68524       3.37660      -0.13003
                        -----------------------------------------
Total Dipole Moment    :     -1.04764       0.89959      -0.02294
                        -----------------------------------------
Magnitude (a.u.)       :      1.38107
Magnitude (Debye)      :      3.51040

Rotational constants in cm-1:     0.077108     0.033914     0.024328
Rotational constants in MHz :  2311.628119  1016.712307   729.330363

                             ****ORCA TERMINATED NORMALLY****
TOTAL RUN TIME: 0 days 0 hours 1 minutes 27 seconds 304 msec
