                         Program Version 5.0.3 -  RELEASE  -
|  1> !ri-mp2 aug-cc-pvdz aug-cc-pvdz/c tightscf
|  2> %pal nprocs 16 end
|  3>
|  4> * xyz 0 1
|  5> C      0.053087    2.127284    0.000000
|  6> H     -0.448036    2.532049    0.880290
|  7> H      1.086611    2.465817    0.000000
|  8> H     -0.448036    2.532049   -0.880290
|  9> C     -0.629178   -1.458575    0.000000
| 10> O      0.709685   -1.409033    0.000000
| 11> N      1.104596   -0.064916    0.000000
| 12> C      0.000000    0.635944    0.000000
| 13> C     -1.148537   -0.210735    0.000000
| 14> H     -2.184862    0.075240    0.000000
| 15> H     -1.067559   -2.441986    0.000000
| 16> *
| 17>
| 18>                          ****END OF INPUT****

CARTESIAN COORDINATES (ANGSTROEM)
---------------------------------
  C      0.053087    2.127284    0.000000
  H     -0.448036    2.532049    0.880290
  H      1.086611    2.465817    0.000000
  H     -0.448036    2.532049   -0.880290
  C     -0.629178   -1.458575    0.000000
  O      0.709685   -1.409033    0.000000
  N      1.104596   -0.064916    0.000000
  C      0.000000    0.635944    0.000000
  C     -1.148537   -0.210735    0.000000
  H     -2.184862    0.075240    0.000000
  H     -1.067559   -2.441986    0.000000

 Total Charge           Charge          ....    0
 Multiplicity           Mult            ....    1
 Number of Electrons    NEL             ....   44
 Basis Dimension        Dim             ....  183

ORBITAL ENERGIES
----------------

  NO   OCC          E(Eh)            E(eV)
   0   2.0000     -20.649940      -561.9134
   1   2.0000     -15.623408      -425.1346
   2   2.0000     -11.322647      -308.1049
   3   2.0000     -11.291962      -307.2699
   4   2.0000     -11.247523      -306.0607
   5   2.0000     -11.243476      -305.9505
   6   2.0000      -1.493147       -40.6306
   7   2.0000      -1.179335       -32.0913
   8   2.0000      -1.074039       -29.2261
   9   2.0000      -0.988969       -26.9112
  10   2.0000      -0.834146       -22.6983
  11   2.0000      -0.780077       -21.2270
  12   2.0000      -0.723544       -19.6886
  13   2.0000      -0.655910       -17.8482
  14   2.0000      -0.625214       -17.0129
  15   2.0000      -0.588899       -16.0248
  16   2.0000      -0.584557       -15.9066
  17   2.0000      -0.554860       -15.0985
  18   2.0000      -0.540093       -14.6967
  19   2.0000      -0.475701       -12.9445
  20   2.0000      -0.411471       -11.1967
  21   2.0000      -0.368198       -10.0192
  22   0.0000       0.030874         0.8401
  23   0.0000       0.038221         1.0401
  24   0.0000       0.050236         1.3670
  25   0.0000       0.055581         1.5124
  26   0.0000       0.070117         1.9080

MULLIKEN ATOMIC CHARGES
-----------------------
   0 C :    0.590275
   1 H :    0.076875
   2 H :   -0.109073
   3 H :    0.076875
   4 C :    0.826678
   5 O :   -0.875232
   6 N :   -0.293503
   7 C :   -0.195639
   8 C :    0.506634
   9 H :   -0.354487
  10 H :   -0.249403
Sum of atomic charges:    0.0000000

LOEWDIN ATOMIC CHARGES
----------------------
   0 C :    0.189894
   1 H :   -0.006828
   2 H :   -0.008569
   3 H :   -0.006828
   4 C :    0.019332
   5 O :    0.028381
   6 N :    0.062454
   7 C :   -0.312592
   8 C :    0.037639
   9 H :   -0.007105
  10 H :    0.004221

  Mayer bond orders larger than 0.100000
B(  0-C ,  1-H ) :   0.8521 B(  0-C ,  2-H ) :   0.7658 B(  0-C ,  3-H ) :   0.8521
B(  0-C ,  4-C ) :   0.1717 B(  0-C ,  7-C ) :   1.1723 B(  0-C ,  8-C ) :  -0.1499
B(  1-H ,  7-C ) :   0.1611 B(  2-H ,  7-C ) :   0.2469 B(  3-H ,  7-C ) :   0.1611
B(  4-C ,  5-O ) :   0.7310 B(  4-C ,  7-C ) :   0.1643 B(  4-C ,  8-C ) :   1.3873
B(  4-C , 10-H ) :   0.8947 B(  5-O ,  6-N ) :   0.6374 B(  6-N ,  7-C ) :   1.2700
B(  7-C ,  8-C ) :   1.2486 B(  7-C ,  9-H ) :   0.2098 B(  7-C , 10-H ) :   0.1276
B(  8-C ,  9-H ) :   0.6082 B(  8-C , 10-H ) :  -0.1391

MP2 TOTAL ENERGY:     -284.588034207 Eh
FINAL SINGLE POINT ENERGY      -284.588034206892

DIPOLE MOMENT
-------------
                                X             Y             Z
Electronic contribution:      1.73393      -4.76220      -0.00000
Nuclear contribution   :     -3.02755       5.11244       0.00000
                        -----------------------------------------
Total Dipole Moment    :     -1.29361       0.35024      -0.00000
                        -----------------------------------------
Magnitude (a.u.)       :      1.34019
Magnitude (Debye)      :      3.40649

Rotational constants in cm-1:     0.307800     0.117508     0.086404
Rotational constants in MHz :  9227.608890  3522.797127  2590.315141

                             ****ORCA TERMINATED NORMALLY****
TOTAL RUN TIME: 0 days 0 hours 0 minutes 35 seconds 20 msec
