                         Program Version 5.0.3 -  RELEASE  -
|  1> !ri-mp2 aug-cc-pvdz aug-cc-pvdz/c tightscf
|  2> %pal nprocs 16 end
|  3>
|  4> * xyz 0 1
|  5> S    -0.671855   -1.153928    0.660705
|  6> S    -2.102626   -0.073495   -0.487708
|  7> O     2.806302    0.706910    0.014558
|  8> O     1.840814   -1.023297   -0.999049
|  9> C     0.592505    0.197419    0.742618
| 10> C     1.861261   -0.020299   -0.114890
| 11> C    -0.080754    1.484200    0.342170
| 12> C    -1.272181    1.455845   -0.241430
| 13> H     0.997209   -1.505143   -0.912903
| 14> H     0.933145    0.237738    1.777666
| 15> H     0.468066    2.404340    0.484590
| 16> H    -1.788640    2.329941   -0.612187
| 17> *
| 18>
| 19>                          ****END OF INPUT****

CARTESIAN COORDINATES (ANGSTROEM)
---------------------------------
  S     -0.671855   -1.153928    0.660705
  S     -2.102626   -0.073495   -0.487708
  O      2.806302    0.706910    0.014558
  O      1.840814   -1.023297   -0.999049
  C      0.592505    0.197419    0.742618
  C      1.861261   -0.020299   -0.114890
  C     -0.080754    1.484200    0.342170
  C     -1.272181    1.455845   -0.241430
  H      0.997209   -1.505143   -0.912903
  H      0.933145    0.237738    1.777666
  H      0.468066    2.404340    0.484590
  H     -1.788640    2.329941   -0.612187

 Total Charge           Charge          ....    0
 Multiplicity           Mult            ....    1
 Number of Electrons    NEL             ....   76
 Basis Dimension        Dim             ....  228

ORBITAL ENERGIES
----------------

  NO   OCC          E(Eh)            E(eV)
   0   2.0000     -92.014958     -2503.8543
   1   2.0000     -92.014523     -2503.8425
   2   2.0000     -20.630582      -561.3867
   3   2.0000     -20.567142      -559.6604
   4   2.0000     -11.410484      -310.4950
   5   2.0000     -11.328967      -308.2769
   6   2.0000     -11.307678      -307.6976
   7   2.0000     -11.282686      -307.0175
   8   2.0000      -9.015268      -245.3179
   9   2.0000      -9.015120      -245.3139
  10   2.0000      -6.696985      -182.2342
  11   2.0000      -6.696701      -182.2265
  12   2.0000      -6.695510      -182.1941
  13   2.0000      -6.695305      -182.1885
  14   2.0000      -6.692963      -182.1248
  15   2.0000      -6.692764      -182.1194
  16   2.0000      -1.478435       -40.2303
  17   2.0000      -1.382931       -37.6315
  18   2.0000      -1.178640       -32.0724
  19   2.0000      -1.048393       -28.5282
  20   2.0000      -1.022426       -27.8216
  21   2.0000      -0.882019       -24.0010
  22   2.0000      -0.830033       -22.5863
  23   2.0000      -0.790885       -21.5211
  24   2.0000      -0.735812       -20.0225
  25   2.0000      -0.702729       -19.1222
  26   2.0000      -0.672478       -18.2991
  27   2.0000      -0.651615       -17.7313
  28   2.0000      -0.592789       -16.1306
  29   2.0000      -0.588947       -16.0261
  30   2.0000      -0.539244       -14.6736
  31   2.0000      -0.531762       -14.4700
  32   2.0000      -0.495777       -13.4908
  33   2.0000      -0.491260       -13.3679
  34   2.0000      -0.476168       -12.9572
  35   2.0000      -0.459109       -12.4930
  36   2.0000      -0.415722       -11.3124
  37   2.0000      -0.332229        -9.0404
  38   0.0000       0.030333         0.8254
  39   0.0000       0.036976         1.0062
  40   0.0000       0.049540         1.3481
  41   0.0000       0.054908         1.4941
  42   0.0000       0.059071         1.6074

MULLIKEN ATOMIC CHARGES
-----------------------
   0 S :    0.132581
   1 S :    0.159715
   2 O :   -0.748377
   3 O :   -0.692270
   4 C :   -0.116488
   5 C :    0.994369
   6 C :    0.546134
   7 C :    0.098955
   8 H :    0.268671
   9 H :    0.114537
  10 H :   -0.355493
  11 H :   -0.402334
Sum of atomic charges:    0.0000000

LOEWDIN ATOMIC CHARGES
----------------------
   0 S :    0.599062
   1 S :    0.550264
   2 O :    0.052024
   3 O :    0.205828
   4 C :   -0.402731
   5 C :   -0.367188
   6 C :   -0.108801
   7 C :   -0.366255
   8 H :   -0.128778
   9 H :    0.001951
  10 H :    0.007952
  11 H :   -0.043328

  Mayer bond orders larger than 0.100000
B(  0-S ,  1-S ) :   1.0161 B(  0-S ,  4-C ) :   0.8569 B(  0-S ,  9-H ) :  -0.1262
B(  1-S ,  4-C ) :  -0.1477 B(  1-S ,  7-C ) :   0.9631 B(  1-S , 11-H ) :  -0.1718
B(  2-O ,  5-C ) :   1.4876 B(  3-O ,  4-C ) :   0.1125 B(  3-O ,  5-C ) :   0.5114
B(  3-O ,  8-H ) :   0.9553 B(  4-C ,  5-C ) :   0.6993 B(  4-C ,  6-C ) :   1.0815
B(  4-C ,  7-C ) :  -0.1621 B(  4-C ,  9-H ) :   0.8747 B(  4-C , 10-H ) :  -0.1190
B(  5-C ,  6-C ) :   0.3175 B(  6-C ,  7-C ) :   2.1655 B(  6-C , 10-H ) :   0.7244
B(  6-C , 11-H ) :   0.2080 B(  7-C , 11-H ) :   0.7832

MP2 TOTAL ENERGY:    -1099.834360796 Eh
FINAL SINGLE POINT ENERGY     -1099.834360795953

DIPOLE MOMENT
-------------
                                X             Y             Z
Electronic contribution:     -2.04360      -3.18135      -0.34168
Nuclear contribution   :      0.74033       3.37081       0.68991
                        -----------------------------------------
Total Dipole Moment    :     -1.30327       0.18946       0.34824
                        -----------------------------------------
Magnitude (a.u.)       :      1.36223
Magnitude (Debye)      :      3.46252

Rotational constants in cm-1:     0.091321     0.036787     0.031178
Rotational constants in MHz :  2737.746821  1102.861138   934.702848

                             ****ORCA TERMINATED NORMALLY****
TOTAL RUN TIME: 0 days 0 hours 0 minutes 52 seconds 699 msec
