                         Program Version 5.0.3 -  RELEASE  -
|  1> !ri-mp2 aug-cc-pvdz aug-cc-pvdz/c tightscf
|  2> %pal nprocs 16 end
|  3>
|  4> * xyz 0 1
|  5> C     -0.101375   -1.193285    0.000050
|  6> H      0.073644   -1.818598    0.875674
|  7> H      0.073697   -1.818666   -0.875519
|  8> C     -1.534643   -0.600290   -0.000041
|  9> H     -2.112333   -0.914628    0.873359
| 10> H     -2.112265   -0.914644   -0.873479
| 11> C      2.169627   -0.018400   -0.000040
| 12> H      2.749486    0.894993   -0.000074
| 13> H      2.721180   -0.949106   -0.000022
| 14> C      0.834976    0.009041    0.000011
| 15> C     -1.306567    0.887577   -0.000018
| 16> H     -2.117586    1.602915   -0.000019
| 17> C     -0.007168    1.200885    0.000034
| 18> H      0.395073    2.204577    0.000103
| 19> *
| 20>
| 21>                          ****END OF INPUT****

CARTESIAN COORDINATES (ANGSTROEM)
---------------------------------
  C     -0.101375   -1.193285    0.000050
  H      0.073644   -1.818598    0.875674
  H      0.073697   -1.818666   -0.875519
  C     -1.534643   -0.600290   -0.000041
  H     -2.112333   -0.914628    0.873359
  H     -2.112265   -0.914644   -0.873479
  C      2.169627   -0.018400   -0.000040
  H      2.749486    0.894993   -0.000074
  H      2.721180   -0.949106   -0.000022
  C      0.834976    0.009041    0.000011
  C     -1.306567    0.887577   -0.000018
  H     -2.117586    1.602915   -0.000019
  C     -0.007168    1.200885    0.000034
  H      0.395073    2.204577    0.000103

 Total Charge           Charge          ....    0
 Multiplicity           Mult            ....    1
 Number of Electrons    NEL             ....   44
 Basis Dimension        Dim             ....  210

ORBITAL ENERGIES
----------------

  NO   OCC          E(Eh)            E(eV)
   0   2.0000     -11.242862      -305.9338
   1   2.0000     -11.240939      -305.8815
   2   2.0000     -11.235329      -305.7289
   3   2.0000     -11.231722      -305.6307
   4   2.0000     -11.231446      -305.6232
   5   2.0000     -11.215074      -305.1777
   6   2.0000      -1.148646       -31.2562
   7   2.0000      -1.018300       -27.7094
   8   2.0000      -0.976340       -26.5676
   9   2.0000      -0.876985       -23.8640
  10   2.0000      -0.768750       -20.9188
  11   2.0000      -0.715310       -19.4646
  12   2.0000      -0.666673       -18.1411
  13   2.0000      -0.625343       -17.0164
  14   2.0000      -0.591197       -16.0873
  15   2.0000      -0.548384       -14.9223
  16   2.0000      -0.514394       -13.9974
  17   2.0000      -0.513370       -13.9695
  18   2.0000      -0.495963       -13.4958
  19   2.0000      -0.469301       -12.7703
  20   2.0000      -0.423760       -11.5311
  21   2.0000      -0.304322        -8.2810
  22   0.0000       0.036148         0.9836
  23   0.0000       0.043137         1.1738
  24   0.0000       0.046536         1.2663
  25   0.0000       0.053025         1.4429
  26   0.0000       0.059796         1.6271

MULLIKEN ATOMIC CHARGES
-----------------------
   0 C :   -0.126443
   1 H :    0.004319
   2 H :    0.004356
   3 C :    0.499096
   4 H :   -0.031429
   5 H :   -0.031461
   6 C :    1.230209
   7 H :   -0.401057
   8 H :   -0.408598
   9 C :   -0.420537
  10 C :   -0.028206
  11 H :   -0.320206
  12 C :    0.513528
  13 H :   -0.483572
Sum of atomic charges:   -0.0000000

LOEWDIN ATOMIC CHARGES
----------------------
   0 C :    0.043452
   1 H :    0.016874
   2 H :    0.016874
   3 C :   -0.001135
   4 H :    0.009640
   5 H :    0.009641
   6 C :    0.197567
   7 H :   -0.044717
   8 H :   -0.041863
   9 C :   -0.263311
  10 C :    0.030430
  11 H :   -0.003926
  12 C :    0.026368
  13 H :    0.004104

  Mayer bond orders larger than 0.100000
B(  0-C ,  1-H ) :   0.7499 B(  0-C ,  2-H ) :   0.7498 B(  0-C ,  3-C ) :   1.1401
B(  0-C ,  9-C ) :   1.1779 B(  0-C , 10-C ) :   0.1423 B(  0-C , 12-C ) :  -0.2657
B(  0-C , 13-H ) :   0.1315 B(  1-H ,  2-H ) :  -0.1351 B(  1-H ,  9-C ) :   0.1764
B(  2-H ,  9-C ) :   0.1764 B(  3-C ,  4-H ) :   0.7522 B(  3-C ,  5-H ) :   0.7521
B(  3-C ,  9-C ) :  -0.1476 B(  3-C , 10-C ) :   1.2977 B(  3-C , 12-C ) :  -0.1767
B(  3-C , 13-H ) :  -0.1060 B(  4-H ,  5-H ) :  -0.1240 B(  6-C ,  7-H ) :   0.4148
B(  6-C ,  8-H ) :   0.4240 B(  6-C ,  9-C ) :   1.7561 B(  6-C , 10-C ) :   0.1347
B(  7-H ,  8-H ) :  -0.1604 B(  7-H ,  9-C ) :   0.4747 B(  7-H , 12-C ) :  -0.1270
B(  8-H ,  9-C ) :   0.2521 B(  9-C , 12-C ) :   1.2369 B(  9-C , 13-H ) :   0.3203
B( 10-C , 11-H ) :   0.7016 B( 10-C , 12-C ) :   2.0524 B( 10-C , 13-H ) :   0.1390
B( 11-H , 12-C ) :   0.1096 B( 12-C , 13-H ) :   0.1907

MP2 TOTAL ENERGY:     -232.688018880 Eh
FINAL SINGLE POINT ENERGY      -232.688018879825

DIPOLE MOMENT
-------------
                                X             Y             Z
Electronic contribution:     -0.02960       1.67685      -0.00000
Nuclear contribution   :     -0.33939      -1.76672       0.00002
                        -----------------------------------------
Total Dipole Moment    :     -0.36899      -0.08987       0.00002
                        -----------------------------------------
Magnitude (a.u.)       :      0.37977
Magnitude (Debye)      :      0.96531

Rotational constants in cm-1:     0.244975     0.115709     0.080915
Rotational constants in MHz :  7344.165373  3468.862663  2425.779657

                             ****ORCA TERMINATED NORMALLY****
TOTAL RUN TIME: 0 days 0 hours 0 minutes 37 seconds 680 msec
