                         Program Version 5.0.3 -  RELEASE  -
|  1> !ri-mp2 aug-cc-pvdz aug-cc-pvdz/c tightscf
|  2> %pal nprocs 16 end
|  3> %maxcore 3800
|  4>
|  5> * xyz 0 1
|  6> C     -3.309215   -0.035048   -0.489887
|  7> C     -2.671442    1.180652   -0.272279
|  8> C     -2.629106   -1.220002   -0.231542
|  9> C     -1.363124    1.208399    0.197144
| 10> C     -1.321483   -1.186224    0.237822
| 11> C     -0.666846    0.027201    0.456848
| 12> C      0.765821    0.059305    0.929966
| 13> C      1.782430   -0.026705   -0.220241
| 14> C      3.223262    0.025404    0.272641
| 15> O      4.180079   -0.117662   -0.774765
| 16> H     -4.328143   -0.059056   -0.851886
| 17> H     -3.193934    2.108670   -0.463436
| 18> H     -3.118515   -2.171659   -0.391314
| 19> H     -0.877699    2.161375    0.369864
| 20> H     -0.803093   -2.115354    0.441580
| 21> H      0.940283   -0.770099    1.620194
| 22> H      0.940705    0.977696    1.495854
| 23> H      1.606106    0.797260   -0.919162
| 24> H      1.631807   -0.951245   -0.781323
| 25> H      3.399381    0.953589    0.829929
| 26> H      3.418890   -0.803311    0.954619
| 27> H      4.081795    0.615535   -1.389632
| 28> *
| 29>
| 30>                          ****END OF INPUT****

CARTESIAN COORDINATES (ANGSTROEM)
---------------------------------
  C     -3.309215   -0.035048   -0.489887
  C     -2.671442    1.180652   -0.272279
  C     -2.629106   -1.220002   -0.231542
  C     -1.363124    1.208399    0.197144
  C     -1.321483   -1.186224    0.237822
  C     -0.666846    0.027201    0.456848
  C      0.765821    0.059305    0.929966
  C      1.782430   -0.026705   -0.220241
  C      3.223262    0.025404    0.272641
  O      4.180079   -0.117662   -0.774765
  H     -4.328143   -0.059056   -0.851886
  H     -3.193934    2.108670   -0.463436
  H     -3.118515   -2.171659   -0.391314
  H     -0.877699    2.161375    0.369864
  H     -0.803093   -2.115354    0.441580
  H      0.940283   -0.770099    1.620194
  H      0.940705    0.977696    1.495854
  H      1.606106    0.797260   -0.919162
  H      1.631807   -0.951245   -0.781323
  H      3.399381    0.953589    0.829929
  H      3.418890   -0.803311    0.954619
  H      4.081795    0.615535   -1.389632

 Total Charge           Charge          ....    0
 Multiplicity           Mult            ....    1
 Number of Electrons    NEL             ....   74
 Basis Dimension        Dim             ....  338

ORBITAL ENERGIES
----------------

  NO   OCC          E(Eh)            E(eV)
   0   2.0000     -20.566808      -559.6513
   1   2.0000     -11.281978      -306.9982
   2   2.0000     -11.246965      -306.0455
   3   2.0000     -11.241071      -305.8851
   4   2.0000     -11.240845      -305.8789
   5   2.0000     -11.239489      -305.8420
   6   2.0000     -11.237277      -305.7818
   7   2.0000     -11.237102      -305.7771
   8   2.0000     -11.236772      -305.7681
   9   2.0000     -11.232004      -305.6384
  10   2.0000      -1.360268       -37.0148
  11   2.0000      -1.161295       -31.6004
  12   2.0000      -1.079901       -29.3856
  13   2.0000      -1.017924       -27.6991
  14   2.0000      -1.013399       -27.5760
  15   2.0000      -0.919630       -25.0244
  16   2.0000      -0.834299       -22.7024
  17   2.0000      -0.830448       -22.5976
  18   2.0000      -0.794447       -21.6180
  19   2.0000      -0.700570       -19.0635
  20   2.0000      -0.690893       -18.8001
  21   2.0000      -0.650421       -17.6989
  22   2.0000      -0.636974       -17.3330
  23   2.0000      -0.617202       -16.7949
  24   2.0000      -0.605130       -16.4664
  25   2.0000      -0.587956       -15.9991
  26   2.0000      -0.579404       -15.7664
  27   2.0000      -0.558916       -15.2089
  28   2.0000      -0.523971       -14.2580
  29   2.0000      -0.512308       -13.9406
  30   2.0000      -0.496629       -13.5140
  31   2.0000      -0.486691       -13.2435
  32   2.0000      -0.484583       -13.1862
  33   2.0000      -0.471897       -12.8410
  34   2.0000      -0.439856       -11.9691
  35   2.0000      -0.337622        -9.1872
  36   2.0000      -0.327531        -8.9126
  37   0.0000       0.032786         0.8922
  38   0.0000       0.037781         1.0281
  39   0.0000       0.040777         1.1096
  40   0.0000       0.044965         1.2236
  41   0.0000       0.052686         1.4337

MULLIKEN ATOMIC CHARGES
-----------------------
   0 C :    0.527006
   1 C :    0.196923
   2 C :    0.159873
   3 C :    0.343985
   4 C :    0.328481
   5 C :    1.241440
   6 C :    0.336840
   7 C :    0.086429
   8 C :    1.133951
   9 O :   -0.715610
  10 H :   -0.445345
  11 H :   -0.456023
  12 H :   -0.456884
  13 H :   -0.645376
  14 H :   -0.660124
  15 H :   -0.200507
  16 H :   -0.214061
  17 H :   -0.214851
  18 H :   -0.151350
  19 H :   -0.134570
  20 H :   -0.195454
  21 H :    0.135227
Sum of atomic charges:   -0.0000000

LOEWDIN ATOMIC CHARGES
----------------------
   0 C :    0.003298
   1 C :    0.008401
   2 C :    0.009228
   3 C :    0.041642
   4 C :    0.043408
   5 C :   -0.180022
   6 C :    0.002774
   7 C :   -0.023088
   8 C :   -0.048700
   9 O :    0.110779
  10 H :   -0.002475
  11 H :   -0.000350
  12 H :    0.000023
  13 H :    0.005787
  14 H :    0.007612
  15 H :    0.020680
  16 H :    0.018336
  17 H :    0.016726
  18 H :    0.020854
  19 H :    0.005714
  20 H :    0.004734
  21 H :   -0.065362

  Mayer bond orders larger than 0.100000
B(  0-C ,  1-C ) :   1.8116 B(  0-C ,  2-C ) :   1.8137 B(  0-C ,  4-C ) :  -0.1051
B(  0-C ,  5-C ) :   0.2590 B(  0-C , 10-H ) :   0.2602 B(  0-C , 11-H ) :   0.1571
B(  0-C , 12-H ) :   0.1545 B(  1-C ,  3-C ) :   1.9070 B(  1-C ,  4-C ) :   0.1000
B(  1-C ,  5-C ) :  -0.4407 B(  1-C ,  6-C ) :   0.1774 B(  1-C , 10-H ) :   0.2420
B(  1-C , 11-H ) :   0.2155 B(  1-C , 13-H ) :   0.2910 B(  2-C ,  4-C ) :   2.0014
B(  2-C ,  5-C ) :  -0.4423 B(  2-C ,  6-C ) :   0.1762 B(  2-C , 10-H ) :   0.2435
B(  2-C , 12-H ) :   0.2098 B(  2-C , 14-H ) :   0.3362 B(  3-C ,  4-C ) :  -0.7708
B(  3-C ,  5-C ) :   1.7181 B(  3-C ,  6-C ) :  -0.2919 B(  3-C , 11-H ) :   0.3785
B(  3-C , 13-H ) :  -0.1784 B(  4-C ,  5-C ) :   1.6738 B(  4-C ,  6-C ) :  -0.3493
B(  4-C , 12-H ) :   0.3888 B(  4-C , 14-H ) :  -0.1996 B(  5-C ,  6-C ) :   1.4729
B(  5-C ,  7-C ) :  -0.1392 B(  5-C , 13-H ) :   0.5382 B(  5-C , 14-H ) :   0.5313
B(  5-C , 16-H ) :   0.1122 B(  5-C , 17-H ) :  -0.1076 B(  5-C , 18-H ) :  -0.1256
B(  6-C ,  7-C ) :   1.2183 B(  6-C , 15-H ) :   0.7491 B(  6-C , 16-H ) :   0.6850
B(  7-C ,  8-C ) :   1.1502 B(  7-C , 17-H ) :   0.7546 B(  7-C , 18-H ) :   0.7766
B(  8-C ,  9-O ) :   0.4292 B(  8-C , 19-H ) :   0.8798 B(  8-C , 20-H ) :   0.8854
B(  9-O , 21-H ) :   1.0786 B( 17-H , 18-H ) :  -0.1071

MP2 TOTAL ENERGY:     -424.169280787 Eh
FINAL SINGLE POINT ENERGY      -424.169280787363

DIPOLE MOMENT
-------------
                                X             Y             Z
Electronic contribution:     -4.26006      -0.28644      -0.83348
Nuclear contribution   :      3.84039       0.75670       0.92153
                        -----------------------------------------
Total Dipole Moment    :     -0.41967       0.47027       0.08805
                        -----------------------------------------
Magnitude (a.u.)       :      0.63641
Magnitude (Debye)      :      1.61764

Rotational constants in cm-1:     0.126068     0.018187     0.017220
Rotational constants in MHz :  3779.415276   545.219995   516.234938

                             ****ORCA TERMINATED NORMALLY****
TOTAL RUN TIME: 0 days 0 hours 1 minutes 48 seconds 127 msec
