                         Program Version 5.0.3 -  RELEASE  -
|  1> !ri-mp2 aug-cc-pvdz aug-cc-pvdz/c tightscf
|  2> %pal nprocs 16 end
|  3>
|  4> * xyz 0 1
|  5> F      2.284114   -0.947156   -0.058625
|  6> F      1.675956    1.135447   -0.349163
|  7> N      1.368083   -0.002087    0.430483
|  8> N     -3.383243   -0.343586   -0.277416
|  9> C      0.067845   -0.461845   -0.080232
| 10> C     -1.014437    0.516543    0.390152
| 11> C     -2.342864    0.043335    0.020269
| 12> H     -0.078651   -1.445718    0.361181
| 13> H      0.101207   -0.548538   -1.166096
| 14> H     -0.967408    0.631463    1.474281
| 15> H     -0.852917    1.499687   -0.051863
| 16> *
| 17>
| 18>                          ****END OF INPUT****

CARTESIAN COORDINATES (ANGSTROEM)
---------------------------------
  F      2.284114   -0.947156   -0.058625
  F      1.675956    1.135447   -0.349163
  N      1.368083   -0.002087    0.430483
  N     -3.383243   -0.343586   -0.277416
  C      0.067845   -0.461845   -0.080232
  C     -1.014437    0.516543    0.390152
  C     -2.342864    0.043335    0.020269
  H     -0.078651   -1.445718    0.361181
  H      0.101207   -0.548538   -1.166096
  H     -0.967408    0.631463    1.474281
  H     -0.852917    1.499687   -0.051863

 Total Charge           Charge          ....    0
 Multiplicity           Mult            ....    1
 Number of Electrons    NEL             ....   54
 Basis Dimension        Dim             ....  197

ORBITAL ENERGIES
----------------

  NO   OCC          E(Eh)            E(eV)
   0   2.0000     -26.368414      -717.5210
   1   2.0000     -26.366624      -717.4723
   2   2.0000     -15.802496      -430.0078
   3   2.0000     -15.601203      -424.5303
   4   2.0000     -11.330951      -308.3308
   5   2.0000     -11.319821      -308.0280
   6   2.0000     -11.303326      -307.5791
   7   2.0000      -1.704839       -46.3910
   8   2.0000      -1.620588       -44.0984
   9   2.0000      -1.249379       -33.9973
  10   2.0000      -1.208952       -32.8973
  11   2.0000      -1.076745       -29.2997
  12   2.0000      -0.926070       -25.1997
  13   2.0000      -0.791683       -21.5428
  14   2.0000      -0.785955       -21.3869
  15   2.0000      -0.766091       -20.8464
  16   2.0000      -0.717593       -19.5267
  17   2.0000      -0.705717       -19.2035
  18   2.0000      -0.685768       -18.6607
  19   2.0000      -0.651560       -17.7298
  20   2.0000      -0.635761       -17.2999
  21   2.0000      -0.608469       -16.5573
  22   2.0000      -0.584068       -15.8933
  23   2.0000      -0.571909       -15.5624
  24   2.0000      -0.504769       -13.7355
  25   2.0000      -0.482551       -13.1309
  26   2.0000      -0.480780       -13.0827
  27   0.0000       0.032030         0.8716
  28   0.0000       0.043628         1.1872
  29   0.0000       0.044572         1.2129
  30   0.0000       0.064835         1.7642
  31   0.0000       0.076917         2.0930

MULLIKEN ATOMIC CHARGES
-----------------------
   0 F :   -0.544132
   1 F :   -0.535240
   2 N :    0.385695
   3 N :   -0.319465
   4 C :    0.926846
   5 C :    0.434558
   6 C :   -0.185523
   7 H :   -0.161129
   8 H :   -0.124152
   9 H :    0.067426
  10 H :    0.055117
Sum of atomic charges:   -0.0000000

LOEWDIN ATOMIC CHARGES
----------------------
   0 F :    0.013031
   1 F :    0.004573
   2 N :   -0.033686
   3 N :    0.084082
   4 C :   -0.026168
   5 C :   -0.018385
   6 C :   -0.140779
   7 H :    0.027486
   8 H :    0.029472
   9 H :    0.033160
  10 H :    0.027213

  Mayer bond orders larger than 0.100000
B(  0-F ,  2-N ) :   0.5564 B(  1-F ,  2-N ) :   0.6218 B(  2-N ,  4-C ) :   0.7151
B(  3-N ,  6-C ) :   2.6930 B(  4-C ,  5-C ) :   1.2411 B(  4-C ,  7-H ) :   0.8568
B(  4-C ,  8-H ) :   0.8660 B(  5-C ,  6-C ) :   0.7535 B(  5-C ,  9-H ) :   0.8614
B(  5-C , 10-H ) :   0.8727

MP2 TOTAL ENERGY:     -424.769343473 Eh
FINAL SINGLE POINT ENERGY      -424.769343472898

DIPOLE MOMENT
-------------
                                X             Y             Z
Electronic contribution:      5.87080       0.24228      -0.61900
Nuclear contribution   :     -5.46926      -0.04885       0.97628
                        -----------------------------------------
Total Dipole Moment    :      0.40153       0.19343       0.35728
                        -----------------------------------------
Magnitude (a.u.)       :      0.57122
Magnitude (Debye)      :      1.45193

Rotational constants in cm-1:     0.256580     0.039170     0.035651
Rotational constants in MHz :  7692.064733  1174.279711  1068.781903

                             ****ORCA TERMINATED NORMALLY****
TOTAL RUN TIME: 0 days 0 hours 0 minutes 37 seconds 412 msec
