                         Program Version 5.0.3 -  RELEASE  -
|  1> !ri-mp2 aug-cc-pvdz aug-cc-pvdz/c tightscf
|  2> %pal nprocs 16 end
|  3>
|  4> * xyz 0 1
|  5> C      0.000000    0.000000   -0.952610
|  6> C      0.000001    1.139799    1.130184
|  7> C     -0.000001   -1.139799    1.130184
|  8> C      0.000000    1.209041   -0.263066
|  9> C      0.000000   -1.209041   -0.263066
| 10> C     -0.000008    2.530903   -0.981213
| 11> C      0.000008   -2.530903   -0.981213
| 12> N      0.000000    0.000000    1.817942
| 13> H      0.000000    0.000000   -2.037504
| 14> H      0.000003    2.053289    1.716116
| 15> H     -0.000003   -2.053289    1.716116
| 16> H      0.000077    3.361966   -0.277021
| 17> H      0.878860    2.634607   -1.620442
| 18> H     -0.878973    2.634672   -1.620300
| 19> H      0.878973   -2.634672   -1.620300
| 20> H     -0.000077   -3.361966   -0.277021
| 21> H     -0.878860   -2.634607   -1.620442
| 22> *
| 23>
| 24>                          ****END OF INPUT****

CARTESIAN COORDINATES (ANGSTROEM)
---------------------------------
  C      0.000000    0.000000   -0.952610
  C      0.000001    1.139799    1.130184
  C     -0.000001   -1.139799    1.130184
  C      0.000000    1.209041   -0.263066
  C      0.000000   -1.209041   -0.263066
  C     -0.000008    2.530903   -0.981213
  C      0.000008   -2.530903   -0.981213
  N      0.000000    0.000000    1.817942
  H      0.000000    0.000000   -2.037504
  H      0.000003    2.053289    1.716116
  H     -0.000003   -2.053289    1.716116
  H      0.000077    3.361966   -0.277021
  H      0.878860    2.634607   -1.620442
  H     -0.878973    2.634672   -1.620300
  H      0.878973   -2.634672   -1.620300
  H     -0.000077   -3.361966   -0.277021
  H     -0.878860   -2.634607   -1.620442

 Total Charge           Charge          ....    0
 Multiplicity           Mult            ....    1
 Number of Electrons    NEL             ....   58
 Basis Dimension        Dim             ....  265

ORBITAL ENERGIES
----------------

  NO   OCC          E(Eh)            E(eV)
   0   2.0000     -15.567512      -423.6135
   1   2.0000     -11.266876      -306.5873
   2   2.0000     -11.266854      -306.5867
   3   2.0000     -11.250710      -306.1474
   4   2.0000     -11.249199      -306.1063
   5   2.0000     -11.248702      -306.0927
   6   2.0000     -11.237128      -305.7778
   7   2.0000     -11.237127      -305.7778
   8   2.0000      -1.256790       -34.1990
   9   2.0000      -1.106092       -30.0983
  10   2.0000      -1.070784       -29.1375
  11   2.0000      -0.954406       -25.9707
  12   2.0000      -0.947362       -25.7790
  13   2.0000      -0.848547       -23.0901
  14   2.0000      -0.807319       -21.9683
  15   2.0000      -0.701529       -19.0896
  16   2.0000      -0.679091       -18.4790
  17   2.0000      -0.601756       -16.3746
  18   2.0000      -0.592115       -16.1123
  19   2.0000      -0.575611       -15.6632
  20   2.0000      -0.569370       -15.4933
  21   2.0000      -0.568550       -15.4710
  22   2.0000      -0.554206       -15.0807
  23   2.0000      -0.542470       -14.7614
  24   2.0000      -0.514692       -14.0055
  25   2.0000      -0.500627       -13.6228
  26   2.0000      -0.407369       -11.0851
  27   2.0000      -0.367321        -9.9953
  28   2.0000      -0.327449        -8.9103
  29   0.0000       0.032485         0.8840
  30   0.0000       0.037980         1.0335
  31   0.0000       0.045959         1.2506
  32   0.0000       0.049446         1.3455
  33   0.0000       0.055413         1.5079

MULLIKEN ATOMIC CHARGES
-----------------------
   0 C :   -0.467508
   1 C :    0.865124
   2 C :    0.865124
   3 C :    0.055534
   4 C :    0.055534
   5 C :    0.425977
   6 C :    0.425977
   7 N :   -0.826236
   8 H :   -0.641476
   9 H :   -0.426755
  10 H :   -0.426755
  11 H :   -0.154174
  12 H :    0.100937
  13 H :    0.100967
  14 H :    0.100967
  15 H :   -0.154174
  16 H :    0.100937
Sum of atomic charges:   -0.0000000

LOEWDIN ATOMIC CHARGES
----------------------
   0 C :    0.084167
   1 C :   -0.004550
   2 C :   -0.004550
   3 C :   -0.208191
   4 C :   -0.208191
   5 C :    0.173666
   6 C :    0.173666
   7 N :    0.035612
   8 H :    0.021028
   9 H :    0.002277
  10 H :    0.002277
  11 H :   -0.015607
  12 H :   -0.009000
  13 H :   -0.008998
  14 H :   -0.008998
  15 H :   -0.015607
  16 H :   -0.009000

  Mayer bond orders larger than 0.100000
B(  0-C ,  1-C ) :  -0.1632 B(  0-C ,  2-C ) :  -0.1632 B(  0-C ,  3-C ) :   1.3825
B(  0-C ,  4-C ) :   1.3825 B(  0-C ,  5-C ) :  -0.3796 B(  0-C ,  6-C ) :  -0.3796
B(  0-C ,  8-H ) :   0.1350 B(  0-C ,  9-H ) :   0.1486 B(  0-C , 10-H ) :   0.1486
B(  0-C , 12-H ) :  -0.1086 B(  0-C , 13-H ) :  -0.1085 B(  0-C , 14-H ) :  -0.1085
B(  0-C , 16-H ) :  -0.1086 B(  1-C ,  2-C ) :   0.1605 B(  1-C ,  3-C ) :   1.4502
B(  1-C ,  5-C ) :  -0.1711 B(  1-C ,  7-N ) :   1.3724 B(  1-C ,  9-H ) :   0.4599
B(  1-C , 11-H ) :  -0.1251 B(  2-C ,  4-C ) :   1.4502 B(  2-C ,  6-C ) :  -0.1711
B(  2-C ,  7-N ) :   1.3724 B(  2-C , 10-H ) :   0.4599 B(  2-C , 15-H ) :  -0.1251
B(  3-C ,  4-C ) :   0.3667 B(  3-C ,  5-C ) :   1.3920 B(  3-C ,  7-N ) :  -0.1204
B(  3-C ,  8-H ) :   0.2352 B(  3-C ,  9-H ) :   0.1423 B(  3-C , 11-H ) :   0.4056
B(  3-C , 12-H ) :   0.2210 B(  3-C , 13-H ) :   0.2210 B(  4-C ,  6-C ) :   1.3920
B(  4-C ,  7-N ) :  -0.1204 B(  4-C ,  8-H ) :   0.2352 B(  4-C , 10-H ) :   0.1423
B(  4-C , 14-H ) :   0.2210 B(  4-C , 15-H ) :   0.4056 B(  4-C , 16-H ) :   0.2210
B(  5-C , 11-H ) :   0.6211 B(  5-C , 12-H ) :   0.8785 B(  5-C , 13-H ) :   0.8786
B(  6-C , 14-H ) :   0.8786 B(  6-C , 15-H ) :   0.6211 B(  6-C , 16-H ) :   0.8785

MP2 TOTAL ENERGY:     -325.947854036 Eh
FINAL SINGLE POINT ENERGY      -325.947854035997

DIPOLE MOMENT
-------------
                                X             Y             Z
Electronic contribution:      0.00000       0.00000       4.64401
Nuclear contribution   :      0.00000      -0.00000      -5.72324
                        -----------------------------------------
Total Dipole Moment    :      0.00000       0.00000      -1.07923
                        -----------------------------------------
Magnitude (a.u.)       :      1.07923
Magnitude (Debye)      :      2.74319

Rotational constants in cm-1:     0.123634     0.059656     0.040847
Rotational constants in MHz :  3706.460206  1788.427767  1224.554712

                             ****ORCA TERMINATED NORMALLY****
TOTAL RUN TIME: 0 days 0 hours 1 minutes 0 seconds 295 msec
