                         Program Version 5.0.3 -  RELEASE  -
|  1> !ri-mp2 aug-cc-pvdz aug-cc-pvdz/c tightscf
|  2> %pal nprocs 16 end
|  3>
|  4> * xyz 0 1
|  5> S     -2.060348   -0.589692   -0.009626
|  6> S     -0.161916    1.601569    0.011242
|  7> N      3.126547   -0.356597    0.009543
|  8> C     -0.350403   -0.148815   -0.003521
|  9> C      0.655072   -1.051986   -0.012853
| 10> C      2.016548   -0.678636    0.001914
| 11> H      0.437308   -2.110497   -0.041709
| 12> H     -1.873141   -1.910659    0.164177
| 13> H      1.178921    1.603923   -0.128368
| 14> *
| 15>
| 16>                          ****END OF INPUT****

CARTESIAN COORDINATES (ANGSTROEM)
---------------------------------
  S     -2.060348   -0.589692   -0.009626
  S     -0.161916    1.601569    0.011242
  N      3.126547   -0.356597    0.009543
  C     -0.350403   -0.148815   -0.003521
  C      0.655072   -1.051986   -0.012853
  C      2.016548   -0.678636    0.001914
  H      0.437308   -2.110497   -0.041709
  H     -1.873141   -1.910659    0.164177
  H      1.178921    1.603923   -0.128368

 Total Charge           Charge          ....    0
 Multiplicity           Mult            ....    1
 Number of Electrons    NEL             ....   60
 Basis Dimension        Dim             ....  173

ORBITAL ENERGIES
----------------

  NO   OCC          E(Eh)            E(eV)
   0   2.0000     -92.013875     -2503.8248
   1   2.0000     -92.008155     -2503.6692
   2   2.0000     -15.591459      -424.2652
   3   2.0000     -11.367342      -309.3211
   4   2.0000     -11.296232      -307.3861
   5   2.0000     -11.292871      -307.2946
   6   2.0000      -9.016070      -245.3397
   7   2.0000      -9.010596      -245.1908
   8   2.0000      -6.698142      -182.2657
   9   2.0000      -6.696581      -182.2232
  10   2.0000      -6.694385      -182.1635
  11   2.0000      -6.692661      -182.1166
  12   2.0000      -6.691128      -182.0748
  13   2.0000      -6.688993      -182.0167
  14   2.0000      -1.237609       -33.6771
  15   2.0000      -1.167988       -31.7826
  16   2.0000      -1.025760       -27.9123
  17   2.0000      -1.012135       -27.5416
  18   2.0000      -0.824595       -22.4384
  19   2.0000      -0.720547       -19.6071
  20   2.0000      -0.688222       -18.7275
  21   2.0000      -0.576307       -15.6821
  22   2.0000      -0.568035       -15.4570
  23   2.0000      -0.553840       -15.0708
  24   2.0000      -0.524114       -14.2619
  25   2.0000      -0.517399       -14.0791
  26   2.0000      -0.486891       -13.2490
  27   2.0000      -0.475465       -12.9380
  28   2.0000      -0.405076       -11.0227
  29   2.0000      -0.349065        -9.4986
  30   0.0000       0.026585         0.7234
  31   0.0000       0.049394         1.3441
  32   0.0000       0.050749         1.3810
  33   0.0000       0.058167         1.5828
  34   0.0000       0.081348         2.2136

MULLIKEN ATOMIC CHARGES
-----------------------
   0 S :    0.133038
   1 S :    0.131339
   2 N :   -0.248116
   3 C :   -0.490476
   4 C :    1.594106
   5 C :   -0.917762
   6 H :   -0.489809
   7 H :    0.128484
   8 H :    0.159196
Sum of atomic charges:   -0.0000000

LOEWDIN ATOMIC CHARGES
----------------------
   0 S :    0.786237
   1 S :    0.809311
   2 N :    0.079042
   3 C :   -0.885378
   4 C :   -0.154585
   5 C :   -0.222018
   6 H :   -0.018521
   7 H :   -0.195332
   8 H :   -0.198757

  Mayer bond orders larger than 0.100000
B(  0-S ,  3-C ) :   1.0863 B(  0-S ,  7-H ) :   0.9315 B(  1-S ,  3-C ) :   1.0966
B(  1-S ,  8-H ) :   0.9098 B(  2-N ,  4-C ) :  -0.1336 B(  2-N ,  5-C ) :   2.6124
B(  3-C ,  4-C ) :   1.6145 B(  3-C ,  5-C ) :   0.1283 B(  3-C ,  6-H ) :   0.1617
B(  4-C ,  5-C ) :   0.1560 B(  4-C ,  6-H ) :   0.2748 B(  5-C ,  6-H ) :   0.2094

MP2 TOTAL ENERGY:     -965.698244456 Eh
FINAL SINGLE POINT ENERGY      -965.698244455880

DIPOLE MOMENT
-------------
                                X             Y             Z
Electronic contribution:     -1.14591       1.78745       0.00146
Nuclear contribution   :     -0.16346      -2.35645      -0.00567
                        -----------------------------------------
Total Dipole Moment    :     -1.30937      -0.56901      -0.00421
                        -----------------------------------------
Magnitude (a.u.)       :      1.42766
Magnitude (Debye)      :      3.62883

Rotational constants in cm-1:     0.134941     0.050380     0.036693
Rotational constants in MHz :  4045.442686  1510.350140  1100.016949

                             ****ORCA TERMINATED NORMALLY****
TOTAL RUN TIME: 0 days 0 hours 0 minutes 36 seconds 8 msec
