                         Program Version 5.0.3 -  RELEASE  -
|  1> !ri-mp2 aug-cc-pvdz aug-cc-pvdz/c tightscf
|  2> %pal nprocs 16 end
|  3>
|  4> * xyz 0 1
|  5> S     0.000000    0.000000    2.365328
|  6> S     0.000000    0.000000   -2.307684
|  7> N     0.000000    1.264006   -1.291328
|  8> N     0.000000   -1.264006   -1.291328
|  9> C     0.000000    0.729665   -0.053183
| 10> C     0.000000   -0.729665   -0.053183
| 11> C     0.000000    1.267958    1.226307
| 12> C     0.000000   -1.267958    1.226307
| 13> H     0.000000    2.296156    1.539395
| 14> H     0.000000   -2.296156    1.539395
| 15> *
| 16>
| 17>                          ****END OF INPUT****

CARTESIAN COORDINATES (ANGSTROEM)
---------------------------------
  S      0.000000    0.000000    2.365328
  S      0.000000    0.000000   -2.307684
  N      0.000000    1.264006   -1.291328
  N      0.000000   -1.264006   -1.291328
  C      0.000000    0.729665   -0.053183
  C      0.000000   -0.729665   -0.053183
  C      0.000000    1.267958    1.226307
  C      0.000000   -1.267958    1.226307
  H      0.000000    2.296156    1.539395
  H      0.000000   -2.296156    1.539395

 Total Charge           Charge          ....    0
 Multiplicity           Mult            ....    1
 Number of Electrons    NEL             ....   72
 Basis Dimension        Dim             ....  210

ORBITAL ENERGIES
----------------

  NO   OCC          E(Eh)            E(eV)
   0   2.0000     -92.082855     -2505.7019
   1   2.0000     -92.031864     -2504.3143
   2   2.0000     -15.624482      -425.1638
   3   2.0000     -15.624438      -425.1626
   4   2.0000     -11.300627      -307.5057
   5   2.0000     -11.299742      -307.4816
   6   2.0000     -11.285963      -307.1067
   7   2.0000     -11.285932      -307.1058
   8   2.0000      -9.076696      -246.9895
   9   2.0000      -9.032070      -245.7751
  10   2.0000      -6.758014      -183.8949
  11   2.0000      -6.756344      -183.8495
  12   2.0000      -6.755468      -183.8256
  13   2.0000      -6.713441      -182.6820
  14   2.0000      -6.712652      -182.6606
  15   2.0000      -6.711421      -182.6270
  16   2.0000      -1.349962       -36.7343
  17   2.0000      -1.196193       -32.5501
  18   2.0000      -1.185391       -32.2561
  19   2.0000      -1.013956       -27.5911
  20   2.0000      -0.992107       -26.9966
  21   2.0000      -0.856124       -23.2963
  22   2.0000      -0.798763       -21.7354
  23   2.0000      -0.775284       -21.0965
  24   2.0000      -0.674153       -18.3446
  25   2.0000      -0.642740       -17.4898
  26   2.0000      -0.621041       -16.8994
  27   2.0000      -0.575316       -15.6551
  28   2.0000      -0.562037       -15.2938
  29   2.0000      -0.512472       -13.9451
  30   2.0000      -0.495063       -13.4713
  31   2.0000      -0.483535       -13.1577
  32   2.0000      -0.472858       -12.8671
  33   2.0000      -0.454887       -12.3781
  34   2.0000      -0.352007        -9.5786
  35   2.0000      -0.299017        -8.1367
  36   0.0000      -0.003145        -0.0856
  37   0.0000       0.037360         1.0166
  38   0.0000       0.040767         1.1093
  39   0.0000       0.064536         1.7561
  40   0.0000       0.078206         2.1281

MULLIKEN ATOMIC CHARGES
-----------------------
   0 S :    1.037810
   1 S :    1.146307
   2 N :   -1.229831
   3 N :   -1.229831
   4 C :    0.243046
   5 C :    0.243046
   6 C :    0.206273
   7 C :    0.206273
   8 H :   -0.311546
   9 H :   -0.311546
Sum of atomic charges:   -0.0000000

LOEWDIN ATOMIC CHARGES
----------------------
   0 S :    1.028518
   1 S :    1.031541
   2 N :   -0.281805
   3 N :   -0.281805
   4 C :   -0.454962
   5 C :   -0.454962
   6 C :   -0.233549
   7 C :   -0.233549
   8 H :   -0.059713
   9 H :   -0.059713

  Mayer bond orders larger than 0.100000
B(  0-S ,  4-C ) :  -0.2759 B(  0-S ,  5-C ) :  -0.2759 B(  0-S ,  6-C ) :   1.2335
B(  0-S ,  7-C ) :   1.2335 B(  0-S ,  8-H ) :  -0.2107 B(  0-S ,  9-H ) :  -0.2107
B(  1-S ,  2-N ) :   1.1003 B(  1-S ,  3-N ) :   1.1003 B(  2-N ,  3-N ) :   0.1842
B(  2-N ,  4-C ) :   0.6101 B(  2-N ,  5-C ) :   0.1854 B(  3-N ,  4-C ) :   0.1854
B(  3-N ,  5-C ) :   0.6101 B(  4-C ,  5-C ) :   1.4991 B(  4-C ,  6-C ) :   1.6705
B(  4-C ,  8-H ) :   0.3826 B(  5-C ,  7-C ) :   1.6705 B(  5-C ,  9-H ) :   0.3826
B(  6-C ,  7-C ) :   0.5969 B(  6-C ,  8-H ) :   0.6960 B(  7-C ,  9-H ) :   0.6960

MP2 TOTAL ENERGY:    -1057.724906547 Eh
FINAL SINGLE POINT ENERGY     -1057.724906546516

DIPOLE MOMENT
-------------
                                X             Y             Z
Electronic contribution:     -0.00000      -0.00000      -2.35179
Nuclear contribution   :      0.00000       0.00000       2.91171
                        -----------------------------------------
Total Dipole Moment    :     -0.00000      -0.00000       0.55992
                        -----------------------------------------
Magnitude (a.u.)       :      0.55992
Magnitude (Debye)      :      1.42321

Rotational constants in cm-1:     0.157847     0.038512     0.030959
Rotational constants in MHz :  4732.129718  1154.571577   928.122933

                             ****ORCA TERMINATED NORMALLY****
TOTAL RUN TIME: 0 days 0 hours 0 minutes 43 seconds 86 msec
