                         Program Version 5.0.3 -  RELEASE  -
|  1> !ri-mp2 aug-cc-pvdz aug-cc-pvdz/c tightscf
|  2> %pal nprocs 16 end
|  3>
|  4> * xyz 0 1
|  5> O     -1.681498   -0.743311    0.000016
|  6> N     -0.355469   -1.123275    0.000007
|  7> N      2.897391    0.029139   -0.000024
|  8> C      0.323220    0.004011   -0.000002
|  9> C     -0.528654    1.144183    0.000000
| 10> C     -1.764853    0.597636    0.000012
| 11> C      1.747751   -0.010163   -0.000014
| 12> H     -0.247836    2.180702   -0.000006
| 13> H     -2.758422    1.010746    0.000018
| 14> *
| 15>
| 16>                          ****END OF INPUT****

CARTESIAN COORDINATES (ANGSTROEM)
---------------------------------
  O     -1.681498   -0.743311    0.000016
  N     -0.355469   -1.123275    0.000007
  N      2.897391    0.029139   -0.000024
  C      0.323220    0.004011   -0.000002
  C     -0.528654    1.144183    0.000000
  C     -1.764853    0.597636    0.000012
  C      1.747751   -0.010163   -0.000014
  H     -0.247836    2.180702   -0.000006
  H     -2.758422    1.010746    0.000018

 Total Charge           Charge          ....    0
 Multiplicity           Mult            ....    1
 Number of Electrons    NEL             ....   48
 Basis Dimension        Dim             ....  179

ORBITAL ENERGIES
----------------

  NO   OCC          E(Eh)            E(eV)
   0   2.0000     -20.698306      -563.2295
   1   2.0000     -15.681393      -426.7124
   2   2.0000     -15.614311      -424.8870
   3   2.0000     -11.357499      -309.0533
   4   2.0000     -11.352110      -308.9066
   5   2.0000     -11.311469      -307.8007
   6   2.0000     -11.286082      -307.1099
   7   2.0000      -1.545956       -42.0676
   8   2.0000      -1.260464       -34.2990
   9   2.0000      -1.212044       -32.9814
  10   2.0000      -1.119440       -30.4615
  11   2.0000      -0.931201       -25.3393
  12   2.0000      -0.876329       -23.8461
  13   2.0000      -0.793075       -21.5807
  14   2.0000      -0.698729       -19.0134
  15   2.0000      -0.693225       -18.8636
  16   2.0000      -0.649495       -17.6737
  17   2.0000      -0.612298       -16.6615
  18   2.0000      -0.584073       -15.8934
  19   2.0000      -0.542175       -14.7533
  20   2.0000      -0.530150       -14.4261
  21   2.0000      -0.494088       -13.4448
  22   2.0000      -0.439468       -11.9585
  23   2.0000      -0.404394       -11.0041
  24   0.0000       0.023238         0.6323
  25   0.0000       0.039724         1.0809
  26   0.0000       0.059132         1.6091
  27   0.0000       0.072385         1.9697
  28   0.0000       0.088169         2.3992

MULLIKEN ATOMIC CHARGES
-----------------------
   0 O :   -0.807663
   1 N :   -0.399288
   2 N :   -0.234784
   3 C :    1.360207
   4 C :    0.295300
   5 C :    0.827362
   6 C :   -0.494806
   7 H :   -0.343567
   8 H :   -0.202761
Sum of atomic charges:    0.0000000

LOEWDIN ATOMIC CHARGES
----------------------
   0 O :    0.051659
   1 N :    0.100134
   2 N :    0.107903
   3 C :   -0.297939
   4 C :    0.058296
   5 C :    0.048581
   6 C :   -0.084064
   7 H :    0.004663
   8 H :    0.010768

  Mayer bond orders larger than 0.100000
B(  0-O ,  1-N ) :   0.6687 B(  0-O ,  3-C ) :  -0.1370 B(  0-O ,  4-C ) :   0.2070
B(  0-O ,  5-C ) :   0.6765 B(  1-N ,  3-C ) :   1.0359 B(  1-N ,  6-C ) :   0.2674
B(  2-N ,  6-C ) :   2.6307 B(  3-C ,  4-C ) :   1.1790 B(  3-C ,  5-C ) :   0.1133
B(  3-C ,  7-H ) :   0.1870 B(  4-C ,  5-C ) :   1.5123 B(  4-C ,  6-C ) :   0.1382
B(  4-C ,  7-H ) :   0.6602 B(  4-C ,  8-H ) :  -0.1047 B(  5-C ,  8-H ) :   0.9084

MP2 TOTAL ENERGY:     -337.405622800 Eh
FINAL SINGLE POINT ENERGY      -337.405622799553

DIPOLE MOMENT
-------------
                                X             Y             Z
Electronic contribution:      1.34404      -1.77264      -0.00000
Nuclear contribution   :     -2.89192       3.04089       0.00001
                        -----------------------------------------
Total Dipole Moment    :     -1.54787       1.26825       0.00001
                        -----------------------------------------
Magnitude (a.u.)       :      2.00109
Magnitude (Debye)      :      5.08637

Rotational constants in cm-1:     0.322941     0.067162     0.055599
Rotational constants in MHz :  9681.540181  2013.477576  1666.826375

                             ****ORCA TERMINATED NORMALLY****
TOTAL RUN TIME: 0 days 0 hours 0 minutes 33 seconds 544 msec
