                         Program Version 5.0.3 -  RELEASE  -
|  1> !ri-mp2 aug-cc-pvdz aug-cc-pvdz/c tightscf
|  2> %pal nprocs 16 end
|  3>
|  4> * xyz 0 1
|  5> C     0.000000     0.000000    0.077636
|  6> C     0.000000     2.555166    0.122397
|  7> C     0.000000    -2.555166    0.122397
|  8> C     0.000000     1.291000   -0.726245
|  9> C     0.000000    -1.291000   -0.726245
| 10> O     0.000000     0.000000    1.288225
| 11> H     0.000000     3.442073   -0.511364
| 12> H    -0.876892     2.593353    0.767222
| 13> H     0.876892     2.593353    0.767222
| 14> H    -0.876892    -2.593353    0.767222
| 15> H     0.876892    -2.593353    0.767222
| 16> H     0.000000    -3.442073   -0.511364
| 17> H    -0.868213     1.265230   -1.392902
| 18> H     0.868213     1.265230   -1.392902
| 19> H     0.868213    -1.265230   -1.392902
| 20> H    -0.868213    -1.265230   -1.392902
| 21> *
| 22>
| 23>                          ****END OF INPUT****

CARTESIAN COORDINATES (ANGSTROEM)
---------------------------------
  C      0.000000    0.000000    0.077636
  C      0.000000    2.555166    0.122397
  C      0.000000   -2.555166    0.122397
  C      0.000000    1.291000   -0.726245
  C      0.000000   -1.291000   -0.726245
  O      0.000000    0.000000    1.288225
  H      0.000000    3.442073   -0.511364
  H     -0.876892    2.593353    0.767222
  H      0.876892    2.593353    0.767222
  H     -0.876892   -2.593353    0.767222
  H      0.876892   -2.593353    0.767222
  H      0.000000   -3.442073   -0.511364
  H     -0.868213    1.265230   -1.392902
  H      0.868213    1.265230   -1.392902
  H      0.868213   -1.265230   -1.392902
  H     -0.868213   -1.265230   -1.392902

 Total Charge           Charge          ....    0
 Multiplicity           Mult            ....    1
 Number of Electrons    NEL             ....   48
 Basis Dimension        Dim             ....  228

ORBITAL ENERGIES
----------------

  NO   OCC          E(Eh)            E(eV)
   0   2.0000     -20.553234      -559.2819
   1   2.0000     -11.332442      -308.3714
   2   2.0000     -11.243496      -305.9511
   3   2.0000     -11.243470      -305.9504
   4   2.0000     -11.222679      -305.3846
   5   2.0000     -11.222677      -305.3846
   6   2.0000      -1.390445       -37.8359
   7   2.0000      -1.070408       -29.1273
   8   2.0000      -1.037258       -28.2252
   9   2.0000      -0.917387       -24.9634
  10   2.0000      -0.845503       -23.0073
  11   2.0000      -0.727578       -19.7984
  12   2.0000      -0.665683       -18.1142
  13   2.0000      -0.645842       -17.5742
  14   2.0000      -0.616341       -16.7715
  15   2.0000      -0.605512       -16.4768
  16   2.0000      -0.561353       -15.2752
  17   2.0000      -0.523149       -14.2356
  18   2.0000      -0.522989       -14.2312
  19   2.0000      -0.509865       -13.8741
  20   2.0000      -0.506317       -13.7776
  21   2.0000      -0.489487       -13.3196
  22   2.0000      -0.483110       -13.1461
  23   2.0000      -0.404350       -11.0029
  24   0.0000       0.032206         0.8764
  25   0.0000       0.039839         1.0841
  26   0.0000       0.046302         1.2599
  27   0.0000       0.050405         1.3716
  28   0.0000       0.062240         1.6936

MULLIKEN ATOMIC CHARGES
-----------------------
   0 C :   -0.070575
   1 C :    0.540183
   2 C :    0.540183
   3 C :    0.126896
   4 C :    0.126896
   5 O :   -0.797643
   6 H :   -0.053044
   7 H :   -0.059827
   8 H :   -0.059827
   9 H :   -0.059827
  10 H :   -0.059827
  11 H :   -0.053044
  12 H :   -0.030136
  13 H :   -0.030136
  14 H :   -0.030136
  15 H :   -0.030136
Sum of atomic charges:   -0.0000000

LOEWDIN ATOMIC CHARGES
----------------------
   0 C :   -0.272751
   1 C :    0.140378
   2 C :    0.140378
   3 C :   -0.022722
   4 C :   -0.022722
   5 O :    0.055221
   6 H :   -0.019943
   7 H :   -0.014107
   8 H :   -0.014107
   9 H :   -0.014107
  10 H :   -0.014107
  11 H :   -0.019943
  12 H :    0.019634
  13 H :    0.019634
  14 H :    0.019634
  15 H :    0.019634

  Mayer bond orders larger than 0.100000
B(  0-C ,  3-C ) :   1.0606 B(  0-C ,  4-C ) :   1.0606 B(  0-C ,  5-O ) :   1.4371
B(  0-C , 12-H ) :   0.1167 B(  0-C , 13-H ) :   0.1167 B(  0-C , 14-H ) :   0.1167
B(  0-C , 15-H ) :   0.1167 B(  1-C ,  3-C ) :   1.1840 B(  1-C ,  6-H ) :   0.8807
B(  1-C ,  7-H ) :   0.9283 B(  1-C ,  8-H ) :   0.9283 B(  2-C ,  4-C ) :   1.1840
B(  2-C ,  9-H ) :   0.9283 B(  2-C , 10-H ) :   0.9283 B(  2-C , 11-H ) :   0.8807
B(  3-C , 12-H ) :   0.8254 B(  3-C , 13-H ) :   0.8254 B(  4-C , 14-H ) :   0.8254
B(  4-C , 15-H ) :   0.8254

MP2 TOTAL ENERGY:     -270.991097280 Eh
FINAL SINGLE POINT ENERGY      -270.991097279824

DIPOLE MOMENT
-------------
                                X             Y             Z
Electronic contribution:     -0.00000       0.00000       2.44917
Nuclear contribution   :      0.00000      -0.00000      -3.66846
                        -----------------------------------------
Total Dipole Moment    :     -0.00000       0.00000      -1.21930
                        -----------------------------------------
Magnitude (a.u.)       :      1.21930
Magnitude (Debye)      :      3.09921

Rotational constants in cm-1:     0.299027     0.064720     0.055350
Rotational constants in MHz :  8964.595379  1940.258696  1659.343732

                             ****ORCA TERMINATED NORMALLY****
TOTAL RUN TIME: 0 days 0 hours 0 minutes 46 seconds 23 msec
