                         Program Version 5.0.3 -  RELEASE  -
|  1> !ri-mp2 aug-cc-pvdz aug-cc-pvdz/c tightscf
|  2> %pal nprocs 16 end
|  3>
|  4> * xyz 0 1
|  5> C      2.222154   -0.206522   -0.305896
|  6> C      1.135350   -0.117984    0.450291
|  7> C     -0.025341    0.749869    0.122211
|  8> Cl    -1.546037   -0.242264   -0.108197
|  9> H      3.058152   -0.830798   -0.022178
| 10> H      2.314549    0.344401   -1.233886
| 11> H      1.060566   -0.687381    1.369728
| 12> H     -0.264925    1.439219    0.927711
| 13> H      0.121308    1.300880   -0.801666
| 14> *
| 15>
| 16>                          ****END OF INPUT****

CARTESIAN COORDINATES (ANGSTROEM)
---------------------------------
  C      2.222154   -0.206522   -0.305896
  C      1.135350   -0.117984    0.450291
  C     -0.025341    0.749869    0.122211
  Cl    -1.546037   -0.242264   -0.108197
  H      3.058152   -0.830798   -0.022178
  H      2.314549    0.344401   -1.233886
  H      1.060566   -0.687381    1.369728
  H     -0.264925    1.439219    0.927711
  H      0.121308    1.300880   -0.801666

 Total Charge           Charge          ....    0
 Multiplicity           Mult            ....    1
 Number of Electrons    NEL             ....   40
 Basis Dimension        Dim             ....  141

ORBITAL ENERGIES
----------------

  NO   OCC          E(Eh)            E(eV)
   0   2.0000    -104.820660     -2852.3152
   1   2.0000     -11.309762      -307.7543
   2   2.0000     -11.259115      -306.3761
   3   2.0000     -11.250151      -306.1322
   4   2.0000     -10.546452      -286.9835
   5   2.0000      -8.014009      -218.0723
   6   2.0000      -8.010917      -217.9881
   7   2.0000      -8.010846      -217.9862
   8   2.0000      -1.141163       -31.0526
   9   2.0000      -1.058299       -28.7978
  10   2.0000      -0.919932       -25.0326
  11   2.0000      -0.783947       -21.3323
  12   2.0000      -0.671575       -18.2745
  13   2.0000      -0.625774       -17.0282
  14   2.0000      -0.592414       -16.1204
  15   2.0000      -0.540907       -14.7188
  16   2.0000      -0.525123       -14.2893
  17   2.0000      -0.439200       -11.9512
  18   2.0000      -0.433920       -11.8076
  19   2.0000      -0.382513       -10.4087
  20   0.0000       0.035439         0.9643
  21   0.0000       0.045716         1.2440
  22   0.0000       0.046535         1.2663
  23   0.0000       0.064271         1.7489
  24   0.0000       0.069976         1.9042

MULLIKEN ATOMIC CHARGES
-----------------------
   0 C :    0.460371
   1 C :    0.714814
   2 C :   -0.194809
   3 Cl:   -0.153439
   4 H :   -0.260612
   5 H :   -0.266377
   6 H :   -0.326743
   7 H :    0.063749
   8 H :   -0.036954
Sum of atomic charges:   -0.0000000

LOEWDIN ATOMIC CHARGES
----------------------
   0 C :    0.171204
   1 C :   -0.136162
   2 C :   -0.308716
   3 Cl:    0.418062
   4 H :   -0.038175
   5 H :   -0.035763
   6 H :   -0.005444
   7 H :   -0.032715
   8 H :   -0.032292

  Mayer bond orders larger than 0.100000
B(  0-C ,  1-C ) :   1.9390 B(  0-C ,  4-H ) :   0.8145 B(  0-C ,  5-H ) :   0.9391
B(  1-C ,  2-C ) :   0.9054 B(  1-C ,  3-Cl) :  -0.1736 B(  1-C ,  6-H ) :   0.8850
B(  2-C ,  3-Cl) :   1.2003 B(  2-C ,  6-H ) :  -0.1523 B(  2-C ,  7-H ) :   0.9690
B(  2-C ,  8-H ) :   1.0056 B(  4-H ,  5-H ) :  -0.1737

MP2 TOTAL ENERGY:     -576.582861560 Eh
FINAL SINGLE POINT ENERGY      -576.582861559660

DIPOLE MOMENT
-------------
                                X             Y             Z
Electronic contribution:     -7.52908      -1.43908      -0.27899
Nuclear contribution   :      8.34562       1.87784       0.38727
                        -----------------------------------------
Total Dipole Moment    :      0.81654       0.43876       0.10828
                        -----------------------------------------
Magnitude (a.u.)       :      0.93326
Magnitude (Debye)      :      2.37216

Rotational constants in cm-1:     0.715377     0.091811     0.088994
Rotational constants in MHz : 21446.448656  2752.431201  2667.987821

                             ****ORCA TERMINATED NORMALLY****
TOTAL RUN TIME: 0 days 0 hours 0 minutes 28 seconds 445 msec
