                         Program Version 5.0.3 -  RELEASE  -
|  1> !ri-mp2 aug-cc-pvdz aug-cc-pvdz/c tightscf
|  2> %pal nprocs 16 end
|  3>
|  4> * xyz 0 1
|  5> O      0.891155   -0.824592    0.000333
|  6> O     -0.557923   -1.054738   -0.000461
|  7> N     -0.044878    1.222226   -0.000283
|  8> C      1.000131    0.519722   -0.000070
|  9> C     -1.143632    0.283846    0.000324
| 10> H      2.022843    0.872053   -0.000125
| 11> H     -1.756107    0.392727    0.898645
| 12> H     -1.757438    0.392866   -0.897042
| 13> *
| 14>
| 15>                          ****END OF INPUT****

CARTESIAN COORDINATES (ANGSTROEM)
---------------------------------
  O      0.891155   -0.824592    0.000333
  O     -0.557923   -1.054738   -0.000461
  N     -0.044878    1.222226   -0.000283
  C      1.000131    0.519722   -0.000070
  C     -1.143632    0.283846    0.000324
  H      2.022843    0.872053   -0.000125
  H     -1.756107    0.392727    0.898645
  H     -1.757438    0.392866   -0.897042

 Total Charge           Charge          ....    0
 Multiplicity           Mult            ....    1
 Number of Electrons    NEL             ....   38
 Basis Dimension        Dim             ....  142

ORBITAL ENERGIES
----------------

  NO   OCC          E(Eh)            E(eV)
   0   2.0000     -20.677259      -562.6568
   1   2.0000     -20.658516      -562.1468
   2   2.0000     -15.587548      -424.1587
   3   2.0000     -11.369567      -309.3816
   4   2.0000     -11.340911      -308.6019
   5   2.0000      -1.535340       -41.7787
   6   2.0000      -1.283376       -34.9224
   7   2.0000      -1.255695       -34.1692
   8   2.0000      -0.932634       -25.3783
   9   2.0000      -0.856956       -23.3189
  10   2.0000      -0.748677       -20.3725
  11   2.0000      -0.719918       -19.5900
  12   2.0000      -0.627048       -17.0628
  13   2.0000      -0.606800       -16.5119
  14   2.0000      -0.601113       -16.3571
  15   2.0000      -0.584695       -15.9104
  16   2.0000      -0.520147       -14.1539
  17   2.0000      -0.480151       -13.0656
  18   2.0000      -0.401911       -10.9366
  19   0.0000       0.034486         0.9384
  20   0.0000       0.044241         1.2039
  21   0.0000       0.053644         1.4597
  22   0.0000       0.088525         2.4089
  23   0.0000       0.094844         2.5808

MULLIKEN ATOMIC CHARGES
-----------------------
   0 O :   -0.450437
   1 O :   -0.564535
   2 N :   -0.684810
   3 C :    0.952511
   4 C :    1.116868
   5 H :   -0.095758
   6 H :   -0.136838
   7 H :   -0.137002
Sum of atomic charges:   -0.0000000

LOEWDIN ATOMIC CHARGES
----------------------
   0 O :    0.051073
   1 O :    0.031729
   2 N :    0.007252
   3 C :   -0.081284
   4 C :   -0.028077
   5 H :    0.017719
   6 H :    0.000798
   7 H :    0.000790

  Mayer bond orders larger than 0.100000
B(  0-O ,  1-O ) :   0.8207 B(  0-O ,  3-C ) :   0.6514 B(  1-O ,  4-C ) :   0.5391
B(  2-N ,  3-C ) :   1.8292 B(  2-N ,  4-C ) :   0.8786 B(  3-C ,  5-H ) :   1.0020
B(  4-C ,  6-H ) :   0.9690 B(  4-C ,  7-H ) :   0.9692

MP2 TOTAL ENERGY:     -282.402090956 Eh
FINAL SINGLE POINT ENERGY      -282.402090955985

DIPOLE MOMENT
-------------
                                X             Y             Z
Electronic contribution:      1.52007      -1.27304      -0.00090
Nuclear contribution   :     -1.45146       1.59749       0.00144
                        -----------------------------------------
Total Dipole Moment    :      0.06861       0.32445       0.00054
                        -----------------------------------------
Magnitude (a.u.)       :      0.33162
Magnitude (Debye)      :      0.84292

Rotational constants in cm-1:     0.299096     0.293192     0.152408
Rotational constants in MHz :  8966.668278  8789.679665  4569.078405

                             ****ORCA TERMINATED NORMALLY****
TOTAL RUN TIME: 0 days 0 hours 0 minutes 34 seconds 217 msec
