                         Program Version 5.0.3 -  RELEASE  -
|  1> !ri-mp2 aug-cc-pvdz aug-cc-pvdz/c tightscf
|  2> %pal nprocs 16 end
|  3>
|  4> * xyz 0 1
|  5> S      1.327006   -0.375637    0.105858
|  6> S     -0.627900   -1.176631   -0.128471
|  7> C      0.766846    1.280061   -0.119461
|  8> C     -1.496295    0.415715    0.204467
|  9> C     -0.535996    1.534602   -0.083959
| 10> H      1.537200    2.027810   -0.243628
| 11> H     -1.848317    0.454829    1.239330
| 12> H     -2.365633    0.428755   -0.452364
| 13> H     -0.916283    2.542633   -0.187804
| 14> *
| 15>
| 16>                          ****END OF INPUT****

CARTESIAN COORDINATES (ANGSTROEM)
---------------------------------
  S      1.327006   -0.375637    0.105858
  S     -0.627900   -1.176631   -0.128471
  C      0.766846    1.280061   -0.119461
  C     -1.496295    0.415715    0.204467
  C     -0.535996    1.534602   -0.083959
  H      1.537200    2.027810   -0.243628
  H     -1.848317    0.454829    1.239330
  H     -2.365633    0.428755   -0.452364
  H     -0.916283    2.542633   -0.187804

 Total Charge           Charge          ....    0
 Multiplicity           Mult            ....    1
 Number of Electrons    NEL             ....   54
 Basis Dimension        Dim             ....  159

ORBITAL ENERGIES
----------------

  NO   OCC          E(Eh)            E(eV)
   0   2.0000     -91.986265     -2503.0735
   1   2.0000     -91.980019     -2502.9036
   2   2.0000     -11.288948      -307.1879
   3   2.0000     -11.284169      -307.0579
   4   2.0000     -11.260415      -306.4115
   5   2.0000      -8.987220      -244.5547
   6   2.0000      -8.980302      -244.3665
   7   2.0000      -6.668923      -181.4706
   8   2.0000      -6.667593      -181.4344
   9   2.0000      -6.664866      -181.3602
  10   2.0000      -6.662026      -181.2830
  11   2.0000      -6.660510      -181.2417
  12   2.0000      -6.657881      -181.1702
  13   2.0000      -1.149133       -31.2695
  14   2.0000      -1.004788       -27.3417
  15   2.0000      -0.992966       -27.0200
  16   2.0000      -0.814711       -22.1694
  17   2.0000      -0.756997       -20.5989
  18   2.0000      -0.678266       -18.4566
  19   2.0000      -0.621704       -16.9174
  20   2.0000      -0.572317       -15.5735
  21   2.0000      -0.513261       -13.9665
  22   2.0000      -0.485535       -13.2121
  23   2.0000      -0.466089       -12.6829
  24   2.0000      -0.450156       -12.2494
  25   2.0000      -0.382338       -10.4040
  26   2.0000      -0.304046        -8.2735
  27   0.0000       0.032416         0.8821
  28   0.0000       0.042925         1.1680
  29   0.0000       0.052975         1.4415
  30   0.0000       0.055731         1.5165
  31   0.0000       0.071057         1.9336

MULLIKEN ATOMIC CHARGES
-----------------------
   0 S :    0.118278
   1 S :    0.288042
   2 C :   -0.012162
   3 C :   -0.243190
   4 C :    0.471499
   5 H :   -0.396643
   6 H :    0.035421
   7 H :    0.058514
   8 H :   -0.319758
Sum of atomic charges:   -0.0000000

LOEWDIN ATOMIC CHARGES
----------------------
   0 S :    0.507685
   1 S :    0.492623
   2 C :   -0.390086
   3 C :   -0.321217
   4 C :   -0.156498
   5 H :   -0.051706
   6 H :   -0.032769
   7 H :   -0.037659
   8 H :   -0.010372

  Mayer bond orders larger than 0.100000
B(  0-S ,  1-S ) :   0.9423 B(  0-S ,  2-C ) :   0.9381 B(  0-S ,  5-H ) :  -0.1507
B(  1-S ,  3-C ) :   1.1299 B(  1-S ,  4-C ) :  -0.1721 B(  2-C ,  4-C ) :   2.0746
B(  2-C ,  5-H ) :   0.8679 B(  3-C ,  4-C ) :   1.2579 B(  3-C ,  6-H ) :   0.8667
B(  3-C ,  7-H ) :   0.8479 B(  4-C ,  5-H ) :   0.1235 B(  4-C ,  6-H ) :   0.1464
B(  4-C ,  7-H ) :   0.1013 B(  4-C ,  8-H ) :   0.8130

MP2 TOTAL ENERGY:     -911.675959958 Eh
FINAL SINGLE POINT ENERGY      -911.675959957996

DIPOLE MOMENT
-------------
                                X             Y             Z
Electronic contribution:      3.03701      -4.41436      -0.26925
Nuclear contribution   :     -3.51853       5.35569       0.34676
                        -----------------------------------------
Total Dipole Moment    :     -0.48153       0.94133       0.07752
                        -----------------------------------------
Magnitude (a.u.)       :      1.06018
Magnitude (Debye)      :      2.69477

Rotational constants in cm-1:     0.149152     0.137775     0.073797
Rotational constants in MHz :  4471.458045  4130.380995  2212.392873

                             ****ORCA TERMINATED NORMALLY****
TOTAL RUN TIME: 0 days 0 hours 0 minutes 37 seconds 721 msec
