                         Program Version 5.0.3 -  RELEASE  -
|  1> !ri-mp2 aug-cc-pvdz aug-cc-pvdz/c tightscf
|  2> %pal nprocs 16 end
|  3>
|  4> * xyz 0 1
|  5> N     -1.199731   -1.156343        0.000000
|  6> C     -1.178706    0.173175        0.000000
|  7> C      0.000000    0.918177        0.000000
|  8> C      1.213975    0.242243        0.000000
|  9> C      1.190617   -1.143321        0.000000
| 10> C     -0.034471   -1.802433        0.000000
| 11> O      0.013506    2.282556        0.000000
| 12> H     -2.141010    0.679327        0.000000
| 13> H      2.140074    0.800041        0.000000
| 14> H      2.112543   -1.708300        0.000000
| 15> H     -0.081634   -2.884350        0.000000
| 16> H     -0.888395    2.620187        0.000000
| 17> *
| 18>
| 19>                          ****END OF INPUT****

CARTESIAN COORDINATES (ANGSTROEM)
---------------------------------
  N     -1.199731   -1.156343    0.000000
  C     -1.178706    0.173175    0.000000
  C      0.000000    0.918177    0.000000
  C      1.213975    0.242243    0.000000
  C      1.190617   -1.143321    0.000000
  C     -0.034471   -1.802433    0.000000
  O      0.013506    2.282556    0.000000
  H     -2.141010    0.679327    0.000000
  H      2.140074    0.800041    0.000000
  H      2.112543   -1.708300    0.000000
  H     -0.081634   -2.884350    0.000000
  H     -0.888395    2.620187    0.000000

 Total Charge           Charge          ....    0
 Multiplicity           Mult            ....    1
 Number of Electrons    NEL             ....   50
 Basis Dimension        Dim             ....  206

ORBITAL ENERGIES
----------------

  NO   OCC          E(Eh)            E(eV)
   0   2.0000     -20.611939      -560.8794
   1   2.0000     -15.581650      -423.9983
   2   2.0000     -11.317133      -307.9549
   3   2.0000     -11.280683      -306.9630
   4   2.0000     -11.274054      -306.7826
   5   2.0000     -11.259719      -306.3925
   6   2.0000     -11.254022      -306.2375
   7   2.0000      -1.422006       -38.6947
   8   2.0000      -1.265915       -34.4473
   9   2.0000      -1.092423       -29.7264
  10   2.0000      -1.032150       -28.0862
  11   2.0000      -0.881929       -23.9985
  12   2.0000      -0.859015       -23.3750
  13   2.0000      -0.755792       -20.5662
  14   2.0000      -0.713629       -19.4188
  15   2.0000      -0.678407       -18.4604
  16   2.0000      -0.617646       -16.8070
  17   2.0000      -0.606808       -16.5121
  18   2.0000      -0.592434       -16.1210
  19   2.0000      -0.578234       -15.7345
  20   2.0000      -0.541034       -14.7223
  21   2.0000      -0.525046       -14.2872
  22   2.0000      -0.422474       -11.4961
  23   2.0000      -0.382646       -10.4123
  24   2.0000      -0.330560        -8.9950
  25   0.0000       0.032138         0.8745
  26   0.0000       0.036977         1.0062
  27   0.0000       0.046430         1.2634
  28   0.0000       0.061118         1.6631
  29   0.0000       0.063177         1.7191

MULLIKEN ATOMIC CHARGES
-----------------------
   0 N :   -0.627146
   1 C :    0.668450
   2 C :    0.804907
   3 C :    0.301291
   4 C :    0.691590
   5 C :    0.424420
   6 O :   -0.882573
   7 H :   -0.398944
   8 H :   -0.409692
   9 H :   -0.402491
  10 H :   -0.331727
  11 H :    0.161915
Sum of atomic charges:    0.0000000

LOEWDIN ATOMIC CHARGES
----------------------
   0 N :    0.030580
   1 C :   -0.002462
   2 C :   -0.224824
   3 C :    0.062192
   4 C :    0.019354
   5 C :   -0.042519
   6 O :    0.182316
   7 H :    0.001595
   8 H :    0.014273
   9 H :    0.001393
  10 H :   -0.003775
  11 H :   -0.038123

  Mayer bond orders larger than 0.100000
B(  0-N ,  1-C ) :   1.3273 B(  0-N ,  5-C ) :   1.3152 B(  1-C ,  2-C ) :   1.3420
B(  1-C ,  3-C ) :   0.1934 B(  1-C ,  5-C ) :   0.1725 B(  1-C ,  7-H ) :   0.7100
B(  2-C ,  3-C ) :   1.6940 B(  2-C ,  8-H ) :   0.1677 B(  3-C ,  4-C ) :   1.5968
B(  3-C ,  5-C ) :   0.2368 B(  3-C ,  6-O ) :   0.1047 B(  3-C ,  8-H ) :   0.4484
B(  3-C ,  9-H ) :   0.1836 B(  4-C ,  5-C ) :   1.2314 B(  4-C ,  9-H ) :   0.5684
B(  5-C , 10-H ) :   0.8595 B(  6-O , 11-H ) :   1.0705

MP2 TOTAL ENERGY:     -322.632156106 Eh
FINAL SINGLE POINT ENERGY      -322.632156106187

DIPOLE MOMENT
-------------
                                X             Y             Z
Electronic contribution:     -0.85461       0.81606      -0.00000
Nuclear contribution   :      1.12046      -0.45806       0.00000
                        -----------------------------------------
Total Dipole Moment    :      0.26586       0.35800      -0.00000
                        -----------------------------------------
Magnitude (a.u.)       :      0.44592
Magnitude (Debye)      :      1.13344

Rotational constants in cm-1:     0.195751     0.089978     0.061643
Rotational constants in MHz :  5868.475855  2697.465034  1848.017471

                             ****ORCA TERMINATED NORMALLY****
TOTAL RUN TIME: 0 days 0 hours 0 minutes 41 seconds 151 msec
