                         Program Version 5.0.3 -  RELEASE  -
|  1> !ri-mp2 aug-cc-pvdz aug-cc-pvdz/c tightscf
|  2> %pal nprocs 16 end
|  3>
|  4> * xyz 0 1
|  5> S     -0.028479   -1.298792    0.113208
|  6> S     -1.706091   -0.067083   -0.155054
|  7> N      0.494117    1.411130    0.230341
|  8> N      2.316910   -0.066084   -0.430930
|  9> C      1.182581    0.157135    0.412230
| 10> C     -0.739922    1.410171   -0.021635
| 11> H      2.101161    0.113195   -1.403505
| 12> H      3.105494    0.503334   -0.149239
| 13> H      1.509307    0.087909    1.449130
| 14> H     -1.295978    2.330405   -0.166289
| 15> *
| 16>
| 17>                          ****END OF INPUT****

CARTESIAN COORDINATES (ANGSTROEM)
---------------------------------
  S     -0.028479   -1.298792    0.113208
  S     -1.706091   -0.067083   -0.155054
  N      0.494117    1.411130    0.230341
  N      2.316910   -0.066084   -0.430930
  C      1.182581    0.157135    0.412230
  C     -0.739922    1.410171   -0.021635
  H      2.101161    0.113195   -1.403505
  H      3.105494    0.503334   -0.149239
  H      1.509307    0.087909    1.449130
  H     -1.295978    2.330405   -0.166289

 Total Charge           Charge          ....    0
 Multiplicity           Mult            ....    1
 Number of Electrons    NEL             ....   62
 Basis Dimension        Dim             ....  182

ORBITAL ENERGIES
----------------

  NO   OCC          E(Eh)            E(eV)
   0   2.0000     -91.997961     -2503.3918
   1   2.0000     -91.980825     -2502.9255
   2   2.0000     -15.593512      -424.3210
   3   2.0000     -15.575266      -423.8245
   4   2.0000     -11.354989      -308.9850
   5   2.0000     -11.343792      -308.6803
   6   2.0000      -8.999779      -244.8964
   7   2.0000      -8.981531      -244.3999
   8   2.0000      -6.681364      -181.8091
   9   2.0000      -6.680076      -181.7741
  10   2.0000      -6.677456      -181.7028
  11   2.0000      -6.663184      -181.3145
  12   2.0000      -6.661387      -181.2656
  13   2.0000      -6.658950      -181.1992
  14   2.0000      -1.294772       -35.2325
  15   2.0000      -1.199270       -32.6338
  16   2.0000      -1.054381       -28.6912
  17   2.0000      -0.983595       -26.7650
  18   2.0000      -0.839204       -22.8359
  19   2.0000      -0.793859       -21.6020
  20   2.0000      -0.705035       -19.1850
  21   2.0000      -0.661575       -18.0024
  22   2.0000      -0.646164       -17.5830
  23   2.0000      -0.607824       -16.5397
  24   2.0000      -0.507452       -13.8085
  25   2.0000      -0.489003       -13.3064
  26   2.0000      -0.477284       -12.9875
  27   2.0000      -0.447610       -12.1801
  28   2.0000      -0.423843       -11.5334
  29   2.0000      -0.402943       -10.9646
  30   2.0000      -0.323516        -8.8033
  31   0.0000       0.034192         0.9304
  32   0.0000       0.040821         1.1108
  33   0.0000       0.049723         1.3530
  34   0.0000       0.066347         1.8054
  35   0.0000       0.072893         1.9835

MULLIKEN ATOMIC CHARGES
-----------------------
   0 S :    0.184169
   1 S :    0.152385
   2 N :   -0.460511
   3 N :   -0.391622
   4 C :    0.756401
   5 C :    0.115189
   6 H :    0.013400
   7 H :    0.004056
   8 H :   -0.171324
   9 H :   -0.202144
Sum of atomic charges:    0.0000000

LOEWDIN ATOMIC CHARGES
----------------------
   0 S :    0.478221
   1 S :    0.493081
   2 N :   -0.071939
   3 N :    0.150024
   4 C :   -0.512236
   5 C :   -0.401520
   6 H :   -0.042773
   7 H :   -0.039475
   8 H :   -0.012015
   9 H :   -0.041369

  Mayer bond orders larger than 0.100000
B(  0-S ,  1-S ) :   0.9725 B(  0-S ,  4-C ) :   1.0196 B(  1-S ,  5-C ) :   1.0248
B(  2-N ,  4-C ) :   0.7800 B(  2-N ,  5-C ) :   1.6864 B(  2-N ,  9-H ) :  -0.1119
B(  3-N ,  4-C ) :   0.9501 B(  3-N ,  6-H ) :   1.0425 B(  3-N ,  7-H ) :   1.0832
B(  4-C ,  5-C ) :  -0.1658 B(  4-C ,  8-H ) :   0.9574 B(  5-C ,  9-H ) :   1.0761

MP2 TOTAL ENERGY:     -982.938205727 Eh
FINAL SINGLE POINT ENERGY      -982.938205727357

DIPOLE MOMENT
-------------
                                X             Y             Z
Electronic contribution:     -5.15788      -2.25225       0.19383
Nuclear contribution   :      5.31883       2.98870      -0.26138
                        -----------------------------------------
Total Dipole Moment    :      0.16095       0.73644      -0.06755
                        -----------------------------------------
Magnitude (a.u.)       :      0.75685
Magnitude (Debye)      :      1.92375

Rotational constants in cm-1:     0.137342     0.075267     0.051825
Rotational constants in MHz :  4117.400030  2256.437220  1553.673367

                             ****ORCA TERMINATED NORMALLY****
TOTAL RUN TIME: 0 days 0 hours 0 minutes 39 seconds 248 msec
