                         Program Version 5.0.3 -  RELEASE  -
|  1> !ri-mp2 aug-cc-pvdz aug-cc-pvdz/c tightscf
|  2> %pal nprocs 16 end
|  3>
|  4> * xyz 0 1
|  5> C     -1.264788    1.284808    0.000000
|  6> H     -1.283550    1.930106    0.881130
|  7> H     -1.283550    1.930106   -0.881130
|  8> H     -2.179327    0.690156    0.000000
|  9> C      1.255285    1.225783    0.000000
| 10> H      2.138334    0.585269    0.000000
| 11> H      1.305127    1.868005   -0.882100
| 12> H      1.305127    1.868005    0.882100
| 13> C     -0.026045    0.399811    0.000000
| 14> C     -0.026045   -0.751630    1.036255
| 15> C     -0.026045   -0.751630   -1.036255
| 16> H      0.817961   -0.777877    1.729654
| 17> H      0.817961   -0.777877   -1.729654
| 18> H     -0.958286   -0.870369    1.595908
| 19> H     -0.958286   -0.870369   -1.595908
| 20> O      0.100540   -1.752252    0.000000
| 21> *
| 22>
| 23>                          ****END OF INPUT****

CARTESIAN COORDINATES (ANGSTROEM)
---------------------------------
  C     -1.264788    1.284808    0.000000
  H     -1.283550    1.930106    0.881130
  H     -1.283550    1.930106   -0.881130
  H     -2.179327    0.690156    0.000000
  C      1.255285    1.225783    0.000000
  H      2.138334    0.585269    0.000000
  H      1.305127    1.868005   -0.882100
  H      1.305127    1.868005    0.882100
  C     -0.026045    0.399811    0.000000
  C     -0.026045   -0.751630    1.036255
  C     -0.026045   -0.751630   -1.036255
  H      0.817961   -0.777877    1.729654
  H      0.817961   -0.777877   -1.729654
  H     -0.958286   -0.870369    1.595908
  H     -0.958286   -0.870369   -1.595908
  O      0.100540   -1.752252    0.000000

 Total Charge           Charge          ....    0
 Multiplicity           Mult            ....    1
 Number of Electrons    NEL             ....   48
 Basis Dimension        Dim             ....  228

ORBITAL ENERGIES
----------------

  NO   OCC          E(Eh)            E(eV)
   0   2.0000     -20.554320      -559.3115
   1   2.0000     -11.277817      -306.8850
   2   2.0000     -11.277817      -306.8850
   3   2.0000     -11.245662      -306.0100
   4   2.0000     -11.227706      -305.5214
   5   2.0000     -11.227008      -305.5024
   6   2.0000      -1.374741       -37.4086
   7   2.0000      -1.084204       -29.5027
   8   2.0000      -0.944051       -25.6889
   9   2.0000      -0.933708       -25.4075
  10   2.0000      -0.899106       -24.4659
  11   2.0000      -0.734295       -19.9812
  12   2.0000      -0.670210       -18.2373
  13   2.0000      -0.644814       -17.5463
  14   2.0000      -0.627066       -17.0633
  15   2.0000      -0.574296       -15.6274
  16   2.0000      -0.573418       -15.6035
  17   2.0000      -0.553537       -15.0625
  18   2.0000      -0.546791       -14.8789
  19   2.0000      -0.529392       -14.4055
  20   2.0000      -0.487109       -13.2549
  21   2.0000      -0.438522       -11.9328
  22   2.0000      -0.438254       -11.9255
  23   2.0000      -0.409373       -11.1396
  24   0.0000       0.034153         0.9293
  25   0.0000       0.045305         1.2328
  26   0.0000       0.046517         1.2658
  27   0.0000       0.049855         1.3566
  28   0.0000       0.064829         1.7641

MULLIKEN ATOMIC CHARGES
-----------------------
   0 C :    0.668543
   1 H :   -0.009708
   2 H :   -0.009708
   3 H :   -0.117670
   4 C :    0.683848
   5 H :   -0.114171
   6 H :   -0.020809
   7 H :   -0.020809
   8 C :   -1.987109
   9 C :    1.413758
  10 C :    1.413758
  11 H :   -0.202732
  12 H :   -0.202732
  13 H :   -0.245858
  14 H :   -0.245858
  15 O :   -1.002741
Sum of atomic charges:    0.0000000

LOEWDIN ATOMIC CHARGES
----------------------
   0 C :    0.172158
   1 H :   -0.007143
   2 H :   -0.007143
   3 H :   -0.010155
   4 C :    0.171156
   5 H :   -0.006261
   6 H :   -0.006857
   7 H :   -0.006857
   8 C :   -0.428475
   9 C :    0.059272
  10 C :    0.059272
  11 H :    0.004933
  12 H :    0.004933
  13 H :    0.005404
  14 H :    0.005404
  15 O :   -0.009641

  Mayer bond orders larger than 0.100000
B(  0-C ,  1-H ) :   0.8589 B(  0-C ,  2-H ) :   0.8589 B(  0-C ,  3-H ) :   0.7505
B(  0-C ,  8-C ) :   1.3942 B(  3-H ,  8-C ) :   0.2068 B(  4-C ,  5-H ) :   0.7696
B(  4-C ,  6-H ) :   0.8404 B(  4-C ,  7-H ) :   0.8404 B(  4-C ,  8-C ) :   1.4733
B(  5-H ,  8-C ) :   0.2298 B(  8-C ,  9-C ) :   0.9252 B(  8-C , 10-C ) :   0.9252
B(  8-C , 15-O ) :   0.6197 B(  9-C , 11-H ) :   0.8586 B(  9-C , 13-H ) :   0.8347
B(  9-C , 15-O ) :   0.3641 B( 10-C , 12-H ) :   0.8586 B( 10-C , 14-H ) :   0.8347
B( 10-C , 15-O ) :   0.3641 B( 11-H , 13-H ) :  -0.1332 B( 12-H , 14-H ) :  -0.1332

MP2 TOTAL ENERGY:     -270.949154809 Eh
FINAL SINGLE POINT ENERGY      -270.949154809147

DIPOLE MOMENT
-------------
                                X             Y             Z
Electronic contribution:      0.19608      -4.91379      -0.00000
Nuclear contribution   :     -0.28981       5.80603       0.00000
                        -----------------------------------------
Total Dipole Moment    :     -0.09373       0.89224      -0.00000
                        -----------------------------------------
Magnitude (a.u.)       :      0.89715
Magnitude (Debye)      :      2.28037

Rotational constants in cm-1:     0.172748     0.105009     0.094743
Rotational constants in MHz :  5178.849049  3148.093904  2840.326001

                             ****ORCA TERMINATED NORMALLY****
TOTAL RUN TIME: 0 days 0 hours 0 minutes 34 seconds 759 msec
