                         Program Version 5.0.3 -  RELEASE  -
|  1> !ri-mp2 aug-cc-pvdz aug-cc-pvdz/c tightscf
|  2> %pal nprocs 16 end
|  3>
|  4> * xyz 0 1
|  5> Cl     2.402272   -0.042853    0.000005
|  6> Cl    -0.367556    2.071610   -0.000009
|  7> O     -1.150299   -1.778024    0.000004
|  8> O     -2.691642   -0.125824   -0.000006
|  9> C      0.277438   -1.865987    0.000008
| 10> C      0.741846   -0.443903    0.000003
| 11> C     -0.314842    0.367425   -0.000002
| 12> C     -1.548384   -0.464123   -0.000002
| 13> H      0.604505   -2.409285   -0.888461
| 14> H      0.604501   -2.409278    0.888482
| 15> *
| 16>
| 17>                          ****END OF INPUT****

CARTESIAN COORDINATES (ANGSTROEM)
---------------------------------
  Cl     2.402272   -0.042853    0.000005
  Cl    -0.367556    2.071610   -0.000009
  O     -1.150299   -1.778024    0.000004
  O     -2.691642   -0.125824   -0.000006
  C      0.277438   -1.865987    0.000008
  C      0.741846   -0.443903    0.000003
  C     -0.314842    0.367425   -0.000002
  C     -1.548384   -0.464123   -0.000002
  H      0.604505   -2.409285   -0.888461
  H      0.604501   -2.409278    0.888482

 Total Charge           Charge          ....    0
 Multiplicity           Mult            ....    1
 Number of Electrons    NEL             ....   76
 Basis Dimension        Dim             ....  210

ORBITAL ENERGIES
----------------

  NO   OCC          E(Eh)            E(eV)
   0   2.0000    -104.892934     -2854.2818
   1   2.0000    -104.874247     -2853.7733
   2   2.0000     -20.641551      -561.6852
   3   2.0000     -20.577849      -559.9517
   4   2.0000     -11.420333      -310.7631
   5   2.0000     -11.365445      -309.2695
   6   2.0000     -11.350358      -308.8589
   7   2.0000     -11.344866      -308.7095
   8   2.0000     -10.618744      -288.9507
   9   2.0000     -10.600063      -288.4424
  10   2.0000      -8.086665      -220.0494
  11   2.0000      -8.082988      -219.9493
  12   2.0000      -8.082917      -219.9474
  13   2.0000      -8.068058      -219.5430
  14   2.0000      -8.064266      -219.4398
  15   2.0000      -8.064236      -219.4390
  16   2.0000      -1.492272       -40.6068
  17   2.0000      -1.401797       -38.1448
  18   2.0000      -1.238004       -33.6878
  19   2.0000      -1.175538       -31.9880
  20   2.0000      -1.076627       -29.2965
  21   2.0000      -1.010812       -27.5056
  22   2.0000      -0.840536       -22.8722
  23   2.0000      -0.801428       -21.8080
  24   2.0000      -0.722458       -19.6591
  25   2.0000      -0.718928       -19.5630
  26   2.0000      -0.671248       -18.2656
  27   2.0000      -0.653771       -17.7900
  28   2.0000      -0.599779       -16.3208
  29   2.0000      -0.599523       -16.3138
  30   2.0000      -0.590303       -16.0630
  31   2.0000      -0.572175       -15.5697
  32   2.0000      -0.515530       -14.0283
  33   2.0000      -0.501327       -13.6418
  34   2.0000      -0.494113       -13.4455
  35   2.0000      -0.482726       -13.1356
  36   2.0000      -0.463931       -12.6242
  37   2.0000      -0.392730       -10.6867
  38   0.0000       0.029841         0.8120
  39   0.0000       0.044775         1.2184
  40   0.0000       0.060820         1.6550
  41   0.0000       0.070009         1.9050
  42   0.0000       0.070789         1.9263

MULLIKEN ATOMIC CHARGES
-----------------------
   0 Cl:   -0.125610
   1 Cl:   -0.165162
   2 O :   -0.848381
   3 O :   -0.705576
   4 C :    0.979884
   5 C :   -0.175236
   6 C :    0.251624
   7 C :    0.769775
   8 H :    0.009342
   9 H :    0.009341
Sum of atomic charges:    0.0000000

LOEWDIN ATOMIC CHARGES
----------------------
   0 Cl:    0.650381
   1 Cl:    0.647663
   2 O :    0.089126
   3 O :    0.066566
   4 C :    0.007664
   5 C :   -0.598039
   6 C :   -0.567296
   7 C :   -0.340701
   8 H :    0.022318
   9 H :    0.022318

  Mayer bond orders larger than 0.100000
B(  0-Cl,  5-C ) :   0.9507 B(  0-Cl,  6-C ) :  -0.1631 B(  1-Cl,  5-C ) :  -0.1287
B(  1-Cl,  6-C ) :   0.9991 B(  2-O ,  4-C ) :   0.4780 B(  2-O ,  5-C ) :   0.1891
B(  2-O ,  7-C ) :   0.5303 B(  3-O ,  6-C ) :  -0.2901 B(  3-O ,  7-C ) :   1.7632
B(  4-C ,  5-C ) :   0.8901 B(  4-C ,  6-C ) :   0.3150 B(  4-C ,  8-H ) :   0.8873
B(  4-C ,  9-H ) :   0.8873 B(  5-C ,  6-C ) :   1.5914 B(  5-C ,  7-C ) :  -0.1618
B(  5-C ,  8-H ) :   0.1047 B(  5-C ,  9-H ) :   0.1047 B(  6-C ,  7-C ) :   0.8778
B(  8-H ,  9-H ) :  -0.1085

MP2 TOTAL ENERGY:    -1222.604873621 Eh
FINAL SINGLE POINT ENERGY     -1222.604873621191

DIPOLE MOMENT
-------------
                                X             Y             Z
Electronic contribution:      3.30890       6.60707      -0.00002
Nuclear contribution   :     -1.64465      -7.23263       0.00002
                        -----------------------------------------
Total Dipole Moment    :      1.66425      -0.62556       0.00001
                        -----------------------------------------
Magnitude (a.u.)       :      1.77793
Magnitude (Debye)      :      4.51914

Rotational constants in cm-1:     0.063775     0.043637     0.026036
Rotational constants in MHz :  1911.933449  1308.202021   780.554286

                             ****ORCA TERMINATED NORMALLY****
TOTAL RUN TIME: 0 days 0 hours 0 minutes 47 seconds 769 msec
