                         Program Version 5.0.3 -  RELEASE  -
|  1> !ri-mp2 aug-cc-pvdz aug-cc-pvdz/c tightscf
|  2> %pal nprocs 16 end
|  3>
|  4> * xyz 0 1
|  5> O     -0.697958   -1.455911    0.000000
|  6> C     -1.079484   -0.145052    0.000000
|  7> C      0.661528   -1.463672    0.000000
|  8> C      0.000000    0.676627    0.000000
|  9> C      1.141177   -0.197619    0.000000
| 10> C      0.006984    2.171398    0.000000
| 11> H     -2.139263    0.036670    0.000000
| 12> H      1.128523   -2.431792    0.000000
| 13> H      2.178895    0.090679    0.000000
| 14> H     -1.007010    2.569914    0.000000
| 15> H      0.520643    2.565867    0.878993
| 16> H      0.520643    2.565867   -0.878993
| 17> *
| 18>
| 19>                          ****END OF INPUT****

CARTESIAN COORDINATES (ANGSTROEM)
---------------------------------
  O     -0.697958   -1.455911    0.000000
  C     -1.079484   -0.145052    0.000000
  C      0.661528   -1.463672    0.000000
  C      0.000000    0.676627    0.000000
  C      1.141177   -0.197619    0.000000
  C      0.006984    2.171398    0.000000
  H     -2.139263    0.036670    0.000000
  H      1.128523   -2.431792    0.000000
  H      2.178895    0.090679    0.000000
  H     -1.007010    2.569914    0.000000
  H      0.520643    2.565867    0.878993
  H      0.520643    2.565867   -0.878993

 Total Charge           Charge          ....    0
 Multiplicity           Mult            ....    1
 Number of Electrons    NEL             ....   44
 Basis Dimension        Dim             ....  192

ORBITAL ENERGIES
----------------

  NO   OCC          E(Eh)            E(eV)
   0   2.0000     -20.625903      -561.2593
   1   2.0000     -11.292496      -307.2844
   2   2.0000     -11.283245      -307.0327
   3   2.0000     -11.238859      -305.8249
   4   2.0000     -11.235644      -305.7374
   5   2.0000     -11.230680      -305.6023
   6   2.0000      -1.456640       -39.6372
   7   2.0000      -1.101178       -29.9646
   8   2.0000      -1.015346       -27.6290
   9   2.0000      -0.949386       -25.8341
  10   2.0000      -0.795833       -21.6557
  11   2.0000      -0.770420       -20.9642
  12   2.0000      -0.713781       -19.4230
  13   2.0000      -0.631604       -17.1868
  14   2.0000      -0.606286       -16.4979
  15   2.0000      -0.584475       -15.9044
  16   2.0000      -0.569254       -15.4902
  17   2.0000      -0.563525       -15.3343
  18   2.0000      -0.541590       -14.7374
  19   2.0000      -0.507238       -13.8026
  20   2.0000      -0.383012       -10.4223
  21   2.0000      -0.314406        -8.5554
  22   0.0000       0.035740         0.9725
  23   0.0000       0.041012         1.1160
  24   0.0000       0.045249         1.2313
  25   0.0000       0.057617         1.5678
  26   0.0000       0.058911         1.6030

MULLIKEN ATOMIC CHARGES
-----------------------
   0 O :   -0.829475
   1 C :    0.946334
   2 C :    0.568945
   3 C :   -0.462776
   4 C :    0.375350
   5 C :    0.434746
   6 H :   -0.367036
   7 H :   -0.296878
   8 H :   -0.401516
   9 H :   -0.095804
  10 H :    0.064055
  11 H :    0.064055
Sum of atomic charges:   -0.0000000

LOEWDIN ATOMIC CHARGES
----------------------
   0 O :    0.062860
   1 C :    0.044507
   2 C :    0.010275
   3 C :   -0.257323
   4 C :    0.028862
   5 C :    0.169775
   6 H :   -0.006544
   7 H :   -0.009828
   8 H :   -0.005017
   9 H :   -0.014052
  10 H :   -0.011757
  11 H :   -0.011757

  Mayer bond orders larger than 0.100000
B(  0-O ,  1-C ) :   0.3875 B(  0-O ,  2-C ) :   0.5810 B(  0-O ,  3-C ) :   0.2908
B(  1-C ,  3-C ) :   1.6565 B(  1-C ,  4-C ) :  -0.1158 B(  1-C ,  5-C ) :  -0.1436
B(  1-C ,  6-H ) :   0.7993 B(  2-C ,  3-C ) :   0.1379 B(  2-C ,  4-C ) :   1.5272
B(  2-C ,  7-H ) :   1.0070 B(  3-C ,  4-C ) :   1.5782 B(  3-C ,  5-C ) :   1.3770
B(  3-C ,  7-H ) :   0.1152 B(  3-C ,  8-H ) :   0.2357 B(  3-C ,  9-H ) :   0.2099
B(  3-C , 10-H ) :   0.2030 B(  3-C , 11-H ) :   0.2030 B(  4-C ,  5-C ) :  -0.3195
B(  4-C ,  7-H ) :  -0.2027 B(  4-C ,  8-H ) :   0.5304 B(  5-C ,  9-H ) :   0.8086
B(  5-C , 10-H ) :   0.8367 B(  5-C , 11-H ) :   0.8367

MP2 TOTAL ENERGY:     -268.582410836 Eh
FINAL SINGLE POINT ENERGY      -268.582410835986

DIPOLE MOMENT
-------------
                                X             Y             Z
Electronic contribution:     -0.97165      -5.02125      -0.00000
Nuclear contribution   :      1.19917       5.40916       0.00000
                        -----------------------------------------
Total Dipole Moment    :      0.22752       0.38791      -0.00000
                        -----------------------------------------
Magnitude (a.u.)       :      0.44971
Magnitude (Debye)      :      1.14308

Rotational constants in cm-1:     0.298572     0.112665     0.083054
Rotational constants in MHz :  8950.969867  3377.604937  2489.895007

                             ****ORCA TERMINATED NORMALLY****
TOTAL RUN TIME: 0 days 0 hours 0 minutes 42 seconds 890 msec
