                         Program Version 5.0.3 -  RELEASE  -
|  1> !ri-mp2 aug-cc-pvdz aug-cc-pvdz/c tightscf
|  2> %pal nprocs 16 end
|  3>
|  4> * xyz 0 1
|  5> N      2.719618    0.153377   -0.188334
|  6> C      1.682004   -0.289004    0.037142
|  7> C      0.346430   -0.814715    0.299669
|  8> C     -0.763293    0.051501   -0.329333
|  9> C     -2.127718   -0.576818   -0.072382
| 10> N     -0.717065    1.384780    0.269645
| 11> H      0.293437   -1.831487   -0.093339
| 12> H      0.196590   -0.861421    1.380188
| 13> H     -0.587244    0.069181   -1.413475
| 14> H     -2.916735    0.027258   -0.522652
| 15> H     -2.188243   -1.576132   -0.504413
| 16> H     -2.323569   -0.642517    0.998642
| 17> H      0.153061    1.858327    0.055880
| 18> H     -1.469698    1.963912   -0.080591
| 19> *
| 20>
| 21>                          ****END OF INPUT****

CARTESIAN COORDINATES (ANGSTROEM)
---------------------------------
  N      2.719618    0.153377   -0.188334
  C      1.682004   -0.289004    0.037142
  C      0.346430   -0.814715    0.299669
  C     -0.763293    0.051501   -0.329333
  C     -2.127718   -0.576818   -0.072382
  N     -0.717065    1.384780    0.269645
  H      0.293437   -1.831487   -0.093339
  H      0.196590   -0.861421    1.380188
  H     -0.587244    0.069181   -1.413475
  H     -2.916735    0.027258   -0.522652
  H     -2.188243   -1.576132   -0.504413
  H     -2.323569   -0.642517    0.998642
  H      0.153061    1.858327    0.055880
  H     -1.469698    1.963912   -0.080591

 Total Charge           Charge          ....    0
 Multiplicity           Mult            ....    1
 Number of Electrons    NEL             ....   46
 Basis Dimension        Dim             ....  210

ORBITAL ENERGIES
----------------

  NO   OCC          E(Eh)            E(eV)
   0   2.0000     -15.579342      -423.9354
   1   2.0000     -15.563522      -423.5050
   2   2.0000     -11.291608      -307.2603
   3   2.0000     -11.284802      -307.0751
   4   2.0000     -11.282258      -307.0058
   5   2.0000     -11.240565      -305.8713
   6   2.0000      -1.230907       -33.4947
   7   2.0000      -1.206567       -32.8324
   8   2.0000      -1.062805       -28.9204
   9   2.0000      -0.988434       -26.8967
  10   2.0000      -0.826571       -22.4921
  11   2.0000      -0.706498       -19.2248
  12   2.0000      -0.685740       -18.6599
  13   2.0000      -0.677548       -18.4370
  14   2.0000      -0.597161       -16.2496
  15   2.0000      -0.583037       -15.8652
  16   2.0000      -0.560013       -15.2387
  17   2.0000      -0.540566       -14.7095
  18   2.0000      -0.529046       -14.3961
  19   2.0000      -0.522873       -14.2281
  20   2.0000      -0.460163       -12.5217
  21   2.0000      -0.458242       -12.4694
  22   2.0000      -0.407201       -11.0805
  23   0.0000       0.029620         0.8060
  24   0.0000       0.040522         1.1026
  25   0.0000       0.044663         1.2154
  26   0.0000       0.049752         1.3538
  27   0.0000       0.065193         1.7740

MULLIKEN ATOMIC CHARGES
-----------------------
   0 N :   -0.341108
   1 C :   -0.174855
   2 C :    0.817936
   3 C :   -0.415652
   4 C :    0.798272
   5 N :   -0.309444
   6 H :   -0.002376
   7 H :   -0.022072
   8 H :   -0.191910
   9 H :   -0.077387
  10 H :   -0.056982
  11 H :    0.008988
  12 H :   -0.001420
  13 H :   -0.031990
Sum of atomic charges:   -0.0000000

LOEWDIN ATOMIC CHARGES
----------------------
   0 N :    0.073436
   1 C :   -0.146707
   2 C :   -0.004194
   3 C :   -0.292216
   4 C :    0.170427
   5 N :    0.210713
   6 H :    0.031133
   7 H :    0.035053
   8 H :    0.039051
   9 H :   -0.012118
  10 H :   -0.010337
  11 H :   -0.004990
  12 H :   -0.045810
  13 H :   -0.043443

  Mayer bond orders larger than 0.100000
B(  0-N ,  1-C ) :   2.7215 B(  0-N ,  2-C ) :  -0.1041 B(  1-C ,  2-C ) :   0.6707
B(  2-C ,  3-C ) :   1.2712 B(  2-C ,  4-C ) :  -0.1068 B(  2-C ,  6-H ) :   0.7441
B(  2-C ,  7-H ) :   0.8287 B(  3-C ,  4-C ) :   1.3144 B(  3-C ,  5-N ) :   0.7172
B(  3-C ,  6-H ) :   0.1201 B(  3-C ,  7-H ) :   0.1488 B(  3-C ,  8-H ) :   0.7228
B(  3-C ,  9-H ) :   0.1626 B(  3-C , 10-H ) :   0.1046 B(  4-C ,  9-H ) :   0.8558
B(  4-C , 10-H ) :   0.8038 B(  4-C , 11-H ) :   0.8879 B(  5-N , 12-H ) :   1.0194
B(  5-N , 13-H ) :   1.0263

MP2 TOTAL ENERGY:     -265.974608336 Eh
FINAL SINGLE POINT ENERGY      -265.974608336016

DIPOLE MOMENT
-------------
                                X             Y             Z
Electronic contribution:      7.46615       0.56064      -0.04272
Nuclear contribution   :     -9.06887      -1.01039      -0.18412
                        -----------------------------------------
Total Dipole Moment    :     -1.60272      -0.44976      -0.22683
                        -----------------------------------------
Magnitude (a.u.)       :      1.68001
Magnitude (Debye)      :      4.27025

Rotational constants in cm-1:     0.263213     0.070932     0.059601
Rotational constants in MHz :  7890.931251  2126.488964  1786.802165

                             ****ORCA TERMINATED NORMALLY****
TOTAL RUN TIME: 0 days 0 hours 0 minutes 42 seconds 958 msec
