                         Program Version 5.0.3 -  RELEASE  -
|  1> !ri-mp2 aug-cc-pvdz aug-cc-pvdz/c tightscf
|  2> %pal nprocs 16 end
|  3> %maxcore 3800
|  4>
|  5> * xyz 0 1
|  6> C     -3.327207   -0.419023    0.041928
|  7> C      3.090721   -0.451140   -0.274255
|  8> C     -0.788431   -0.412239    0.253951
|  9> C      0.571113    0.141230   -0.203853
| 10> C      1.708576   -0.763650    0.299514
| 11> C     -2.017419    0.251736   -0.371051
| 12> H      3.827406   -1.178545    0.069812
| 13> H     -4.188029    0.070172   -0.416159
| 14> H     -3.463898   -0.383764    1.124825
| 15> H     -3.344052   -1.469173   -0.256997
| 16> H      3.079369   -0.485016   -1.366025
| 17> H      3.447082    0.535638    0.022419
| 18> H     -1.923476    0.224375   -1.461206
| 19> H     -2.055863    1.307823   -0.095365
| 20> H      1.456099   -1.799914    0.057534
| 21> H      1.746302   -0.710073    1.392821
| 22> H     -0.853981   -0.337240    1.345824
| 23> H     -0.821582   -1.482078    0.023681
| 24> H      0.587534    0.107539   -1.300667
| 25> C      0.769883    1.598721    0.226172
| 26> H     -0.014695    2.245965   -0.165115
| 27> H      1.720804    1.997706   -0.126289
| 28> H      0.757558    1.682770    1.316470
| 29> *
| 30>
| 31>                          ****END OF INPUT****

CARTESIAN COORDINATES (ANGSTROEM)
---------------------------------
  C     -3.327207   -0.419023    0.041928
  C      3.090721   -0.451140   -0.274255
  C     -0.788431   -0.412239    0.253951
  C      0.571113    0.141230   -0.203853
  C      1.708576   -0.763650    0.299514
  C     -2.017419    0.251736   -0.371051
  H      3.827406   -1.178545    0.069812
  H     -4.188029    0.070172   -0.416159
  H     -3.463898   -0.383764    1.124825
  H     -3.344052   -1.469173   -0.256997
  H      3.079369   -0.485016   -1.366025
  H      3.447082    0.535638    0.022419
  H     -1.923476    0.224375   -1.461206
  H     -2.055863    1.307823   -0.095365
  H      1.456099   -1.799914    0.057534
  H      1.746302   -0.710073    1.392821
  H     -0.853981   -0.337240    1.345824
  H     -0.821582   -1.482078    0.023681
  H      0.587534    0.107539   -1.300667
  C      0.769883    1.598721    0.226172
  H     -0.014695    2.245965   -0.165115
  H      1.720804    1.997706   -0.126289
  H      0.757558    1.682770    1.316470

 Total Charge           Charge          ....    0
 Multiplicity           Mult            ....    1
 Number of Electrons    NEL             ....   58
 Basis Dimension        Dim             ....  305

ORBITAL ENERGIES
----------------

  NO   OCC          E(Eh)            E(eV)
   0   2.0000     -11.224428      -305.4322
   1   2.0000     -11.219451      -305.2968
   2   2.0000     -11.218506      -305.2711
   3   2.0000     -11.216025      -305.2036
   4   2.0000     -11.215319      -305.1843
   5   2.0000     -11.214832      -305.1711
   6   2.0000     -11.212287      -305.1018
   7   2.0000      -1.098591       -29.8942
   8   2.0000      -1.039244       -28.2793
   9   2.0000      -0.980248       -26.6739
  10   2.0000      -0.921395       -25.0724
  11   2.0000      -0.862757       -23.4768
  12   2.0000      -0.796440       -21.6722
  13   2.0000      -0.758746       -20.6465
  14   2.0000      -0.641485       -17.4557
  15   2.0000      -0.617372       -16.7996
  16   2.0000      -0.605000       -16.4629
  17   2.0000      -0.582794       -15.8586
  18   2.0000      -0.562358       -15.3026
  19   2.0000      -0.538150       -14.6438
  20   2.0000      -0.532966       -14.5027
  21   2.0000      -0.516476       -14.0540
  22   2.0000      -0.508744       -13.8436
  23   2.0000      -0.493446       -13.4273
  24   2.0000      -0.475598       -12.9417
  25   2.0000      -0.464657       -12.6440
  26   2.0000      -0.450813       -12.2673
  27   2.0000      -0.442794       -12.0490
  28   2.0000      -0.430936       -11.7264
  29   0.0000       0.037508         1.0206
  30   0.0000       0.040755         1.1090
  31   0.0000       0.043989         1.1970
  32   0.0000       0.046217         1.2576
  33   0.0000       0.057611         1.5677

MULLIKEN ATOMIC CHARGES
-----------------------
   0 C :    0.540110
   1 C :    0.519367
   2 C :    0.535647
   3 C :   -1.002131
   4 C :    0.648740
   5 C :    0.355933
   6 H :   -0.076113
   7 H :   -0.079176
   8 H :   -0.080064
   9 H :   -0.101085
  10 H :   -0.084569
  11 H :   -0.113899
  12 H :   -0.184282
  13 H :   -0.206918
  14 H :   -0.200026
  15 H :   -0.150611
  16 H :   -0.194349
  17 H :   -0.226520
  18 H :   -0.333066
  19 C :    0.736872
  20 H :   -0.113435
  21 H :   -0.124045
  22 H :   -0.066381
Sum of atomic charges:   -0.0000000

LOEWDIN ATOMIC CHARGES
----------------------
   0 C :    0.132701
   1 C :    0.137309
   2 C :   -0.016816
   3 C :   -0.244365
   4 C :   -0.044945
   5 C :   -0.067420
   6 H :   -0.020643
   7 H :   -0.022079
   8 H :   -0.019458
   9 H :   -0.020562
  10 H :   -0.016296
  11 H :   -0.029110
  12 H :    0.014125
  13 H :    0.001400
  14 H :    0.010796
  15 H :    0.017726
  16 H :    0.022848
  17 H :    0.015114
  18 H :    0.038433
  19 C :    0.164519
  20 H :   -0.023392
  21 H :   -0.024280
  22 H :   -0.005606

  Mayer bond orders larger than 0.100000
B(  0-C ,  5-C ) :   1.1688 B(  0-C ,  7-H ) :   0.9077 B(  0-C ,  8-H ) :   0.9084
B(  0-C ,  9-H ) :   0.9010 B(  1-C ,  4-C ) :   1.1444 B(  1-C ,  6-H ) :   0.8828
B(  1-C , 10-H ) :   0.9313 B(  1-C , 11-H ) :   0.9114 B(  2-C ,  3-C ) :   1.1038
B(  2-C ,  5-C ) :   1.1237 B(  2-C , 12-H ) :   0.1104 B(  2-C , 13-H ) :   0.1408
B(  2-C , 16-H ) :   0.8024 B(  2-C , 17-H ) :   0.6226 B(  2-C , 19-C ) :  -0.1838
B(  2-C , 22-H ) :  -0.1548 B(  3-C ,  4-C ) :   1.1109 B(  3-C , 14-H ) :   0.2471
B(  3-C , 15-H ) :   0.1648 B(  3-C , 16-H ) :   0.1560 B(  3-C , 17-H ) :   0.1869
B(  3-C , 18-H ) :   0.5286 B(  3-C , 19-C ) :   1.4002 B(  3-C , 22-H ) :   0.3099
B(  4-C ,  6-H ) :   0.1003 B(  4-C , 14-H ) :   0.6225 B(  4-C , 15-H ) :   0.7927
B(  4-C , 19-C ) :  -0.1863 B(  4-C , 22-H ) :  -0.1419 B(  5-C , 12-H ) :   0.7446
B(  5-C , 13-H ) :   0.6879 B( 14-H , 15-H ) :  -0.1139 B( 16-H , 17-H ) :  -0.1159
B( 19-C , 20-H ) :   0.8243 B( 19-C , 21-H ) :   0.8377 B( 19-C , 22-H ) :   0.8530

MP2 TOTAL ENERGY:     -275.490375232 Eh
FINAL SINGLE POINT ENERGY      -275.490375232061

DIPOLE MOMENT
-------------
                                X             Y             Z
Electronic contribution:      0.04674      -0.35882      -0.21004
Nuclear contribution   :     -0.04720       0.35458       0.17998
                        -----------------------------------------
Total Dipole Moment    :     -0.00046      -0.00424      -0.03007
                        -----------------------------------------
Magnitude (a.u.)       :      0.03037
Magnitude (Debye)      :      0.07718

Rotational constants in cm-1:     0.192026     0.036298     0.032706
Rotational constants in MHz :  5756.784556  1088.195350   980.493118

                             ****ORCA TERMINATED NORMALLY****
TOTAL RUN TIME: 0 days 0 hours 1 minutes 23 seconds 983 msec
