                         Program Version 5.0.3 -  RELEASE  -
|  1> !ri-mp2 aug-cc-pvdz aug-cc-pvdz/c tightscf
|  2> %pal nprocs 16 end
|  3>
|  4> * xyz 0 1
|  5> O     -0.600225   -0.593424    1.360417
|  6> O     -2.161412   -0.986180   -0.769034
|  7> N      1.130210    0.592913   -0.768875
|  8> N      1.938772   -0.211377   -0.307642
|  9> N      2.733579   -0.958359   -0.022308
| 10> C     -0.951945    0.534649    0.607097
| 11> C      0.297309    1.321982    0.196777
| 12> C     -1.791724    0.146454   -0.592557
| 13> H     -1.576131    1.219785    1.205469
| 14> H      0.000108    2.247521   -0.295100
| 15> H      0.858777    1.579106    1.096908
| 16> H     -2.066282    0.961562   -1.285775
| 17> H     -1.063155   -1.351900    0.971304
| 18> *
| 19>
| 20>                          ****END OF INPUT****

CARTESIAN COORDINATES (ANGSTROEM)
---------------------------------
  O     -0.600225   -0.593424    1.360417
  O     -2.161412   -0.986180   -0.769034
  N      1.130210    0.592913   -0.768875
  N      1.938772   -0.211377   -0.307642
  N      2.733579   -0.958359   -0.022308
  C     -0.951945    0.534649    0.607097
  C      0.297309    1.321982    0.196777
  C     -1.791724    0.146454   -0.592557
  H     -1.576131    1.219785    1.205469
  H      0.000108    2.247521   -0.295100
  H      0.858777    1.579106    1.096908
  H     -2.066282    0.961562   -1.285775
  H     -1.063155   -1.351900    0.971304

 Total Charge           Charge          ....    0
 Multiplicity           Mult            ....    1
 Number of Electrons    NEL             ....   60
 Basis Dimension        Dim             ....  229

ORBITAL ENERGIES
----------------

  NO   OCC          E(Eh)            E(eV)
   0   2.0000     -20.597297      -560.4809
   1   2.0000     -20.587988      -560.2276
   2   2.0000     -15.797194      -429.8635
   3   2.0000     -15.682135      -426.7326
   4   2.0000     -15.620628      -425.0589
   5   2.0000     -11.364701      -309.2492
   6   2.0000     -11.323316      -308.1231
   7   2.0000     -11.307136      -307.6828
   8   2.0000      -1.517627       -41.2967
   9   2.0000      -1.437986       -39.1296
  10   2.0000      -1.386621       -37.7319
  11   2.0000      -1.304617       -35.5004
  12   2.0000      -1.076938       -29.3050
  13   2.0000      -0.947826       -25.7917
  14   2.0000      -0.830283       -22.5931
  15   2.0000      -0.757741       -20.6192
  16   2.0000      -0.735129       -20.0039
  17   2.0000      -0.719044       -19.5662
  18   2.0000      -0.715091       -19.4586
  19   2.0000      -0.684780       -18.6338
  20   2.0000      -0.672925       -18.3112
  21   2.0000      -0.657669       -17.8961
  22   2.0000      -0.603649       -16.4261
  23   2.0000      -0.582800       -15.8588
  24   2.0000      -0.562647       -15.3104
  25   2.0000      -0.544007       -14.8032
  26   2.0000      -0.487109       -13.2549
  27   2.0000      -0.455914       -12.4060
  28   2.0000      -0.437480       -11.9044
  29   2.0000      -0.384796       -10.4708
  30   0.0000       0.027943         0.7604
  31   0.0000       0.042947         1.1686
  32   0.0000       0.047512         1.2929
  33   0.0000       0.055787         1.5181
  34   0.0000       0.066844         1.8189

MULLIKEN ATOMIC CHARGES
-----------------------
   0 O :   -0.769363
   1 O :   -0.711662
   2 N :   -0.670241
   3 N :    0.475284
   4 N :   -0.331167
   5 C :    0.353246
   6 C :    0.783956
   7 C :    0.992093
   8 H :   -0.003848
   9 H :   -0.145388
  10 H :   -0.041476
  11 H :   -0.110394
  12 H :    0.178960
Sum of atomic charges:   -0.0000000

LOEWDIN ATOMIC CHARGES
----------------------
   0 O :    0.152572
   1 O :    0.054181
   2 N :    0.045893
   3 N :   -0.270748
   4 N :    0.270157
   5 C :   -0.232970
   6 C :   -0.016432
   7 C :   -0.034808
   8 H :    0.045104
   9 H :    0.012630
  10 H :    0.020378
  11 H :    0.027795
  12 H :   -0.073752

  Mayer bond orders larger than 0.100000
B(  0-O ,  5-C ) :   0.2870 B(  0-O , 12-H ) :   1.0196 B(  1-O ,  5-C ) :   0.1588
B(  1-O ,  7-C ) :   1.4862 B(  2-N ,  3-N ) :   1.1441 B(  2-N ,  4-N ) :   0.1913
B(  2-N ,  6-C ) :   0.6974 B(  3-N ,  4-N ) :   1.8172 B(  5-C ,  6-C ) :   1.2768
B(  5-C ,  7-C ) :   1.0187 B(  5-C ,  8-H ) :   0.8956 B(  5-C , 10-H ) :   0.1363
B(  6-C ,  9-H ) :   0.8709 B(  6-C , 10-H ) :   0.8286 B(  7-C , 11-H ) :   0.7961
B(  9-H , 10-H ) :  -0.1115

MP2 TOTAL ENERGY:     -430.880851796 Eh
FINAL SINGLE POINT ENERGY      -430.880851795870

DIPOLE MOMENT
-------------
                                X             Y             Z
Electronic contribution:      3.38934      -3.16744      -1.42690
Nuclear contribution   :     -3.77549       4.53098       1.66021
                        -----------------------------------------
Total Dipole Moment    :     -0.38615       1.36354       0.23331
                        -----------------------------------------
Magnitude (a.u.)       :      1.43624
Magnitude (Debye)      :      3.65063

Rotational constants in cm-1:     0.121164     0.044604     0.043139
Rotational constants in MHz :  3632.411592  1337.189297  1293.289512

                             ****ORCA TERMINATED NORMALLY****
TOTAL RUN TIME: 0 days 0 hours 0 minutes 47 seconds 626 msec
