                         Program Version 5.0.3 -  RELEASE  -
|  1> !ri-mp2 aug-cc-pvdz aug-cc-pvdz/c tightscf
|  2> %pal nprocs 16 end
|  3>
|  4> * xyz 0 1
|  5> N      2.167803   -0.419703   -0.124405
|  6> N     -2.312485   -0.509274   -0.000062
|  7> C     -0.068587    0.741058    0.011284
|  8> C      1.098133    0.121401    0.008582
|  9> C     -1.296379    0.036975    0.003444
| 10> H     -0.082728    1.822552    0.039789
| 11> H      2.696506   -0.716315    0.691622
| 12> *
| 13>
| 14>                          ****END OF INPUT****

CARTESIAN COORDINATES (ANGSTROEM)
---------------------------------
  N      2.167803   -0.419703   -0.124405
  N     -2.312485   -0.509274   -0.000062
  C     -0.068587    0.741058    0.011284
  C      1.098133    0.121401    0.008582
  C     -1.296379    0.036975    0.003444
  H     -0.082728    1.822552    0.039789
  H      2.696506   -0.716315    0.691622

 Total Charge           Charge          ....    0
 Multiplicity           Mult            ....    1
 Number of Electrons    NEL             ....   34
 Basis Dimension        Dim             ....  133

ORBITAL ENERGIES
----------------

  NO   OCC          E(Eh)            E(eV)
   0   2.0000     -15.641596      -425.6295
   1   2.0000     -15.584757      -424.0828
   2   2.0000     -11.383335      -309.7563
   3   2.0000     -11.300133      -307.4923
   4   2.0000     -11.295446      -307.3647
   5   2.0000      -1.304112       -35.4867
   6   2.0000      -1.230053       -33.4714
   7   2.0000      -1.094255       -29.7762
   8   2.0000      -0.845403       -23.0046
   9   2.0000      -0.775064       -21.0906
  10   2.0000      -0.703843       -19.1526
  11   2.0000      -0.605670       -16.4811
  12   2.0000      -0.565045       -15.3757
  13   2.0000      -0.522980       -14.2310
  14   2.0000      -0.513541       -13.9742
  15   2.0000      -0.472984       -12.8706
  16   2.0000      -0.376123       -10.2348
  17   0.0000       0.022067         0.6005
  18   0.0000       0.037391         1.0175
  19   0.0000       0.078027         2.1232
  20   0.0000       0.084714         2.3052
  21   0.0000       0.100115         2.7243

MULLIKEN ATOMIC CHARGES
-----------------------
   0 N :   -0.262804
   1 N :   -0.315436
   2 C :    1.531360
   3 C :   -0.368913
   4 C :   -0.457513
   5 H :   -0.247277
   6 H :    0.120582
Sum of atomic charges:   -0.0000000

LOEWDIN ATOMIC CHARGES
----------------------
   0 N :    0.234580
   1 N :    0.072890
   2 C :   -0.023874
   3 C :   -0.061548
   4 C :   -0.188628
   5 H :    0.000733
   6 H :   -0.034153

  Mayer bond orders larger than 0.100000
B(  0-N ,  3-C ) :   2.1883 B(  0-N ,  6-H ) :   0.9191 B(  1-N ,  2-C ) :  -0.1223
B(  1-N ,  4-C ) :   2.7047 B(  2-C ,  3-C ) :   1.0991 B(  2-C ,  4-C ) :   0.4147
B(  2-C ,  5-H ) :   0.7133 B(  3-C ,  4-C ) :   0.3008

MP2 TOTAL ENERGY:     -224.346627347 Eh
FINAL SINGLE POINT ENERGY      -224.346627347186

DIPOLE MOMENT
-------------
                                X             Y             Z
Electronic contribution:     -0.83581      -0.40484      -0.11833
Nuclear contribution   :      2.52558       1.06398       0.70625
                        -----------------------------------------
Total Dipole Moment    :      1.68977       0.65914       0.58792
                        -----------------------------------------
Magnitude (a.u.)       :      1.90668
Magnitude (Debye)      :      4.84641

Rotational constants in cm-1:     0.969487     0.091919     0.084518
Rotational constants in MHz : 29064.490067  2755.668810  2533.790398

                             ****ORCA TERMINATED NORMALLY****
TOTAL RUN TIME: 0 days 0 hours 0 minutes 34 seconds 786 msec
