                         Program Version 5.0.3 -  RELEASE  -
|  1> !ri-mp2 aug-cc-pvdz aug-cc-pvdz/c tightscf
|  2> %pal nprocs 16 end
|  3>
|  4> * xyz 0 1
|  5> S      0.262272   -1.270575    0.351509
|  6> S      1.911534   -0.165680   -0.415891
|  7> O     -2.958453   -0.023467   -0.342226
|  8> N     -1.819104    0.125111   -0.669138
|  9> C     -0.854816    0.161427    0.535168
| 10> C     -0.048735    1.415196    0.494290
| 11> C      1.197951    1.369932    0.028995
| 12> H     -1.455073    0.027442    1.436830
| 13> H     -0.518659    2.347856    0.774850
| 14> H      1.827781    2.237414   -0.110510
| 15> *
| 16>
| 17>                          ****END OF INPUT****

CARTESIAN COORDINATES (ANGSTROEM)
---------------------------------
  S      0.262272   -1.270575    0.351509
  S      1.911534   -0.165680   -0.415891
  O     -2.958453   -0.023467   -0.342226
  N     -1.819104    0.125111   -0.669138
  C     -0.854816    0.161427    0.535168
  C     -0.048735    1.415196    0.494290
  C      1.197951    1.369932    0.028995
  H     -1.455073    0.027442    1.436830
  H     -0.518659    2.347856    0.774850
  H      1.827781    2.237414   -0.110510

 Total Charge           Charge          ....    0
 Multiplicity           Mult            ....    1
 Number of Electrons    NEL             ....   68
 Basis Dimension        Dim             ....  196

ORBITAL ENERGIES
----------------

  NO   OCC          E(Eh)            E(eV)
   0   2.0000     -92.007277     -2503.6453
   1   2.0000     -92.004136     -2503.5598
   2   2.0000     -20.656560      -562.0936
   3   2.0000     -15.725741      -427.9192
   4   2.0000     -11.335445      -308.4531
   5   2.0000     -11.309513      -307.7475
   6   2.0000     -11.275763      -306.8291
   7   2.0000      -9.008283      -245.1279
   8   2.0000      -9.004555      -245.0264
   9   2.0000      -6.689952      -182.0429
  10   2.0000      -6.688594      -182.0059
  11   2.0000      -6.686146      -181.9393
  12   2.0000      -6.685836      -181.9309
  13   2.0000      -6.684695      -181.8998
  14   2.0000      -6.682078      -181.8286
  15   2.0000      -1.545665       -42.0597
  16   2.0000      -1.183366       -32.2010
  17   2.0000      -1.067911       -29.0593
  18   2.0000      -1.016067       -27.6486
  19   2.0000      -0.932444       -25.3731
  20   2.0000      -0.826277       -22.4841
  21   2.0000      -0.784797       -21.3554
  22   2.0000      -0.710875       -19.3439
  23   2.0000      -0.701560       -19.0904
  24   2.0000      -0.673961       -18.3394
  25   2.0000      -0.619520       -16.8580
  26   2.0000      -0.580309       -15.7910
  27   2.0000      -0.533467       -14.5164
  28   2.0000      -0.514192       -13.9919
  29   2.0000      -0.494726       -13.4622
  30   2.0000      -0.471124       -12.8199
  31   2.0000      -0.415705       -11.3119
  32   2.0000      -0.403655       -10.9840
  33   2.0000      -0.324246        -8.8232
  34   0.0000       0.030855         0.8396
  35   0.0000       0.040251         1.0953
  36   0.0000       0.051870         1.4115
  37   0.0000       0.059581         1.6213
  38   0.0000       0.063980         1.7410

MULLIKEN ATOMIC CHARGES
-----------------------
   0 S :    0.419831
   1 S :    0.161804
   2 O :   -0.553185
   3 N :   -0.022421
   4 C :    0.061251
   5 C :    0.746099
   6 C :   -0.034436
   7 H :   -0.067904
   8 H :   -0.312926
   9 H :   -0.398113
Sum of atomic charges:   -0.0000000

LOEWDIN ATOMIC CHARGES
----------------------
   0 S :    0.566403
   1 S :    0.550237
   2 O :    0.017369
   3 N :   -0.022424
   4 C :   -0.533269
   5 C :   -0.136871
   6 C :   -0.372835
   7 H :   -0.020098
   8 H :   -0.005322
   9 H :   -0.043189

  Mayer bond orders larger than 0.100000
B(  0-S ,  1-S ) :   0.9734 B(  0-S ,  4-C ) :   1.0001 B(  1-S ,  6-C ) :   1.0061
B(  1-S ,  9-H ) :  -0.1642 B(  2-O ,  3-N ) :   1.4839 B(  3-N ,  4-C ) :   0.7806
B(  4-C ,  5-C ) :   1.3666 B(  4-C ,  7-H ) :   0.7907 B(  5-C ,  6-C ) :   2.0636
B(  5-C ,  7-H ) :   0.1016 B(  5-C ,  8-H ) :   0.7216 B(  5-C ,  9-H ) :   0.1519
B(  6-C ,  9-H ) :   0.8296

MP2 TOTAL ENERGY:    -1040.687948227 Eh
FINAL SINGLE POINT ENERGY     -1040.687948226734

DIPOLE MOMENT
-------------
                                X             Y             Z
Electronic contribution:      0.82223      -3.62711      -1.42125
Nuclear contribution   :     -0.25923       4.46597       2.00777
                        -----------------------------------------
Total Dipole Moment    :      0.56300       0.83886       0.58653
                        -----------------------------------------
Magnitude (a.u.)       :      1.16819
Magnitude (Debye)      :      2.96930

Rotational constants in cm-1:     0.123173     0.046280     0.037644
Rotational constants in MHz :  3692.639098  1387.444626  1128.535136

                             ****ORCA TERMINATED NORMALLY****
TOTAL RUN TIME: 0 days 0 hours 0 minutes 45 seconds 439 msec
