                         Program Version 5.0.3 -  RELEASE  -
|  1> !ri-mp2 aug-cc-pvdz aug-cc-pvdz/c tightscf
|  2> %pal nprocs 16 end
|  3>
|  4> * xyz 0 1
|  5> C     -2.171508   -0.232104   -0.260028
|  6> H     -2.449028    0.531540   -0.977091
|  7> H     -2.897472   -1.011714   -0.074136
|  8> C     -0.999134   -0.216949    0.359116
|  9> H     -0.751263   -1.006444    1.058838
| 10> C      0.047693    0.833307    0.160729
| 11> H     -0.219239    1.524237   -0.645289
| 12> H      0.146644    1.464630    1.055798
| 13> C      1.439026    0.311691   -0.117058
| 14> H      2.190418    1.104526   -0.313882
| 15> O      1.760435   -0.847806   -0.120099
| 16> *
| 17>
| 18>                          ****END OF INPUT****

CARTESIAN COORDINATES (ANGSTROEM)
---------------------------------
  C     -2.171508   -0.232104   -0.260028
  H     -2.449028    0.531540   -0.977091
  H     -2.897472   -1.011714   -0.074136
  C     -0.999134   -0.216949    0.359116
  H     -0.751263   -1.006444    1.058838
  C      0.047693    0.833307    0.160729
  H     -0.219239    1.524237   -0.645289
  H      0.146644    1.464630    1.055798
  C      1.439026    0.311691   -0.117058
  H      2.190418    1.104526   -0.313882
  O      1.760435   -0.847806   -0.120099

 Total Charge           Charge          ....    0
 Multiplicity           Mult            ....    1
 Number of Electrons    NEL             ....   38
 Basis Dimension        Dim             ....  169

ORBITAL ENERGIES
----------------

  NO   OCC          E(Eh)            E(eV)
   0   2.0000     -20.573196      -559.8251
   1   2.0000     -11.347070      -308.7695
   2   2.0000     -11.259978      -306.3996
   3   2.0000     -11.249501      -306.1145
   4   2.0000     -11.236890      -305.7713
   5   2.0000      -1.406619       -38.2761
   6   2.0000      -1.094659       -29.7872
   7   2.0000      -0.990114       -26.9424
   8   2.0000      -0.824884       -22.4462
   9   2.0000      -0.757639       -20.6164
  10   2.0000      -0.682295       -18.5662
  11   2.0000      -0.660214       -17.9653
  12   2.0000      -0.626499       -17.0479
  13   2.0000      -0.594911       -16.1884
  14   2.0000      -0.573599       -15.6084
  15   2.0000      -0.509112       -13.8536
  16   2.0000      -0.504825       -13.7370
  17   2.0000      -0.429959       -11.6998
  18   2.0000      -0.372368       -10.1326
  19   0.0000       0.032532         0.8853
  20   0.0000       0.041881         1.1396
  21   0.0000       0.047438         1.2908
  22   0.0000       0.055426         1.5082
  23   0.0000       0.064138         1.7453

MULLIKEN ATOMIC CHARGES
-----------------------
   0 C :    0.448772
   1 H :   -0.285156
   2 H :   -0.265736
   3 C :    0.772154
   4 H :   -0.405201
   5 C :   -0.265271
   6 H :   -0.069142
   7 H :    0.096985
   8 C :    0.765448
   9 H :   -0.109085
  10 O :   -0.683769
Sum of atomic charges:    0.0000000

LOEWDIN ATOMIC CHARGES
----------------------
   0 C :    0.167561
   1 H :   -0.039334
   2 H :   -0.041267
   3 C :   -0.061016
   4 H :    0.001712
   5 C :   -0.029540
   6 H :    0.020593
   7 H :    0.024673
   8 C :   -0.086983
   9 H :    0.014621
  10 O :    0.028980

  Mayer bond orders larger than 0.100000
B(  0-C ,  1-H ) :   0.9335 B(  0-C ,  2-H ) :   0.7922 B(  0-C ,  3-C ) :   1.9232
B(  1-H ,  2-H ) :  -0.1818 B(  2-H ,  3-C ) :   0.1240 B(  3-C ,  4-H ) :   0.7843
B(  3-C ,  5-C ) :   1.0070 B(  4-H ,  5-C ) :  -0.1037 B(  5-C ,  6-H ) :   0.9164
B(  5-C ,  7-H ) :   0.9139 B(  5-C ,  8-C ) :   1.2263 B(  5-C ,  9-H ) :   0.1040
B(  8-C ,  9-H ) :   0.8220 B(  8-C , 10-O ) :   1.5926

MP2 TOTAL ENERGY:     -230.571284475 Eh
FINAL SINGLE POINT ENERGY      -230.571284474959

DIPOLE MOMENT
-------------
                                X             Y             Z
Electronic contribution:      3.59252      -1.52193      -0.03390
Nuclear contribution   :     -4.02413       2.64061       0.10421
                        -----------------------------------------
Total Dipole Moment    :     -0.43160       1.11869       0.07031
                        -----------------------------------------
Magnitude (a.u.)       :      1.20112
Magnitude (Debye)      :      3.05300

Rotational constants in cm-1:     0.457612     0.099298     0.087278
Rotational constants in MHz : 13718.865390  2976.893852  2616.537323

                             ****ORCA TERMINATED NORMALLY****
TOTAL RUN TIME: 0 days 0 hours 0 minutes 28 seconds 530 msec
