                         Program Version 5.0.3 -  RELEASE  -
|  1> !ri-mp2 aug-cc-pvdz aug-cc-pvdz/c tightscf
|  2> %pal nprocs 16 end
|  3>
|  4> * xyz 0 1
|  5> S    -1.222640    1.296701    0.169140
|  6> S    -2.161882   -0.546051   -0.275063
|  7> N     2.326633    2.291015   -0.116594
|  8> N     2.731829   -2.027823   -0.080487
|  9> C     0.395120    0.601936    0.030052
| 10> C     0.511175   -0.743969    0.062000
| 11> C    -0.745707   -1.549818    0.310030
| 12> C     1.476896    1.515274   -0.054572
| 13> C     1.752199   -1.421097   -0.020140
| 14> H    -0.759980   -2.475318   -0.261951
| 15> H    -0.835001   -1.791373    1.372058
| 16> *
| 17>
| 18>                          ****END OF INPUT****

CARTESIAN COORDINATES (ANGSTROEM)
---------------------------------
  S     -1.222640    1.296701    0.169140
  S     -2.161882   -0.546051   -0.275063
  N      2.326633    2.291015   -0.116594
  N      2.731829   -2.027823   -0.080487
  C      0.395120    0.601936    0.030052
  C      0.511175   -0.743969    0.062000
  C     -0.745707   -1.549818    0.310030
  C      1.476896    1.515274   -0.054572
  C      1.752199   -1.421097   -0.020140
  H     -0.759980   -2.475318   -0.261951
  H     -0.835001   -1.791373    1.372058

 Total Charge           Charge          ....    0
 Multiplicity           Mult            ....    1
 Number of Electrons    NEL             ....   78
 Basis Dimension        Dim             ....  233

ORBITAL ENERGIES
----------------

  NO   OCC          E(Eh)            E(eV)
   0   2.0000     -92.040787     -2504.5571
   1   2.0000     -92.027443     -2504.1940
   2   2.0000     -15.627799      -425.2540
   3   2.0000     -15.620618      -425.0586
   4   2.0000     -11.375701      -309.5486
   5   2.0000     -11.350891      -308.8734
   6   2.0000     -11.336927      -308.4935
   7   2.0000     -11.323615      -308.1312
   8   2.0000     -11.317960      -307.9773
   9   2.0000      -9.041086      -246.0204
  10   2.0000      -9.027417      -245.6485
  11   2.0000      -6.722603      -182.9313
  12   2.0000      -6.721333      -182.8968
  13   2.0000      -6.718508      -182.8199
  14   2.0000      -6.709069      -182.5630
  15   2.0000      -6.707540      -182.5214
  16   2.0000      -6.704806      -182.4470
  17   2.0000      -1.274905       -34.6919
  18   2.0000      -1.259811       -34.2812
  19   2.0000      -1.213698       -33.0264
  20   2.0000      -1.079878       -29.3850
  21   2.0000      -1.069010       -29.0892
  22   2.0000      -0.907630       -24.6979
  23   2.0000      -0.875524       -23.8242
  24   2.0000      -0.822359       -22.3775
  25   2.0000      -0.679788       -18.4980
  26   2.0000      -0.657777       -17.8990
  27   2.0000      -0.623883       -16.9767
  28   2.0000      -0.597318       -16.2538
  29   2.0000      -0.584680       -15.9100
  30   2.0000      -0.578490       -15.7415
  31   2.0000      -0.548326       -14.9207
  32   2.0000      -0.523186       -14.2366
  33   2.0000      -0.510714       -13.8972
  34   2.0000      -0.502451       -13.6724
  35   2.0000      -0.492674       -13.4063
  36   2.0000      -0.480517       -13.0755
  37   2.0000      -0.412408       -11.2222
  38   2.0000      -0.353905        -9.6303
  39   0.0000       0.011590         0.3154
  40   0.0000       0.026320         0.7162
  41   0.0000       0.039671         1.0795
  42   0.0000       0.047914         1.3038
  43   0.0000       0.052452         1.4273

MULLIKEN ATOMIC CHARGES
-----------------------
   0 S :    0.034941
   1 S :    0.325399
   2 N :   -0.124468
   3 N :   -0.257355
   4 C :    1.013324
   5 C :    1.067616
   6 C :   -0.091858
   7 C :   -1.241717
   8 C :   -0.903960
   9 H :    0.074951
  10 H :    0.103128
Sum of atomic charges:   -0.0000000

LOEWDIN ATOMIC CHARGES
----------------------
   0 S :    0.633405
   1 S :    0.555245
   2 N :    0.125411
   3 N :    0.124007
   4 C :   -0.539006
   5 C :   -0.308441
   6 C :   -0.269925
   7 C :   -0.173338
   8 C :   -0.117845
   9 H :   -0.018472
  10 H :   -0.011042

  Mayer bond orders larger than 0.100000
B(  0-S ,  1-S ) :   0.9524 B(  0-S ,  4-C ) :   0.7239 B(  0-S ,  7-C ) :   0.1337
B(  1-S ,  5-C ) :  -0.1871 B(  1-S ,  6-C ) :   1.1796 B(  1-S , 10-H ) :  -0.1283
B(  2-N ,  4-C ) :  -0.1587 B(  2-N ,  7-C ) :   2.5284 B(  3-N ,  5-C ) :  -0.1655
B(  3-N ,  8-C ) :   2.6046 B(  4-C ,  5-C ) :   1.8702 B(  4-C ,  6-C ) :  -0.3523
B(  4-C ,  7-C ) :  -0.6135 B(  4-C ,  9-H ) :   0.1185 B(  5-C ,  6-C ) :   1.3076
B(  5-C ,  7-C ) :  -0.2094 B(  5-C ,  8-C ) :  -0.3233 B(  5-C ,  9-H ) :   0.2424
B(  5-C , 10-H ) :   0.2730 B(  6-C ,  8-C ) :  -0.2771 B(  6-C ,  9-H ) :   0.7041
B(  6-C , 10-H ) :   0.7634

MP2 TOTAL ENERGY:    -1095.709006218 Eh
FINAL SINGLE POINT ENERGY     -1095.709006218008

DIPOLE MOMENT
-------------
                                X             Y             Z
Electronic contribution:     -0.46734       3.37695      -0.73866
Nuclear contribution   :     -1.38776      -4.07375       1.05657
                        -----------------------------------------
Total Dipole Moment    :     -1.85511      -0.69680       0.31791
                        -----------------------------------------
Magnitude (a.u.)       :      2.00699
Magnitude (Debye)      :      5.10137

Rotational constants in cm-1:     0.055761     0.036563     0.022485
Rotational constants in MHz :  1671.670960  1096.136023   674.079027

                             ****ORCA TERMINATED NORMALLY****
TOTAL RUN TIME: 0 days 0 hours 0 minutes 52 seconds 938 msec
