                         Program Version 5.0.3 -  RELEASE  -
|  1> !ri-mp2 aug-cc-pvdz aug-cc-pvdz/c tightscf
|  2> %pal nprocs 16 end
|  3>
|  4> * xyz 0 1
|  5> N     -1.616715   -0.101498    0.115335
|  6> N     -2.512940   -0.696208   -0.240366
|  7> N      2.592445   -0.787850    0.164792
|  8> C     -0.601166    0.598614    0.503988
|  9> C      0.580873    0.787284   -0.409301
| 10> C      1.711258   -0.097097   -0.096653
| 11> H     -0.609112    0.927289    1.529719
| 12> H      0.289318    0.620071   -1.447202
| 13> H      0.934469    1.818720   -0.349050
| 14> *
| 15>
| 16>                          ****END OF INPUT****

CARTESIAN COORDINATES (ANGSTROEM)
---------------------------------
  N     -1.616715   -0.101498    0.115335
  N     -2.512940   -0.696208   -0.240366
  N      2.592445   -0.787850    0.164792
  C     -0.601166    0.598614    0.503988
  C      0.580873    0.787284   -0.409301
  C      1.711258   -0.097097   -0.096653
  H     -0.609112    0.927289    1.529719
  H      0.289318    0.620071   -1.447202
  H      0.934469    1.818720   -0.349050

 Total Charge           Charge          ....    0
 Multiplicity           Mult            ....    1
 Number of Electrons    NEL             ....   42
 Basis Dimension        Dim             ....  165

ORBITAL ENERGIES
----------------

  NO   OCC          E(Eh)            E(eV)
   0   2.0000     -15.763104      -428.9359
   1   2.0000     -15.686837      -426.8605
   2   2.0000     -15.587788      -424.1653
   3   2.0000     -11.318631      -307.9956
   4   2.0000     -11.304096      -307.6001
   5   2.0000     -11.290077      -307.2186
   6   2.0000      -1.486461       -40.4487
   7   2.0000      -1.235193       -33.6113
   8   2.0000      -1.171284       -31.8723
   9   2.0000      -1.040848       -28.3229
  10   2.0000      -0.777791       -21.1648
  11   2.0000      -0.735017       -20.0008
  12   2.0000      -0.700131       -19.0515
  13   2.0000      -0.677713       -18.4415
  14   2.0000      -0.665476       -18.1085
  15   2.0000      -0.626347       -17.0438
  16   2.0000      -0.568611       -15.4727
  17   2.0000      -0.559983       -15.2379
  18   2.0000      -0.472287       -12.8516
  19   2.0000      -0.469807       -12.7841
  20   2.0000      -0.345768        -9.4088
  21   0.0000       0.028228         0.7681
  22   0.0000       0.039597         1.0775
  23   0.0000       0.050237         1.3670
  24   0.0000       0.068528         1.8647
  25   0.0000       0.087779         2.3886

MULLIKEN ATOMIC CHARGES
-----------------------
   0 N :   -0.006454
   1 N :   -0.432787
   2 N :   -0.320952
   3 C :    0.853598
   4 C :    0.260174
   5 C :   -0.221163
   6 H :   -0.243095
   7 H :    0.012263
   8 H :    0.098414
Sum of atomic charges:    0.0000000

LOEWDIN ATOMIC CHARGES
----------------------
   0 N :   -0.184672
   1 N :    0.236891
   2 N :    0.068666
   3 C :    0.017987
   4 C :   -0.040518
   5 C :   -0.140531
   6 H :   -0.009733
   7 H :    0.026932
   8 H :    0.024977

  Mayer bond orders larger than 0.100000
B(  0-N ,  1-N ) :   1.7053 B(  0-N ,  3-C ) :   1.3835 B(  2-N ,  5-C ) :   2.6643
B(  3-C ,  4-C ) :   1.0628 B(  3-C ,  6-H ) :   0.7816 B(  4-C ,  5-C ) :   0.8148
B(  4-C ,  7-H ) :   0.8952 B(  4-C ,  8-H ) :   0.8828

MP2 TOTAL ENERGY:     -279.546563440 Eh
FINAL SINGLE POINT ENERGY      -279.546563439947

DIPOLE MOMENT
-------------
                                X             Y             Z
Electronic contribution:     -1.38812      -2.04657       0.10399
Nuclear contribution   :      0.58923       3.26573      -0.25908
                        -----------------------------------------
Total Dipole Moment    :     -0.79889       1.21917      -0.15509
                        -----------------------------------------
Magnitude (a.u.)       :      1.46583
Magnitude (Debye)      :      3.72584

Rotational constants in cm-1:     0.391443     0.061244     0.056941
Rotational constants in MHz : 11735.159085  1836.063335  1707.048497

                             ****ORCA TERMINATED NORMALLY****
TOTAL RUN TIME: 0 days 0 hours 0 minutes 32 seconds 847 msec
