                         Program Version 5.0.3 -  RELEASE  -
|  1> !ri-mp2 aug-cc-pvdz aug-cc-pvdz/c tightscf
|  2> %pal nprocs 16 end
|  3>
|  4> * xyz 0 1
|  5> O    -1.801585   -0.353946   -1.263177
|  6> S    -1.102837   -0.138972    0.000074
|  7> O    -1.800137   -0.353814    1.264151
|  8> C     0.470647   -1.077138   -0.000655
|  9> C     1.551977   -0.034521   -0.000177
| 10> C     2.979502   -0.481812    0.000109
| 11> C    -0.322179    1.520248   -0.000351
| 12> C     1.145332    1.235846   -0.000038
| 13> H     0.476225   -1.706442   -0.890781
| 14> H     0.476388   -1.707450    0.888755
| 15> H     3.659750    0.368607    0.000410
| 16> H     3.197004   -1.095951   -0.877283
| 17> H     3.196558   -1.096217    0.877425
| 18> H    -0.672041    2.042715   -0.890512
| 19> H    -0.672325    2.043260    0.889375
| 20> H     1.845935    2.061374    0.000310
| 21> *
| 22>
| 23>                          ****END OF INPUT****

CARTESIAN COORDINATES (ANGSTROEM)
---------------------------------
  O     -1.801585   -0.353946   -1.263177
  S     -1.102837   -0.138972    0.000074
  O     -1.800137   -0.353814    1.264151
  C      0.470647   -1.077138   -0.000655
  C      1.551977   -0.034521   -0.000177
  C      2.979502   -0.481812    0.000109
  C     -0.322179    1.520248   -0.000351
  C      1.145332    1.235846   -0.000038
  H      0.476225   -1.706442   -0.890781
  H      0.476388   -1.707450    0.888755
  H      3.659750    0.368607    0.000410
  H      3.197004   -1.095951   -0.877283
  H      3.196558   -1.096217    0.877425
  H     -0.672041    2.042715   -0.890512
  H     -0.672325    2.043260    0.889375
  H      1.845935    2.061374    0.000310

 Total Charge           Charge          ....    0
 Multiplicity           Mult            ....    1
 Number of Electrons    NEL             ....   70
 Basis Dimension        Dim             ....  260

ORBITAL ENERGIES
----------------

  NO   OCC          E(Eh)            E(eV)
   0   2.0000     -92.194375     -2508.7365
   1   2.0000     -20.551774      -559.2422
   2   2.0000     -20.551756      -559.2417
   3   2.0000     -11.289348      -307.1988
   4   2.0000     -11.288854      -307.1853
   5   2.0000     -11.283352      -307.0356
   6   2.0000     -11.269032      -306.6459
   7   2.0000     -11.258074      -306.3478
   8   2.0000      -9.167758      -249.4674
   9   2.0000      -6.852959      -186.4785
  10   2.0000      -6.851552      -186.4402
  11   2.0000      -6.851291      -186.4331
  12   2.0000      -1.447464       -39.3875
  13   2.0000      -1.334218       -36.3059
  14   2.0000      -1.171544       -31.8793
  15   2.0000      -1.048793       -28.5391
  16   2.0000      -1.010839       -27.5063
  17   2.0000      -0.935484       -25.4558
  18   2.0000      -0.820203       -22.3189
  19   2.0000      -0.768569       -20.9138
  20   2.0000      -0.690974       -18.8024
  21   2.0000      -0.671118       -18.2621
  22   2.0000      -0.640673       -17.4336
  23   2.0000      -0.634576       -17.2677
  24   2.0000      -0.625993       -17.0341
  25   2.0000      -0.609519       -16.5858
  26   2.0000      -0.605224       -16.4690
  27   2.0000      -0.579311       -15.7639
  28   2.0000      -0.549835       -14.9618
  29   2.0000      -0.541772       -14.7424
  30   2.0000      -0.486913       -13.2496
  31   2.0000      -0.480498       -13.0750
  32   2.0000      -0.463224       -12.6050
  33   2.0000      -0.420315       -11.4373
  34   2.0000      -0.380615       -10.3571
  35   0.0000       0.025761         0.7010
  36   0.0000       0.034752         0.9456
  37   0.0000       0.044250         1.2041
  38   0.0000       0.047027         1.2797
  39   0.0000       0.059943         1.6311

MULLIKEN ATOMIC CHARGES
-----------------------
   0 O :   -1.212645
   1 S :    2.972279
   2 O :   -1.212719
   3 C :   -0.512012
   4 C :   -0.539995
   5 C :    0.424053
   6 C :   -0.111503
   7 C :    0.334192
   8 H :    0.090325
   9 H :    0.090312
  10 H :   -0.143135
  11 H :    0.058461
  12 H :    0.058486
  13 H :    0.078408
  14 H :    0.078492
  15 H :   -0.452998
Sum of atomic charges:    0.0000000

LOEWDIN ATOMIC CHARGES
----------------------
   0 O :   -0.408445
   1 S :    0.979051
   2 O :   -0.408425
   3 C :   -0.016734
   4 C :   -0.281520
   5 C :    0.179808
   6 C :   -0.043784
   7 C :    0.001347
   8 H :    0.006165
   9 H :    0.006161
  10 H :   -0.008200
  11 H :   -0.003743
  12 H :   -0.003739
  13 H :   -0.001464
  14 H :   -0.001464
  15 H :    0.004985

  Mayer bond orders larger than 0.100000
B(  0-O ,  1-S ) :   0.6499 B(  0-O ,  2-O ) :   0.1927 B(  0-O ,  3-C ) :   0.1854
B(  0-O ,  6-C ) :   0.1725 B(  1-S ,  2-O ) :   0.6499 B(  1-S ,  3-C ) :   0.6727
B(  1-S ,  4-C ) :  -0.1848 B(  1-S ,  6-C ) :   0.8189 B(  2-O ,  3-C ) :   0.1852
B(  2-O ,  6-C ) :   0.1725 B(  3-C ,  4-C ) :   1.3585 B(  3-C ,  5-C ) :  -0.1141
B(  3-C ,  6-C ) :   0.2566 B(  3-C ,  7-C ) :  -0.1952 B(  3-C ,  8-H ) :   0.7453
B(  3-C ,  9-H ) :   0.7451 B(  4-C ,  5-C ) :   1.1792 B(  4-C ,  6-C ) :  -0.3966
B(  4-C ,  7-C ) :   1.6364 B(  4-C ,  8-H ) :   0.2227 B(  4-C ,  9-H ) :   0.2227
B(  4-C , 10-H ) :   0.3591 B(  4-C , 11-H ) :   0.1622 B(  4-C , 12-H ) :   0.1621
B(  4-C , 13-H ) :   0.1082 B(  4-C , 14-H ) :   0.1081 B(  4-C , 15-H ) :   0.4277
B(  5-C ,  6-C ) :   0.1482 B(  5-C ,  7-C ) :   0.1637 B(  5-C , 10-H ) :   0.6967
B(  5-C , 11-H ) :   0.8840 B(  5-C , 12-H ) :   0.8841 B(  6-C ,  7-C ) :   1.1973
B(  6-C , 13-H ) :   0.7113 B(  6-C , 14-H ) :   0.7113 B(  7-C , 10-H ) :  -0.1274
B(  7-C , 13-H ) :   0.1040 B(  7-C , 14-H ) :   0.1038 B(  7-C , 15-H ) :   0.2647

MP2 TOTAL ENERGY:     -742.462829297 Eh
FINAL SINGLE POINT ENERGY      -742.462829296969

DIPOLE MOMENT
-------------
                                X             Y             Z
Electronic contribution:     -9.11334      -0.34549       0.00120
Nuclear contribution   :     11.42289       0.89816      -0.00228
                        -----------------------------------------
Total Dipole Moment    :      2.30955       0.55267      -0.00108
                        -----------------------------------------
Magnitude (a.u.)       :      2.37476
Magnitude (Debye)      :      6.03615

Rotational constants in cm-1:     0.116837     0.043016     0.039712
Rotational constants in MHz :  3502.695217  1289.572437  1190.531426

                             ****ORCA TERMINATED NORMALLY****
TOTAL RUN TIME: 0 days 0 hours 1 minutes 15 seconds 100 msec
