                         Program Version 5.0.3 -  RELEASE  -
|  1> !ri-mp2 aug-cc-pvdz aug-cc-pvdz/c tightscf
|  2> %pal nprocs 16 end
|  3>
|  4> * xyz 0 1
|  5> F     -1.495654   -0.534690    0.000025
|  6> C      0.759246    0.134886   -0.000021
|  7> C     -0.629994    0.562044    0.000074
|  8> C      1.910455   -0.197047   -0.000106
|  9> H      2.928597   -0.497755   -0.000166
| 10> H     -0.852940    1.155263    0.888657
| 11> H     -0.853016    1.155403   -0.888397
| 12> *
| 13>
| 14>                          ****END OF INPUT****

CARTESIAN COORDINATES (ANGSTROEM)
---------------------------------
  F     -1.495654   -0.534690    0.000025
  C      0.759246    0.134886   -0.000021
  C     -0.629994    0.562044    0.000074
  C      1.910455   -0.197047   -0.000106
  H      2.928597   -0.497755   -0.000166
  H     -0.852940    1.155263    0.888657
  H     -0.853016    1.155403   -0.888397

 Total Charge           Charge          ....    0
 Multiplicity           Mult            ....    1
 Number of Electrons    NEL             ....   30
 Basis Dimension        Dim             ....  119

ORBITAL ENERGIES
----------------

  NO   OCC          E(Eh)            E(eV)
   0   2.0000     -26.303484      -715.7542
   1   2.0000     -11.354634      -308.9753
   2   2.0000     -11.258473      -306.3586
   3   2.0000     -11.254165      -306.2414
   4   2.0000      -1.602603       -43.6090
   5   2.0000      -1.077136       -29.3104
   6   2.0000      -0.974424       -26.5154
   7   2.0000      -0.759138       -20.6572
   8   2.0000      -0.716209       -19.4890
   9   2.0000      -0.708379       -19.2760
  10   2.0000      -0.694620       -18.9016
  11   2.0000      -0.580236       -15.7890
  12   2.0000      -0.563933       -15.3454
  13   2.0000      -0.418255       -11.3813
  14   2.0000      -0.406891       -11.0721
  15   0.0000       0.034069         0.9271
  16   0.0000       0.039324         1.0701
  17   0.0000       0.054520         1.4836
  18   0.0000       0.087807         2.3893
  19   0.0000       0.097018         2.6400

MULLIKEN ATOMIC CHARGES
-----------------------
   0 F :   -0.597768
   1 C :   -0.748349
   2 C :    0.819421
   3 C :    1.114967
   4 H :   -0.493934
   5 H :   -0.047171
   6 H :   -0.047168
Sum of atomic charges:    0.0000000

LOEWDIN ATOMIC CHARGES
----------------------
   0 F :   -0.010283
   1 C :   -0.095376
   2 C :   -0.025665
   3 C :    0.215414
   4 H :   -0.100020
   5 H :    0.007965
   6 H :    0.007965

  Mayer bond orders larger than 0.100000
B(  0-F ,  1-C ) :   0.1248 B(  0-F ,  2-C ) :   0.3828 B(  1-C ,  2-C ) :   1.2962
B(  1-C ,  3-C ) :   2.6949 B(  1-C ,  4-H ) :   0.4182 B(  1-C ,  5-H ) :   0.1034
B(  1-C ,  6-H ) :   0.1034 B(  2-C ,  3-C ) :   0.1101 B(  2-C ,  4-H ) :   0.1193
B(  2-C ,  5-H ) :   0.8973 B(  2-C ,  6-H ) :   0.8973

MP2 TOTAL ENERGY:     -215.335511192 Eh
FINAL SINGLE POINT ENERGY      -215.335511192370

DIPOLE MOMENT
-------------
                                X             Y             Z
Electronic contribution:     -2.14852      -1.62275      -0.00003
Nuclear contribution   :      2.62008       2.27190       0.00007
                        -----------------------------------------
Total Dipole Moment    :      0.47156       0.64915       0.00003
                        -----------------------------------------
Magnitude (a.u.)       :      0.80235
Magnitude (Debye)      :      2.03942

Rotational constants in cm-1:     1.189279     0.153556     0.139581
Rotational constants in MHz : 35653.678011  4603.492218  4184.531375

                             ****ORCA TERMINATED NORMALLY****
TOTAL RUN TIME: 0 days 0 hours 0 minutes 26 seconds 850 msec
