                         Program Version 5.0.3 -  RELEASE  -
|  1> !ri-mp2 aug-cc-pvdz aug-cc-pvdz/c tightscf
|  2> %pal nprocs 16 end
|  3>
|  4> * xyz 0 1
|  5> O      3.552425   -1.677314   -0.000076
|  6> O     -3.552425   -1.677314   -0.000133
|  7> O      4.601741    0.288643    0.000051
|  8> O     -4.601741    0.288643   -0.000016
|  9> N      0.000000    1.455001    0.000098
| 10> C      3.482204   -0.481149   -0.000003
| 11> C     -3.482204   -0.481149   -0.000058
| 12> C      2.240625    0.251308    0.000033
| 13> C     -2.240624    0.251308   -0.000006
| 14> C      1.181312    0.822939    0.000062
| 15> C     -1.181312    0.822939    0.000041
| 16> H      4.369566    1.225617    0.000108
| 17> H     -4.369566    1.225617    0.000046
| 18> H      0.000000    2.465308    0.000146
| 19> *
| 20>
| 21>                          ****END OF INPUT****

CARTESIAN COORDINATES (ANGSTROEM)
---------------------------------
  O      3.552425   -1.677314   -0.000076
  O     -3.552425   -1.677314   -0.000133
  O      4.601741    0.288643    0.000051
  O     -4.601741    0.288643   -0.000016
  N      0.000000    1.455001    0.000098
  C      3.482204   -0.481149   -0.000003
  C     -3.482204   -0.481149   -0.000058
  C      2.240625    0.251308    0.000033
  C     -2.240624    0.251308   -0.000006
  C      1.181312    0.822939    0.000062
  C     -1.181312    0.822939    0.000041
  H      4.369566    1.225617    0.000108
  H     -4.369566    1.225617    0.000046
  H      0.000000    2.465308    0.000146

 Total Charge           Charge          ....    0
 Multiplicity           Mult            ....    1
 Number of Electrons    NEL             ....   78
 Basis Dimension        Dim             ....  280

ORBITAL ENERGIES
----------------

  NO   OCC          E(Eh)            E(eV)
   0   2.0000     -20.642203      -561.7029
   1   2.0000     -20.642203      -561.7029
   2   2.0000     -20.576521      -559.9156
   3   2.0000     -20.576520      -559.9156
   4   2.0000     -15.706272      -427.3894
   5   2.0000     -11.435114      -311.1653
   6   2.0000     -11.435114      -311.1653
   7   2.0000     -11.349484      -308.8352
   8   2.0000     -11.349468      -308.8347
   9   2.0000     -11.291040      -307.2448
  10   2.0000     -11.291039      -307.2448
  11   2.0000      -1.484721       -40.4013
  12   2.0000      -1.484714       -40.4011
  13   2.0000      -1.390437       -37.8357
  14   2.0000      -1.390433       -37.8356
  15   2.0000      -1.358245       -36.9597
  16   2.0000      -1.112075       -30.2611
  17   2.0000      -1.079316       -29.3697
  18   2.0000      -0.943046       -25.6616
  19   2.0000      -0.913190       -24.8492
  20   2.0000      -0.858994       -23.3744
  21   2.0000      -0.835694       -22.7404
  22   2.0000      -0.815120       -22.1805
  23   2.0000      -0.813463       -22.1354
  24   2.0000      -0.682441       -18.5702
  25   2.0000      -0.682190       -18.5633
  26   2.0000      -0.662160       -18.0183
  27   2.0000      -0.653216       -17.7749
  28   2.0000      -0.634179       -17.2569
  29   2.0000      -0.621692       -16.9171
  30   2.0000      -0.620653       -16.8888
  31   2.0000      -0.510350       -13.8873
  32   2.0000      -0.504314       -13.7231
  33   2.0000      -0.493870       -13.4389
  34   2.0000      -0.493167       -13.4198
  35   2.0000      -0.461753       -12.5649
  36   2.0000      -0.459348       -12.4995
  37   2.0000      -0.449423       -12.2294
  38   2.0000      -0.384358       -10.4589
  39   0.0000       0.003942         0.1073
  40   0.0000       0.026729         0.7273
  41   0.0000       0.042447         1.1550
  42   0.0000       0.073581         2.0022
  43   0.0000       0.074133         2.0173

MULLIKEN ATOMIC CHARGES
-----------------------
   0 O :   -0.704878
   1 O :   -0.704877
   2 O :   -0.682446
   3 O :   -0.682446
   4 N :   -0.407811
   5 C :    1.262096
   6 C :    1.262096
   7 C :    0.487324
   8 C :    0.487322
   9 C :   -0.389088
  10 C :   -0.389085
  11 H :    0.213996
  12 H :    0.213996
  13 H :    0.033801
Sum of atomic charges:    0.0000000

LOEWDIN ATOMIC CHARGES
----------------------
   0 O :    0.072399
   1 O :    0.072399
   2 O :    0.209486
   3 O :    0.209486
   4 N :    0.065863
   5 C :   -0.390591
   6 C :   -0.390590
   7 C :    0.098495
   8 C :    0.098495
   9 C :   -0.008643
  10 C :   -0.008643
  11 H :   -0.035117
  12 H :   -0.035117
  13 H :    0.042077

  Mayer bond orders larger than 0.100000
B(  0-O ,  5-C ) :   1.4883 B(  1-O ,  6-C ) :   1.4883 B(  2-O ,  5-C ) :   0.3855
B(  2-O ,  7-C ) :   0.1854 B(  2-O , 11-H ) :   0.9904 B(  3-O ,  6-C ) :   0.3855
B(  3-O ,  8-C ) :   0.1854 B(  3-O , 12-H ) :   0.9904 B(  4-N ,  7-C ) :  -0.1454
B(  4-N ,  8-C ) :  -0.1454 B(  4-N ,  9-C ) :   1.2010 B(  4-N , 10-C ) :   1.2010
B(  4-N , 13-H ) :   1.0108 B(  5-C ,  7-C ) :   0.8286 B(  5-C ,  9-C ) :   0.1490
B(  6-C ,  8-C ) :   0.8286 B(  6-C , 10-C ) :   0.1490 B(  7-C ,  9-C ) :   2.6152
B(  8-C , 10-C ) :   2.6152 B(  9-C , 10-C ) :   0.4529

MP2 TOTAL ENERGY:     -584.514597521 Eh
FINAL SINGLE POINT ENERGY      -584.514597520786

DIPOLE MOMENT
-------------
                                X             Y             Z
Electronic contribution:     -0.00000      -0.79891      -0.00005
Nuclear contribution   :     -0.00000       4.67076       0.00028
                        -----------------------------------------
Total Dipole Moment    :     -0.00000       3.87184       0.00024
                        -----------------------------------------
Magnitude (a.u.)       :      3.87184
Magnitude (Debye)      :      9.84144

Rotational constants in cm-1:     0.108977     0.010770     0.009801
Rotational constants in MHz :  3267.059964   322.865283   293.827912

                             ****ORCA TERMINATED NORMALLY****
TOTAL RUN TIME: 0 days 0 hours 0 minutes 55 seconds 916 msec
