                         Program Version 5.0.3 -  RELEASE  -
|  1> !ri-mp2 aug-cc-pvdz aug-cc-pvdz/c tightscf
|  2> %pal nprocs 16 end
|  3>
|  4> * xyz 0 1
|  5> F      0.201937    2.092857   -0.235362
|  6> O      2.218016   -1.126868   -0.702067
|  7> O      2.244199    0.459327    0.785864
|  8> N     -0.418686   -1.425726    0.129866
|  9> N      1.685363   -0.319981    0.031773
| 10> C      0.196563   -0.271665    0.023108
| 11> C     -0.463634    0.946200   -0.091353
| 12> C     -1.846644    0.947840   -0.089972
| 13> C     -2.503225   -0.267010    0.041067
| 14> C     -1.749398   -1.430562    0.150722
| 15> H     -2.376584    1.884122   -0.192026
| 16> H     -3.582748   -0.311349    0.052145
| 17> H     -2.224534   -2.397029    0.254856
| 18> *
| 19>
| 20>                          ****END OF INPUT****

CARTESIAN COORDINATES (ANGSTROEM)
---------------------------------
  F      0.201937    2.092857   -0.235362
  O      2.218016   -1.126868   -0.702067
  O      2.244199    0.459327    0.785864
  N     -0.418686   -1.425726    0.129866
  N      1.685363   -0.319981    0.031773
  C      0.196563   -0.271665    0.023108
  C     -0.463634    0.946200   -0.091353
  C     -1.846644    0.947840   -0.089972
  C     -2.503225   -0.267010    0.041067
  C     -1.749398   -1.430562    0.150722
  H     -2.376584    1.884122   -0.192026
  H     -3.582748   -0.311349    0.052145
  H     -2.224534   -2.397029    0.254856

 Total Charge           Charge          ....    0
 Multiplicity           Mult            ....    1
 Number of Electrons    NEL             ....   72
 Basis Dimension        Dim             ....  257

ORBITAL ENERGIES
----------------

  NO   OCC          E(Eh)            E(eV)
   0   2.0000     -26.364147      -717.4049
   1   2.0000     -20.625682      -561.2534
   2   2.0000     -20.623393      -561.1911
   3   2.0000     -15.870817      -431.8669
   4   2.0000     -15.631009      -425.3414
   5   2.0000     -11.389349      -309.9199
   6   2.0000     -11.374029      -309.5031
   7   2.0000     -11.322270      -308.0946
   8   2.0000     -11.307816      -307.7013
   9   2.0000     -11.297981      -307.4337
  10   2.0000      -1.677533       -45.6480
  11   2.0000      -1.625997       -44.2456
  12   2.0000      -1.420658       -38.6581
  13   2.0000      -1.330524       -36.2054
  14   2.0000      -1.146483       -31.1974
  15   2.0000      -1.119056       -30.4511
  16   2.0000      -0.999421       -27.1956
  17   2.0000      -0.925111       -25.1736
  18   2.0000      -0.881331       -23.9822
  19   2.0000      -0.805027       -21.9059
  20   2.0000      -0.788356       -21.4523
  21   2.0000      -0.769701       -20.9446
  22   2.0000      -0.743370       -20.2281
  23   2.0000      -0.733468       -19.9587
  24   2.0000      -0.715187       -19.4612
  25   2.0000      -0.704478       -19.1698
  26   2.0000      -0.667799       -18.1717
  27   2.0000      -0.627614       -17.0783
  28   2.0000      -0.603422       -16.4199
  29   2.0000      -0.592838       -16.1320
  30   2.0000      -0.513289       -13.9673
  31   2.0000      -0.509257       -13.8576
  32   2.0000      -0.473709       -12.8903
  33   2.0000      -0.457784       -12.4569
  34   2.0000      -0.430752       -11.7214
  35   2.0000      -0.390153       -10.6166
  36   0.0000       0.020782         0.5655
  37   0.0000       0.034736         0.9452
  38   0.0000       0.040303         1.0967
  39   0.0000       0.047372         1.2891
  40   0.0000       0.066863         1.8194

MULLIKEN ATOMIC CHARGES
-----------------------
   0 F :   -0.786843
   1 O :   -0.739988
   2 O :   -0.714780
   3 N :   -0.525054
   4 N :    0.384760
   5 C :    0.767073
   6 C :    1.144158
   7 C :    0.188672
   8 C :    0.909188
   9 C :    0.455532
  10 H :   -0.369726
  11 H :   -0.395129
  12 H :   -0.317862
Sum of atomic charges:    0.0000000

LOEWDIN ATOMIC CHARGES
----------------------
   0 F :    0.096967
   1 O :    0.111916
   2 O :    0.103477
   3 N :    0.096242
   4 N :   -0.336133
   5 C :   -0.122562
   6 C :   -0.131329
   7 C :    0.085074
   8 C :    0.050237
   9 C :    0.002486
  10 H :    0.024585
  11 H :    0.010299
  12 H :    0.008741

  Mayer bond orders larger than 0.100000
B(  0-F ,  5-C ) :   0.3661 B(  0-F ,  6-C ) :  -0.3637 B(  0-F ,  7-C ) :   0.2312
B(  1-O ,  2-O ) :   0.2040 B(  1-O ,  4-N ) :   1.3001 B(  1-O ,  5-C ) :  -0.2168
B(  2-O ,  4-N ) :   1.2381 B(  2-O ,  5-C ) :  -0.1961 B(  3-N ,  5-C ) :   1.3140
B(  3-N ,  9-C ) :   1.2031 B(  3-N , 12-H ) :  -0.1061 B(  4-N ,  5-C ) :   0.2972
B(  4-N ,  6-C ) :  -0.1534 B(  5-C ,  6-C ) :   1.1418 B(  5-C ,  7-C ) :   0.2424
B(  5-C ,  9-C ) :   0.1534 B(  6-C ,  7-C ) :   1.5090 B(  7-C ,  8-C ) :   1.5387
B(  7-C ,  9-C ) :   0.2102 B(  7-C , 10-H ) :   0.6513 B(  7-C , 11-H ) :   0.2241
B(  8-C ,  9-C ) :   1.1947 B(  8-C , 11-H ) :   0.5310 B(  9-C , 12-H ) :   0.8951

MP2 TOTAL ENERGY:     -550.684888824 Eh
FINAL SINGLE POINT ENERGY      -550.684888824319

DIPOLE MOMENT
-------------
                                X             Y             Z
Electronic contribution:      5.26329       3.02648      -0.36702
Nuclear contribution   :     -7.90408      -2.77117       0.33278
                        -----------------------------------------
Total Dipole Moment    :     -2.64079       0.25531      -0.03424
                        -----------------------------------------
Magnitude (a.u.)       :      2.65332
Magnitude (Debye)      :      6.74421

Rotational constants in cm-1:     0.078869     0.042023     0.029289
Rotational constants in MHz :  2364.442333  1259.815338   878.070937

                             ****ORCA TERMINATED NORMALLY****
TOTAL RUN TIME: 0 days 0 hours 1 minutes 25 seconds 9 msec
