                         Program Version 5.0.3 -  RELEASE  -
|  1> !ri-mp2 aug-cc-pvdz aug-cc-pvdz/c tightscf
|  2> %pal nprocs 16 end
|  3>
|  4> * xyz 0 1
|  5> H     -3.802515   -1.239154    0.000000
|  6> H     -2.689478    0.229953    0.000000
|  7> C     -2.794898   -0.846771    0.000000
|  8> H     -1.915495   -2.733395    0.000000
|  9> C     -1.747715   -1.660126    0.000000
| 10> H      0.189038   -1.709801    0.877836
| 11> H      0.189038   -1.709801   -0.877836
| 12> C     -0.299553   -1.277902    0.000000
| 13> S      0.000000    0.525942    0.000000
| 14> H      2.174574   -0.032527    0.883368
| 15> H      2.174574   -0.032527   -0.883368
| 16> C      1.831485    0.507447    0.000000
| 17> H      3.459524    1.922130    0.000000
| 18> H      2.036376    2.479514   -0.882479
| 19> H      2.036376    2.479514    0.882479
| 20> C      2.368679    1.932523    0.000000
| 21> *
| 22>
| 23>                          ****END OF INPUT****

CARTESIAN COORDINATES (ANGSTROEM)
---------------------------------
  H     -3.802515   -1.239154    0.000000
  H     -2.689478    0.229953    0.000000
  C     -2.794898   -0.846771    0.000000
  H     -1.915495   -2.733395    0.000000
  C     -1.747715   -1.660126    0.000000
  H      0.189038   -1.709801    0.877836
  H      0.189038   -1.709801   -0.877836
  C     -0.299553   -1.277902    0.000000
  S      0.000000    0.525942    0.000000
  H      2.174574   -0.032527    0.883368
  H      2.174574   -0.032527   -0.883368
  C      1.831485    0.507447    0.000000
  H      3.459524    1.922130    0.000000
  H      2.036376    2.479514   -0.882479
  H      2.036376    2.479514    0.882479
  C      2.368679    1.932523    0.000000

 Total Charge           Charge          ....    0
 Multiplicity           Mult            ....    1
 Number of Electrons    NEL             ....   56
 Basis Dimension        Dim             ....  232

ORBITAL ENERGIES
----------------

  NO   OCC          E(Eh)            E(eV)
   0   2.0000     -91.942030     -2501.8698
   1   2.0000     -11.267766      -306.6115
   2   2.0000     -11.263810      -306.5038
   3   2.0000     -11.246442      -306.0313
   4   2.0000     -11.231216      -305.6169
   5   2.0000     -11.228824      -305.5518
   6   2.0000      -8.943804      -243.3733
   7   2.0000      -6.625773      -180.2965
   8   2.0000      -6.624459      -180.2607
   9   2.0000      -6.622356      -180.2035
  10   2.0000      -1.099537       -29.9199
  11   2.0000      -1.056315       -28.7438
  12   2.0000      -0.976077       -26.5604
  13   2.0000      -0.890887       -24.2423
  14   2.0000      -0.809943       -22.0397
  15   2.0000      -0.741913       -20.1885
  16   2.0000      -0.649131       -17.6638
  17   2.0000      -0.632306       -17.2059
  18   2.0000      -0.597453       -16.2575
  19   2.0000      -0.594825       -16.1860
  20   2.0000      -0.576319       -15.6824
  21   2.0000      -0.531883       -14.4733
  22   2.0000      -0.514768       -14.0075
  23   2.0000      -0.508047       -13.8247
  24   2.0000      -0.462929       -12.5970
  25   2.0000      -0.424544       -11.5524
  26   2.0000      -0.366695        -9.9783
  27   2.0000      -0.334922        -9.1137
  28   0.0000       0.034914         0.9501
  29   0.0000       0.039796         1.0829
  30   0.0000       0.045131         1.2281
  31   0.0000       0.050949         1.3864
  32   0.0000       0.058194         1.5835

MULLIKEN ATOMIC CHARGES
-----------------------
   0 H :   -0.318340
   1 H :   -0.239186
   2 C :    0.597591
   3 H :   -0.431837
   4 C :    0.512875
   5 H :    0.011719
   6 H :    0.011719
   7 C :   -0.342218
   8 S :    0.358033
   9 H :   -0.161551
  10 H :   -0.161551
  11 C :   -0.102394
  12 H :   -0.037518
  13 H :   -0.066706
  14 H :   -0.066706
  15 C :    0.436073
Sum of atomic charges:   -0.0000000

LOEWDIN ATOMIC CHARGES
----------------------
   0 H :   -0.043733
   1 H :   -0.064440
   2 C :    0.142067
   3 H :   -0.005937
   4 C :   -0.128547
   5 H :   -0.027680
   6 H :   -0.027680
   7 C :   -0.292129
   8 S :    0.845814
   9 H :   -0.035036
  10 H :   -0.035036
  11 C :   -0.323652
  12 H :   -0.022132
  13 H :   -0.024798
  14 H :   -0.024798
  15 C :    0.067718

  Mayer bond orders larger than 0.100000
B(  0-H ,  1-H ) :  -0.2046 B(  0-H ,  2-C ) :   0.7075 B(  0-H ,  4-C ) :   0.1281
B(  1-H ,  2-C ) :   0.8354 B(  2-C ,  4-C ) :   2.0123 B(  3-H ,  4-C ) :   0.6073
B(  3-H ,  7-C ) :   0.1802 B(  4-C ,  7-C ) :   1.4077 B(  4-C ,  8-S ) :  -0.1812
B(  5-H ,  7-C ) :   0.8803 B(  6-H ,  7-C ) :   0.8803 B(  7-C ,  8-S ) :   1.0847
B(  8-S , 11-C ) :   1.0377 B(  9-H , 11-C ) :   0.9069 B( 10-H , 11-C ) :   0.9069
B( 11-C , 15-C ) :   1.2169 B( 12-H , 15-C ) :   0.9074 B( 13-H , 15-C ) :   0.9461
B( 14-H , 15-C ) :   0.9461

MP2 TOTAL ENERGY:     -593.560358648 Eh
FINAL SINGLE POINT ENERGY      -593.560358647775

DIPOLE MOMENT
-------------
                                X             Y             Z
Electronic contribution:     -3.37196      -0.12462       0.00000
Nuclear contribution   :      3.96423      -0.37288       0.00000
                        -----------------------------------------
Total Dipole Moment    :      0.59226      -0.49750       0.00000
                        -----------------------------------------
Magnitude (a.u.)       :      0.77349
Magnitude (Debye)      :      1.96604

Rotational constants in cm-1:     0.328034     0.041933     0.037967
Rotational constants in MHz :  9834.205286  1257.121632  1138.216973

                             ****ORCA TERMINATED NORMALLY****
TOTAL RUN TIME: 0 days 0 hours 0 minutes 42 seconds 589 msec
