                         Program Version 5.0.3 -  RELEASE  -
|  1> !ri-mp2 aug-cc-pvdz aug-cc-pvdz/c tightscf
|  2> %pal nprocs 16 end
|  3>
|  4> * xyz 0 1
|  5> S     -2.444945    0.114711   -0.000002
|  6> O      1.338014    1.334195    0.000002
|  7> O      2.574349   -0.551462    0.000001
|  8> C      1.397186    0.128744    0.000001
|  9> C      0.265164   -0.804020    0.000000
| 10> C     -0.982040   -0.381913    0.000000
| 11> H      3.277153    0.114294    0.000002
| 12> H      0.461205   -1.868401    0.000000
| 13> *
| 14>
| 15>                          ****END OF INPUT****

CARTESIAN COORDINATES (ANGSTROEM)
---------------------------------
  S     -2.444945    0.114711   -0.000002
  O      1.338014    1.334195    0.000002
  O      2.574349   -0.551462    0.000001
  C      1.397186    0.128744    0.000001
  C      0.265164   -0.804020    0.000000
  C     -0.982040   -0.381913    0.000000
  H      3.277153    0.114294    0.000002
  H      0.461205   -1.868401    0.000000

 Total Charge           Charge          ....    0
 Multiplicity           Mult            ....    1
 Number of Electrons    NEL             ....   52
 Basis Dimension        Dim             ....  160

ORBITAL ENERGIES
----------------

  NO   OCC          E(Eh)            E(eV)
   0   2.0000     -92.006825     -2503.6330
   1   2.0000     -20.630978      -561.3974
   2   2.0000     -20.566057      -559.6309
   3   2.0000     -11.415816      -310.6401
   4   2.0000     -11.382749      -309.7403
   5   2.0000     -11.276685      -306.8542
   6   2.0000      -9.010052      -245.1760
   7   2.0000      -6.692080      -182.1008
   8   2.0000      -6.689710      -182.0363
   9   2.0000      -6.688080      -181.9919
  10   2.0000      -1.477001       -40.1912
  11   2.0000      -1.374507       -37.4022
  12   2.0000      -1.150334       -31.3022
  13   2.0000      -1.045402       -28.4468
  14   2.0000      -0.883194       -24.0329
  15   2.0000      -0.729851       -19.8602
  16   2.0000      -0.721967       -19.6457
  17   2.0000      -0.684686       -18.6313
  18   2.0000      -0.643680       -17.5154
  19   2.0000      -0.615033       -16.7359
  20   2.0000      -0.606838       -16.5129
  21   2.0000      -0.527690       -14.3592
  22   2.0000      -0.491156       -13.3650
  23   2.0000      -0.475087       -12.9278
  24   2.0000      -0.451554       -12.2874
  25   2.0000      -0.353730        -9.6255
  26   0.0000       0.029572         0.8047
  27   0.0000       0.034357         0.9349
  28   0.0000       0.046154         1.2559
  29   0.0000       0.063905         1.7389
  30   0.0000       0.069241         1.8841

MULLIKEN ATOMIC CHARGES
-----------------------
   0 S :    0.173511
   1 O :   -0.722017
   2 O :   -0.723165
   3 C :    0.964830
   4 C :    0.672917
   5 C :   -0.293003
   6 H :    0.242788
   7 H :   -0.315862
Sum of atomic charges:    0.0000000

LOEWDIN ATOMIC CHARGES
----------------------
   0 S :    0.770181
   1 O :    0.033255
   2 O :    0.194946
   3 C :   -0.381366
   4 C :   -0.039270
   5 C :   -0.554697
   6 H :   -0.019821
   7 H :   -0.003228

  Mayer bond orders larger than 0.100000
B(  0-S ,  4-C ) :   0.2042 B(  0-S ,  5-C ) :   1.9921 B(  1-O ,  3-C ) :   1.4199
B(  2-O ,  3-C ) :   0.4139 B(  2-O ,  4-C ) :   0.1516 B(  2-O ,  6-H ) :   0.9732
B(  3-C ,  4-C ) :   0.7530 B(  4-C ,  5-C ) :   1.1134 B(  4-C ,  7-H ) :   0.9282

MP2 TOTAL ENERGY:     -662.956452678 Eh
FINAL SINGLE POINT ENERGY      -662.956452677625

DIPOLE MOMENT
-------------
                                X             Y             Z
Electronic contribution:     -3.68939       0.87926      -0.00000
Nuclear contribution   :      3.70668      -1.66929       0.00000
                        -----------------------------------------
Total Dipole Moment    :      0.01729      -0.79003      -0.00000
                        -----------------------------------------
Magnitude (a.u.)       :      0.79022
Magnitude (Debye)      :      2.00858

Rotational constants in cm-1:     0.358796     0.045184     0.040130
Rotational constants in MHz : 10756.438011  1354.578154  1203.072950

                             ****ORCA TERMINATED NORMALLY****
TOTAL RUN TIME: 0 days 0 hours 0 minutes 34 seconds 647 msec
