                         Program Version 5.0.3 -  RELEASE  -
|  1> !ri-mp2 aug-cc-pvdz aug-cc-pvdz/c tightscf
|  2> %pal nprocs 16 end
|  3>
|  4> * xyz 0 1
|  5> C      0.753389   -0.242774   -0.066189
|  6> C      1.950166    0.504928    0.480694
|  7> C     -1.111331    1.335203   -0.553983
|  8> C     -1.623252   -0.926800    0.469523
|  9> C     -0.624754    0.227078    0.399162
| 10> O      0.883709   -1.161368   -0.844108
| 11> H      1.795440    1.584352    0.445517
| 12> H      2.847365    0.235724   -0.070490
| 13> H      2.082848    0.238822    1.532800
| 14> H     -1.240580    0.938427   -1.561561
| 15> H     -2.071930    1.724975   -0.215890
| 16> H     -0.412270    2.170887   -0.605134
| 17> H     -1.294846   -1.694619    1.170584
| 18> H     -1.735386   -1.397170   -0.506315
| 19> H     -2.599221   -0.564364    0.794752
| 20> H     -0.506399    0.668094    1.393352
| 21> *
| 22>
| 23>                          ****END OF INPUT****

CARTESIAN COORDINATES (ANGSTROEM)
---------------------------------
  C      0.753389   -0.242774   -0.066189
  C      1.950166    0.504928    0.480694
  C     -1.111331    1.335203   -0.553983
  C     -1.623252   -0.926800    0.469523
  C     -0.624754    0.227078    0.399162
  O      0.883709   -1.161368   -0.844108
  H      1.795440    1.584352    0.445517
  H      2.847365    0.235724   -0.070490
  H      2.082848    0.238822    1.532800
  H     -1.240580    0.938427   -1.561561
  H     -2.071930    1.724975   -0.215890
  H     -0.412270    2.170887   -0.605134
  H     -1.294846   -1.694619    1.170584
  H     -1.735386   -1.397170   -0.506315
  H     -2.599221   -0.564364    0.794752
  H     -0.506399    0.668094    1.393352

 Total Charge           Charge          ....    0
 Multiplicity           Mult            ....    1
 Number of Electrons    NEL             ....   48
 Basis Dimension        Dim             ....  228

ORBITAL ENERGIES
----------------

  NO   OCC          E(Eh)            E(eV)
   0   2.0000     -20.552698      -559.2674
   1   2.0000     -11.333218      -308.3925
   2   2.0000     -11.247634      -306.0637
   3   2.0000     -11.239957      -305.8548
   4   2.0000     -11.235077      -305.7220
   5   2.0000     -11.222230      -305.3724
   6   2.0000      -1.389714       -37.8160
   7   2.0000      -1.089551       -29.6482
   8   2.0000      -1.005480       -27.3605
   9   2.0000      -0.940136       -25.5824
  10   2.0000      -0.851899       -23.1813
  11   2.0000      -0.724864       -19.7246
  12   2.0000      -0.665346       -18.1050
  13   2.0000      -0.634108       -17.2550
  14   2.0000      -0.613064       -16.6823
  15   2.0000      -0.595893       -16.2151
  16   2.0000      -0.572286       -15.5727
  17   2.0000      -0.553836       -15.0706
  18   2.0000      -0.544511       -14.8169
  19   2.0000      -0.518542       -14.1102
  20   2.0000      -0.502581       -13.6759
  21   2.0000      -0.485126       -13.2009
  22   2.0000      -0.473965       -12.8973
  23   2.0000      -0.401351       -10.9213
  24   0.0000       0.032129         0.8743
  25   0.0000       0.042003         1.1430
  26   0.0000       0.045250         1.2313
  27   0.0000       0.051657         1.4057
  28   0.0000       0.065034         1.7697

MULLIKEN ATOMIC CHARGES
-----------------------
   0 C :    0.362773
   1 C :    0.376040
   2 C :    0.751584
   3 C :    0.781182
   4 C :   -0.973046
   5 O :   -0.827477
   6 H :   -0.011919
   7 H :   -0.077783
   8 H :    0.083404
   9 H :   -0.002469
  10 H :   -0.076748
  11 H :   -0.131839
  12 H :   -0.076887
  13 H :    0.020360
  14 H :   -0.048904
  15 H :   -0.148272
Sum of atomic charges:    0.0000000

LOEWDIN ATOMIC CHARGES
----------------------
   0 C :   -0.284445
   1 C :    0.196911
   2 C :    0.171711
   3 C :    0.163395
   4 C :   -0.242762
   5 O :    0.052310
   6 H :   -0.013262
   7 H :   -0.008180
   8 H :   -0.003462
   9 H :   -0.004199
  10 H :   -0.011340
  11 H :   -0.018414
  12 H :   -0.009692
  13 H :   -0.010206
  14 H :   -0.013796
  15 H :    0.035432

  Mayer bond orders larger than 0.100000
B(  0-C ,  1-C ) :   1.1270 B(  0-C ,  4-C ) :   1.0126 B(  0-C ,  5-O ) :   1.3502
B(  0-C ,  7-H ) :   0.1522 B(  1-C ,  6-H ) :   0.9423 B(  1-C ,  7-H ) :   0.8358
B(  1-C ,  8-H ) :   0.9237 B(  2-C ,  3-C ) :  -0.1713 B(  2-C ,  4-C ) :   1.2943
B(  2-C ,  9-H ) :   0.8955 B(  2-C , 10-H ) :   0.8203 B(  2-C , 11-H ) :   0.8785
B(  3-C ,  4-C ) :   1.3431 B(  3-C , 12-H ) :   0.8226 B(  3-C , 13-H ) :   0.9021
B(  3-C , 14-H ) :   0.8004 B(  4-C , 10-H ) :   0.1065 B(  4-C , 12-H ) :   0.1084
B(  4-C , 13-H ) :   0.1242 B(  4-C , 14-H ) :   0.1295 B(  4-C , 15-H ) :   0.7174

MP2 TOTAL ENERGY:     -270.992676920 Eh
FINAL SINGLE POINT ENERGY      -270.992676920354

DIPOLE MOMENT
-------------
                                X             Y             Z
Electronic contribution:      3.07046      -3.08713      -1.68119
Nuclear contribution   :     -3.26648       4.06793       2.47448
                        -----------------------------------------
Total Dipole Moment    :     -0.19601       0.98080       0.79328
                        -----------------------------------------
Magnitude (a.u.)       :      1.27659
Magnitude (Debye)      :      3.24484

Rotational constants in cm-1:     0.158665     0.092712     0.075134
Rotational constants in MHz :  4756.667632  2779.429156  2252.475532

                             ****ORCA TERMINATED NORMALLY****
TOTAL RUN TIME: 0 days 0 hours 0 minutes 39 seconds 950 msec
