                         Program Version 5.0.3 -  RELEASE  -
|  1> !ri-mp2 aug-cc-pvdz aug-cc-pvdz/c tightscf
|  2> %pal nprocs 16 end
|  3>
|  4> * xyz 0 1
|  5> H     -2.208077    0.786344    0.000000
|  6> C     -1.250002    0.285807    0.000000
|  7> C      0.000000    0.979789    0.000000
|  8> C      1.052965    0.110970    0.000000
|  9> H     -1.892989   -1.815714    0.000000
| 10> C     -1.117544   -1.068772    0.000000
| 11> S      0.542369   -1.539521    0.000000
| 12> H      1.168494    2.786598    0.000000
| 13> H     -0.354771    2.912496    0.878798
| 14> H     -0.354771    2.912496   -0.878798
| 15> C      0.124666    2.475760    0.000000
| 16> H      2.103691    0.348795    0.000000
| 17> *
| 18>
| 19>                          ****END OF INPUT****

CARTESIAN COORDINATES (ANGSTROEM)
---------------------------------
  H     -2.208077    0.786344    0.000000
  C     -1.250002    0.285807    0.000000
  C      0.000000    0.979789    0.000000
  C      1.052965    0.110970    0.000000
  H     -1.892989   -1.815714    0.000000
  C     -1.117544   -1.068772    0.000000
  S      0.542369   -1.539521    0.000000
  H      1.168494    2.786598    0.000000
  H     -0.354771    2.912496    0.878798
  H     -0.354771    2.912496   -0.878798
  C      0.124666    2.475760    0.000000
  H      2.103691    0.348795    0.000000

 Total Charge           Charge          ....    0
 Multiplicity           Mult            ....    1
 Number of Electrons    NEL             ....   52
 Basis Dimension        Dim             ....  196

ORBITAL ENERGIES
----------------

  NO   OCC          E(Eh)            E(eV)
   0   2.0000     -91.979587     -2502.8918
   1   2.0000     -11.266989      -306.5903
   2   2.0000     -11.258530      -306.3602
   3   2.0000     -11.247830      -306.0690
   4   2.0000     -11.239411      -305.8399
   5   2.0000     -11.235819      -305.7422
   6   2.0000      -8.982196      -244.4180
   7   2.0000      -6.663860      -181.3328
   8   2.0000      -6.662983      -181.3090
   9   2.0000      -6.661130      -181.2586
  10   2.0000      -1.174972       -31.9726
  11   2.0000      -1.032147       -28.0862
  12   2.0000      -0.984082       -26.7782
  13   2.0000      -0.915144       -24.9023
  14   2.0000      -0.771858       -21.0033
  15   2.0000      -0.734111       -19.9762
  16   2.0000      -0.670266       -18.2389
  17   2.0000      -0.584550       -15.9064
  18   2.0000      -0.581159       -15.8141
  19   2.0000      -0.563848       -15.3431
  20   2.0000      -0.522413       -14.2156
  21   2.0000      -0.513008       -13.9597
  22   2.0000      -0.505954       -13.7677
  23   2.0000      -0.467533       -12.7222
  24   2.0000      -0.337652        -9.1880
  25   2.0000      -0.321797        -8.7565
  26   0.0000       0.035841         0.9753
  27   0.0000       0.040763         1.1092
  28   0.0000       0.045546         1.2394
  29   0.0000       0.057615         1.5678
  30   0.0000       0.059235         1.6119

MULLIKEN ATOMIC CHARGES
-----------------------
   0 H :   -0.460082
   1 C :    0.372884
   2 C :   -0.248663
   3 C :    0.280753
   4 H :   -0.355506
   5 C :   -0.094042
   6 S :    0.608348
   7 H :   -0.159480
   8 H :    0.044170
   9 H :    0.044170
  10 C :    0.466309
  11 H :   -0.498861
Sum of atomic charges:   -0.0000000

LOEWDIN ATOMIC CHARGES
----------------------
   0 H :   -0.003833
   1 C :   -0.068145
   2 C :   -0.339904
   3 C :   -0.256797
   4 H :   -0.057274
   5 C :   -0.286865
   6 S :    0.938563
   7 H :   -0.015981
   8 H :   -0.010970
   9 H :   -0.010970
  10 C :    0.165343
  11 H :   -0.053167

  Mayer bond orders larger than 0.100000
B(  0-H ,  1-C ) :   0.5531 B(  0-H ,  2-C ) :   0.1232 B(  1-C ,  2-C ) :   1.3987
B(  1-C ,  3-C ) :  -0.3698 B(  1-C ,  4-H ) :   0.1646 B(  1-C ,  5-C ) :   1.9880
B(  1-C , 10-C ) :  -0.3977 B(  2-C ,  3-C ) :   2.0779 B(  2-C ,  7-H ) :   0.3371
B(  2-C ,  8-H ) :   0.2097 B(  2-C ,  9-H ) :   0.2097 B(  2-C , 10-C ) :   1.3870
B(  2-C , 11-H ) :   0.3574 B(  3-C ,  6-S ) :   0.9653 B(  3-C ,  7-H ) :  -0.1447
B(  3-C , 11-H ) :   0.5154 B(  4-H ,  5-C ) :   0.8154 B(  4-H ,  6-S ) :  -0.1533
B(  5-C ,  6-S ) :   0.8841 B(  5-C , 10-C ) :   0.2022 B(  6-S , 10-C ) :   0.1210
B(  6-S , 11-H ) :  -0.1666 B(  7-H , 10-C ) :   0.7018 B(  8-H , 10-C ) :   0.8378
B(  9-H , 10-C ) :   0.8378 B( 10-C , 11-H ) :   0.1354

MP2 TOTAL ENERGY:     -591.209126326 Eh
FINAL SINGLE POINT ENERGY      -591.209126325838

DIPOLE MOMENT
-------------
                                X             Y             Z
Electronic contribution:      1.36491      -7.48580      -0.00000
Nuclear contribution   :     -1.54719       7.93762       0.00000
                        -----------------------------------------
Total Dipole Moment    :     -0.18227       0.45182      -0.00000
                        -----------------------------------------
Magnitude (a.u.)       :      0.48720
Magnitude (Debye)      :      1.23837

Rotational constants in cm-1:     0.232860     0.081691     0.061159
Rotational constants in MHz :  6980.969319  2449.041021  1833.488948

                             ****ORCA TERMINATED NORMALLY****
TOTAL RUN TIME: 0 days 0 hours 0 minutes 37 seconds 361 msec
