                         Program Version 5.0.3 -  RELEASE  -
|  1> !ri-mp2 aug-cc-pvdz aug-cc-pvdz/c tightscf
|  2> %pal nprocs 16 end
|  3>
|  4> * xyz 0 1
|  5> C     -1.174839   -1.203589    0.000000
|  6> C     -1.199799    0.182128    0.000000
|  7> C      0.057339   -1.847450    0.000000
|  8> C      1.173702    0.138239    0.000000
|  9> C      0.000000    0.891573    0.000000
| 10> C      0.034480    2.395305    0.000000
| 11> N      1.217307   -1.194023    0.000000
| 12> H     -2.090952   -1.778442    0.000000
| 13> H     -2.144751    0.712153    0.000000
| 14> H      0.113787   -2.930206    0.000000
| 15> H      2.134084    0.644651    0.000000
| 16> H     -0.468705    2.803456    0.878765
| 17> H      1.058791    2.765852    0.000000
| 18> H     -0.468705    2.803456   -0.878765
| 19> *
| 20>
| 21>                          ****END OF INPUT****

CARTESIAN COORDINATES (ANGSTROEM)
---------------------------------
  C     -1.174839   -1.203589    0.000000
  C     -1.199799    0.182128    0.000000
  C      0.057339   -1.847450    0.000000
  C      1.173702    0.138239    0.000000
  C      0.000000    0.891573    0.000000
  C      0.034480    2.395305    0.000000
  N      1.217307   -1.194023    0.000000
  H     -2.090952   -1.778442    0.000000
  H     -2.144751    0.712153    0.000000
  H      0.113787   -2.930206    0.000000
  H      2.134084    0.644651    0.000000
  H     -0.468705    2.803456    0.878765
  H      1.058791    2.765852    0.000000
  H     -0.468705    2.803456   -0.878765

 Total Charge           Charge          ....    0
 Multiplicity           Mult            ....    1
 Number of Electrons    NEL             ....   50
 Basis Dimension        Dim             ....  224

ORBITAL ENERGIES
----------------

  NO   OCC          E(Eh)            E(eV)
   0   2.0000     -15.570491      -423.6946
   1   2.0000     -11.274320      -306.7899
   2   2.0000     -11.272990      -306.7537
   3   2.0000     -11.257892      -306.3428
   4   2.0000     -11.251600      -306.1716
   5   2.0000     -11.245049      -305.9933
   6   2.0000     -11.239167      -305.8333
   7   2.0000      -1.260399       -34.2972
   8   2.0000      -1.103534       -30.0287
   9   2.0000      -1.051013       -28.5995
  10   2.0000      -0.952844       -25.9282
  11   2.0000      -0.860138       -23.4055
  12   2.0000      -0.829554       -22.5733
  13   2.0000      -0.710777       -19.3412
  14   2.0000      -0.671744       -18.2791
  15   2.0000      -0.633775       -17.2459
  16   2.0000      -0.587449       -15.9853
  17   2.0000      -0.579243       -15.7620
  18   2.0000      -0.571380       -15.5480
  19   2.0000      -0.551115       -14.9966
  20   2.0000      -0.527328       -14.3493
  21   2.0000      -0.509944       -13.8763
  22   2.0000      -0.412461       -11.2236
  23   2.0000      -0.377222       -10.2647
  24   2.0000      -0.336443        -9.1551
  25   0.0000       0.032469         0.8835
  26   0.0000       0.039039         1.0623
  27   0.0000       0.045805         1.2464
  28   0.0000       0.055668         1.5148
  29   0.0000       0.056886         1.5480

MULLIKEN ATOMIC CHARGES
-----------------------
   0 C :    0.493896
   1 C :    0.110770
   2 C :    0.410492
   3 C :    0.753454
   4 C :    0.206686
   5 C :    0.391020
   6 N :   -0.701050
   7 H :   -0.408151
   8 H :   -0.530316
   9 H :   -0.328242
  10 H :   -0.402118
  11 H :    0.077391
  12 H :   -0.151223
  13 H :    0.077391
Sum of atomic charges:    0.0000000

LOEWDIN ATOMIC CHARGES
----------------------
   0 C :    0.017424
   1 C :    0.050271
   2 C :   -0.038320
   3 C :   -0.002353
   4 C :   -0.212030
   5 C :    0.172188
   6 N :    0.031118
   7 H :   -0.001295
   8 H :    0.013951
   9 H :   -0.000737
  10 H :    0.003625
  11 H :   -0.009069
  12 H :   -0.015705
  13 H :   -0.009069

  Mayer bond orders larger than 0.100000
B(  0-C ,  1-C ) :   1.8899 B(  0-C ,  2-C ) :   1.3351 B(  0-C ,  6-N ) :  -0.1029
B(  0-C ,  7-H ) :   0.4941 B(  0-C ,  8-H ) :   0.1424 B(  1-C ,  2-C ) :   0.1801
B(  1-C ,  3-C ) :  -0.2725 B(  1-C ,  4-C ) :   1.2963 B(  1-C ,  5-C ) :  -0.3416
B(  1-C ,  7-H ) :   0.2660 B(  1-C ,  8-H ) :   0.3197 B(  1-C , 10-H ) :   0.1143
B(  2-C ,  6-N ) :   1.3680 B(  2-C ,  9-H ) :   0.8414 B(  3-C ,  4-C ) :   1.5406
B(  3-C ,  5-C ) :  -0.2333 B(  3-C ,  6-N ) :   1.2678 B(  3-C , 10-H ) :   0.6580
B(  3-C , 12-H ) :  -0.1034 B(  4-C ,  5-C ) :   1.5099 B(  4-C ,  8-H ) :   0.1927
B(  4-C , 11-H ) :   0.1851 B(  4-C , 12-H ) :   0.3378 B(  4-C , 13-H ) :   0.1851
B(  5-C , 11-H ) :   0.8737 B(  5-C , 12-H ) :   0.6873 B(  5-C , 13-H ) :   0.8737

MP2 TOTAL ENERGY:     -286.754998168 Eh
FINAL SINGLE POINT ENERGY      -286.754998167628

DIPOLE MOMENT
-------------
                                X             Y             Z
Electronic contribution:      1.07518      -4.43806      -0.00000
Nuclear contribution   :     -1.87477       5.05562       0.00000
                        -----------------------------------------
Total Dipole Moment    :     -0.79959       0.61756      -0.00000
                        -----------------------------------------
Magnitude (a.u.)       :      1.01031
Magnitude (Debye)      :      2.56800

Rotational constants in cm-1:     0.191650     0.086416     0.060223
Rotational constants in MHz :  5745.523199  2590.692671  1805.429748

                             ****ORCA TERMINATED NORMALLY****
TOTAL RUN TIME: 0 days 0 hours 0 minutes 47 seconds 912 msec
