                         Program Version 5.0.3 -  RELEASE  -
|  1> !ri-mp2 aug-cc-pvdz aug-cc-pvdz/c tightscf
|  2> %pal nprocs 16 end
|  3>
|  4> * xyz 0 1
|  5> H      1.698238    1.800485   -0.192826
|  6> C      0.918237    1.060294   -0.079962
|  7> H     -0.642305    2.415460    0.088334
|  8> C     -0.370105    1.369715    0.059818
|  9> H     -2.282342    0.596748   -0.513812
| 10> H     -1.850400    0.242473    1.140159
| 11> C     -1.442186    0.317252    0.126593
| 12> H     -0.784776   -1.061303   -1.405706
| 13> H     -1.516006   -1.859353   -0.019166
| 14> C     -0.868229   -1.033211   -0.317152
| 15> H      0.970892   -2.166720   -0.038422
| 16> H      0.456412   -1.234431    1.379263
| 17> C      0.514350   -1.233647    0.285501
| 18> O      1.429736   -0.201972   -0.110826
| 19> *
| 20>
| 21>                          ****END OF INPUT****

CARTESIAN COORDINATES (ANGSTROEM)
---------------------------------
  H      1.698238    1.800485   -0.192826
  C      0.918237    1.060294   -0.079962
  H     -0.642305    2.415460    0.088334
  C     -0.370105    1.369715    0.059818
  H     -2.282342    0.596748   -0.513812
  H     -1.850400    0.242473    1.140159
  C     -1.442186    0.317252    0.126593
  H     -0.784776   -1.061303   -1.405706
  H     -1.516006   -1.859353   -0.019166
  C     -0.868229   -1.033211   -0.317152
  H      0.970892   -2.166720   -0.038422
  H      0.456412   -1.234431    1.379263
  C      0.514350   -1.233647    0.285501
  O      1.429736   -0.201972   -0.110826

 Total Charge           Charge          ....    0
 Multiplicity           Mult            ....    1
 Number of Electrons    NEL             ....   46
 Basis Dimension        Dim             ....  210

ORBITAL ENERGIES
----------------

  NO   OCC          E(Eh)            E(eV)
   0   2.0000     -20.583281      -560.0995
   1   2.0000     -11.287615      -307.1516
   2   2.0000     -11.286449      -307.1199
   3   2.0000     -11.234549      -305.7076
   4   2.0000     -11.232718      -305.6578
   5   2.0000     -11.219375      -305.2947
   6   2.0000      -1.401635       -38.1404
   7   2.0000      -1.085011       -29.5246
   8   2.0000      -1.035364       -28.1737
   9   2.0000      -0.896774       -24.4025
  10   2.0000      -0.859736       -23.3946
  11   2.0000      -0.729373       -19.8472
  12   2.0000      -0.699836       -19.0435
  13   2.0000      -0.636481       -17.3195
  14   2.0000      -0.628091       -17.0912
  15   2.0000      -0.595633       -16.2080
  16   2.0000      -0.571070       -15.5396
  17   2.0000      -0.557574       -15.1723
  18   2.0000      -0.534809       -14.5529
  19   2.0000      -0.479156       -13.0385
  20   2.0000      -0.465422       -12.6648
  21   2.0000      -0.456369       -12.4184
  22   2.0000      -0.327968        -8.9245
  23   0.0000       0.035572         0.9680
  24   0.0000       0.043682         1.1887
  25   0.0000       0.047521         1.2931
  26   0.0000       0.049048         1.3347
  27   0.0000       0.062017         1.6876

MULLIKEN ATOMIC CHARGES
-----------------------
   0 H :   -0.336910
   1 C :    0.733665
   2 H :   -0.409717
   3 C :    0.384895
   4 H :   -0.044627
   5 H :   -0.059297
   6 C :    0.161861
   7 H :   -0.174072
   8 H :   -0.029413
   9 C :    0.151644
  10 H :   -0.220772
  11 H :   -0.174419
  12 C :    0.961396
  13 O :   -0.944235
Sum of atomic charges:    0.0000000

LOEWDIN ATOMIC CHARGES
----------------------
   0 H :   -0.002583
   1 C :   -0.038789
   2 H :   -0.013107
   3 C :   -0.013635
   4 H :    0.013862
   5 H :    0.013235
   6 C :   -0.034991
   7 H :    0.022599
   8 H :    0.018410
   9 C :   -0.018638
  10 H :    0.008421
  11 H :    0.017867
  12 C :    0.005195
  13 O :    0.022154

  Mayer bond orders larger than 0.100000
B(  0-H ,  1-C ) :   0.9106 B(  0-H , 13-O ) :  -0.1270 B(  1-C ,  3-C ) :   1.8535
B(  1-C , 13-O ) :   0.4247 B(  2-H ,  3-C ) :   0.6894 B(  3-C ,  6-C ) :   1.1301
B(  3-C , 13-O ) :   0.1563 B(  4-H ,  5-H ) :  -0.1068 B(  4-H ,  6-C ) :   0.7772
B(  5-H ,  6-C ) :   0.7909 B(  6-C ,  9-C ) :   1.2689 B(  7-H ,  9-C ) :   0.8265
B(  8-H ,  9-C ) :   0.8222 B(  9-C , 12-C ) :   1.2195 B( 10-H , 11-H ) :  -0.1328
B( 10-H , 12-C ) :   0.9208 B( 11-H , 12-C ) :   0.8809 B( 12-C , 13-O ) :   0.5975

MP2 TOTAL ENERGY:     -269.768506996 Eh
FINAL SINGLE POINT ENERGY      -269.768506996249

DIPOLE MOMENT
-------------
                                X             Y             Z
Electronic contribution:      3.50168       1.10361      -0.33080
Nuclear contribution   :     -4.03390      -1.30414       0.44786
                        -----------------------------------------
Total Dipole Moment    :     -0.53222      -0.20053       0.11707
                        -----------------------------------------
Magnitude (a.u.)       :      0.58067
Magnitude (Debye)      :      1.47595

Rotational constants in cm-1:     0.172727     0.159151     0.090114
Rotational constants in MHz :  5178.223186  4771.227573  2701.542975

                             ****ORCA TERMINATED NORMALLY****
TOTAL RUN TIME: 0 days 0 hours 0 minutes 47 seconds 325 msec
