                         Program Version 5.0.3 -  RELEASE  -
|  1> !ri-mp2 aug-cc-pvdz aug-cc-pvdz/c tightscf
|  2> %pal nprocs 16 end
|  3>
|  4> * xyz 0 1
|  5> S      3.337777   -0.078999   -0.008241
|  6> N      0.585203    0.215569    0.016899
|  7> N     -4.172513   -0.426062   -0.009011
|  8> C     -0.703901   -0.405684    0.011919
|  9> C     -1.805058    0.666399   -0.001765
| 10> C     -3.134377    0.067327   -0.005912
| 11> C      1.762573    0.040262    0.005120
| 12> H     -0.797866   -1.046210   -0.866960
| 13> H     -0.809327   -1.034429    0.897962
| 14> H     -1.695465    1.298430   -0.884021
| 15> H     -1.706021    1.309821    0.873498
| 16> *
| 17>
| 18>                          ****END OF INPUT****

CARTESIAN COORDINATES (ANGSTROEM)
---------------------------------
  S      3.337777   -0.078999   -0.008241
  N      0.585203    0.215569    0.016899
  N     -4.172513   -0.426062   -0.009011
  C     -0.703901   -0.405684    0.011919
  C     -1.805058    0.666399   -0.001765
  C     -3.134377    0.067327   -0.005912
  C      1.762573    0.040262    0.005120
  H     -0.797866   -1.046210   -0.866960
  H     -0.809327   -1.034429    0.897962
  H     -1.695465    1.298430   -0.884021
  H     -1.706021    1.309821    0.873498

 Total Charge           Charge          ....    0
 Multiplicity           Mult            ....    1
 Number of Electrons    NEL             ....   58
 Basis Dimension        Dim             ....  201

ORBITAL ENERGIES
----------------

  NO   OCC          E(Eh)            E(eV)
   0   2.0000     -91.966309     -2502.5305
   1   2.0000     -15.632696      -425.3873
   2   2.0000     -15.598879      -424.4671
   3   2.0000     -11.400467      -310.2225
   4   2.0000     -11.343802      -308.6805
   5   2.0000     -11.314060      -307.8712
   6   2.0000     -11.300177      -307.4934
   7   2.0000      -8.969630      -244.0760
   8   2.0000      -6.652282      -181.0178
   9   2.0000      -6.648502      -180.9149
  10   2.0000      -6.648163      -180.9057
  11   2.0000      -1.319036       -35.8928
  12   2.0000      -1.245332       -33.8872
  13   2.0000      -1.125839       -30.6356
  14   2.0000      -1.049215       -28.5506
  15   2.0000      -0.964180       -26.2367
  16   2.0000      -0.774916       -21.0865
  17   2.0000      -0.710486       -19.3333
  18   2.0000      -0.703522       -19.1438
  19   2.0000      -0.640824       -17.4377
  20   2.0000      -0.615025       -16.7357
  21   2.0000      -0.607524       -16.5316
  22   2.0000      -0.572167       -15.5695
  23   2.0000      -0.550859       -14.9896
  24   2.0000      -0.538385       -14.6502
  25   2.0000      -0.479526       -13.0486
  26   2.0000      -0.478270       -13.0144
  27   2.0000      -0.380976       -10.3669
  28   2.0000      -0.370684       -10.0868
  29   0.0000       0.026581         0.7233
  30   0.0000       0.040295         1.0965
  31   0.0000       0.042166         1.1474
  32   0.0000       0.061106         1.6628
  33   0.0000       0.063347         1.7238

MULLIKEN ATOMIC CHARGES
-----------------------
   0 S :    0.142378
   1 N :   -0.294615
   2 N :   -0.316487
   3 C :    0.801466
   4 C :    0.611012
   5 C :   -0.195109
   6 C :   -0.440935
   7 H :   -0.166473
   8 H :   -0.165791
   9 H :    0.012403
  10 H :    0.012152
Sum of atomic charges:   -0.0000000

LOEWDIN ATOMIC CHARGES
----------------------
   0 S :    0.603414
   1 N :   -0.016687
   2 N :    0.081401
   3 C :   -0.003913
   4 C :   -0.016991
   5 C :   -0.141399
   6 C :   -0.631499
   7 H :    0.030883
   8 H :    0.030842
   9 H :    0.031969
  10 H :    0.031980

  Mayer bond orders larger than 0.100000
B(  0-S ,  6-C ) :   1.8693 B(  1-N ,  3-C ) :   0.6076 B(  1-N ,  6-C ) :   1.9661
B(  2-N ,  5-C ) :   2.7050 B(  3-C ,  4-C ) :   1.2549 B(  3-C ,  7-H ) :   0.8504
B(  3-C ,  8-H ) :   0.8581 B(  4-C ,  5-C ) :   0.6952 B(  4-C ,  9-H ) :   0.8420
B(  4-C , 10-H ) :   0.8421

MP2 TOTAL ENERGY:     -661.251831088 Eh
FINAL SINGLE POINT ENERGY      -661.251831088097

DIPOLE MOMENT
-------------
                                X             Y             Z
Electronic contribution:      5.26916      -0.18761      -0.01427
Nuclear contribution   :     -4.98528       0.51362       0.02018
                        -----------------------------------------
Total Dipole Moment    :      0.28388       0.32601       0.00592
                        -----------------------------------------
Magnitude (a.u.)       :      0.43233
Magnitude (Debye)      :      1.09889

Rotational constants in cm-1:     0.863872     0.020652     0.020322
Rotational constants in MHz : 25898.242208   619.127326   609.245355

                             ****ORCA TERMINATED NORMALLY****
TOTAL RUN TIME: 0 days 0 hours 0 minutes 39 seconds 208 msec
