                         Program Version 5.0.3 -  RELEASE  -
|  1> !ri-mp2 aug-cc-pvdz aug-cc-pvdz/c tightscf
|  2> %pal nprocs 16 end
|  3>
|  4> * xyz 0 1
|  5> S    -1.919398   -0.623306   -0.000004
|  6> O     0.684500    2.053364    0.000006
|  7> N    -1.349126    0.945938    0.000001
|  8> N     3.124988   -0.766794    0.000002
|  9> C     0.587079   -0.360579    0.000000
| 10> C    -0.044852    0.929530    0.000002
| 11> C    -0.373055   -1.340201   -0.000004
| 12> C     1.987770   -0.580577    0.000001
| 13> H     0.082922    2.809754    0.000007
| 14> H    -0.221242   -2.406813   -0.000007
| 15> *
| 16>
| 17>                          ****END OF INPUT****

CARTESIAN COORDINATES (ANGSTROEM)
---------------------------------
  S     -1.919398   -0.623306   -0.000004
  O      0.684500    2.053364    0.000006
  N     -1.349126    0.945938    0.000001
  N      3.124988   -0.766794    0.000002
  C      0.587079   -0.360579    0.000000
  C     -0.044852    0.929530    0.000002
  C     -0.373055   -1.340201   -0.000004
  C      1.987770   -0.580577    0.000001
  H      0.082922    2.809754    0.000007
  H     -0.221242   -2.406813   -0.000007

 Total Charge           Charge          ....    0
 Multiplicity           Mult            ....    1
 Number of Electrons    NEL             ....   64
 Basis Dimension        Dim             ....  206

ORBITAL ENERGIES
----------------

  NO   OCC          E(Eh)            E(eV)
   0   2.0000     -92.047985     -2504.7530
   1   2.0000     -20.642123      -561.7007
   2   2.0000     -15.616414      -424.9442
   3   2.0000     -15.596070      -424.3906
   4   2.0000     -11.392149      -309.9961
   5   2.0000     -11.339580      -308.5656
   6   2.0000     -11.311661      -307.8060
   7   2.0000     -11.299694      -307.4803
   8   2.0000      -9.046975      -246.1807
   9   2.0000      -6.728642      -183.0957
  10   2.0000      -6.727298      -183.0591
  11   2.0000      -6.725347      -183.0060
  12   2.0000      -1.467806       -39.9410
  13   2.0000      -1.304816       -35.5058
  14   2.0000      -1.238697       -33.7067
  15   2.0000      -1.124226       -30.5918
  16   2.0000      -1.043607       -28.3980
  17   2.0000      -0.874984       -23.8095
  18   2.0000      -0.863874       -23.5072
  19   2.0000      -0.789797       -21.4915
  20   2.0000      -0.707533       -19.2530
  21   2.0000      -0.663644       -18.0587
  22   2.0000      -0.657756       -17.8984
  23   2.0000      -0.610785       -16.6203
  24   2.0000      -0.570628       -15.5276
  25   2.0000      -0.562031       -15.2936
  26   2.0000      -0.533514       -14.5176
  27   2.0000      -0.512729       -13.9521
  28   2.0000      -0.504945       -13.7403
  29   2.0000      -0.470421       -12.8008
  30   2.0000      -0.403630       -10.9833
  31   2.0000      -0.368639       -10.0312
  32   0.0000       0.029837         0.8119
  33   0.0000       0.035381         0.9628
  34   0.0000       0.050915         1.3855
  35   0.0000       0.064269         1.7489
  36   0.0000       0.078460         2.1350

MULLIKEN ATOMIC CHARGES
-----------------------
   0 S :    0.794067
   1 O :   -0.780348
   2 N :   -0.958946
   3 N :   -0.305004
   4 C :    1.401431
   5 C :    0.775197
   6 C :   -0.139840
   7 C :   -0.592572
   8 H :    0.188309
   9 H :   -0.382294
Sum of atomic charges:    0.0000000

LOEWDIN ATOMIC CHARGES
----------------------
   0 S :    0.975235
   1 O :    0.218357
   2 N :   -0.270503
   3 N :    0.097369
   4 C :   -0.274592
   5 C :   -0.373609
   6 C :   -0.205636
   7 C :   -0.125474
   8 H :   -0.017044
   9 H :   -0.024101

  Mayer bond orders larger than 0.100000
B(  0-S ,  2-N ) :   0.8216 B(  0-S ,  4-C ) :   0.1267 B(  0-S ,  6-C ) :   1.1022
B(  1-O ,  5-C ) :   0.4566 B(  1-O ,  7-C ) :   0.1171 B(  1-O ,  8-H ) :   1.0250
B(  2-N ,  4-C ) :   0.1584 B(  2-N ,  5-C ) :   1.2792 B(  3-N ,  7-C ) :   2.4763
B(  4-C ,  5-C ) :   0.7867 B(  4-C ,  6-C ) :   1.3916 B(  4-C ,  7-C ) :   0.3058
B(  5-C ,  6-C ) :  -0.1657 B(  6-C ,  7-C ) :  -0.1785 B(  6-C ,  9-H ) :   0.9343

MP2 TOTAL ENERGY:     -735.136488329 Eh
FINAL SINGLE POINT ENERGY      -735.136488329402

DIPOLE MOMENT
-------------
                                X             Y             Z
Electronic contribution:     -1.36891      -0.61751      -0.00000
Nuclear contribution   :     -0.05516       0.43415       0.00000
                        -----------------------------------------
Total Dipole Moment    :     -1.42406      -0.18335      -0.00000
                        -----------------------------------------
Magnitude (a.u.)       :      1.43582
Magnitude (Debye)      :      3.64956

Rotational constants in cm-1:     0.110880     0.049401     0.034175
Rotational constants in MHz :  3324.089631  1481.002246  1024.534876

                             ****ORCA TERMINATED NORMALLY****
TOTAL RUN TIME: 0 days 0 hours 0 minutes 46 seconds 30 msec
