                         Program Version 5.0.3 -  RELEASE  -
|  1> !ri-mp2 aug-cc-pvdz aug-cc-pvdz/c tightscf
|  2> %pal nprocs 16 end
|  3>
|  4> * xyz 0 1
|  5> C      0.906853    0.321148   -0.017128
|  6> C      1.943934   -0.786999   -0.005884
|  7> C     -0.933612   -0.544883    1.418768
|  8> C     -0.861053   -1.193432   -1.015538
|  9> C     -1.437212    1.161991   -0.352359
| 10> C     -0.585568   -0.063766   -0.006852
| 11> O      1.259489    1.479477   -0.029986
| 12> H      2.897115   -0.377609    0.318312
| 13> H      1.660429   -1.625395    0.628697
| 14> H      2.062196   -1.175511   -1.020006
| 15> H     -0.366445   -1.430877    1.704810
| 16> H     -0.740904    0.236991    2.154158
| 17> H     -1.993325   -0.800366    1.469308
| 18> H     -0.315821   -2.105697   -0.774352
| 19> H     -0.592539   -0.894537   -2.030268
| 20> H     -1.924863   -1.435703   -1.013178
| 21> H     -1.207435    1.532654   -1.351356
| 22> H     -1.258629    1.976552    0.346678
| 23> H     -2.495732    0.899320   -0.318958
| 24> *
| 25>
| 26>                          ****END OF INPUT****

CARTESIAN COORDINATES (ANGSTROEM)
---------------------------------
  C      0.906853    0.321148   -0.017128
  C      1.943934   -0.786999   -0.005884
  C     -0.933612   -0.544883    1.418768
  C     -0.861053   -1.193432   -1.015538
  C     -1.437212    1.161991   -0.352359
  C     -0.585568   -0.063766   -0.006852
  O      1.259489    1.479477   -0.029986
  H      2.897115   -0.377609    0.318312
  H      1.660429   -1.625395    0.628697
  H      2.062196   -1.175511   -1.020006
  H     -0.366445   -1.430877    1.704810
  H     -0.740904    0.236991    2.154158
  H     -1.993325   -0.800366    1.469308
  H     -0.315821   -2.105697   -0.774352
  H     -0.592539   -0.894537   -2.030268
  H     -1.924863   -1.435703   -1.013178
  H     -1.207435    1.532654   -1.351356
  H     -1.258629    1.976552    0.346678
  H     -2.495732    0.899320   -0.318958

 Total Charge           Charge          ....    0
 Multiplicity           Mult            ....    1
 Number of Electrons    NEL             ....   56
 Basis Dimension        Dim             ....  269

ORBITAL ENERGIES
----------------

  NO   OCC          E(Eh)            E(eV)
   0   2.0000     -20.551827      -559.2436
   1   2.0000     -11.332163      -308.3638
   2   2.0000     -11.254201      -306.2424
   3   2.0000     -11.237821      -305.7966
   4   2.0000     -11.233292      -305.6734
   5   2.0000     -11.233067      -305.6673
   6   2.0000     -11.216860      -305.2263
   7   2.0000      -1.389557       -37.8118
   8   2.0000      -1.111476       -30.2448
   9   2.0000      -1.004137       -27.3240
  10   2.0000      -0.947164       -25.7737
  11   2.0000      -0.935340       -25.4519
  12   2.0000      -0.835915       -22.7464
  13   2.0000      -0.705930       -19.2093
  14   2.0000      -0.664207       -18.0740
  15   2.0000      -0.631845       -17.1934
  16   2.0000      -0.618536       -16.8312
  17   2.0000      -0.597160       -16.2496
  18   2.0000      -0.591145       -16.0859
  19   2.0000      -0.564187       -15.3523
  20   2.0000      -0.544928       -14.8282
  21   2.0000      -0.543393       -14.7865
  22   2.0000      -0.522541       -14.2191
  23   2.0000      -0.512702       -13.9513
  24   2.0000      -0.496875       -13.5207
  25   2.0000      -0.472930       -12.8691
  26   2.0000      -0.466687       -12.6992
  27   2.0000      -0.397547       -10.8178
  28   0.0000       0.033354         0.9076
  29   0.0000       0.041431         1.1274
  30   0.0000       0.045486         1.2378
  31   0.0000       0.049437         1.3453
  32   0.0000       0.063464         1.7269

MULLIKEN ATOMIC CHARGES
-----------------------
   0 C :    0.501963
   1 C :    0.419807
   2 C :    1.146087
   3 C :    1.175555
   4 C :    1.261358
   5 C :   -3.117893
   6 O :   -0.832088
   7 H :   -0.132677
   8 H :   -0.069478
   9 H :    0.112430
  10 H :   -0.106868
  11 H :   -0.077296
  12 H :   -0.023049
  13 H :   -0.080737
  14 H :   -0.036778
  15 H :   -0.034633
  16 H :   -0.058293
  17 H :   -0.008265
  18 H :   -0.039144
Sum of atomic charges:   -0.0000000

LOEWDIN ATOMIC CHARGES
----------------------
   0 C :   -0.251983
   1 C :    0.199327
   2 C :    0.187075
   3 C :    0.177453
   4 C :    0.172996
   5 C :   -0.450610
   6 O :    0.059419
   7 H :   -0.007687
   8 H :   -0.019411
   9 H :   -0.003293
  10 H :   -0.016855
  11 H :   -0.000903
  12 H :   -0.004241
  13 H :   -0.015044
  14 H :   -0.002044
  15 H :   -0.005256
  16 H :   -0.002825
  17 H :   -0.007559
  18 H :   -0.008560

  Mayer bond orders larger than 0.100000
B(  0-C ,  1-C ) :   0.9975 B(  0-C ,  5-C ) :   0.5295 B(  0-C ,  6-O ) :   1.4056
B(  0-C ,  7-H ) :   0.1203 B(  1-C ,  5-C ) :   0.1479 B(  1-C ,  7-H ) :   0.8520
B(  1-C ,  8-H ) :   0.9148 B(  1-C ,  9-H ) :   0.8979 B(  2-C ,  3-C ) :  -0.1348
B(  2-C ,  4-C ) :  -0.1590 B(  2-C ,  5-C ) :   1.4049 B(  2-C , 10-H ) :   0.7898
B(  2-C , 11-H ) :   0.7916 B(  2-C , 12-H ) :   0.7405 B(  3-C ,  4-C ) :  -0.1135
B(  3-C ,  5-C ) :   1.4218 B(  3-C , 13-H ) :   0.7576 B(  3-C , 14-H ) :   0.7641
B(  3-C , 15-H ) :   0.7376 B(  4-C ,  5-C ) :   1.4225 B(  4-C , 16-H ) :   0.7169
B(  4-C , 17-H ) :   0.7506 B(  4-C , 18-H ) :   0.6959 B(  5-C , 10-H ) :   0.1161
B(  5-C , 11-H ) :   0.1506 B(  5-C , 12-H ) :   0.2453 B(  5-C , 13-H ) :   0.2134
B(  5-C , 14-H ) :   0.1125 B(  5-C , 15-H ) :   0.2313 B(  5-C , 16-H ) :   0.2053
B(  5-C , 17-H ) :   0.1893 B(  5-C , 18-H ) :   0.2278 B( 10-H , 11-H ) :  -0.1055
B( 10-H , 12-H ) :  -0.1021 B( 11-H , 12-H ) :  -0.1048 B( 13-H , 14-H ) :  -0.1054
B( 13-H , 15-H ) :  -0.1059 B( 14-H , 15-H ) :  -0.1154 B( 16-H , 17-H ) :  -0.1030
B( 16-H , 18-H ) :  -0.1087 B( 17-H , 18-H ) :  -0.1109

MP2 TOTAL ENERGY:     -310.184836311 Eh
FINAL SINGLE POINT ENERGY      -310.184836311262

DIPOLE MOMENT
-------------
                                X             Y             Z
Electronic contribution:      4.04848       4.23772      -0.09566
Nuclear contribution   :     -4.46903      -5.43585       0.11904
                        -----------------------------------------
Total Dipole Moment    :     -0.42055      -1.19813       0.02339
                        -----------------------------------------
Magnitude (a.u.)       :      1.27001
Magnitude (Debye)      :      3.22811

Rotational constants in cm-1:     0.106446     0.076452     0.063773
Rotational constants in MHz :  3191.182861  2291.984649  1911.876330

                             ****ORCA TERMINATED NORMALLY****
TOTAL RUN TIME: 0 days 0 hours 0 minutes 56 seconds 380 msec
