                         Program Version 5.0.3 -  RELEASE  -
|  1> !ri-mp2 aug-cc-pvdz aug-cc-pvdz/c tightscf
|  2> %pal nprocs 16 end
|  3>
|  4> * xyz 0 1
|  5> C     -2.115162   -0.859134   -0.446944
|  6> S     -0.736952    0.145568    0.134592
|  7> O     -0.603003   -0.070176    1.570701
|  8> O     -0.913666    1.497805   -0.387410
|  9> C      0.712310   -0.599546   -0.708204
| 10> C      1.940525    0.209848   -0.457486
| 11> C      2.972177   -0.220038    0.256620
| 12> H     -1.957196   -1.891564   -0.146285
| 13> H     -2.996316   -0.452994    0.044646
| 14> H     -2.202825   -0.759745   -1.525431
| 15> H      0.446453   -0.619309   -1.766218
| 16> H      0.799645   -1.614868   -0.324996
| 17> H      1.949759    1.202936   -0.889296
| 18> H      2.982692   -1.202462    0.711754
| 19> H      3.843275    0.401100    0.412111
| 20> *
| 21>
| 22>                          ****END OF INPUT****

CARTESIAN COORDINATES (ANGSTROEM)
---------------------------------
  C     -2.115162   -0.859134   -0.446944
  S     -0.736952    0.145568    0.134592
  O     -0.603003   -0.070176    1.570701
  O     -0.913666    1.497805   -0.387410
  C      0.712310   -0.599546   -0.708204
  C      1.940525    0.209848   -0.457486
  C      2.972177   -0.220038    0.256620
  H     -1.957196   -1.891564   -0.146285
  H     -2.996316   -0.452994    0.044646
  H     -2.202825   -0.759745   -1.525431
  H      0.446453   -0.619309   -1.766218
  H      0.799645   -1.614868   -0.324996
  H      1.949759    1.202936   -0.889296
  H      2.982692   -1.202462    0.711754
  H      3.843275    0.401100    0.412111

 Total Charge           Charge          ....    0
 Multiplicity           Mult            ....    1
 Number of Electrons    NEL             ....   64
 Basis Dimension        Dim             ....  237

ORBITAL ENERGIES
----------------

  NO   OCC          E(Eh)            E(eV)
   0   2.0000     -92.196081     -2508.7829
   1   2.0000     -20.550984      -559.2207
   2   2.0000     -20.550154      -559.1981
   3   2.0000     -11.293944      -307.3238
   4   2.0000     -11.286972      -307.1341
   5   2.0000     -11.262101      -306.4573
   6   2.0000     -11.252092      -306.1850
   7   2.0000      -9.169235      -249.5076
   8   2.0000      -6.854445      -186.5189
   9   2.0000      -6.853070      -186.4815
  10   2.0000      -6.852876      -186.4762
  11   2.0000      -1.448122       -39.4054
  12   2.0000      -1.334223       -36.3061
  13   2.0000      -1.112769       -30.2800
  14   2.0000      -1.050684       -28.5906
  15   2.0000      -0.982391       -26.7322
  16   2.0000      -0.831914       -22.6375
  17   2.0000      -0.782140       -21.2831
  18   2.0000      -0.692461       -18.8428
  19   2.0000      -0.680923       -18.5289
  20   2.0000      -0.663693       -18.0600
  21   2.0000      -0.645443       -17.5634
  22   2.0000      -0.619672       -16.8621
  23   2.0000      -0.604878       -16.4596
  24   2.0000      -0.598160       -16.2768
  25   2.0000      -0.569925       -15.5084
  26   2.0000      -0.522573       -14.2199
  27   2.0000      -0.489976       -13.3329
  28   2.0000      -0.489669       -13.3246
  29   2.0000      -0.462240       -12.5782
  30   2.0000      -0.439676       -11.9642
  31   2.0000      -0.380225       -10.3464
  32   0.0000       0.027850         0.7578
  33   0.0000       0.040132         1.0920
  34   0.0000       0.044016         1.1977
  35   0.0000       0.048665         1.3242
  36   0.0000       0.060132         1.6363

MULLIKEN ATOMIC CHARGES
-----------------------
   0 C :    0.077739
   1 S :    2.321707
   2 O :   -1.194816
   3 O :   -1.213308
   4 C :   -0.119238
   5 C :    0.855347
   6 C :    0.397825
   7 H :   -0.013336
   8 H :    0.038181
   9 H :   -0.003497
  10 H :   -0.037487
  11 H :   -0.185068
  12 H :   -0.400351
  13 H :   -0.257980
  14 H :   -0.265717
Sum of atomic charges:   -0.0000000

LOEWDIN ATOMIC CHARGES
----------------------
   0 C :    0.085485
   1 S :    0.901775
   2 O :   -0.403408
   3 O :   -0.408030
   4 C :   -0.092061
   5 C :   -0.100089
   6 C :    0.186570
   7 H :   -0.034632
   8 H :   -0.029615
   9 H :   -0.035427
  10 H :   -0.003208
  11 H :   -0.002286
  12 H :    0.000368
  13 H :   -0.031502
  14 H :   -0.033939

  Mayer bond orders larger than 0.100000
B(  0-C ,  1-S ) :   1.1545 B(  0-C ,  7-H ) :   0.9306 B(  0-C ,  8-H ) :   0.9383
B(  0-C ,  9-H ) :   0.9421 B(  1-S ,  2-O ) :   0.7237 B(  1-S ,  3-O ) :   0.7377
B(  1-S ,  4-C ) :   1.0139 B(  2-O ,  3-O ) :   0.1406 B(  2-O ,  4-C ) :   0.1238
B(  4-C ,  5-C ) :   1.0616 B(  4-C , 10-H ) :   0.9432 B(  4-C , 11-H ) :   0.9370
B(  5-C ,  6-C ) :   1.9164 B(  5-C , 11-H ) :  -0.1088 B(  5-C , 12-H ) :   0.6699
B(  5-C , 14-H ) :   0.1341 B(  6-C , 13-H ) :   0.9485 B(  6-C , 14-H ) :   0.7817
B( 13-H , 14-H ) :  -0.1835

MP2 TOTAL ENERGY:     -704.451462462 Eh
FINAL SINGLE POINT ENERGY      -704.451462461952

DIPOLE MOMENT
-------------
                                X             Y             Z
Electronic contribution:     -2.70053       3.35255       2.24576
Nuclear contribution   :      2.86505      -4.92015      -3.47010
                        -----------------------------------------
Total Dipole Moment    :      0.16452      -1.56760      -1.22434
                        -----------------------------------------
Magnitude (a.u.)       :      1.99585
Magnitude (Debye)      :      5.07306

Rotational constants in cm-1:     0.137933     0.047643     0.047245
Rotational constants in MHz :  4135.132615  1428.305847  1416.357814

                             ****ORCA TERMINATED NORMALLY****
TOTAL RUN TIME: 0 days 0 hours 0 minutes 45 seconds 175 msec
