                         Program Version 5.0.3 -  RELEASE  -
|  1> !ri-mp2 aug-cc-pvdz aug-cc-pvdz/c tightscf
|  2> %pal nprocs 16 end
|  3>
|  4> * xyz 0 1
|  5> C     -1.572019   -1.152435    0.064704
|  6> H     -2.544151   -1.085014   -0.426242
|  7> H     -1.109397   -2.095497   -0.217069
|  8> H     -1.747322   -1.170696    1.143837
|  9> C      1.649859    1.062268   -0.055942
| 10> H      1.313035    2.014631    0.352183
| 11> H      2.646218    0.870729    0.349265
| 12> H      1.737758    1.156202   -1.139611
| 13> O      1.248482   -1.330506   -0.129077
| 14> H      2.137286   -1.421916    0.225802
| 15> C      0.703049   -0.076396    0.308494
| 16> H      0.580650   -0.102704    1.400853
| 17> C     -0.691524    0.040475   -0.320727
| 18> H     -0.545223    0.020911   -1.406038
| 19> C     -1.380726    1.356806    0.052990
| 20> H     -1.468276    1.460678    1.137735
| 21> H     -0.850062    2.229463   -0.326308
| 22> H     -2.390195    1.382956   -0.358897
| 23> *
| 24>
| 25>                          ****END OF INPUT****

CARTESIAN COORDINATES (ANGSTROEM)
---------------------------------
  C     -1.572019   -1.152435    0.064704
  H     -2.544151   -1.085014   -0.426242
  H     -1.109397   -2.095497   -0.217069
  H     -1.747322   -1.170696    1.143837
  C      1.649859    1.062268   -0.055942
  H      1.313035    2.014631    0.352183
  H      2.646218    0.870729    0.349265
  H      1.737758    1.156202   -1.139611
  O      1.248482   -1.330506   -0.129077
  H      2.137286   -1.421916    0.225802
  C      0.703049   -0.076396    0.308494
  H      0.580650   -0.102704    1.400853
  C     -0.691524    0.040475   -0.320727
  H     -0.545223    0.020911   -1.406038
  C     -1.380726    1.356806    0.052990
  H     -1.468276    1.460678    1.137735
  H     -0.850062    2.229463   -0.326308
  H     -2.390195    1.382956   -0.358897

 Total Charge           Charge          ....    0
 Multiplicity           Mult            ....    1
 Number of Electrons    NEL             ....   50
 Basis Dimension        Dim             ....  246

ORBITAL ENERGIES
----------------

  NO   OCC          E(Eh)            E(eV)
   0   2.0000     -20.560985      -559.4928
   1   2.0000     -11.282128      -307.0023
   2   2.0000     -11.227417      -305.5135
   3   2.0000     -11.223378      -305.4036
   4   2.0000     -11.218061      -305.2589
   5   2.0000     -11.207544      -304.9728
   6   2.0000      -1.357190       -36.9310
   7   2.0000      -1.082837       -29.4655
   8   2.0000      -0.992985       -27.0205
   9   2.0000      -0.925770       -25.1915
  10   2.0000      -0.860819       -23.4241
  11   2.0000      -0.763456       -20.7747
  12   2.0000      -0.687581       -18.7100
  13   2.0000      -0.633755       -17.2454
  14   2.0000      -0.612940       -16.6790
  15   2.0000      -0.593500       -16.1499
  16   2.0000      -0.555691       -15.1211
  17   2.0000      -0.541780       -14.7426
  18   2.0000      -0.534660       -14.5488
  19   2.0000      -0.524606       -14.2752
  20   2.0000      -0.508958       -13.8494
  21   2.0000      -0.473795       -12.8926
  22   2.0000      -0.467859       -12.7311
  23   2.0000      -0.446313       -12.1448
  24   2.0000      -0.431801       -11.7499
  25   0.0000       0.035818         0.9747
  26   0.0000       0.042863         1.1664
  27   0.0000       0.047205         1.2845
  28   0.0000       0.048934         1.3316
  29   0.0000       0.064434         1.7533

MULLIKEN ATOMIC CHARGES
-----------------------
   0 C :    0.859535
   1 H :   -0.058840
   2 H :   -0.045079
   3 H :   -0.043179
   4 C :    0.517055
   5 H :   -0.048482
   6 H :   -0.118403
   7 H :    0.002432
   8 O :   -0.816180
   9 H :    0.127776
  10 C :    0.683511
  11 H :   -0.186882
  12 C :   -1.425706
  13 H :   -0.151921
  14 C :    0.916709
  15 H :   -0.021603
  16 H :   -0.102297
  17 H :   -0.088445
Sum of atomic charges:   -0.0000000

LOEWDIN ATOMIC CHARGES
----------------------
   0 C :    0.161403
   1 H :   -0.016885
   2 H :   -0.020701
   3 H :   -0.010503
   4 C :    0.164610
   5 H :   -0.020007
   6 H :   -0.017720
   7 H :   -0.003914
   8 O :    0.137425
   9 H :   -0.061798
  10 C :   -0.241424
  11 H :    0.035247
  12 C :   -0.260083
  13 H :    0.042277
  14 C :    0.159035
  15 H :   -0.007910
  16 H :   -0.024307
  17 H :   -0.014747

  Mayer bond orders larger than 0.100000
B(  0-C ,  1-H ) :   0.7980 B(  0-C ,  2-H ) :   0.8306 B(  0-C ,  3-H ) :   0.8793
B(  0-C , 12-C ) :   1.3050 B(  0-C , 14-C ) :  -0.1668 B(  1-H ,  2-H ) :  -0.1001
B(  1-H , 12-C ) :   0.1463 B(  3-H , 12-C ) :   0.1872 B(  4-C ,  5-H ) :   0.8594
B(  4-C ,  6-H ) :   0.8463 B(  4-C ,  7-H ) :   0.9066 B(  4-C , 10-C ) :   1.2131
B(  6-H ,  7-H ) :  -0.1052 B(  6-H , 10-C ) :   0.1628 B(  8-O ,  9-H ) :   1.1141
B(  8-O , 10-C ) :   0.1265 B(  8-O , 12-C ) :   0.1812 B( 10-C , 11-H ) :   0.6491
B( 10-C , 12-C ) :   1.3513 B( 10-C , 13-H ) :   0.1191 B( 10-C , 14-C ) :  -0.1427
B( 12-C , 13-H ) :   0.6269 B( 12-C , 14-C ) :   1.2707 B( 12-C , 15-H ) :   0.1705
B( 12-C , 17-H ) :   0.1317 B( 14-C , 15-H ) :   0.8695 B( 14-C , 16-H ) :   0.8484
B( 14-C , 17-H ) :   0.8026

MP2 TOTAL ENERGY:     -272.184337828 Eh
FINAL SINGLE POINT ENERGY      -272.184337827726

DIPOLE MOMENT
-------------
                                X             Y             Z
Electronic contribution:      2.66845      -2.98096      -0.45915
Nuclear contribution   :     -2.36490       3.45017       0.78135
                        -----------------------------------------
Total Dipole Moment    :      0.30354       0.46921       0.32219
                        -----------------------------------------
Magnitude (a.u.)       :      0.64506
Magnitude (Debye)      :      1.63962

Rotational constants in cm-1:     0.146015     0.099118     0.064176
Rotational constants in MHz :  4377.424273  2971.491688  1923.957459

                             ****ORCA TERMINATED NORMALLY****
TOTAL RUN TIME: 0 days 0 hours 0 minutes 54 seconds 992 msec
