                         Program Version 5.0.3 -  RELEASE  -
|  1> !ri-mp2 aug-cc-pvdz aug-cc-pvdz/c tightscf
|  2> %pal nprocs 16 end
|  3>
|  4> * xyz 0 1
|  5> C      0.296563   -2.092194    0.000000
|  6> H      1.369761   -1.964827    0.000000
|  7> H     -0.086440   -3.102651    0.000000
|  8> C     -0.524953   -1.056203    0.000000
|  9> H     -1.601322   -1.166159    0.000000
| 10> C     -0.061543    0.365426    0.000000
| 11> F      1.278529    0.488309    0.000000
| 12> F     -0.524953    1.029816    1.084366
| 13> F     -0.524953    1.029816   -1.084366
| 14> *
| 15>
| 16>                          ****END OF INPUT****

CARTESIAN COORDINATES (ANGSTROEM)
---------------------------------
  C      0.296563   -2.092194    0.000000
  H      1.369761   -1.964827    0.000000
  H     -0.086440   -3.102651    0.000000
  C     -0.524953   -1.056203    0.000000
  H     -1.601322   -1.166159    0.000000
  C     -0.061543    0.365426    0.000000
  F      1.278529    0.488309    0.000000
  F     -0.524953    1.029816    1.084366
  F     -0.524953    1.029816   -1.084366

 Total Charge           Charge          ....    0
 Multiplicity           Mult            ....    1
 Number of Electrons    NEL             ....   48
 Basis Dimension        Dim             ....  165

ORBITAL ENERGIES
----------------

  NO   OCC          E(Eh)            E(eV)
   0   2.0000     -26.352500      -717.0880
   1   2.0000     -26.347140      -716.9421
   2   2.0000     -26.347119      -716.9416
   3   2.0000     -11.520547      -313.4900
   4   2.0000     -11.278116      -306.8931
   5   2.0000     -11.275581      -306.8242
   6   2.0000      -1.728969       -47.0476
   7   2.0000      -1.637256       -44.5520
   8   2.0000      -1.631803       -44.4036
   9   2.0000      -1.112634       -30.2763
  10   2.0000      -0.975760       -26.5518
  11   2.0000      -0.866678       -23.5835
  12   2.0000      -0.821207       -22.3462
  13   2.0000      -0.818026       -22.2596
  14   2.0000      -0.761395       -20.7186
  15   2.0000      -0.708572       -19.2812
  16   2.0000      -0.706110       -19.2142
  17   2.0000      -0.667751       -18.1704
  18   2.0000      -0.658309       -17.9135
  19   2.0000      -0.645267       -17.5586
  20   2.0000      -0.645026       -17.5521
  21   2.0000      -0.610369       -16.6090
  22   2.0000      -0.543845       -14.7988
  23   2.0000      -0.419797       -11.4233
  24   0.0000       0.032023         0.8714
  25   0.0000       0.046454         1.2641
  26   0.0000       0.054674         1.4877
  27   0.0000       0.085399         2.3238
  28   0.0000       0.091416         2.4876

MULLIKEN ATOMIC CHARGES
-----------------------
   0 C :    0.504223
   1 H :   -0.245820
   2 H :   -0.233786
   3 C :    0.185876
   4 H :   -0.351271
   5 C :    2.072782
   6 F :   -0.680330
   7 F :   -0.625837
   8 F :   -0.625837
Sum of atomic charges:    0.0000000

LOEWDIN ATOMIC CHARGES
----------------------
   0 C :    0.212421
   1 H :   -0.027755
   2 H :   -0.028285
   3 C :   -0.013119
   4 H :    0.006288
   5 C :   -0.370009
   6 F :    0.080655
   7 F :    0.069902
   8 F :    0.069902

  Mayer bond orders larger than 0.100000
B(  0-C ,  1-H ) :   0.9323 B(  0-C ,  2-H ) :   0.8370 B(  0-C ,  3-C ) :   1.9324
B(  1-H ,  2-H ) :  -0.1629 B(  3-C ,  4-H ) :   0.8999 B(  3-C ,  5-C ) :   1.0627
B(  3-C ,  6-F ) :   0.2728 B(  3-C ,  7-F ) :   0.1433 B(  3-C ,  8-F ) :   0.1433
B(  5-C ,  6-F ) :   0.1621 B(  5-C ,  7-F ) :   0.2582 B(  5-C ,  8-F ) :   0.2582

MP2 TOTAL ENERGY:     -414.720798671 Eh
FINAL SINGLE POINT ENERGY      -414.720798670776

DIPOLE MOMENT
-------------
                                X             Y             Z
Electronic contribution:      0.36864       7.11087      -0.00000
Nuclear contribution   :     -0.51036      -8.21217       0.00000
                        -----------------------------------------
Total Dipole Moment    :     -0.14172      -1.10129      -0.00000
                        -----------------------------------------
Magnitude (a.u.)       :      1.11037
Magnitude (Debye)      :      2.82234

Rotational constants in cm-1:     0.179885     0.097645     0.095241
Rotational constants in MHz :  5392.814567  2927.327983  2855.247561

                             ****ORCA TERMINATED NORMALLY****
TOTAL RUN TIME: 0 days 0 hours 0 minutes 28 seconds 745 msec
