                         Program Version 5.0.3 -  RELEASE  -
|  1> !ri-mp2 aug-cc-pvdz aug-cc-pvdz/c tightscf
|  2> %pal nprocs 16 end
|  3>
|  4> * xyz 0 1
|  5> Cl     2.255385    0.055886   -0.086072
|  6> O     -1.387172   -1.150321    0.406249
|  7> N      0.508488    0.064813   -0.326125
|  8> C     -1.587319    1.218175   -0.062742
|  9> C     -0.127098    1.153328    0.423310
| 10> C     -2.077147   -0.196737   -0.403529
| 11> C     -0.016309   -1.252187    0.102890
| 12> H     -1.663879    1.854374   -0.945176
| 13> H     -2.199448    1.662233    0.722962
| 14> H      0.401358    2.076079    0.198723
| 15> H     -0.078803    0.986178    1.505841
| 16> H     -1.918611   -0.422066   -1.462420
| 17> H     -3.133523   -0.327195   -0.179940
| 18> H      0.473099   -1.609500    1.013006
| 19> H      0.163451   -1.956766   -0.716465
| 20> *
| 21>
| 22>                          ****END OF INPUT****

CARTESIAN COORDINATES (ANGSTROEM)
---------------------------------
  Cl     2.255385    0.055886   -0.086072
  O     -1.387172   -1.150321    0.406249
  N      0.508488    0.064813   -0.326125
  C     -1.587319    1.218175   -0.062742
  C     -0.127098    1.153328    0.423310
  C     -2.077147   -0.196737   -0.403529
  C     -0.016309   -1.252187    0.102890
  H     -1.663879    1.854374   -0.945176
  H     -2.199448    1.662233    0.722962
  H      0.401358    2.076079    0.198723
  H     -0.078803    0.986178    1.505841
  H     -1.918611   -0.422066   -1.462420
  H     -3.133523   -0.327195   -0.179940
  H      0.473099   -1.609500    1.013006
  H      0.163451   -1.956766   -0.716465

 Total Charge           Charge          ....    0
 Multiplicity           Mult            ....    1
 Number of Electrons    NEL             ....   64
 Basis Dimension        Dim             ....  237

ORBITAL ENERGIES
----------------

  NO   OCC          E(Eh)            E(eV)
   0   2.0000    -104.851161     -2853.1451
   1   2.0000     -20.581180      -560.0424
   2   2.0000     -15.631024      -425.3418
   3   2.0000     -11.325630      -308.1861
   4   2.0000     -11.292491      -307.2843
   5   2.0000     -11.275460      -306.8209
   6   2.0000     -11.242723      -305.9301
   7   2.0000     -10.574526      -287.7475
   8   2.0000      -8.042314      -218.8425
   9   2.0000      -8.038658      -218.7430
  10   2.0000      -8.038366      -218.7351
  11   2.0000      -1.404428       -38.2164
  12   2.0000      -1.256639       -34.1949
  13   2.0000      -1.080351       -29.3978
  14   2.0000      -1.038010       -28.2457
  15   2.0000      -0.921369       -25.0717
  16   2.0000      -0.897497       -24.4221
  17   2.0000      -0.767528       -20.8855
  18   2.0000      -0.707112       -19.2415
  19   2.0000      -0.693133       -18.8611
  20   2.0000      -0.676329       -18.4038
  21   2.0000      -0.605249       -16.4696
  22   2.0000      -0.592708       -16.1284
  23   2.0000      -0.568994       -15.4831
  24   2.0000      -0.561339       -15.2748
  25   2.0000      -0.545654       -14.8480
  26   2.0000      -0.524259       -14.2658
  27   2.0000      -0.479271       -13.0416
  28   2.0000      -0.471047       -12.8178
  29   2.0000      -0.452017       -12.3000
  30   2.0000      -0.426585       -11.6080
  31   2.0000      -0.381784       -10.3889
  32   0.0000       0.035662         0.9704
  33   0.0000       0.045099         1.2272
  34   0.0000       0.048392         1.3168
  35   0.0000       0.050085         1.3629
  36   0.0000       0.066073         1.7979

MULLIKEN ATOMIC CHARGES
-----------------------
   0 Cl:    0.100017
   1 O :   -0.901548
   2 N :   -0.980350
   3 C :    0.115734
   4 C :    0.828069
   5 C :    0.882910
   6 C :    1.340852
   7 H :   -0.075882
   8 H :   -0.068125
   9 H :   -0.258313
  10 H :   -0.152518
  11 H :   -0.083433
  12 H :   -0.259733
  13 H :   -0.269157
  14 H :   -0.218522
Sum of atomic charges:   -0.0000000

LOEWDIN ATOMIC CHARGES
----------------------
   0 Cl:    0.501715
   1 O :    0.010800
   2 N :   -0.400791
   3 C :   -0.000614
   4 C :   -0.080390
   5 C :   -0.007394
   6 C :   -0.087085
   7 H :    0.015461
   8 H :    0.013928
   9 H :    0.000821
  10 H :    0.016736
  11 H :    0.013053
  12 H :    0.006006
  13 H :   -0.008934
  14 H :    0.006687

  Mayer bond orders larger than 0.100000
B(  0-Cl,  2-N ) :   0.8434 B(  1-O ,  5-C ) :   0.6194 B(  1-O ,  6-C ) :   0.6525
B(  2-N ,  4-C ) :   0.8587 B(  2-N ,  6-C ) :   0.8469 B(  3-C ,  4-C ) :   1.2647
B(  3-C ,  5-C ) :   1.2796 B(  3-C ,  7-H ) :   0.7957 B(  3-C ,  8-H ) :   0.7971
B(  3-C , 10-H ) :   0.1032 B(  4-C ,  9-H ) :   0.9058 B(  4-C , 10-H ) :   0.7556
B(  5-C , 11-H ) :   0.8210 B(  5-C , 12-H ) :   0.9709 B(  6-C , 13-H ) :   0.9592
B(  6-C , 14-H ) :   0.9272 B(  7-H ,  8-H ) :  -0.1128 B(  9-H , 10-H ) :  -0.1300
B( 11-H , 12-H ) :  -0.1464 B( 13-H , 14-H ) :  -0.1167

MP2 TOTAL ENERGY:     -746.017767217 Eh
FINAL SINGLE POINT ENERGY      -746.017767217337

DIPOLE MOMENT
-------------
                                X             Y             Z
Electronic contribution:     10.45338      -1.74618      -0.28655
Nuclear contribution   :    -11.07565       2.14122       0.26118
                        -----------------------------------------
Total Dipole Moment    :     -0.62227       0.39504      -0.02537
                        -----------------------------------------
Magnitude (a.u.)       :      0.73751
Magnitude (Debye)      :      1.87460

Rotational constants in cm-1:     0.155064     0.050476     0.041063
Rotational constants in MHz :  4648.696397  1513.227664  1231.040239

                             ****ORCA TERMINATED NORMALLY****
TOTAL RUN TIME: 0 days 0 hours 0 minutes 48 seconds 466 msec
