                         Program Version 5.0.3 -  RELEASE  -
|  1> !ri-mp2 aug-cc-pvdz aug-cc-pvdz/c tightscf
|  2> %pal nprocs 16 end
|  3>
|  4> * xyz 0 1
|  5> C     -0.901148    1.795527    0.122367
|  6> C      0.418569    1.454846   -0.142196
|  7> C     -1.883647    0.815844    0.200910
|  8> C     -0.208669   -0.860797   -0.256980
|  9> C      0.778487    0.118510   -0.333408
| 10> C     -1.530238   -0.516572    0.009051
| 11> C      2.984093   -0.577570    0.712281
| 12> C      2.217039   -0.266854   -0.580918
| 13> O     -2.444462   -1.534667    0.066317
| 14> H     -1.173015    2.832920    0.265293
| 15> H      1.172655    2.228454   -0.206139
| 16> H     -2.913718    1.083750    0.403866
| 17> H      0.034043   -1.904816   -0.407043
| 18> H      2.994645    0.286561    1.377704
| 19> H      4.017795   -0.850368    0.494569
| 20> H      2.521714   -1.405294    1.251253
| 21> H      2.251433   -1.139150   -1.236927
| 22> H      2.720909    0.543479   -1.111640
| 23> H     -3.317676   -1.175798    0.251885
| 24> *
| 25>
| 26>                          ****END OF INPUT****

CARTESIAN COORDINATES (ANGSTROEM)
---------------------------------
  C     -0.901148    1.795527    0.122367
  C      0.418569    1.454846   -0.142196
  C     -1.883647    0.815844    0.200910
  C     -0.208669   -0.860797   -0.256980
  C      0.778487    0.118510   -0.333408
  C     -1.530238   -0.516572    0.009051
  C      2.984093   -0.577570    0.712281
  C      2.217039   -0.266854   -0.580918
  O     -2.444462   -1.534667    0.066317
  H     -1.173015    2.832920    0.265293
  H      1.172655    2.228454   -0.206139
  H     -2.913718    1.083750    0.403866
  H      0.034043   -1.904816   -0.407043
  H      2.994645    0.286561    1.377704
  H      4.017795   -0.850368    0.494569
  H      2.521714   -1.405294    1.251253
  H      2.251433   -1.139150   -1.236927
  H      2.720909    0.543479   -1.111640
  H     -3.317676   -1.175798    0.251885

 Total Charge           Charge          ....    0
 Multiplicity           Mult            ....    1
 Number of Electrons    NEL             ....   66
 Basis Dimension        Dim             ....  297

ORBITAL ENERGIES
----------------

  NO   OCC          E(Eh)            E(eV)
   0   2.0000     -20.598948      -560.5259
   1   2.0000     -11.306823      -307.6743
   2   2.0000     -11.247749      -306.0668
   3   2.0000     -11.245195      -305.9973
   4   2.0000     -11.233907      -305.6902
   5   2.0000     -11.233688      -305.6842
   6   2.0000     -11.226811      -305.4971
   7   2.0000     -11.225972      -305.4742
   8   2.0000     -11.222758      -305.3868
   9   2.0000      -1.407271       -38.2938
  10   2.0000      -1.155490       -31.4425
  11   2.0000      -1.064735       -28.9729
  12   2.0000      -1.010889       -27.5077
  13   2.0000      -0.985224       -26.8093
  14   2.0000      -0.873336       -23.7647
  15   2.0000      -0.827021       -22.5044
  16   2.0000      -0.811615       -22.0852
  17   2.0000      -0.712489       -19.3878
  18   2.0000      -0.683913       -18.6102
  19   2.0000      -0.659355       -17.9420
  20   2.0000      -0.619861       -16.8673
  21   2.0000      -0.598515       -16.2864
  22   2.0000      -0.587416       -15.9844
  23   2.0000      -0.584665       -15.9095
  24   2.0000      -0.562764       -15.3136
  25   2.0000      -0.547042       -14.8858
  26   2.0000      -0.521124       -14.1805
  27   2.0000      -0.507746       -13.8165
  28   2.0000      -0.485198       -13.2029
  29   2.0000      -0.474471       -12.9110
  30   2.0000      -0.469486       -12.7754
  31   2.0000      -0.332963        -9.0604
  32   2.0000      -0.312228        -8.4962
  33   0.0000       0.032392         0.8814
  34   0.0000       0.038662         1.0520
  35   0.0000       0.042784         1.1642
  36   0.0000       0.053101         1.4449
  37   0.0000       0.055276         1.5041

MULLIKEN ATOMIC CHARGES
-----------------------
   0 C :    0.077625
   1 C :    0.480951
   2 C :    0.512659
   3 C :    0.505762
   4 C :    1.119577
   5 C :    0.509545
   6 C :    0.324167
   7 C :    0.091870
   8 O :   -0.915346
   9 H :   -0.452586
  10 H :   -0.630901
  11 H :   -0.578726
  12 H :   -0.602127
  13 H :   -0.101859
  14 H :   -0.084210
  15 H :   -0.103520
  16 H :   -0.148393
  17 H :   -0.174211
  18 H :    0.169724
Sum of atomic charges:    0.0000000

LOEWDIN ATOMIC CHARGES
----------------------
   0 C :    0.008508
   1 C :    0.032208
   2 C :    0.035987
   3 C :    0.083701
   4 C :   -0.183287
   5 C :   -0.225506
   6 C :    0.147355
   7 C :   -0.030338
   8 O :    0.181894
   9 H :    0.002629
  10 H :    0.001569
  11 H :   -0.002598
  12 H :    0.014045
  13 H :   -0.016824
  14 H :   -0.019736
  15 H :   -0.017078
  16 H :    0.015128
  17 H :    0.014299
  18 H :   -0.041956

  Mayer bond orders larger than 0.100000
B(  0-C ,  1-C ) :   1.8495 B(  0-C ,  2-C ) :   1.9643 B(  0-C ,  4-C ) :  -0.4187
B(  0-C ,  5-C ) :  -0.2715 B(  0-C ,  7-C ) :   0.2268 B(  0-C ,  9-H ) :   0.2141
B(  0-C , 10-H ) :   0.2984 B(  0-C , 11-H ) :   0.1877 B(  1-C ,  3-C ) :  -0.5619
B(  1-C ,  4-C ) :   1.7758 B(  1-C ,  7-C ) :  -0.3761 B(  1-C ,  9-H ) :   0.3649
B(  1-C , 10-H ) :  -0.1915 B(  2-C ,  4-C ) :   0.1768 B(  2-C ,  5-C ) :   1.6084
B(  2-C ,  8-O ) :   0.1668 B(  2-C ,  9-H ) :   0.1936 B(  3-C ,  4-C ) :   1.8269
B(  3-C ,  5-C ) :   1.6525 B(  3-C ,  7-C ) :  -0.3822 B(  3-C , 12-H ) :  -0.1523
B(  4-C ,  5-C ) :  -0.2826 B(  4-C ,  6-C ) :  -0.1242 B(  4-C ,  7-C ) :   1.3368
B(  4-C , 10-H ) :   0.3992 B(  4-C , 12-H ) :   0.3489 B(  5-C ,  7-C ) :   0.1598
B(  5-C ,  9-H ) :  -0.1161 B(  5-C , 11-H ) :   0.5625 B(  5-C , 12-H ) :   0.4000
B(  5-C , 18-H ) :  -0.1144 B(  6-C ,  7-C ) :   1.1969 B(  6-C , 13-H ) :   0.9557
B(  6-C , 14-H ) :   0.9230 B(  6-C , 15-H ) :   0.9511 B(  7-C , 16-H ) :   0.8029
B(  7-C , 17-H ) :   0.7929 B(  8-O , 18-H ) :   1.0598

MP2 TOTAL ENERGY:     -384.989756990 Eh
FINAL SINGLE POINT ENERGY      -384.989756990023

DIPOLE MOMENT
-------------
                                X             Y             Z
Electronic contribution:     -8.52265      -0.09546      -1.01149
Nuclear contribution   :      8.39114       0.48250       1.09971
                        -----------------------------------------
Total Dipole Moment    :     -0.13151       0.38704       0.08822
                        -----------------------------------------
Magnitude (a.u.)       :      0.41818
Magnitude (Debye)      :      1.06293

Rotational constants in cm-1:     0.098708     0.038433     0.029634
Rotational constants in MHz :  2959.205798  1152.178123   888.411332

                             ****ORCA TERMINATED NORMALLY****
TOTAL RUN TIME: 0 days 0 hours 1 minutes 20 seconds 861 msec
