                         Program Version 5.0.3 -  RELEASE  -
|  1> !ri-mp2 aug-cc-pvdz aug-cc-pvdz/c tightscf
|  2> %pal nprocs 16 end
|  3>
|  4> * xyz 0 1
|  5> O      0.832747    1.359187    0.006513
|  6> O      2.144989   -0.432647   -0.013277
|  7> N     -2.578092    0.122693   -0.135032
|  8> C      0.917327    0.160721    0.006423
|  9> C     -0.225737   -0.768608    0.030257
| 10> C     -1.459445   -0.297235    0.010407
| 11> H      2.070121   -1.393038   -0.029288
| 12> H     -3.142970    0.393415    0.664093
| 13> H     -0.095256   -1.840812    0.082007
| 14> *
| 15>
| 16>                          ****END OF INPUT****

CARTESIAN COORDINATES (ANGSTROEM)
---------------------------------
  O      0.832747    1.359187    0.006513
  O      2.144989   -0.432647   -0.013277
  N     -2.578092    0.122693   -0.135032
  C      0.917327    0.160721    0.006423
  C     -0.225737   -0.768608    0.030257
  C     -1.459445   -0.297235    0.010407
  H      2.070121   -1.393038   -0.029288
  H     -3.142970    0.393415    0.664093
  H     -0.095256   -1.840812    0.082007

 Total Charge           Charge          ....    0
 Multiplicity           Mult            ....    1
 Number of Electrons    NEL             ....   44
 Basis Dimension        Dim             ....  165

ORBITAL ENERGIES
----------------

  NO   OCC          E(Eh)            E(eV)
   0   2.0000     -20.624687      -561.2263
   1   2.0000     -20.551305      -559.2294
   2   2.0000     -15.632028      -425.3691
   3   2.0000     -11.406518      -310.3871
   4   2.0000     -11.374472      -309.5151
   5   2.0000     -11.273177      -306.7587
   6   2.0000      -1.464179       -39.8423
   7   2.0000      -1.368725       -37.2449
   8   2.0000      -1.294949       -35.2374
   9   2.0000      -1.081808       -29.4375
  10   2.0000      -0.866739       -23.5852
  11   2.0000      -0.812928       -22.1209
  12   2.0000      -0.766313       -20.8524
  13   2.0000      -0.706158       -19.2155
  14   2.0000      -0.639897       -17.4125
  15   2.0000      -0.635699       -17.2983
  16   2.0000      -0.595915       -16.2157
  17   2.0000      -0.584552       -15.9065
  18   2.0000      -0.516958       -14.0672
  19   2.0000      -0.487953       -13.2779
  20   2.0000      -0.456769       -12.4293
  21   2.0000      -0.382371       -10.4048
  22   0.0000       0.021138         0.5752
  23   0.0000       0.034326         0.9340
  24   0.0000       0.054986         1.4962
  25   0.0000       0.089569         2.4373
  26   0.0000       0.098401         2.6776

MULLIKEN ATOMIC CHARGES
-----------------------
   0 O :   -0.670046
   1 O :   -0.679343
   2 N :   -0.212302
   3 C :    0.988012
   4 C :    1.246977
   5 C :   -0.517730
   6 H :    0.204460
   7 H :    0.118779
   8 H :   -0.478806
Sum of atomic charges:    0.0000000

LOEWDIN ATOMIC CHARGES
----------------------
   0 O :    0.041950
   1 O :    0.201184
   2 N :    0.241827
   3 C :   -0.373090
   4 C :    0.038752
   5 C :   -0.057494
   6 H :   -0.046548
   7 H :   -0.032717
   8 H :   -0.013864

  Mayer bond orders larger than 0.100000
B(  0-O ,  3-C ) :   1.6027 B(  0-O ,  4-C ) :  -0.1207 B(  0-O ,  5-C ) :   0.1043
B(  1-O ,  3-C ) :   0.3758 B(  1-O ,  4-C ) :   0.1167 B(  1-O ,  6-H ) :   1.0318
B(  2-N ,  5-C ) :   2.1445 B(  2-N ,  7-H ) :   0.9142 B(  3-C ,  4-C ) :   0.8138
B(  3-C ,  5-C ) :   0.1441 B(  4-C ,  5-C ) :   1.0631 B(  4-C ,  8-H ) :   0.6097
B(  5-C ,  8-H ) :   0.1700

MP2 TOTAL ENERGY:     -320.487009188 Eh
FINAL SINGLE POINT ENERGY      -320.487009187812

DIPOLE MOMENT
-------------
                                X             Y             Z
Electronic contribution:      0.18302       1.03100      -0.12370
Nuclear contribution   :     -1.10388      -2.74451       0.69549
                        -----------------------------------------
Total Dipole Moment    :     -0.92086      -1.71351       0.57178
                        -----------------------------------------
Magnitude (a.u.)       :      2.02757
Magnitude (Debye)      :      5.15367

Rotational constants in cm-1:     0.356557     0.073557     0.061287
Rotational constants in MHz : 10689.321519  2205.184892  1837.324965

                             ****ORCA TERMINATED NORMALLY****
TOTAL RUN TIME: 0 days 0 hours 0 minutes 37 seconds 638 msec
