                         Program Version 5.0.3 -  RELEASE  -
|  1> !ri-mp2 aug-cc-pvdz aug-cc-pvdz/c tightscf
|  2> %pal nprocs 16 end
|  3>
|  4> * xyz 0 1
|  5> C     0.000000     0.000000    1.171492
|  6> C     0.000000     0.000000   -0.297053
|  7> C     0.000000     1.456381   -0.805220
|  8> C     1.261263    -0.728190   -0.805220
|  9> C    -1.261263    -0.728190   -0.805220
| 10> C     0.000000     0.000000    2.371824
| 11> H     0.000000     0.000000    3.433077
| 12> H     0.000000     1.469839   -1.896499
| 13> H     1.272918    -0.734919   -1.896499
| 14> H    -1.272918    -0.734919   -1.896499
| 15> H    -0.882465     1.990948   -0.454532
| 16> H     0.882465     1.990948   -0.454532
| 17> H     2.165444    -0.231237   -0.454532
| 18> H     1.282979    -1.759711   -0.454532
| 19> H    -1.282979    -1.759711   -0.454532
| 20> H    -2.165444    -0.231237   -0.454532
| 21> *
| 22>
| 23>                          ****END OF INPUT****

CARTESIAN COORDINATES (ANGSTROEM)
---------------------------------
  C      0.000000    0.000000    1.171492
  C      0.000000    0.000000   -0.297053
  C      0.000000    1.456381   -0.805220
  C      1.261263   -0.728190   -0.805220
  C     -1.261263   -0.728190   -0.805220
  C      0.000000    0.000000    2.371824
  H      0.000000    0.000000    3.433077
  H      0.000000    1.469839   -1.896499
  H      1.272918   -0.734919   -1.896499
  H     -1.272918   -0.734919   -1.896499
  H     -0.882465    1.990948   -0.454532
  H      0.882465    1.990948   -0.454532
  H      2.165444   -0.231237   -0.454532
  H      1.282979   -1.759711   -0.454532
  H     -1.282979   -1.759711   -0.454532
  H     -2.165444   -0.231237   -0.454532

 Total Charge           Charge          ....    0
 Multiplicity           Mult            ....    1
 Number of Electrons    NEL             ....   46
 Basis Dimension        Dim             ....  228

ORBITAL ENERGIES
----------------

  NO   OCC          E(Eh)            E(eV)
   0   2.0000     -11.267613      -306.6073
   1   2.0000     -11.234391      -305.7033
   2   2.0000     -11.226322      -305.4837
   3   2.0000     -11.226322      -305.4837
   4   2.0000     -11.226297      -305.4831
   5   2.0000     -11.223887      -305.4175
   6   2.0000      -1.121920       -30.5290
   7   2.0000      -1.007185       -27.4069
   8   2.0000      -0.939935       -25.5769
   9   2.0000      -0.939935       -25.5769
  10   2.0000      -0.818899       -22.2834
  11   2.0000      -0.704418       -19.1682
  12   2.0000      -0.647729       -17.6256
  13   2.0000      -0.606035       -16.4911
  14   2.0000      -0.606035       -16.4911
  15   2.0000      -0.549415       -14.9503
  16   2.0000      -0.549415       -14.9503
  17   2.0000      -0.519700       -14.1418
  18   2.0000      -0.510682       -13.8964
  19   2.0000      -0.482277       -13.1234
  20   2.0000      -0.482277       -13.1234
  21   2.0000      -0.380907       -10.3650
  22   2.0000      -0.380907       -10.3650
  23   0.0000       0.035532         0.9669
  24   0.0000       0.040880         1.1124
  25   0.0000       0.050087         1.3629
  26   0.0000       0.050087         1.3629
  27   0.0000       0.060479         1.6457

MULLIKEN ATOMIC CHARGES
-----------------------
   0 C :    0.286958
   1 C :   -3.710272
   2 C :    1.147716
   3 C :    1.147717
   4 C :    1.147717
   5 C :    0.853080
   6 H :   -0.554730
   7 H :   -0.031060
   8 H :   -0.031060
   9 H :   -0.031060
  10 H :   -0.037501
  11 H :   -0.037501
  12 H :   -0.037502
  13 H :   -0.037500
  14 H :   -0.037500
  15 H :   -0.037502
Sum of atomic charges:    0.0000000

LOEWDIN ATOMIC CHARGES
----------------------
   0 C :   -0.069000
   1 C :   -0.538207
   2 C :    0.180402
   3 C :    0.180402
   4 C :    0.180402
   5 C :    0.222153
   6 H :   -0.104424
   7 H :   -0.006992
   8 H :   -0.006992
   9 H :   -0.006992
  10 H :   -0.005126
  11 H :   -0.005126
  12 H :   -0.005126
  13 H :   -0.005125
  14 H :   -0.005125
  15 H :   -0.005126

  Mayer bond orders larger than 0.100000
B(  0-C ,  5-C ) :   2.6396 B(  0-C ,  6-H ) :   0.8913 B(  1-C ,  2-C ) :   1.4620
B(  1-C ,  3-C ) :   1.4620 B(  1-C ,  4-C ) :   1.4620 B(  1-C ,  6-H ) :   0.2006
B(  1-C ,  7-H ) :   0.2467 B(  1-C ,  8-H ) :   0.2467 B(  1-C ,  9-H ) :   0.2467
B(  1-C , 10-H ) :   0.1477 B(  1-C , 11-H ) :   0.1477 B(  1-C , 12-H ) :   0.1477
B(  1-C , 13-H ) :   0.1477 B(  1-C , 14-H ) :   0.1477 B(  1-C , 15-H ) :   0.1477
B(  2-C ,  3-C ) :  -0.1153 B(  2-C ,  4-C ) :  -0.1153 B(  2-C ,  7-H ) :   0.7055
B(  2-C , 10-H ) :   0.7674 B(  2-C , 11-H ) :   0.7674 B(  3-C ,  4-C ) :  -0.1153
B(  3-C ,  8-H ) :   0.7055 B(  3-C , 12-H ) :   0.7674 B(  3-C , 13-H ) :   0.7674
B(  4-C ,  9-H ) :   0.7055 B(  4-C , 14-H ) :   0.7674 B(  4-C , 15-H ) :   0.7674
B(  5-C ,  6-H ) :  -0.6308 B(  7-H , 10-H ) :  -0.1063 B(  7-H , 11-H ) :  -0.1063
B(  8-H , 12-H ) :  -0.1063 B(  8-H , 13-H ) :  -0.1063 B(  9-H , 14-H ) :  -0.1063
B(  9-H , 15-H ) :  -0.1063

MP2 TOTAL ENERGY:     -233.858001843 Eh
FINAL SINGLE POINT ENERGY      -233.858001843342

DIPOLE MOMENT
-------------
                                X             Y             Z
Electronic contribution:      0.00000       0.00000       4.94976
Nuclear contribution   :      0.00000      -0.00000      -5.24117
                        -----------------------------------------
Total Dipole Moment    :      0.00000       0.00000      -0.29141
                        -----------------------------------------
Magnitude (a.u.)       :      0.29141
Magnitude (Debye)      :      0.74069

Rotational constants in cm-1:     0.150994     0.089666     0.089666
Rotational constants in MHz :  4526.700909  2688.119047  2688.118720

                             ****ORCA TERMINATED NORMALLY****
TOTAL RUN TIME: 0 days 0 hours 0 minutes 38 seconds 370 msec
