                         Program Version 5.0.3 -  RELEASE  -
|  1> !ri-mp2 aug-cc-pvdz aug-cc-pvdz/c tightscf
|  2> %pal nprocs 16 end
|  3>
|  4> * xyz 0 1
|  5> C      1.606387   -0.480067    0.000000
|  6> H      2.540581    0.090664    0.000000
|  7> S     -2.130950    1.425864    0.000000
|  8> H     -3.258675    0.692401    0.000000
|  9> C     -0.938661    0.019058    0.000000
| 10> C      0.482787    0.577197    0.000000
| 11> C      1.606387   -1.344668    1.264784
| 12> C      1.606387   -1.344668   -1.264784
| 13> H     -1.123532   -0.585866    0.884604
| 14> H     -1.123532   -0.585866   -0.884604
| 15> H      0.607472    1.219754   -0.875670
| 16> H      0.607472    1.219754    0.875670
| 17> H      2.487666   -1.987485   -1.291990
| 18> H      2.487666   -1.987485    1.291990
| 19> H      0.730680   -1.994906    1.310682
| 20> H      0.730680   -1.994906   -1.310682
| 21> H      1.614497   -0.730494    2.167099
| 22> H      1.614497   -0.730494   -2.167099
| 23> *
| 24>
| 25>                          ****END OF INPUT****

CARTESIAN COORDINATES (ANGSTROEM)
---------------------------------
  C      1.606387   -0.480067    0.000000
  H      2.540581    0.090664    0.000000
  S     -2.130950    1.425864    0.000000
  H     -3.258675    0.692401    0.000000
  C     -0.938661    0.019058    0.000000
  C      0.482787    0.577197    0.000000
  C      1.606387   -1.344668    1.264784
  C      1.606387   -1.344668   -1.264784
  H     -1.123532   -0.585866    0.884604
  H     -1.123532   -0.585866   -0.884604
  H      0.607472    1.219754   -0.875670
  H      0.607472    1.219754    0.875670
  H      2.487666   -1.987485   -1.291990
  H      2.487666   -1.987485    1.291990
  H      0.730680   -1.994906    1.310682
  H      0.730680   -1.994906   -1.310682
  H      1.614497   -0.730494    2.167099
  H      1.614497   -0.730494   -2.167099

 Total Charge           Charge          ....    0
 Multiplicity           Mult            ....    1
 Number of Electrons    NEL             ....   58
 Basis Dimension        Dim             ....  250

ORBITAL ENERGIES
----------------

  NO   OCC          E(Eh)            E(eV)
   0   2.0000     -91.950280     -2502.0943
   1   2.0000     -11.264404      -306.5200
   2   2.0000     -11.238264      -305.8087
   3   2.0000     -11.233711      -305.6848
   4   2.0000     -11.222098      -305.3688
   5   2.0000     -11.222073      -305.3681
   6   2.0000      -8.951746      -243.5894
   7   2.0000      -6.633864      -180.5166
   8   2.0000      -6.632479      -180.4789
   9   2.0000      -6.630383      -180.4219
  10   2.0000      -1.106748       -30.1162
  11   2.0000      -1.038090       -28.2479
  12   2.0000      -0.935871       -25.4663
  13   2.0000      -0.933917       -25.4132
  14   2.0000      -0.840461       -22.8701
  15   2.0000      -0.757673       -20.6173
  16   2.0000      -0.639904       -17.4127
  17   2.0000      -0.636022       -17.3070
  18   2.0000      -0.606938       -16.5156
  19   2.0000      -0.568840       -15.4789
  20   2.0000      -0.560384       -15.2488
  21   2.0000      -0.534077       -14.5330
  22   2.0000      -0.526518       -14.3273
  23   2.0000      -0.505539       -13.7564
  24   2.0000      -0.471869       -12.8402
  25   2.0000      -0.466437       -12.6924
  26   2.0000      -0.454384       -12.3644
  27   2.0000      -0.439174       -11.9505
  28   2.0000      -0.352260        -9.5855
  29   0.0000       0.034541         0.9399
  30   0.0000       0.040690         1.1072
  31   0.0000       0.046493         1.2651
  32   0.0000       0.047754         1.2995
  33   0.0000       0.062352         1.6967

MULLIKEN ATOMIC CHARGES
-----------------------
   0 C :   -1.291085
   1 H :   -0.061063
   2 S :    0.276455
   3 H :    0.081635
   4 C :    0.119770
   5 C :    0.410092
   6 C :    0.821872
   7 C :    0.821872
   8 H :   -0.173991
   9 H :   -0.173991
  10 H :   -0.158770
  11 H :   -0.158770
  12 H :   -0.105426
  13 H :   -0.105426
  14 H :   -0.073006
  15 H :   -0.073006
  16 H :   -0.078581
  17 H :   -0.078581
Sum of atomic charges:    0.0000000

LOEWDIN ATOMIC CHARGES
----------------------
   0 C :   -0.282672
   1 H :    0.036895
   2 S :    0.711567
   3 H :   -0.235478
   4 C :   -0.310867
   5 C :   -0.086729
   6 C :    0.155897
   7 C :    0.155897
   8 H :   -0.038189
   9 H :   -0.038189
  10 H :    0.010145
  11 H :    0.010145
  12 H :   -0.014110
  13 H :   -0.014110
  14 H :   -0.019129
  15 H :   -0.019129
  16 H :   -0.010972
  17 H :   -0.010972

  Mayer bond orders larger than 0.100000
B(  0-C ,  1-H ) :   0.7137 B(  0-C ,  4-C ) :  -0.1346 B(  0-C ,  5-C ) :   1.2940
B(  0-C ,  6-C ) :   1.3647 B(  0-C ,  7-C ) :   1.3647 B(  0-C , 10-H ) :   0.1640
B(  0-C , 11-H ) :   0.1640 B(  0-C , 12-H ) :   0.1536 B(  0-C , 13-H ) :   0.1536
B(  0-C , 14-H ) :   0.1298 B(  0-C , 15-H ) :   0.1298 B(  2-S ,  3-H ) :   0.9586
B(  2-S ,  4-C ) :   1.2480 B(  2-S ,  5-C ) :  -0.1277 B(  2-S ,  8-H ) :  -0.1090
B(  2-S ,  9-H ) :  -0.1090 B(  4-C ,  5-C ) :   1.2388 B(  4-C ,  8-H ) :   0.8935
B(  4-C ,  9-H ) :   0.8935 B(  5-C ,  8-H ) :   0.1069 B(  5-C ,  9-H ) :   0.1069
B(  5-C , 10-H ) :   0.7510 B(  5-C , 11-H ) :   0.7510 B(  6-C ,  7-C ) :  -0.1827
B(  6-C , 13-H ) :   0.7928 B(  6-C , 14-H ) :   0.8890 B(  6-C , 16-H ) :   0.8134
B(  7-C , 12-H ) :   0.7928 B(  7-C , 15-H ) :   0.8890 B(  7-C , 17-H ) :   0.8134
B( 10-H , 11-H ) :  -0.1378 B( 12-H , 17-H ) :  -0.1030 B( 13-H , 16-H ) :  -0.1030

MP2 TOTAL ENERGY:     -594.786091282 Eh
FINAL SINGLE POINT ENERGY      -594.786091282259

DIPOLE MOMENT
-------------
                                X             Y             Z
Electronic contribution:     -8.00805       7.07451      -0.00000
Nuclear contribution   :      8.34251      -7.75475       0.00000
                        -----------------------------------------
Total Dipole Moment    :      0.33446      -0.68025      -0.00000
                        -----------------------------------------
Magnitude (a.u.)       :      0.75802
Magnitude (Debye)      :      1.92674

Rotational constants in cm-1:     0.198184     0.039501     0.036856
Rotational constants in MHz :  5941.405815  1184.215812  1104.904156

                             ****ORCA TERMINATED NORMALLY****
TOTAL RUN TIME: 0 days 0 hours 0 minutes 51 seconds 457 msec
