                         Program Version 5.0.3 -  RELEASE  -
|  1> !ri-mp2 aug-cc-pvdz aug-cc-pvdz/c tightscf
|  2> %pal nprocs 16 end
|  3>
|  4> * xyz 0 1
|  5> H      2.562959   -0.097562    0.819589
|  6> H      2.562959   -0.097562   -0.819589
|  7> N      2.216312   -0.578879    0.000000
|  8> H      0.469894   -1.278430    0.874317
|  9> H      0.469894   -1.278430   -0.874317
| 10> C      0.770226   -0.700586    0.000000
| 11> H      0.275992    1.231576    0.878759
| 12> H      0.275992    1.231576   -0.878759
| 13> C      0.000000    0.644465    0.000000
| 14> N     -2.581961    0.274773    0.000000
| 15> C     -1.446584    0.459050    0.000000
| 16> *
| 17>
| 18>                          ****END OF INPUT****

CARTESIAN COORDINATES (ANGSTROEM)
---------------------------------
  H      2.562959   -0.097562    0.819589
  H      2.562959   -0.097562   -0.819589
  N      2.216312   -0.578879    0.000000
  H      0.469894   -1.278430    0.874317
  H      0.469894   -1.278430   -0.874317
  C      0.770226   -0.700586    0.000000
  H      0.275992    1.231576    0.878759
  H      0.275992    1.231576   -0.878759
  C      0.000000    0.644465    0.000000
  N     -2.581961    0.274773    0.000000
  C     -1.446584    0.459050    0.000000

 Total Charge           Charge          ....    0
 Multiplicity           Mult            ....    1
 Number of Electrons    NEL             ....   38
 Basis Dimension        Dim             ....  169

ORBITAL ENERGIES
----------------

  NO   OCC          E(Eh)            E(eV)
   0   2.0000     -15.581311      -423.9890
   1   2.0000     -15.572707      -423.7549
   2   2.0000     -11.290294      -307.2245
   3   2.0000     -11.289036      -307.1903
   4   2.0000     -11.283947      -307.0518
   5   2.0000      -1.229775       -33.4639
   6   2.0000      -1.207648       -32.8618
   7   2.0000      -1.057940       -28.7880
   8   2.0000      -0.888401       -24.1746
   9   2.0000      -0.708886       -19.2898
  10   2.0000      -0.706040       -19.2123
  11   2.0000      -0.630795       -17.1648
  12   2.0000      -0.627157       -17.0658
  13   2.0000      -0.574275       -15.6268
  14   2.0000      -0.552754       -15.0412
  15   2.0000      -0.529472       -14.4077
  16   2.0000      -0.472415       -12.8551
  17   2.0000      -0.461318       -12.5531
  18   2.0000      -0.409601       -11.1458
  19   0.0000       0.025297         0.6884
  20   0.0000       0.041269         1.1230
  21   0.0000       0.047634         1.2962
  22   0.0000       0.050417         1.3719
  23   0.0000       0.068119         1.8536

MULLIKEN ATOMIC CHARGES
-----------------------
   0 H :    0.000735
   1 H :    0.000735
   2 N :   -0.396510
   3 H :   -0.138132
   4 H :   -0.138132
   5 C :    0.677788
   6 H :    0.016705
   7 H :    0.016705
   8 C :    0.475099
   9 N :   -0.336586
  10 C :   -0.178408
Sum of atomic charges:   -0.0000000

LOEWDIN ATOMIC CHARGES
----------------------
   0 H :   -0.047974
   1 H :   -0.047974
   2 N :    0.181516
   3 H :    0.017051
   4 H :    0.017051
   5 C :   -0.056930
   6 H :    0.023684
   7 H :    0.023684
   8 C :   -0.028258
   9 N :    0.069095
  10 C :   -0.150945

  Mayer bond orders larger than 0.100000
B(  0-H ,  2-N ) :   1.0565 B(  1-H ,  2-N ) :   1.0565 B(  2-N ,  5-C ) :   0.8538
B(  3-H ,  4-H ) :  -0.1010 B(  3-H ,  5-C ) :   0.9195 B(  4-H ,  5-C ) :   0.9195
B(  5-C ,  8-C ) :   1.1652 B(  6-H ,  8-C ) :   0.8368 B(  7-H ,  8-C ) :   0.8368
B(  8-C , 10-C ) :   0.7616 B(  9-N , 10-C ) :   2.6874

MP2 TOTAL ENERGY:     -226.779232354 Eh
FINAL SINGLE POINT ENERGY      -226.779232354296

DIPOLE MOMENT
-------------
                                X             Y             Z
Electronic contribution:     -5.17107       0.89259       0.00000
Nuclear contribution   :      6.73557      -0.29589       0.00000
                        -----------------------------------------
Total Dipole Moment    :      1.56450       0.59670       0.00000
                        -----------------------------------------
Magnitude (a.u.)       :      1.67443
Magnitude (Debye)      :      4.25607

Rotational constants in cm-1:     0.834968     0.075964     0.072288
Rotational constants in MHz : 25031.714807  2277.337427  2167.129761

                             ****ORCA TERMINATED NORMALLY****
TOTAL RUN TIME: 0 days 0 hours 0 minutes 29 seconds 894 msec
