                         Program Version 5.0.3 -  RELEASE  -
|  1> !ri-mp2 aug-cc-pvdz aug-cc-pvdz/c tightscf
|  2> %pal nprocs 16 end
|  3>
|  4> * xyz 0 1
|  5> F    -1.107399    1.972598   -0.000008
|  6> F     3.142849   -0.010796    0.000001
|  7> N    -0.115794   -1.478474    0.000005
|  8> N    -3.450688   -0.659364    0.000001
|  9> C    -0.881069   -0.381590    0.000001
| 10> C    -0.318666    0.896498   -0.000003
| 11> C     1.807176   -0.095422    0.000001
| 12> C     1.053220    1.060726   -0.000003
| 13> C     1.201271   -1.347746    0.000005
| 14> C    -2.305482   -0.546687    0.000001
| 15> H     1.504868    2.041454   -0.000006
| 16> H     1.802744   -2.247483    0.000009
| 17> *
| 18>
| 19>                          ****END OF INPUT****

CARTESIAN COORDINATES (ANGSTROEM)
---------------------------------
  F     -1.107399    1.972598   -0.000008
  F      3.142849   -0.010796    0.000001
  N     -0.115794   -1.478474    0.000005
  N     -3.450688   -0.659364    0.000001
  C     -0.881069   -0.381590    0.000001
  C     -0.318666    0.896498   -0.000003
  C      1.807176   -0.095422    0.000001
  C      1.053220    1.060726   -0.000003
  C      1.201271   -1.347746    0.000005
  C     -2.305482   -0.546687    0.000001
  H      1.504868    2.041454   -0.000006
  H      1.802744   -2.247483    0.000009

 Total Charge           Charge          ....    0
 Multiplicity           Mult            ....    1
 Number of Electrons    NEL             ....   70
 Basis Dimension        Dim             ....  248

ORBITAL ENERGIES
----------------

  NO   OCC          E(Eh)            E(eV)
   0   2.0000     -26.373592      -717.6619
   1   2.0000     -26.372007      -717.6188
   2   2.0000     -15.640757      -425.6066
   3   2.0000     -15.602959      -424.5781
   4   2.0000     -11.399166      -310.1871
   5   2.0000     -11.393279      -310.0269
   6   2.0000     -11.354912      -308.9829
   7   2.0000     -11.327001      -308.2234
   8   2.0000     -11.313336      -307.8515
   9   2.0000     -11.300662      -307.5067
  10   2.0000      -1.686708       -45.8976
  11   2.0000      -1.683579       -45.8125
  12   2.0000      -1.331448       -36.2306
  13   2.0000      -1.241279       -33.7769
  14   2.0000      -1.154798       -31.4237
  15   2.0000      -1.105044       -30.0698
  16   2.0000      -0.960970       -26.1493
  17   2.0000      -0.936272       -25.4773
  18   2.0000      -0.823762       -22.4157
  19   2.0000      -0.813847       -22.1459
  20   2.0000      -0.806233       -21.9387
  21   2.0000      -0.749244       -20.3880
  22   2.0000      -0.744713       -20.2647
  23   2.0000      -0.739340       -20.1185
  24   2.0000      -0.713826       -19.4242
  25   2.0000      -0.673176       -18.3180
  26   2.0000      -0.646505       -17.5923
  27   2.0000      -0.621442       -16.9103
  28   2.0000      -0.603255       -16.4154
  29   2.0000      -0.574509       -15.6332
  30   2.0000      -0.505883       -13.7658
  31   2.0000      -0.490591       -13.3497
  32   2.0000      -0.483262       -13.1502
  33   2.0000      -0.434188       -11.8149
  34   2.0000      -0.382132       -10.3983
  35   0.0000       0.026084         0.7098
  36   0.0000       0.036443         0.9917
  37   0.0000       0.040496         1.1019
  38   0.0000       0.066100         1.7987
  39   0.0000       0.068836         1.8731

MULLIKEN ATOMIC CHARGES
-----------------------
   0 F :   -0.801317
   1 F :   -0.762016
   2 N :   -0.725332
   3 N :   -0.147673
   4 C :    1.268401
   5 C :    0.983498
   6 C :    0.931524
   7 C :    0.266601
   8 C :    0.613697
   9 C :   -1.017399
  10 H :   -0.324297
  11 H :   -0.285686
Sum of atomic charges:    0.0000000

LOEWDIN ATOMIC CHARGES
----------------------
   0 F :    0.102525
   1 F :    0.085555
   2 N :    0.094296
   3 N :    0.105713
   4 C :   -0.218846
   5 C :   -0.130843
   6 C :   -0.160984
   7 C :    0.126502
   8 C :    0.035058
   9 C :   -0.088719
  10 H :    0.032436
  11 H :    0.017308

  Mayer bond orders larger than 0.100000
B(  0-F ,  4-C ) :   0.4870 B(  0-F ,  5-C ) :  -0.5344 B(  0-F ,  7-C ) :   0.2856
B(  1-F ,  6-C ) :  -0.3163 B(  1-F ,  7-C ) :   0.3694 B(  1-F ,  8-C ) :   0.1810
B(  2-N ,  4-C ) :   1.0412 B(  2-N ,  8-C ) :   1.3756 B(  2-N ,  9-C ) :   0.1751
B(  3-N ,  4-C ) :  -0.1141 B(  3-N ,  9-C ) :   2.5297 B(  4-C ,  5-C ) :   1.0439
B(  4-C ,  7-C ) :   0.1581 B(  4-C ,  8-C ) :   0.1202 B(  4-C ,  9-C ) :  -0.6533
B(  5-C ,  7-C ) :   1.7593 B(  5-C , 10-H ) :   0.2036 B(  6-C ,  7-C ) :   1.5368
B(  6-C ,  8-C ) :   1.3765 B(  7-C ,  8-C ) :   0.1935 B(  7-C , 10-H ) :   0.4808
B(  8-C ,  9-C ) :  -0.1391 B(  8-C , 11-H ) :   0.7504

MP2 TOTAL ENERGY:     -537.686588882 Eh
FINAL SINGLE POINT ENERGY      -537.686588882382

DIPOLE MOMENT
-------------
                                X             Y             Z
Electronic contribution:      0.68948       2.51168      -0.00001
Nuclear contribution   :      1.19788      -2.02326       0.00001
                        -----------------------------------------
Total Dipole Moment    :      1.88736       0.48841      -0.00000
                        -----------------------------------------
Magnitude (a.u.)       :      1.94954
Magnitude (Debye)      :      4.95532

Rotational constants in cm-1:     0.098975     0.031943     0.024149
Rotational constants in MHz :  2967.207165   957.626093   723.973432

                             ****ORCA TERMINATED NORMALLY****
TOTAL RUN TIME: 0 days 0 hours 0 minutes 56 seconds 732 msec
