                         Program Version 5.0.3 -  RELEASE  -
|  1> !ri-mp2 aug-cc-pvdz aug-cc-pvdz/c tightscf
|  2> %pal nprocs 16 end
|  3> %maxcore 3800
|  4>
|  5> * xyz 0 1
|  6> C      4.015672    0.099100    0.289449
|  7> C     -3.659890   -0.381305    0.397793
|  8> C     -1.312953    1.589945   -0.274353
|  9> C      2.736727   -0.537959   -0.251184
| 10> C     -2.319478   -0.745039   -0.241002
| 11> C      1.463534    0.175911    0.206921
| 12> C      0.184875   -0.466156   -0.335149
| 13> C     -1.132203    0.137622    0.180181
| 14> H      4.109221    1.136544   -0.038345
| 15> H      4.025788    0.097510    1.381427
| 16> H      4.903264   -0.436410   -0.050520
| 17> H     -3.592023   -0.395135    1.487967
| 18> H     -4.434015   -1.093105    0.107456
| 19> H     -4.003439    0.609778    0.100382
| 20> H     -0.491110    2.223149    0.059161
| 21> H     -1.356401    1.648509   -1.365506
| 22> H     -2.232244    2.024627    0.117681
| 23> H      2.769370   -0.548538   -1.344870
| 24> H      2.692400   -1.586189    0.059526
| 25> H     -2.414267   -0.714025   -1.331790
| 26> H     -2.082615   -1.782577    0.011079
| 27> H      1.429172    0.178672    1.301980
| 28> H      1.519308    1.224408   -0.097653
| 29> H      0.198956   -1.530706   -0.080311
| 30> H      0.192317   -0.418766   -1.430343
| 31> H     -1.091387    0.129538    1.276747
| 32> *
| 33>
| 34>                          ****END OF INPUT****

CARTESIAN COORDINATES (ANGSTROEM)
---------------------------------
  C      4.015672    0.099100    0.289449
  C     -3.659890   -0.381305    0.397793
  C     -1.312953    1.589945   -0.274353
  C      2.736727   -0.537959   -0.251184
  C     -2.319478   -0.745039   -0.241002
  C      1.463534    0.175911    0.206921
  C      0.184875   -0.466156   -0.335149
  C     -1.132203    0.137622    0.180181
  H      4.109221    1.136544   -0.038345
  H      4.025788    0.097510    1.381427
  H      4.903264   -0.436410   -0.050520
  H     -3.592023   -0.395135    1.487967
  H     -4.434015   -1.093105    0.107456
  H     -4.003439    0.609778    0.100382
  H     -0.491110    2.223149    0.059161
  H     -1.356401    1.648509   -1.365506
  H     -2.232244    2.024627    0.117681
  H      2.769370   -0.548538   -1.344870
  H      2.692400   -1.586189    0.059526
  H     -2.414267   -0.714025   -1.331790
  H     -2.082615   -1.782577    0.011079
  H      1.429172    0.178672    1.301980
  H      1.519308    1.224408   -0.097653
  H      0.198956   -1.530706   -0.080311
  H      0.192317   -0.418766   -1.430343
  H     -1.091387    0.129538    1.276747

 Total Charge           Charge          ....    0
 Multiplicity           Mult            ....    1
 Number of Electrons    NEL             ....   66
 Basis Dimension        Dim             ....  346

ORBITAL ENERGIES
----------------

  NO   OCC          E(Eh)            E(eV)
   0   2.0000     -11.224336      -305.4297
   1   2.0000     -11.219841      -305.3074
   2   2.0000     -11.218393      -305.2680
   3   2.0000     -11.216942      -305.2285
   4   2.0000     -11.215841      -305.1986
   5   2.0000     -11.215259      -305.1827
   6   2.0000     -11.214749      -305.1688
   7   2.0000     -11.212108      -305.0970
   8   2.0000      -1.100153       -29.9367
   9   2.0000      -1.056770       -28.7562
  10   2.0000      -0.994809       -27.0701
  11   2.0000      -0.953637       -25.9498
  12   2.0000      -0.890211       -24.2239
  13   2.0000      -0.835851       -22.7447
  14   2.0000      -0.786735       -21.4081
  15   2.0000      -0.758309       -20.6346
  16   2.0000      -0.645886       -17.5755
  17   2.0000      -0.622258       -16.9325
  18   2.0000      -0.607660       -16.5353
  19   2.0000      -0.588305       -16.0086
  20   2.0000      -0.572263       -15.5721
  21   2.0000      -0.560582       -15.2542
  22   2.0000      -0.541416       -14.7327
  23   2.0000      -0.527079       -14.3425
  24   2.0000      -0.512719       -13.9518
  25   2.0000      -0.504396       -13.7253
  26   2.0000      -0.491006       -13.3610
  27   2.0000      -0.480453       -13.0738
  28   2.0000      -0.468282       -12.7426
  29   2.0000      -0.459423       -12.5015
  30   2.0000      -0.450707       -12.2644
  31   2.0000      -0.441622       -12.0171
  32   2.0000      -0.426923       -11.6172
  33   0.0000       0.037236         1.0132
  34   0.0000       0.039300         1.0694
  35   0.0000       0.042959         1.1690
  36   0.0000       0.045002         1.2246
  37   0.0000       0.055068         1.4985

MULLIKEN ATOMIC CHARGES
-----------------------
   0 C :    0.601372
   1 C :    0.547533
   2 C :    0.785037
   3 C :    0.462708
   4 C :    0.673968
   5 C :    0.245217
   6 C :    0.588368
   7 C :   -1.012949
   8 H :   -0.094769
   9 H :   -0.090427
  10 H :   -0.075104
  11 H :   -0.084482
  12 H :   -0.077412
  13 H :   -0.111658
  14 H :   -0.098481
  15 H :   -0.073273
  16 H :   -0.133410
  17 H :   -0.185030
  18 H :   -0.206362
  19 H :   -0.163842
  20 H :   -0.198863
  21 H :   -0.231843
  22 H :   -0.283187
  23 H :   -0.240561
  24 H :   -0.189388
  25 H :   -0.353161
Sum of atomic charges:    0.0000000

LOEWDIN ATOMIC CHARGES
----------------------
   0 C :    0.130918
   1 C :    0.137384
   2 C :    0.165066
   3 C :   -0.070887
   4 C :   -0.044740
   5 C :   -0.036511
   6 C :   -0.009901
   7 C :   -0.242986
   8 H :   -0.020531
   9 H :   -0.020389
  10 H :   -0.022513
  11 H :   -0.016280
  12 H :   -0.020630
  13 H :   -0.029137
  14 H :   -0.023053
  15 H :   -0.005555
  16 H :   -0.024231
  17 H :    0.011630
  18 H :    0.010452
  19 H :    0.017776
  20 H :    0.010830
  21 H :    0.019264
  22 H :    0.006359
  23 H :    0.015701
  24 H :    0.023399
  25 H :    0.038566

  Mayer bond orders larger than 0.100000
B(  0-C ,  3-C ) :   1.1891 B(  0-C ,  8-H ) :   0.9032 B(  0-C ,  9-H ) :   0.9044
B(  0-C , 10-H ) :   0.9119 B(  1-C ,  4-C ) :   1.1471 B(  1-C , 11-H ) :   0.9263
B(  1-C , 12-H ) :   0.8845 B(  1-C , 13-H ) :   0.9065 B(  2-C ,  4-C ) :  -0.1850
B(  2-C ,  6-C ) :  -0.2043 B(  2-C ,  7-C ) :   1.3992 B(  2-C , 14-H ) :   0.8154
B(  2-C , 15-H ) :   0.8420 B(  2-C , 16-H ) :   0.8290 B(  3-C ,  5-C ) :   1.2513
B(  3-C ,  6-C ) :  -0.1338 B(  3-C , 17-H ) :   0.7220 B(  3-C , 18-H ) :   0.7006
B(  4-C ,  7-C ) :   1.1366 B(  4-C , 15-H ) :  -0.1579 B(  4-C , 19-H ) :   0.7746
B(  4-C , 20-H ) :   0.6159 B(  5-C ,  6-C ) :   1.2767 B(  5-C , 18-H ) :   0.1195
B(  5-C , 21-H ) :   0.7211 B(  5-C , 22-H ) :   0.6606 B(  6-C ,  7-C ) :   1.1812
B(  6-C , 15-H ) :  -0.1699 B(  6-C , 23-H ) :   0.5985 B(  6-C , 24-H ) :   0.8087
B(  7-C , 15-H ) :   0.3271 B(  7-C , 19-H ) :   0.1591 B(  7-C , 20-H ) :   0.2472
B(  7-C , 23-H ) :   0.1789 B(  7-C , 24-H ) :   0.1473 B(  7-C , 25-H ) :   0.4552
B( 15-H , 16-H ) :  -0.1000 B( 19-H , 20-H ) :  -0.1105 B( 23-H , 24-H ) :  -0.1185

MP2 TOTAL ENERGY:     -314.678168323 Eh
FINAL SINGLE POINT ENERGY      -314.678168322653

DIPOLE MOMENT
-------------
                                X             Y             Z
Electronic contribution:     -0.15226      -0.86393      -0.16821
Nuclear contribution   :      0.15440       0.83258       0.17803
                        -----------------------------------------
Total Dipole Moment    :      0.00215      -0.03135       0.00981
                        -----------------------------------------
Magnitude (a.u.)       :      0.03292
Magnitude (Debye)      :      0.08368

Rotational constants in cm-1:     0.179402     0.022822     0.021411
Rotational constants in MHz :  5378.351231   684.176547   641.874287

                             ****ORCA TERMINATED NORMALLY****
TOTAL RUN TIME: 0 days 0 hours 1 minutes 31 seconds 512 msec
