                         Program Version 5.0.3 -  RELEASE  -
|  1> !ri-mp2 aug-cc-pvdz aug-cc-pvdz/c tightscf
|  2> %pal nprocs 16 end
|  3>
|  4> * xyz 0 1
|  5> S     -1.154148   -0.066919   -0.130433
|  6> O      0.068806   -1.262764    0.214972
|  7> N     -0.111862    1.263970    0.119104
|  8> C      1.205240    0.713893   -0.140345
|  9> C      1.248577   -0.612642   -0.043800
| 10> H      2.033948    1.375479   -0.327363
| 11> H     -0.169651    1.597164    1.080067
| 12> H      2.111755   -1.255125   -0.114406
| 13> *
| 14>
| 15>                          ****END OF INPUT****

CARTESIAN COORDINATES (ANGSTROEM)
---------------------------------
  S     -1.154148   -0.066919   -0.130433
  O      0.068806   -1.262764    0.214972
  N     -0.111862    1.263970    0.119104
  C      1.205240    0.713893   -0.140345
  C      1.248577   -0.612642   -0.043800
  H      2.033948    1.375479   -0.327363
  H     -0.169651    1.597164    1.080067
  H      2.111755   -1.255125   -0.114406

 Total Charge           Charge          ....    0
 Multiplicity           Mult            ....    1
 Number of Electrons    NEL             ....   46
 Basis Dimension        Dim             ....  146

ORBITAL ENERGIES
----------------

  NO   OCC          E(Eh)            E(eV)
   0   2.0000     -92.041609     -2504.5795
   1   2.0000     -20.620308      -561.1071
   2   2.0000     -15.616557      -424.9481
   3   2.0000     -11.314041      -307.8707
   4   2.0000     -11.278833      -306.9126
   5   2.0000      -9.034124      -245.8310
   6   2.0000      -6.715773      -182.7455
   7   2.0000      -6.714296      -182.7053
   8   2.0000      -6.710851      -182.6115
   9   2.0000      -1.421435       -38.6792
  10   2.0000      -1.237320       -33.6692
  11   2.0000      -1.034877       -28.1604
  12   2.0000      -0.895132       -24.3578
  13   2.0000      -0.808599       -22.0031
  14   2.0000      -0.721224       -19.6255
  15   2.0000      -0.680462       -18.5163
  16   2.0000      -0.611627       -16.6432
  17   2.0000      -0.599219       -16.3056
  18   2.0000      -0.565447       -15.3866
  19   2.0000      -0.516207       -14.0467
  20   2.0000      -0.477914       -13.0047
  21   2.0000      -0.386223       -10.5097
  22   2.0000      -0.328695        -8.9442
  23   0.0000       0.033847         0.9210
  24   0.0000       0.045373         1.2347
  25   0.0000       0.051449         1.4000
  26   0.0000       0.078034         2.1234
  27   0.0000       0.081259         2.2112

MULLIKEN ATOMIC CHARGES
-----------------------
   0 S :    0.824875
   1 O :   -0.984164
   2 N :   -0.862833
   3 C :    0.525740
   4 C :    0.820209
   5 H :   -0.198673
   6 H :    0.081902
   7 H :   -0.207055
Sum of atomic charges:   -0.0000000

LOEWDIN ATOMIC CHARGES
----------------------
   0 S :    0.869594
   1 O :   -0.267609
   2 N :   -0.272082
   3 C :   -0.108399
   4 C :   -0.124339
   5 H :   -0.017043
   6 H :   -0.073250
   7 H :   -0.006872

  Mayer bond orders larger than 0.100000
B(  0-S ,  1-O ) :   0.5580 B(  0-S ,  2-N ) :   0.8023 B(  1-O ,  3-C ) :   0.2139
B(  1-O ,  4-C ) :   0.4660 B(  2-N ,  3-C ) :   0.6496 B(  2-N ,  4-C ) :   0.1466
B(  2-N ,  6-H ) :   1.0686 B(  3-C ,  4-C ) :   2.0033 B(  3-C ,  5-H ) :   0.9530
B(  4-C ,  7-H ) :   0.8991

MP2 TOTAL ENERGY:     -605.043931125 Eh
FINAL SINGLE POINT ENERGY      -605.043931125469

DIPOLE MOMENT
-------------
                                X             Y             Z
Electronic contribution:     -3.26831      -1.26901      -0.27887
Nuclear contribution   :      3.88960       1.65498       0.62668
                        -----------------------------------------
Total Dipole Moment    :      0.62129       0.38597       0.34781
                        -----------------------------------------
Magnitude (a.u.)       :      0.80991
Magnitude (Debye)      :      2.05862

Rotational constants in cm-1:     0.248936     0.185970     0.110624
Rotational constants in MHz :  7462.919529  5575.228625  3316.428262

                             ****ORCA TERMINATED NORMALLY****
TOTAL RUN TIME: 0 days 0 hours 0 minutes 31 seconds 312 msec
