                         Program Version 5.0.3 -  RELEASE  -
|  1> !ri-mp2 aug-cc-pvdz aug-cc-pvdz/c tightscf
|  2> %pal nprocs 16 end
|  3>
|  4> * xyz 0 1
|  5> C      0.256059   -0.145790    2.557816
|  6> C      0.256059   -0.145790   -2.557816
|  7> C      0.256059    0.678253    1.272070
|  8> C      0.256059    0.678253   -1.272070
|  9> C      0.123504   -0.161251    0.000000
| 10> O     -1.093205   -0.921538    0.000000
| 11> H      0.329959    0.496804    3.435919
| 12> H     -0.654055   -0.737969    2.645405
| 13> H      1.102179   -0.835589    2.578827
| 14> H      0.329959    0.496804   -3.435919
| 15> H      1.102179   -0.835589   -2.578827
| 16> H     -0.654055   -0.737969   -2.645405
| 17> H     -0.562591    1.406988    1.294805
| 18> H      1.178723    1.261415    1.206832
| 19> H     -0.562591    1.406988   -1.294805
| 20> H      1.178723    1.261415   -1.206832
| 21> H      0.906368   -0.925655    0.000000
| 22> H     -1.835609   -0.307374    0.000000
| 23> *
| 24>
| 25>                          ****END OF INPUT****

CARTESIAN COORDINATES (ANGSTROEM)
---------------------------------
  C      0.256059   -0.145790    2.557816
  C      0.256059   -0.145790   -2.557816
  C      0.256059    0.678253    1.272070
  C      0.256059    0.678253   -1.272070
  C      0.123504   -0.161251    0.000000
  O     -1.093205   -0.921538    0.000000
  H      0.329959    0.496804    3.435919
  H     -0.654055   -0.737969    2.645405
  H      1.102179   -0.835589    2.578827
  H      0.329959    0.496804   -3.435919
  H      1.102179   -0.835589   -2.578827
  H     -0.654055   -0.737969   -2.645405
  H     -0.562591    1.406988    1.294805
  H      1.178723    1.261415    1.206832
  H     -0.562591    1.406988   -1.294805
  H      1.178723    1.261415   -1.206832
  H      0.906368   -0.925655    0.000000
  H     -1.835609   -0.307374    0.000000

 Total Charge           Charge          ....    0
 Multiplicity           Mult            ....    1
 Number of Electrons    NEL             ....   50
 Basis Dimension        Dim             ....  246

ORBITAL ENERGIES
----------------

  NO   OCC          E(Eh)            E(eV)
   0   2.0000     -20.561155      -559.4975
   1   2.0000     -11.279723      -306.9369
   2   2.0000     -11.226566      -305.4904
   3   2.0000     -11.226546      -305.4898
   4   2.0000     -11.215892      -305.1999
   5   2.0000     -11.215890      -305.1999
   6   2.0000      -1.356755       -36.9192
   7   2.0000      -1.070111       -29.1192
   8   2.0000      -1.021467       -27.7955
   9   2.0000      -0.919084       -25.0095
  10   2.0000      -0.828083       -22.5333
  11   2.0000      -0.803253       -21.8576
  12   2.0000      -0.652545       -17.7566
  13   2.0000      -0.644945       -17.5498
  14   2.0000      -0.628717       -17.1083
  15   2.0000      -0.596392       -16.2287
  16   2.0000      -0.560286       -15.2462
  17   2.0000      -0.545130       -14.8338
  18   2.0000      -0.536774       -14.6064
  19   2.0000      -0.509869       -13.8742
  20   2.0000      -0.491822       -13.3832
  21   2.0000      -0.483888       -13.1673
  22   2.0000      -0.479275       -13.0417
  23   2.0000      -0.455341       -12.3905
  24   2.0000      -0.425332       -11.5739
  25   0.0000       0.035527         0.9668
  26   0.0000       0.042094         1.1454
  27   0.0000       0.043922         1.1952
  28   0.0000       0.049568         1.3488
  29   0.0000       0.061656         1.6777

MULLIKEN ATOMIC CHARGES
-----------------------
   0 C :    0.489196
   1 C :    0.489196
   2 C :    0.360650
   3 C :    0.360650
   4 C :    0.374207
   5 O :   -0.810917
   6 H :   -0.057276
   7 H :   -0.044181
   8 H :   -0.070928
   9 H :   -0.057276
  10 H :   -0.070928
  11 H :   -0.044181
  12 H :   -0.174079
  13 H :   -0.159146
  14 H :   -0.174079
  15 H :   -0.159146
  16 H :   -0.379273
  17 H :    0.127509
Sum of atomic charges:   -0.0000000

LOEWDIN ATOMIC CHARGES
----------------------
   0 C :    0.140108
   1 C :    0.140108
   2 C :   -0.046812
   3 C :   -0.046812
   4 C :   -0.236802
   5 O :    0.133121
   6 H :   -0.021523
   7 H :   -0.021334
   8 H :   -0.017686
   9 H :   -0.021523
  10 H :   -0.017686
  11 H :   -0.021334
  12 H :    0.015437
  13 H :    0.014339
  14 H :    0.015437
  15 H :    0.014339
  16 H :    0.034992
  17 H :   -0.056371

  Mayer bond orders larger than 0.100000
B(  0-C ,  2-C ) :   1.1961 B(  0-C ,  6-H ) :   0.8863 B(  0-C ,  7-H ) :   0.9262
B(  0-C ,  8-H ) :   0.9329 B(  1-C ,  3-C ) :   1.1961 B(  1-C ,  9-H ) :   0.8863
B(  1-C , 10-H ) :   0.9329 B(  1-C , 11-H ) :   0.9262 B(  2-C ,  4-C ) :   1.1262
B(  2-C , 12-H ) :   0.7337 B(  2-C , 13-H ) :   0.7249 B(  3-C ,  4-C ) :   1.1262
B(  3-C , 14-H ) :   0.7337 B(  3-C , 15-H ) :   0.7249 B(  4-C ,  5-O ) :   0.4143
B(  4-C , 12-H ) :   0.2228 B(  4-C , 13-H ) :   0.1375 B(  4-C , 14-H ) :   0.2228
B(  4-C , 15-H ) :   0.1375 B(  4-C , 16-H ) :   0.5800 B(  5-O , 17-H ) :   1.1114

MP2 TOTAL ENERGY:     -272.181494020 Eh
FINAL SINGLE POINT ENERGY      -272.181494019592

DIPOLE MOMENT
-------------
                                X             Y             Z
Electronic contribution:     -1.86538      -1.38756      -0.00000
Nuclear contribution   :      1.96219       2.06209      -0.00000
                        -----------------------------------------
Total Dipole Moment    :      0.09680       0.67452      -0.00000
                        -----------------------------------------
Magnitude (a.u.)       :      0.68143
Magnitude (Debye)      :      1.73206

Rotational constants in cm-1:     0.240174     0.062664     0.054644
Rotational constants in MHz :  7200.227171  1878.606778  1638.177020

                             ****ORCA TERMINATED NORMALLY****
TOTAL RUN TIME: 0 days 0 hours 0 minutes 49 seconds 364 msec
