                         Program Version 5.0.3 -  RELEASE  -
|  1> !ri-mp2 aug-cc-pvdz aug-cc-pvdz/c tightscf
|  2> %pal nprocs 16 end
|  3> %maxcore 3800
|  4>
|  5> * xyz 0 1
|  6> C      2.151772   -0.572496   -0.560545
|  7> C     -2.062713   -0.100817   -1.587752
|  8> C      0.451205    2.241234    0.698532
|  9> C     -1.313679   -1.261876    1.680440
| 10> C      0.859422   -0.182791   -1.105501
| 11> C     -0.223077    0.034236   -0.014933
| 12> N      3.188160   -0.864297   -0.158479
| 13> O     -1.377593    0.628217   -0.574436
| 14> O      0.199911    0.871969    1.008392
| 15> O     -0.475157   -1.218770    0.519329
| 16> H     -2.222341   -1.139012   -1.294351
| 17> H     -1.527238   -0.071217   -2.540553
| 18> H     -3.024533    0.389798   -1.715392
| 19> H      1.291753    2.348187    0.008318
| 20> H      0.717315    2.710667    1.641691
| 21> H     -0.432534    2.723319    0.283632
| 22> H     -2.243086   -0.715593    1.516465
| 23> H     -0.797455   -0.851306    2.545921
| 24> H     -1.529699   -2.314243    1.843635
| 25> H      0.519543   -0.961831   -1.786348
| 26> H      0.976294    0.735039   -1.681386
| 27> *
| 28>
| 29>                          ****END OF INPUT****

CARTESIAN COORDINATES (ANGSTROEM)
---------------------------------
  C      2.151772   -0.572496   -0.560545
  C     -2.062713   -0.100817   -1.587752
  C      0.451205    2.241234    0.698532
  C     -1.313679   -1.261876    1.680440
  C      0.859422   -0.182791   -1.105501
  C     -0.223077    0.034236   -0.014933
  N      3.188160   -0.864297   -0.158479
  O     -1.377593    0.628217   -0.574436
  O      0.199911    0.871969    1.008392
  O     -0.475157   -1.218770    0.519329
  H     -2.222341   -1.139012   -1.294351
  H     -1.527238   -0.071217   -2.540553
  H     -3.024533    0.389798   -1.715392
  H      1.291753    2.348187    0.008318
  H      0.717315    2.710667    1.641691
  H     -0.432534    2.723319    0.283632
  H     -2.243086   -0.715593    1.516465
  H     -0.797455   -0.851306    2.545921
  H     -1.529699   -2.314243    1.843635
  H      0.519543   -0.961831   -1.786348
  H      0.976294    0.735039   -1.681386

 Total Charge           Charge          ....    0
 Multiplicity           Mult            ....    1
 Number of Electrons    NEL             ....   78
 Basis Dimension        Dim             ....  329

ORBITAL ENERGIES
----------------

  NO   OCC          E(Eh)            E(eV)
   0   2.0000     -20.593269      -560.3713
   1   2.0000     -20.589183      -560.2601
   2   2.0000     -20.589140      -560.2590
   3   2.0000     -15.574860      -423.8135
   4   2.0000     -11.425188      -310.8952
   5   2.0000     -11.298436      -307.4461
   6   2.0000     -11.290870      -307.2402
   7   2.0000     -11.290556      -307.2316
   8   2.0000     -11.284040      -307.0543
   9   2.0000     -11.279161      -306.9216
  10   2.0000      -1.479430       -40.2573
  11   2.0000      -1.371838       -37.3296
  12   2.0000      -1.370895       -37.3039
  13   2.0000      -1.221597       -33.2413
  14   2.0000      -1.075242       -29.2588
  15   2.0000      -0.988752       -26.9053
  16   2.0000      -0.952488       -25.9185
  17   2.0000      -0.943445       -25.6724
  18   2.0000      -0.814425       -22.1616
  19   2.0000      -0.741426       -20.1752
  20   2.0000      -0.730931       -19.8897
  21   2.0000      -0.720831       -19.6148
  22   2.0000      -0.675368       -18.3777
  23   2.0000      -0.655167       -17.8280
  24   2.0000      -0.638666       -17.3790
  25   2.0000      -0.619285       -16.8516
  26   2.0000      -0.609892       -16.5960
  27   2.0000      -0.598251       -16.2792
  28   2.0000      -0.593936       -16.1618
  29   2.0000      -0.574871       -15.6430
  30   2.0000      -0.550928       -14.9915
  31   2.0000      -0.539831       -14.6895
  32   2.0000      -0.511945       -13.9307
  33   2.0000      -0.501098       -13.6356
  34   2.0000      -0.478547       -13.0219
  35   2.0000      -0.466803       -12.7024
  36   2.0000      -0.459219       -12.4960
  37   2.0000      -0.454750       -12.3744
  38   2.0000      -0.437289       -11.8992
  39   0.0000       0.028266         0.7692
  40   0.0000       0.039551         1.0762
  41   0.0000       0.040757         1.1091
  42   0.0000       0.046582         1.2675
  43   0.0000       0.057900         1.5755

MULLIKEN ATOMIC CHARGES
-----------------------
   0 C :   -0.282070
   1 C :    1.019532
   2 C :    0.837514
   3 C :    0.827397
   4 C :    0.848655
   5 C :    1.646147
   6 N :   -0.320140
   7 O :   -1.103659
   8 O :   -1.115718
   9 O :   -1.070728
  10 H :   -0.059497
  11 H :   -0.125631
  12 H :   -0.256797
  13 H :   -0.127928
  14 H :   -0.248189
  15 H :   -0.081445
  16 H :   -0.063405
  17 H :   -0.067671
  18 H :   -0.235059
  19 H :   -0.061127
  20 H :    0.039819
Sum of atomic charges:    0.0000000

LOEWDIN ATOMIC CHARGES
----------------------
   0 C :   -0.130495
   1 C :    0.158644
   2 C :    0.171766
   3 C :    0.175480
   4 C :    0.024384
   5 C :   -0.445738
   6 N :    0.084515
   7 O :    0.024313
   8 O :    0.042124
   9 O :    0.035264
  10 H :   -0.018872
  11 H :   -0.024758
  12 H :   -0.021206
  13 H :   -0.023488
  14 H :   -0.020611
  15 H :   -0.024191
  16 H :   -0.018914
  17 H :   -0.022915
  18 H :   -0.023320
  19 H :    0.026342
  20 H :    0.031676

  Mayer bond orders larger than 0.100000
B(  0-C ,  4-C ) :   0.5601 B(  0-C ,  6-N ) :   2.7956 B(  0-C ,  8-O ) :   0.1361
B(  1-C ,  7-O ) :   0.7375 B(  1-C , 10-H ) :   0.9299 B(  1-C , 11-H ) :   0.8944
B(  1-C , 12-H ) :   0.9842 B(  2-C ,  8-O ) :   0.7499 B(  2-C , 13-H ) :   0.9505
B(  2-C , 14-H ) :   0.9948 B(  2-C , 15-H ) :   0.9703 B(  3-C ,  9-O ) :   0.7563
B(  3-C , 16-H ) :   0.9304 B(  3-C , 17-H ) :   0.9528 B(  3-C , 18-H ) :   0.9969
B(  4-C ,  5-C ) :   1.2512 B(  4-C ,  6-N ) :  -0.1793 B(  4-C ,  7-O ) :   0.1792
B(  4-C ,  9-O ) :   0.1187 B(  4-C , 19-H ) :   0.7529 B(  4-C , 20-H ) :   0.7124
B(  5-C ,  7-O ) :  -0.1350 B(  5-C ,  8-O ) :   0.1358 B(  5-C ,  9-O ) :   0.1089
B(  5-C , 11-H ) :   0.1279 B(  5-C , 13-H ) :   0.1661 B(  5-C , 19-H ) :   0.2173
B(  5-C , 20-H ) :   0.1677 B(  7-O ,  9-O ) :   0.1148 B( 10-H , 12-H ) :  -0.1118
B( 11-H , 12-H ) :  -0.1085 B( 14-H , 15-H ) :  -0.1056 B( 17-H , 18-H ) :  -0.1087
B( 19-H , 20-H ) :  -0.1067

MP2 TOTAL ENERGY:     -514.294363814 Eh
FINAL SINGLE POINT ENERGY      -514.294363814060

DIPOLE MOMENT
-------------
                                X             Y             Z
Electronic contribution:      6.55995      -2.22396       0.38706
Nuclear contribution   :     -8.35528       2.87935      -1.17495
                        -----------------------------------------
Total Dipole Moment    :     -1.79533       0.65539      -0.78790
                        -----------------------------------------
Magnitude (a.u.)       :      2.06725
Magnitude (Debye)      :      5.25453

Rotational constants in cm-1:     0.053872     0.034277     0.033003
Rotational constants in MHz :  1615.034420  1027.601104   989.413822

                             ****ORCA TERMINATED NORMALLY****
TOTAL RUN TIME: 0 days 0 hours 1 minutes 49 seconds 285 msec
