                         Program Version 5.0.3 -  RELEASE  -
|  1> !ri-mp2 aug-cc-pvdz aug-cc-pvdz/c tightscf
|  2> %pal nprocs 16 end
|  3>
|  4> * xyz 0 1
|  5> Cl    -1.455409   -1.648364    0.000000
|  6> Cl    -1.486903    1.583880    0.000000
|  7> N      1.107307    1.406825    0.000000
|  8> N      2.295689    0.818349    0.000000
|  9> C     -0.000224   -0.713003    0.000000
| 10> C      1.231764   -1.327063    0.000000
| 11> C      0.000000    0.689684    0.000000
| 12> C      2.356394   -0.507545    0.000000
| 13> H      1.317692   -2.403602    0.000000
| 14> H      3.353030   -0.928842    0.000000
| 15> *
| 16>
| 17>                          ****END OF INPUT****

CARTESIAN COORDINATES (ANGSTROEM)
---------------------------------
  Cl    -1.455409   -1.648364    0.000000
  Cl    -1.486903    1.583880    0.000000
  N      1.107307    1.406825    0.000000
  N      2.295689    0.818349    0.000000
  C     -0.000224   -0.713003    0.000000
  C      1.231764   -1.327063    0.000000
  C      0.000000    0.689684    0.000000
  C      2.356394   -0.507545    0.000000
  H      1.317692   -2.403602    0.000000
  H      3.353030   -0.928842    0.000000

 Total Charge           Charge          ....    0
 Multiplicity           Mult            ....    1
 Number of Electrons    NEL             ....   74
 Basis Dimension        Dim             ....  210

ORBITAL ENERGIES
----------------

  NO   OCC          E(Eh)            E(eV)
   0   2.0000    -104.876706     -2853.8403
   1   2.0000    -104.861562     -2853.4282
   2   2.0000     -15.647041      -425.7776
   3   2.0000     -15.645159      -425.7264
   4   2.0000     -11.373943      -309.5007
   5   2.0000     -11.361085      -309.1508
   6   2.0000     -11.314790      -307.8911
   7   2.0000     -11.304089      -307.5999
   8   2.0000     -10.602757      -288.5157
   9   2.0000     -10.587743      -288.1071
  10   2.0000      -8.070619      -219.6127
  11   2.0000      -8.066977      -219.5136
  12   2.0000      -8.066960      -219.5132
  13   2.0000      -8.055605      -219.2041
  14   2.0000      -8.051957      -219.1049
  15   2.0000      -8.051937      -219.1044
  16   2.0000      -1.388367       -37.7794
  17   2.0000      -1.224427       -33.3184
  18   2.0000      -1.185309       -32.2539
  19   2.0000      -1.113318       -30.2949
  20   2.0000      -1.080404       -29.3993
  21   2.0000      -0.921989       -25.0886
  22   2.0000      -0.897788       -24.4300
  23   2.0000      -0.751721       -20.4554
  24   2.0000      -0.728393       -19.8206
  25   2.0000      -0.668294       -18.1852
  26   2.0000      -0.631362       -17.1802
  27   2.0000      -0.619192       -16.8491
  28   2.0000      -0.610664       -16.6170
  29   2.0000      -0.533300       -14.5118
  30   2.0000      -0.523933       -14.2569
  31   2.0000      -0.509327       -13.8595
  32   2.0000      -0.499760       -13.5991
  33   2.0000      -0.466538       -12.6952
  34   2.0000      -0.432735       -11.7753
  35   2.0000      -0.415217       -11.2986
  36   2.0000      -0.386971       -10.5300
  37   0.0000       0.027583         0.7506
  38   0.0000       0.045986         1.2513
  39   0.0000       0.049432         1.3451
  40   0.0000       0.066754         1.8165
  41   0.0000       0.075908         2.0656

MULLIKEN ATOMIC CHARGES
-----------------------
   0 Cl:   -0.233935
   1 Cl:   -0.182073
   2 N :   -0.791114
   3 N :   -0.366785
   4 C :    0.654721
   5 C :    1.087307
   6 C :   -0.014590
   7 C :    0.405297
   8 H :   -0.326695
   9 H :   -0.232131
Sum of atomic charges:    0.0000000

LOEWDIN ATOMIC CHARGES
----------------------
   0 Cl:    0.614465
   1 Cl:    0.599309
   2 N :   -0.032131
   3 N :    0.009415
   4 C :   -0.573942
   5 C :    0.008039
   6 C :   -0.620078
   7 C :   -0.020455
   8 H :    0.009042
   9 H :    0.006337

  Mayer bond orders larger than 0.100000
B(  0-Cl,  4-C ) :   1.2477 B(  0-Cl,  5-C ) :  -0.3479 B(  0-Cl,  6-C ) :  -0.1412
B(  1-Cl,  4-C ) :  -0.3708 B(  1-Cl,  5-C ) :   0.1109 B(  1-Cl,  6-C ) :   1.1166
B(  2-N ,  3-N ) :   0.9406 B(  2-N ,  4-C ) :  -0.3607 B(  2-N ,  6-C ) :   1.7035
B(  3-N ,  4-C ) :   0.1493 B(  3-N ,  6-C ) :  -0.2944 B(  3-N ,  7-C ) :   1.3332
B(  4-C ,  5-C ) :   1.1938 B(  4-C ,  6-C ) :   0.4063 B(  4-C ,  7-C ) :   0.1845
B(  4-C ,  8-H ) :   0.2310 B(  5-C ,  7-C ) :   1.2498 B(  5-C ,  8-H ) :   0.4489
B(  7-C ,  8-H ) :   0.1583 B(  7-C ,  9-H ) :   0.8361

MP2 TOTAL ENERGY:    -1181.681910297 Eh
FINAL SINGLE POINT ENERGY     -1181.681910296536

DIPOLE MOMENT
-------------
                                X             Y             Z
Electronic contribution:     -8.10221       1.48583      -0.00000
Nuclear contribution   :      8.30257      -3.01046       0.00000
                        -----------------------------------------
Total Dipole Moment    :      0.20036      -1.52463      -0.00000
                        -----------------------------------------
Magnitude (a.u.)       :      1.53773
Magnitude (Debye)      :      3.90861

Rotational constants in cm-1:     0.063881     0.049131     0.027772
Rotational constants in MHz :  1915.097784  1472.908479   832.573362

                             ****ORCA TERMINATED NORMALLY****
TOTAL RUN TIME: 0 days 0 hours 0 minutes 47 seconds 181 msec
