                         Program Version 5.0.3 -  RELEASE  -
|  1> !ri-mp2 aug-cc-pvdz aug-cc-pvdz/c tightscf
|  2> %pal nprocs 16 end
|  3>
|  4> * xyz 0 1
|  5> N     -1.271596   -1.030212    0.000000
|  6> C     -1.236096    0.239527    0.000000
|  7> C      0.000000    1.085157    0.000000
|  8> C      1.263984    0.348634    0.000000
|  9> C      1.244327   -0.987977    0.000000
| 10> C     -0.025532   -1.764497    0.000000
| 11> O     -0.082178    2.301599    0.000000
| 12> H     -2.173830    0.792159    0.000000
| 13> H      2.180630    0.923062    0.000000
| 14> H      2.167680   -1.557260    0.000000
| 15> H     -0.047988   -2.442167    0.862672
| 16> H     -0.047988   -2.442167   -0.862672
| 17> *
| 18>
| 19>                          ****END OF INPUT****

CARTESIAN COORDINATES (ANGSTROEM)
---------------------------------
  N     -1.271596   -1.030212    0.000000
  C     -1.236096    0.239527    0.000000
  C      0.000000    1.085157    0.000000
  C      1.263984    0.348634    0.000000
  C      1.244327   -0.987977    0.000000
  C     -0.025532   -1.764497    0.000000
  O     -0.082178    2.301599    0.000000
  H     -2.173830    0.792159    0.000000
  H      2.180630    0.923062    0.000000
  H      2.167680   -1.557260    0.000000
  H     -0.047988   -2.442167    0.862672
  H     -0.047988   -2.442167   -0.862672

 Total Charge           Charge          ....    0
 Multiplicity           Mult            ....    1
 Number of Electrons    NEL             ....   50
 Basis Dimension        Dim             ....  206

ORBITAL ENERGIES
----------------

  NO   OCC          E(Eh)            E(eV)
   0   2.0000     -20.568710      -559.7031
   1   2.0000     -15.603837      -424.6020
   2   2.0000     -11.350741      -308.8694
   3   2.0000     -11.300758      -307.5093
   4   2.0000     -11.294717      -307.3449
   5   2.0000     -11.288521      -307.1763
   6   2.0000     -11.260730      -306.4201
   7   2.0000      -1.400344       -38.1053
   8   2.0000      -1.272251       -34.6197
   9   2.0000      -1.107124       -30.1264
  10   2.0000      -1.022717       -27.8295
  11   2.0000      -0.874828       -23.8053
  12   2.0000      -0.862166       -23.4607
  13   2.0000      -0.724374       -19.7112
  14   2.0000      -0.696244       -18.9458
  15   2.0000      -0.675418       -18.3791
  16   2.0000      -0.640185       -17.4203
  17   2.0000      -0.618836       -16.8394
  18   2.0000      -0.585755       -15.9392
  19   2.0000      -0.562510       -15.3067
  20   2.0000      -0.555768       -15.1232
  21   2.0000      -0.486226       -13.2309
  22   2.0000      -0.441610       -12.0168
  23   2.0000      -0.401847       -10.9348
  24   2.0000      -0.392503       -10.6805
  25   0.0000       0.026341         0.7168
  26   0.0000       0.043140         1.1739
  27   0.0000       0.047527         1.2933
  28   0.0000       0.048932         1.3315
  29   0.0000       0.059539         1.6201

MULLIKEN ATOMIC CHARGES
-----------------------
   0 N :   -0.578678
   1 C :    0.601675
   2 C :    0.392026
   3 C :    0.624726
   4 C :    0.050899
   5 C :    0.719052
   6 O :   -0.834415
   7 H :   -0.290814
   8 H :   -0.385553
   9 H :   -0.349638
  10 H :    0.025360
  11 H :    0.025360
Sum of atomic charges:    0.0000000

LOEWDIN ATOMIC CHARGES
----------------------
   0 N :    0.051500
   1 C :    0.037752
   2 C :   -0.281400
   3 C :    0.056996
   4 C :    0.049900
   5 C :   -0.048356
   6 O :    0.041372
   7 H :    0.012579
   8 H :    0.008702
   9 H :    0.015013
  10 H :    0.027971
  11 H :    0.027971

  Mayer bond orders larger than 0.100000
B(  0-N ,  1-C ) :   1.7860 B(  0-N ,  2-C ) :  -0.1116 B(  0-N ,  5-C ) :   0.8690
B(  0-N ,  7-H ) :  -0.1034 B(  1-C ,  2-C ) :   1.1336 B(  1-C ,  3-C ) :   0.2200
B(  1-C ,  4-C ) :  -0.1029 B(  1-C ,  7-H ) :   0.7892 B(  2-C ,  3-C ) :   1.0279
B(  2-C ,  5-C ) :   0.1457 B(  2-C ,  6-O ) :   1.3049 B(  3-C ,  4-C ) :   2.0002
B(  3-C ,  5-C ) :  -0.1135 B(  3-C ,  8-H ) :   0.5648 B(  3-C ,  9-H ) :   0.1198
B(  4-C ,  5-C ) :   1.0421 B(  4-C ,  9-H ) :   0.7661 B(  4-C , 10-H ) :   0.1049
B(  4-C , 11-H ) :   0.1049 B(  5-C ,  9-H ) :  -0.1171 B(  5-C , 10-H ) :   0.7777
B(  5-C , 11-H ) :   0.7777

MP2 TOTAL ENERGY:     -322.595454948 Eh
FINAL SINGLE POINT ENERGY      -322.595454948098

DIPOLE MOMENT
-------------
                                X             Y             Z
Electronic contribution:     -1.25146       3.25828       0.00000
Nuclear contribution   :      2.04369      -4.63701       0.00000
                        -----------------------------------------
Total Dipole Moment    :      0.79222      -1.37873       0.00000
                        -----------------------------------------
Magnitude (a.u.)       :      1.59013
Magnitude (Debye)      :      4.04178

Rotational constants in cm-1:     0.178093     0.092491     0.061543
Rotational constants in MHz :  5339.081387  2772.821321  1845.003916

                             ****ORCA TERMINATED NORMALLY****
TOTAL RUN TIME: 0 days 0 hours 0 minutes 40 seconds 878 msec
