                         Program Version 5.0.3 -  RELEASE  -
|  1> !ri-mp2 aug-cc-pvdz aug-cc-pvdz/c tightscf
|  2> %pal nprocs 16 end
|  3>
|  4> * xyz 0 1
|  5> F      0.000000    2.343179   -1.982060
|  6> F      0.000000   -2.343179   -1.982060
|  7> O      0.000003   -1.083137    2.779892
|  8> O     -0.000003    1.083137    2.779892
|  9> N      0.000000    0.000000    2.217668
| 10> C      0.000000    0.000000    0.737023
| 11> C      0.000000    1.183547   -1.305000
| 12> C      0.000000   -1.183547   -1.305000
| 13> C      0.000000   -1.219150    0.077114
| 14> C      0.000000    1.219150    0.077114
| 15> C      0.000000    0.000000   -2.024499
| 16> H      0.000000   -2.150455    0.619296
| 17> H      0.000000    2.150455    0.619296
| 18> H      0.000000    0.000000   -3.103967
| 19> *
| 20>
| 21>                          ****END OF INPUT****

CARTESIAN COORDINATES (ANGSTROEM)
---------------------------------
  F      0.000000    2.343179   -1.982060
  F      0.000000   -2.343179   -1.982060
  O      0.000003   -1.083137    2.779892
  O     -0.000003    1.083137    2.779892
  N      0.000000    0.000000    2.217668
  C      0.000000    0.000000    0.737023
  C      0.000000    1.183547   -1.305000
  C      0.000000   -1.183547   -1.305000
  C      0.000000   -1.219150    0.077114
  C      0.000000    1.219150    0.077114
  C      0.000000    0.000000   -2.024499
  H      0.000000   -2.150455    0.619296
  H      0.000000    2.150455    0.619296
  H      0.000000    0.000000   -3.103967

 Total Charge           Charge          ....    0
 Multiplicity           Mult            ....    1
 Number of Electrons    NEL             ....   80
 Basis Dimension        Dim             ....  280

ORBITAL ENERGIES
----------------

  NO   OCC          E(Eh)            E(eV)
   0   2.0000     -26.359024      -717.2655
   1   2.0000     -26.359024      -717.2655
   2   2.0000     -20.631427      -561.4097
   3   2.0000     -20.631374      -561.4082
   4   2.0000     -15.881254      -432.1509
   5   2.0000     -11.383876      -309.7710
   6   2.0000     -11.383870      -309.7709
   7   2.0000     -11.348616      -308.8115
   8   2.0000     -11.298575      -307.4498
   9   2.0000     -11.297008      -307.4072
  10   2.0000     -11.296974      -307.4063
  11   2.0000      -1.670287       -45.4508
  12   2.0000      -1.669621       -45.4327
  13   2.0000      -1.633215       -44.4420
  14   2.0000      -1.426337       -38.8126
  15   2.0000      -1.232821       -33.5468
  16   2.0000      -1.122437       -30.5431
  17   2.0000      -1.079331       -29.3701
  18   2.0000      -0.999293       -27.1921
  19   2.0000      -0.905601       -24.6427
  20   2.0000      -0.875507       -23.8238
  21   2.0000      -0.820173       -22.3180
  22   2.0000      -0.784871       -21.3574
  23   2.0000      -0.756040       -20.5729
  24   2.0000      -0.745534       -20.2870
  25   2.0000      -0.742183       -20.1958
  26   2.0000      -0.735386       -20.0109
  27   2.0000      -0.732235       -19.9251
  28   2.0000      -0.726011       -19.7558
  29   2.0000      -0.719239       -19.5715
  30   2.0000      -0.688702       -18.7405
  31   2.0000      -0.626041       -17.0354
  32   2.0000      -0.597198       -16.2506
  33   2.0000      -0.596358       -16.2277
  34   2.0000      -0.553272       -15.0553
  35   2.0000      -0.516172       -14.0458
  36   2.0000      -0.512966       -13.9585
  37   2.0000      -0.472327       -12.8527
  38   2.0000      -0.402116       -10.9421
  39   2.0000      -0.383187       -10.4271
  40   0.0000       0.017023         0.4632
  41   0.0000       0.030463         0.8289
  42   0.0000       0.043299         1.1782
  43   0.0000       0.045193         1.2298
  44   0.0000       0.085159         2.3173

MULLIKEN ATOMIC CHARGES
-----------------------
   0 F :   -0.793076
   1 F :   -0.793076
   2 O :   -0.799646
   3 O :   -0.799646
   4 N :    0.465032
   5 C :    1.445205
   6 C :    0.943724
   7 C :    0.943724
   8 C :    0.164247
   9 C :    0.164247
  10 C :    0.223386
  11 H :   -0.396793
  12 H :   -0.396793
  13 H :   -0.370534
Sum of atomic charges:    0.0000000

LOEWDIN ATOMIC CHARGES
----------------------
   0 F :    0.079911
   1 F :    0.079911
   2 O :    0.100910
   3 O :    0.100910
   4 N :   -0.329531
   5 C :   -0.104130
   6 C :   -0.170651
   7 C :   -0.170651
   8 C :    0.116028
   9 C :    0.116028
  10 C :    0.119401
  11 H :    0.016855
  12 H :    0.016855
  13 H :    0.028152

  Mayer bond orders larger than 0.100000
B(  0-F ,  6-C ) :  -0.4909 B(  0-F ,  9-C ) :   0.3224 B(  0-F , 10-C ) :   0.2620
B(  1-F ,  7-C ) :  -0.4909 B(  1-F ,  8-C ) :   0.3224 B(  1-F , 10-C ) :   0.2620
B(  2-O ,  3-O ) :   0.2297 B(  2-O ,  4-N ) :   1.0885 B(  3-O ,  4-N ) :   1.0885
B(  4-N ,  5-C ) :   0.2606 B(  5-C ,  6-C ) :  -0.1030 B(  5-C ,  7-C ) :  -0.1030
B(  5-C ,  8-C ) :   1.3991 B(  5-C ,  9-C ) :   1.3991 B(  5-C , 11-H ) :   0.1259
B(  5-C , 12-H ) :   0.1259 B(  6-C ,  7-C ) :  -0.2260 B(  6-C ,  9-C ) :   1.6613
B(  6-C , 10-C ) :   1.6423 B(  6-C , 12-H ) :   0.1767 B(  6-C , 13-H ) :   0.1358
B(  7-C ,  8-C ) :   1.6613 B(  7-C , 10-C ) :   1.6423 B(  7-C , 11-H ) :   0.1767
B(  7-C , 13-H ) :   0.1358 B(  8-C ,  9-C ) :   0.2434 B(  8-C , 10-C ) :   0.3285
B(  8-C , 11-H ) :   0.4345 B(  9-C , 10-C ) :   0.3285 B(  9-C , 12-H ) :   0.4345
B( 10-C , 13-H ) :   0.4049

MP2 TOTAL ENERGY:     -633.728831075 Eh
FINAL SINGLE POINT ENERGY      -633.728831074792

DIPOLE MOMENT
-------------
                                X             Y             Z
Electronic contribution:     -0.00000       0.00000      -3.25533
Nuclear contribution   :      0.00000       0.00000       2.03066
                        -----------------------------------------
Total Dipole Moment    :     -0.00000       0.00000      -1.22466
                        -----------------------------------------
Magnitude (a.u.)       :      1.22466
Magnitude (Debye)      :      3.11285

Rotational constants in cm-1:     0.051896     0.029436     0.018782
Rotational constants in MHz :  1555.812083   882.461962   563.080670

                             ****ORCA TERMINATED NORMALLY****
TOTAL RUN TIME: 0 days 0 hours 1 minutes 26 seconds 341 msec
