                         Program Version 5.0.3 -  RELEASE  -
|  1> !ri-mp2 aug-cc-pvdz aug-cc-pvdz/c tightscf
|  2> %pal nprocs 16 end
|  3>
|  4> * xyz 0 1
|  5> O     -1.742727   -1.171659   -0.000001
|  6> O     -1.798817    1.053904    0.000000
|  7> O      2.791456    0.110796    0.000000
|  8> C     -1.139153   -0.134860    0.000000
|  9> C      0.298037   -0.026971    0.000000
| 10> C      1.499219    0.000183    0.000000
| 11> H     -1.166265    1.783255    0.000000
| 12> H      3.218346   -0.757686    0.000000
| 13> *
| 14>
| 15>                          ****END OF INPUT****

CARTESIAN COORDINATES (ANGSTROEM)
---------------------------------
  O     -1.742727   -1.171659   -0.000001
  O     -1.798817    1.053904    0.000000
  O      2.791456    0.110796    0.000000
  C     -1.139153   -0.134860    0.000000
  C      0.298037   -0.026971    0.000000
  C      1.499219    0.000183    0.000000
  H     -1.166265    1.783255    0.000000
  H      3.218346   -0.757686    0.000000

 Total Charge           Charge          ....    0
 Multiplicity           Mult            ....    1
 Number of Electrons    NEL             ....   44
 Basis Dimension        Dim             ....  156

ORBITAL ENERGIES
----------------

  NO   OCC          E(Eh)            E(eV)
   0   2.0000     -20.684701      -562.8593
   1   2.0000     -20.630180      -561.3757
   2   2.0000     -20.566033      -559.6302
   3   2.0000     -11.424249      -310.8696
   4   2.0000     -11.357618      -309.0565
   5   2.0000     -11.268498      -306.6314
   6   2.0000      -1.496471       -40.7210
   7   2.0000      -1.473181       -40.0873
   8   2.0000      -1.378820       -37.5196
   9   2.0000      -1.081528       -29.4299
  10   2.0000      -0.913362       -24.8539
  11   2.0000      -0.851701       -23.1760
  12   2.0000      -0.805735       -21.9252
  13   2.0000      -0.708271       -19.2730
  14   2.0000      -0.671467       -18.2716
  15   2.0000      -0.663628       -18.0582
  16   2.0000      -0.636400       -17.3173
  17   2.0000      -0.610407       -16.6100
  18   2.0000      -0.495068       -13.4715
  19   2.0000      -0.481183       -13.0936
  20   2.0000      -0.428631       -11.6636
  21   2.0000      -0.411210       -11.1896
  22   0.0000       0.018178         0.4947
  23   0.0000       0.038328         1.0429
  24   0.0000       0.083159         2.2629
  25   0.0000       0.085442         2.3250
  26   0.0000       0.092105         2.5063

MULLIKEN ATOMIC CHARGES
-----------------------
   0 O :   -0.683017
   1 O :   -0.658225
   2 O :   -0.575197
   3 C :    1.052882
   4 C :    0.513902
   5 C :   -0.038425
   6 H :    0.213638
   7 H :    0.174443
Sum of atomic charges:    0.0000000

LOEWDIN ATOMIC CHARGES
----------------------
   0 O :    0.058966
   1 O :    0.204734
   2 O :    0.210514
   3 C :   -0.398987
   4 C :    0.051181
   5 C :   -0.089972
   6 H :   -0.036359
   7 H :   -0.000078

  Mayer bond orders larger than 0.100000
B(  0-O ,  3-C ) :   1.5875 B(  1-O ,  3-C ) :   0.5002 B(  1-O ,  4-C ) :   0.1199
B(  1-O ,  6-H ) :   0.9912 B(  2-O ,  4-C ) :  -0.1795 B(  2-O ,  5-C ) :   0.8792
B(  2-O ,  7-H ) :   1.0171 B(  3-C ,  4-C ) :   0.9692 B(  3-C ,  5-C ) :   0.1323
B(  4-C ,  5-C ) :   2.4575

MP2 TOTAL ENERGY:     -340.300184148 Eh
FINAL SINGLE POINT ENERGY      -340.300184147712

DIPOLE MOMENT
-------------
                                X             Y             Z
Electronic contribution:     -0.00396      -0.44601       0.00000
Nuclear contribution   :      1.95938       0.98481       0.00000
                        -----------------------------------------
Total Dipole Moment    :      1.95542       0.53880       0.00000
                        -----------------------------------------
Magnitude (a.u.)       :      2.02829
Magnitude (Debye)      :      5.15550

Rotational constants in cm-1:     0.384482     0.060093     0.051970
Rotational constants in MHz : 11526.481050  1801.550443  1558.034812

                             ****ORCA TERMINATED NORMALLY****
TOTAL RUN TIME: 0 days 0 hours 0 minutes 33 seconds 167 msec
