                         Program Version 5.0.3 -  RELEASE  -
|  1> !ri-mp2 aug-cc-pvdz aug-cc-pvdz/c tightscf
|  2> %pal nprocs 16 end
|  3>
|  4> * xyz 0 1
|  5> S     -0.665329   -1.105340   -0.182687
|  6> S      1.328505   -0.380755    0.146421
|  7> N     -1.448431    0.367384    0.222713
|  8> C      0.727116    1.257202   -0.172811
|  9> C     -0.585503    1.466416   -0.095672
| 10> H     -1.727963    0.395573    1.201544
| 11> H      1.454698    2.032027   -0.360302
| 12> H     -1.048226    2.436538   -0.209095
| 13> *
| 14>
| 15>                          ****END OF INPUT****

CARTESIAN COORDINATES (ANGSTROEM)
---------------------------------
  S     -0.665329   -1.105340   -0.182687
  S      1.328505   -0.380755    0.146421
  N     -1.448431    0.367384    0.222713
  C      0.727116    1.257202   -0.172811
  C     -0.585503    1.466416   -0.095672
  H     -1.727963    0.395573    1.201544
  H      1.454698    2.032027   -0.360302
  H     -1.048226    2.436538   -0.209095

 Total Charge           Charge          ....    0
 Multiplicity           Mult            ....    1
 Number of Electrons    NEL             ....   54
 Basis Dimension        Dim             ....  150

ORBITAL ENERGIES
----------------

  NO   OCC          E(Eh)            E(eV)
   0   2.0000     -92.013790     -2503.8225
   1   2.0000     -91.989575     -2503.1636
   2   2.0000     -15.617324      -424.9690
   3   2.0000     -11.294222      -307.3314
   4   2.0000     -11.283843      -307.0490
   5   2.0000      -9.010495      -245.1880
   6   2.0000      -8.990219      -244.6363
   7   2.0000      -6.692046      -182.0998
   8   2.0000      -6.690635      -182.0614
   9   2.0000      -6.687520      -181.9767
  10   2.0000      -6.671736      -181.5472
  11   2.0000      -6.670695      -181.5188
  12   2.0000      -6.667886      -181.4424
  13   2.0000      -1.263719       -34.3875
  14   2.0000      -1.071472       -29.1562
  15   2.0000      -1.007249       -27.4086
  16   2.0000      -0.848186       -23.0803
  17   2.0000      -0.782189       -21.2844
  18   2.0000      -0.700215       -19.0538
  19   2.0000      -0.658511       -17.9190
  20   2.0000      -0.571562       -15.5530
  21   2.0000      -0.515252       -14.0207
  22   2.0000      -0.513210       -13.9651
  23   2.0000      -0.474496       -12.9117
  24   2.0000      -0.415631       -11.3099
  25   2.0000      -0.387422       -10.5423
  26   2.0000      -0.308055        -8.3826
  27   0.0000       0.033254         0.9049
  28   0.0000       0.044016         1.1977
  29   0.0000       0.052141         1.4188
  30   0.0000       0.066097         1.7986
  31   0.0000       0.074739         2.0338

MULLIKEN ATOMIC CHARGES
-----------------------
   0 S :    0.351657
   1 S :    0.022602
   2 N :   -0.687210
   3 C :    0.239299
   4 C :    0.621250
   5 H :    0.053126
   6 H :   -0.388659
   7 H :   -0.212064
Sum of atomic charges:    0.0000000

LOEWDIN ATOMIC CHARGES
----------------------
   0 S :    0.532087
   1 S :    0.489601
   2 N :   -0.307840
   3 C :   -0.388327
   4 C :   -0.189874
   5 H :   -0.067819
   6 H :   -0.058088
   7 H :   -0.009740

  Mayer bond orders larger than 0.100000
B(  0-S ,  1-S ) :   1.0004 B(  0-S ,  2-N ) :   0.7330 B(  1-S ,  3-C ) :   0.8957
B(  1-S ,  6-H ) :  -0.1065 B(  2-N ,  4-C ) :   0.8382 B(  2-N ,  5-H ) :   1.0857
B(  3-C ,  4-C ) :   1.9810 B(  3-C ,  6-H ) :   0.9062 B(  4-C ,  6-H ) :   0.1085
B(  4-C ,  7-H ) :   0.8682

MP2 TOTAL ENERGY:     -927.683238312 Eh
FINAL SINGLE POINT ENERGY      -927.683238311847

DIPOLE MOMENT
-------------
                                X             Y             Z
Electronic contribution:      1.20838      -3.93883      -0.23271
Nuclear contribution   :     -1.30221       4.73667       0.61191
                        -----------------------------------------
Total Dipole Moment    :     -0.09383       0.79785       0.37919
                        -----------------------------------------
Magnitude (a.u.)       :      0.88834
Magnitude (Debye)      :      2.25799

Rotational constants in cm-1:     0.160417     0.138846     0.077500
Rotational constants in MHz :  4809.177429  4162.510889  2323.404482

                             ****ORCA TERMINATED NORMALLY****
TOTAL RUN TIME: 0 days 0 hours 0 minutes 30 seconds 220 msec
