                         Program Version 5.0.3 -  RELEASE  -
|  1> !ri-mp2 aug-cc-pvdz aug-cc-pvdz/c tightscf
|  2> %pal nprocs 16 end
|  3> %maxcore 3800
|  4>
|  5> * xyz 0 1
|  6> C      2.400164    0.371989    0.000000
|  7> C      2.378036   -1.032831    0.000000
|  8> C      1.225975    1.104452    0.000000
|  9> C      1.182367   -1.731751    0.000000
| 10> C     -2.128810   -0.282841    0.000000
| 11> C      0.000000    0.426694    0.000000
| 12> C     -1.373591    0.855619    0.000000
| 13> C      0.002265   -0.990913    0.000000
| 14> C     -1.867833    2.265725    0.000000
| 15> N     -1.311240   -1.397591    0.000000
| 16> H      3.352447    0.884837    0.000000
| 17> H      3.311976   -1.578318    0.000000
| 18> H      1.256605    2.186234    0.000000
| 19> H      1.169380   -2.813921    0.000000
| 20> H     -3.200520   -0.392058    0.000000
| 21> H     -1.518424    2.813683    0.878543
| 22> H     -1.518424    2.813683   -0.878543
| 23> H     -2.957161    2.300824    0.000000
| 24> H     -1.628625   -2.348693    0.000000
| 25> *
| 26>
| 27>                          ****END OF INPUT****

CARTESIAN COORDINATES (ANGSTROEM)
---------------------------------
  C      2.400164    0.371989    0.000000
  C      2.378036   -1.032831    0.000000
  C      1.225975    1.104452    0.000000
  C      1.182367   -1.731751    0.000000
  C     -2.128810   -0.282841    0.000000
  C      0.000000    0.426694    0.000000
  C     -1.373591    0.855619    0.000000
  C      0.002265   -0.990913    0.000000
  C     -1.867833    2.265725    0.000000
  N     -1.311240   -1.397591    0.000000
  H      3.352447    0.884837    0.000000
  H      3.311976   -1.578318    0.000000
  H      1.256605    2.186234    0.000000
  H      1.169380   -2.813921    0.000000
  H     -3.200520   -0.392058    0.000000
  H     -1.518424    2.813683    0.878543
  H     -1.518424    2.813683   -0.878543
  H     -2.957161    2.300824    0.000000
  H     -1.628625   -2.348693    0.000000

 Total Charge           Charge          ....    0
 Multiplicity           Mult            ....    1
 Number of Electrons    NEL             ....   70
 Basis Dimension        Dim             ....  311

ORBITAL ENERGIES
----------------

  NO   OCC          E(Eh)            E(eV)
   0   2.0000     -15.604708      -424.6257
   1   2.0000     -11.268639      -306.6353
   2   2.0000     -11.268082      -306.6201
   3   2.0000     -11.234634      -305.7099
   4   2.0000     -11.233702      -305.6846
   5   2.0000     -11.232659      -305.6562
   6   2.0000     -11.227298      -305.5103
   7   2.0000     -11.225952      -305.4737
   8   2.0000     -11.224949      -305.4464
   9   2.0000     -11.224231      -305.4268
  10   2.0000      -1.295908       -35.2635
  11   2.0000      -1.132937       -30.8288
  12   2.0000      -1.076376       -29.2897
  13   2.0000      -1.001776       -27.2597
  14   2.0000      -0.990414       -26.9505
  15   2.0000      -0.934925       -25.4406
  16   2.0000      -0.842685       -22.9306
  17   2.0000      -0.807507       -21.9734
  18   2.0000      -0.758949       -20.6521
  19   2.0000      -0.723539       -19.6885
  20   2.0000      -0.661713       -18.0061
  21   2.0000      -0.647815       -17.6279
  22   2.0000      -0.605391       -16.4735
  23   2.0000      -0.595245       -16.1974
  24   2.0000      -0.591859       -16.1053
  25   2.0000      -0.571745       -15.5580
  26   2.0000      -0.550933       -14.9916
  27   2.0000      -0.543468       -14.7885
  28   2.0000      -0.531201       -14.4547
  29   2.0000      -0.499095       -13.5811
  30   2.0000      -0.475645       -12.9430
  31   2.0000      -0.464048       -12.6274
  32   2.0000      -0.374598       -10.1933
  33   2.0000      -0.298548        -8.1239
  34   2.0000      -0.279159        -7.5963
  35   0.0000       0.030616         0.8331
  36   0.0000       0.038401         1.0449
  37   0.0000       0.040040         1.0896
  38   0.0000       0.051539         1.4024
  39   0.0000       0.053338         1.4514

MULLIKEN ATOMIC CHARGES
-----------------------
   0 C :    0.298572
   1 C :    0.466632
   2 C :    0.897703
   3 C :    1.041497
   4 C :    1.171204
   5 C :   -0.009609
   6 C :   -0.193761
   7 C :   -0.848753
   8 C :    0.612287
   9 N :   -0.892374
  10 H :   -0.490336
  11 H :   -0.485311
  12 H :   -0.547844
  13 H :   -0.532707
  14 H :   -0.411376
  15 H :    0.113295
  16 H :    0.113295
  17 H :   -0.160540
  18 H :   -0.141873
Sum of atomic charges:    0.0000000

LOEWDIN ATOMIC CHARGES
----------------------
   0 C :   -0.003549
   1 C :    0.000413
   2 C :    0.057509
   3 C :    0.056555
   4 C :    0.078123
   5 C :   -0.117224
   6 C :   -0.191352
   7 C :   -0.142884
   8 C :    0.170833
   9 N :    0.106804
  10 H :   -0.007629
  11 H :   -0.004194
  12 H :    0.003076
  13 H :    0.000739
  14 H :    0.005568
  15 H :   -0.010398
  16 H :   -0.010398
  17 H :   -0.014723
  18 H :    0.022731

  Mayer bond orders larger than 0.100000
B(  0-C ,  1-C ) :   1.7874 B(  0-C ,  2-C ) :   1.3726 B(  0-C ,  3-C ) :   0.2754
B(  0-C ,  5-C ) :  -0.2473 B(  0-C ,  6-C ) :   0.1936 B(  0-C ,  7-C ) :  -0.1421
B(  0-C ,  8-C ) :   0.2005 B(  0-C , 10-H ) :   0.1409 B(  0-C , 11-H ) :   0.2599
B(  0-C , 12-H ) :   0.3124 B(  0-C , 13-H ) :  -0.1553 B(  1-C ,  2-C ) :  -0.1519
B(  1-C ,  3-C ) :   1.7042 B(  1-C ,  5-C ) :   0.2493 B(  1-C ,  7-C ) :   0.1967
B(  1-C , 10-H ) :   0.1788 B(  1-C , 11-H ) :   0.1962 B(  1-C , 12-H ) :  -0.1155
B(  1-C , 13-H ) :   0.1491 B(  2-C ,  3-C ) :  -0.1187 B(  2-C ,  5-C ) :   2.0314
B(  2-C ,  6-C ) :  -0.7351 B(  2-C ,  7-C ) :  -0.3589 B(  2-C ,  8-C ) :  -0.2019
B(  2-C , 10-H ) :   0.3791 B(  2-C , 12-H ) :  -0.5532 B(  2-C , 13-H ) :   0.1024
B(  3-C ,  5-C ) :  -0.3313 B(  3-C ,  7-C ) :   1.1563 B(  3-C ,  8-C ) :   0.2205
B(  3-C ,  9-N ) :  -0.2015 B(  3-C , 11-H ) :   0.2367 B(  3-C , 13-H ) :  -0.6611
B(  4-C ,  6-C ) :   1.4697 B(  4-C ,  8-C ) :  -0.1131 B(  4-C ,  9-N ) :   0.8648
B(  4-C , 14-H ) :   0.2539 B(  4-C , 18-H ) :  -0.1492 B(  5-C ,  6-C ) :   2.5561
B(  5-C ,  7-C ) :   1.9408 B(  5-C ,  8-C ) :   0.1081 B(  5-C , 12-H ) :   0.9368
B(  5-C , 13-H ) :  -0.1599 B(  6-C ,  7-C ) :  -0.5219 B(  6-C ,  8-C ) :   1.2123
B(  6-C , 14-H ) :   0.1767 B(  6-C , 15-H ) :   0.2619 B(  6-C , 16-H ) :   0.2619
B(  6-C , 17-H ) :   0.2007 B(  7-C ,  8-C ) :  -0.2604 B(  7-C ,  9-N ) :   0.9242
B(  7-C , 13-H ) :   1.4194 B(  7-C , 18-H ) :  -0.1487 B(  8-C , 14-H ) :   0.1441
B(  8-C , 15-H ) :   0.7857 B(  8-C , 16-H ) :   0.7857 B(  8-C , 17-H ) :   0.6905
B(  9-N , 13-H ) :  -0.1221 B(  9-N , 18-H ) :   1.2893

MP2 TOTAL ENERGY:     -401.953829384 Eh
FINAL SINGLE POINT ENERGY      -401.953829384366

DIPOLE MOMENT
-------------
                                X             Y             Z
Electronic contribution:      1.13815      -4.32454       0.00000
Nuclear contribution   :     -1.74425       3.86651       0.00000
                        -----------------------------------------
Total Dipole Moment    :     -0.60610      -0.45803       0.00000
                        -----------------------------------------
Magnitude (a.u.)       :      0.75970
Magnitude (Debye)      :      1.93101

Rotational constants in cm-1:     0.087483     0.042340     0.028682
Rotational constants in MHz :  2622.667458  1269.324239   859.879154

                             ****ORCA TERMINATED NORMALLY****
TOTAL RUN TIME: 0 days 0 hours 1 minutes 43 seconds 277 msec
