                         Program Version 5.0.3 -  RELEASE  -
|  1> !ri-mp2 aug-cc-pvdz aug-cc-pvdz/c tightscf
|  2> %pal nprocs 16 end
|  3>
|  4> * xyz 0 1
|  5> C      0.392949    0.006753   -0.314271
|  6> C      1.845922   -0.344618   -0.447971
|  7> C      2.755670    0.526135    0.427735
|  8> C     -2.464073    0.895132   -0.087612
|  9> C     -2.023839   -0.525165    0.253168
| 10> C     -0.559417   -0.825207    0.095654
| 11> H      0.134394    1.030172   -0.571721
| 12> H      2.150834   -0.225520   -1.493272
| 13> H      1.992029   -1.398584   -0.200685
| 14> H      2.631761    1.584844    0.191968
| 15> H      2.523122    0.393155    1.485148
| 16> H      3.806004    0.272696    0.276534
| 17> H     -1.961620    1.631077    0.541868
| 18> H     -2.247135    1.142851   -1.127808
| 19> H     -3.538045    1.008319    0.062785
| 20> H     -2.588225   -1.237015   -0.359875
| 21> H     -2.312564   -0.756467    1.284752
| 22> H     -0.273824   -1.843703    0.350091
| 23> *
| 24>
| 25>                          ****END OF INPUT****

CARTESIAN COORDINATES (ANGSTROEM)
---------------------------------
  C      0.392949    0.006753   -0.314271
  C      1.845922   -0.344618   -0.447971
  C      2.755670    0.526135    0.427735
  C     -2.464073    0.895132   -0.087612
  C     -2.023839   -0.525165    0.253168
  C     -0.559417   -0.825207    0.095654
  H      0.134394    1.030172   -0.571721
  H      2.150834   -0.225520   -1.493272
  H      1.992029   -1.398584   -0.200685
  H      2.631761    1.584844    0.191968
  H      2.523122    0.393155    1.485148
  H      3.806004    0.272696    0.276534
  H     -1.961620    1.631077    0.541868
  H     -2.247135    1.142851   -1.127808
  H     -3.538045    1.008319    0.062785
  H     -2.588225   -1.237015   -0.359875
  H     -2.312564   -0.756467    1.284752
  H     -0.273824   -1.843703    0.350091

 Total Charge           Charge          ....    0
 Multiplicity           Mult            ....    1
 Number of Electrons    NEL             ....   48
 Basis Dimension        Dim             ....  246

ORBITAL ENERGIES
----------------

  NO   OCC          E(Eh)            E(eV)
   0   2.0000     -11.228960      -305.5555
   1   2.0000     -11.226485      -305.4882
   2   2.0000     -11.225685      -305.4664
   3   2.0000     -11.222464      -305.3788
   4   2.0000     -11.218158      -305.2616
   5   2.0000     -11.217912      -305.2549
   6   2.0000      -1.092947       -29.7406
   7   2.0000      -1.038711       -28.2648
   8   2.0000      -0.965803       -26.2808
   9   2.0000      -0.877714       -23.8838
  10   2.0000      -0.820271       -22.3207
  11   2.0000      -0.730211       -19.8701
  12   2.0000      -0.629942       -17.1416
  13   2.0000      -0.611178       -16.6310
  14   2.0000      -0.607304       -16.5256
  15   2.0000      -0.583418       -15.8756
  16   2.0000      -0.546987       -14.8843
  17   2.0000      -0.523208       -14.2372
  18   2.0000      -0.504240       -13.7211
  19   2.0000      -0.492925       -13.4132
  20   2.0000      -0.489611       -13.3230
  21   2.0000      -0.474657       -12.9161
  22   2.0000      -0.460077       -12.5193
  23   2.0000      -0.341141        -9.2829
  24   0.0000       0.037183         1.0118
  25   0.0000       0.041498         1.1292
  26   0.0000       0.044805         1.2192
  27   0.0000       0.048760         1.3268
  28   0.0000       0.058541         1.5930

MULLIKEN ATOMIC CHARGES
-----------------------
   0 C :    0.780951
   1 C :    0.026406
   2 C :    0.327875
   3 C :    0.539357
   4 C :   -0.053379
   5 C :    0.136593
   6 H :   -0.677428
   7 H :    0.002484
   8 H :   -0.163645
   9 H :   -0.077188
  10 H :   -0.076873
  11 H :   -0.103581
  12 H :   -0.011647
  13 H :   -0.005553
  14 H :   -0.159110
  15 H :    0.039825
  16 H :    0.040014
  17 H :   -0.565102
Sum of atomic charges:    0.0000000

LOEWDIN ATOMIC CHARGES
----------------------
   0 C :   -0.022908
   1 C :   -0.071387
   2 C :    0.131744
   3 C :    0.126185
   4 C :   -0.073195
   5 C :   -0.013084
   6 H :   -0.005930
   7 H :    0.010785
   8 H :    0.009236
   9 H :   -0.021682
  10 H :   -0.019089
  11 H :   -0.022476
  12 H :   -0.016420
  13 H :   -0.016481
  14 H :   -0.021081
  15 H :    0.012086
  16 H :    0.012195
  17 H :    0.001502

  Mayer bond orders larger than 0.100000
B(  0-C ,  1-C ) :   1.1541 B(  0-C ,  4-C ) :  -0.1600 B(  0-C ,  5-C ) :   2.0319
B(  0-C ,  6-H ) :   0.1536 B(  0-C ,  8-H ) :  -0.1202 B(  0-C , 17-H ) :   0.1094
B(  1-C ,  2-C ) :   1.1905 B(  1-C ,  7-H ) :   0.8746 B(  1-C ,  8-H ) :   0.8274
B(  2-C ,  9-H ) :   0.9393 B(  2-C , 10-H ) :   0.9792 B(  2-C , 11-H ) :   0.9046
B(  3-C ,  4-C ) :   1.1974 B(  3-C ,  5-C ) :  -0.1231 B(  3-C ,  6-H ) :   0.1141
B(  3-C , 12-H ) :   0.8889 B(  3-C , 13-H ) :   0.8813 B(  3-C , 14-H ) :   0.9179
B(  4-C ,  5-C ) :   1.2716 B(  4-C , 15-H ) :   0.7935 B(  4-C , 16-H ) :   0.7872
B(  5-C ,  6-H ) :   0.2389 B(  5-C , 15-H ) :   0.1290 B(  5-C , 16-H ) :   0.1401
B(  5-C , 17-H ) :   0.3702 B(  6-H , 17-H ) :   0.1005

MP2 TOTAL ENERGY:     -235.084576430 Eh
FINAL SINGLE POINT ENERGY      -235.084576429920

DIPOLE MOMENT
-------------
                                X             Y             Z
Electronic contribution:     -0.37581      -1.73821      -0.46502
Nuclear contribution   :      0.33926       1.71574       0.47106
                        -----------------------------------------
Total Dipole Moment    :     -0.03656      -0.02246       0.00604
                        -----------------------------------------
Magnitude (a.u.)       :      0.04333
Magnitude (Debye)      :      0.11013

Rotational constants in cm-1:     0.293296     0.048782     0.045240
Rotational constants in MHz :  8792.781929  1462.459208  1356.251743

                             ****ORCA TERMINATED NORMALLY****
TOTAL RUN TIME: 0 days 0 hours 0 minutes 42 seconds 785 msec
