                         Program Version 5.0.3 -  RELEASE  -
|  1> !ri-mp2 aug-cc-pvdz aug-cc-pvdz/c tightscf
|  2> %pal nprocs 16 end
|  3>
|  4> * xyz 0 1
|  5> N     -0.530767   -0.509584   -0.000040
|  6> N     -1.711032   -0.172686    0.000014
|  7> N     -2.824957    0.016559    0.000057
|  8> C      0.434644    0.619527    0.000002
|  9> C      1.797538    0.114494   -0.000012
| 10> C      2.931476   -0.269581   -0.000026
| 11> H      0.275495    1.245353    0.883766
| 12> H      0.275500    1.245412   -0.883722
| 13> H      3.934346   -0.617438   -0.000035
| 14> *
| 15>
| 16>                          ****END OF INPUT****

CARTESIAN COORDINATES (ANGSTROEM)
---------------------------------
  N     -0.530767   -0.509584   -0.000040
  N     -1.711032   -0.172686    0.000014
  N     -2.824957    0.016559    0.000057
  C      0.434644    0.619527    0.000002
  C      1.797538    0.114494   -0.000012
  C      2.931476   -0.269581   -0.000026
  H      0.275495    1.245353    0.883766
  H      0.275500    1.245412   -0.883722
  H      3.934346   -0.617438   -0.000035

 Total Charge           Charge          ....    0
 Multiplicity           Mult            ....    1
 Number of Electrons    NEL             ....   42
 Basis Dimension        Dim             ....  165

ORBITAL ENERGIES
----------------

  NO   OCC          E(Eh)            E(eV)
   0   2.0000     -15.800518      -429.9540
   1   2.0000     -15.685853      -426.8337
   2   2.0000     -15.626160      -425.2094
   3   2.0000     -11.324547      -308.1566
   4   2.0000     -11.255798      -306.2858
   5   2.0000     -11.247645      -306.0640
   6   2.0000      -1.521524       -41.4028
   7   2.0000      -1.309743       -35.6399
   8   2.0000      -1.086644       -29.5691
   9   2.0000      -0.991358       -26.9762
  10   2.0000      -0.769918       -20.9505
  11   2.0000      -0.745596       -20.2887
  12   2.0000      -0.721730       -19.6393
  13   2.0000      -0.709094       -19.2954
  14   2.0000      -0.679394       -18.4873
  15   2.0000      -0.632377       -17.2078
  16   2.0000      -0.627650       -17.0792
  17   2.0000      -0.457666       -12.4537
  18   2.0000      -0.410711       -11.1760
  19   2.0000      -0.408841       -11.1251
  20   2.0000      -0.383023       -10.4226
  21   0.0000       0.034263         0.9323
  22   0.0000       0.039498         1.0748
  23   0.0000       0.052483         1.4281
  24   0.0000       0.078167         2.1270
  25   0.0000       0.084252         2.2926

MULLIKEN ATOMIC CHARGES
-----------------------
   0 N :   -0.578122
   1 N :    0.364411
   2 N :   -0.301752
   3 C :    0.582181
   4 C :   -0.477926
   5 C :    0.970213
   6 H :   -0.020886
   7 H :   -0.020885
   8 H :   -0.517235
Sum of atomic charges:    0.0000000

LOEWDIN ATOMIC CHARGES
----------------------
   0 N :    0.052943
   1 N :   -0.290478
   2 N :    0.256890
   3 C :   -0.066417
   4 C :   -0.101516
   5 C :    0.217540
   6 H :    0.015884
   7 H :    0.015884
   8 H :   -0.100731

  Mayer bond orders larger than 0.100000
B(  0-N ,  1-N ) :   1.0436 B(  0-N ,  2-N ) :   0.2241 B(  0-N ,  3-C ) :   0.7841
B(  1-N ,  2-N ) :   1.7928 B(  3-C ,  4-C ) :   1.3069 B(  3-C ,  5-C ) :   0.2540
B(  3-C ,  6-H ) :   0.8158 B(  3-C ,  7-H ) :   0.8158 B(  3-C ,  8-H ) :   0.1245
B(  4-C ,  5-C ) :   2.7467 B(  4-C ,  6-H ) :   0.1188 B(  4-C ,  7-H ) :   0.1188
B(  4-C ,  8-H ) :   0.5932 B(  5-C ,  8-H ) :  -0.2650

MP2 TOTAL ENERGY:     -279.485929106 Eh
FINAL SINGLE POINT ENERGY      -279.485929105996

DIPOLE MOMENT
-------------
                                X             Y             Z
Electronic contribution:     -3.93876      -1.21554       0.00001
Nuclear contribution   :      4.33476       1.81872       0.00001
                        -----------------------------------------
Total Dipole Moment    :      0.39600       0.60317       0.00002
                        -----------------------------------------
Magnitude (a.u.)       :      0.72155
Magnitude (Debye)      :      1.83404

Rotational constants in cm-1:     1.144180     0.052990     0.051128
Rotational constants in MHz : 34301.655002  1588.607824  1532.792283

                             ****ORCA TERMINATED NORMALLY****
TOTAL RUN TIME: 0 days 0 hours 0 minutes 31 seconds 95 msec
