                         Program Version 5.0.3 -  RELEASE  -
|  1> !ri-mp2 aug-cc-pvdz aug-cc-pvdz/c tightscf
|  2> %pal nprocs 16 end
|  3>
|  4> * xyz 0 1
|  5> C      2.526085   -0.224091   -0.000065
|  6> C      1.294342   -0.739554    0.000012
|  7> C      0.034400    0.006499   -0.000010
|  8> C     -1.115939   -0.688795    0.000099
|  9> C     -2.521058   -0.179706    0.000118
| 10> C      0.114883    1.508528   -0.000144
| 11> H      3.396043   -0.865751   -0.000039
| 12> H      2.711374    0.841312   -0.000153
| 13> H      1.189188   -1.820097    0.000100
| 14> H     -1.028922   -1.771727    0.000189
| 15> H     -3.063558   -0.549262    0.875060
| 16> H     -2.589482    0.905588   -0.000006
| 17> H     -3.063659   -0.549470   -0.874672
| 18> H      0.658431    1.866471   -0.877450
| 19> H     -0.864162    1.979015   -0.000164
| 20> H      0.658474    1.866628    0.877071
| 21> *
| 22>
| 23>                          ****END OF INPUT****

CARTESIAN COORDINATES (ANGSTROEM)
---------------------------------
  C      2.526085   -0.224091   -0.000065
  C      1.294342   -0.739554    0.000012
  C      0.034400    0.006499   -0.000010
  C     -1.115939   -0.688795    0.000099
  C     -2.521058   -0.179706    0.000118
  C      0.114883    1.508528   -0.000144
  H      3.396043   -0.865751   -0.000039
  H      2.711374    0.841312   -0.000153
  H      1.189188   -1.820097    0.000100
  H     -1.028922   -1.771727    0.000189
  H     -3.063558   -0.549262    0.875060
  H     -2.589482    0.905588   -0.000006
  H     -3.063659   -0.549470   -0.874672
  H      0.658431    1.866471   -0.877450
  H     -0.864162    1.979015   -0.000164
  H      0.658474    1.866628    0.877071

 Total Charge           Charge          ....    0
 Multiplicity           Mult            ....    1
 Number of Electrons    NEL             ....   46
 Basis Dimension        Dim             ....  228

ORBITAL ENERGIES
----------------

  NO   OCC          E(Eh)            E(eV)
   0   2.0000     -11.239737      -305.8488
   1   2.0000     -11.237514      -305.7883
   2   2.0000     -11.235872      -305.7436
   3   2.0000     -11.229429      -305.5683
   4   2.0000     -11.224857      -305.4439
   5   2.0000     -11.224458      -305.4330
   6   2.0000      -1.114691       -30.3323
   7   2.0000      -1.028788       -27.9947
   8   2.0000      -0.973034       -26.4776
   9   2.0000      -0.911371       -24.7997
  10   2.0000      -0.787981       -21.4421
  11   2.0000      -0.710331       -19.3291
  12   2.0000      -0.661489       -18.0000
  13   2.0000      -0.612835       -16.6761
  14   2.0000      -0.578793       -15.7498
  15   2.0000      -0.572183       -15.5699
  16   2.0000      -0.556636       -15.1468
  17   2.0000      -0.537161       -14.6169
  18   2.0000      -0.521231       -14.1834
  19   2.0000      -0.508484       -13.8366
  20   2.0000      -0.472869       -12.8674
  21   2.0000      -0.415233       -11.2991
  22   2.0000      -0.308091        -8.3836
  23   0.0000       0.036057         0.9812
  24   0.0000       0.041159         1.1200
  25   0.0000       0.046089         1.2542
  26   0.0000       0.057590         1.5671
  27   0.0000       0.058811         1.6003

MULLIKEN ATOMIC CHARGES
-----------------------
   0 C :    0.689309
   1 C :    0.328824
   2 C :    0.042614
   3 C :   -0.101744
   4 C :    0.295952
   5 C :    0.464399
   6 H :   -0.363085
   7 H :   -0.432495
   8 H :   -0.596786
   9 H :   -0.574192
  10 H :    0.131905
  11 H :   -0.161790
  12 H :    0.131897
  13 H :    0.205112
  14 H :   -0.265033
  15 H :    0.205112
Sum of atomic charges:   -0.0000000

LOEWDIN ATOMIC CHARGES
----------------------
   0 C :    0.173097
   1 C :   -0.045013
   2 C :   -0.246052
   3 C :    0.000520
   4 C :    0.146104
   5 C :    0.168727
   6 H :   -0.045557
   7 H :   -0.048873
   8 H :   -0.000241
   9 H :   -0.002615
  10 H :   -0.012468
  11 H :   -0.033839
  12 H :   -0.012469
  13 H :   -0.004114
  14 H :   -0.033095
  15 H :   -0.004114

  Mayer bond orders larger than 0.100000
B(  0-C ,  1-C ) :   1.7828 B(  0-C ,  2-C ) :  -0.1175 B(  0-C ,  3-C ) :   0.1822
B(  0-C ,  6-H ) :   0.5696 B(  0-C ,  7-H ) :   0.6398 B(  0-C ,  8-H ) :   0.1506
B(  1-C ,  2-C ) :   1.4956 B(  1-C ,  3-C ) :  -0.3539 B(  1-C ,  5-C ) :  -0.2495
B(  1-C ,  6-H ) :   0.3088 B(  1-C ,  7-H ) :   0.2812 B(  1-C ,  8-H ) :   0.1298
B(  1-C ,  9-H ) :  -0.1006 B(  2-C ,  3-C ) :   1.5234 B(  2-C ,  4-C ) :  -0.2950
B(  2-C ,  5-C ) :   1.4519 B(  2-C ,  7-H ) :  -0.1765 B(  2-C ,  8-H ) :   0.4471
B(  2-C ,  9-H ) :   0.3791 B(  2-C , 11-H ) :  -0.1398 B(  2-C , 13-H ) :   0.1997
B(  2-C , 14-H ) :   0.2083 B(  2-C , 15-H ) :   0.1997 B(  3-C ,  4-C ) :   1.2476
B(  3-C ,  8-H ) :  -0.1166 B(  3-C ,  9-H ) :   0.4458 B(  3-C , 11-H ) :   0.2364
B(  4-C ,  9-H ) :  -0.1007 B(  4-C , 10-H ) :   0.8788 B(  4-C , 11-H ) :   0.8830
B(  4-C , 12-H ) :   0.8787 B(  5-C , 13-H ) :   0.7553 B(  5-C , 14-H ) :   0.8215
B(  5-C , 15-H ) :   0.7553 B(  6-H ,  7-H ) :  -0.2240

MP2 TOTAL ENERGY:     -233.876260534 Eh
FINAL SINGLE POINT ENERGY      -233.876260534204

DIPOLE MOMENT
-------------
                                X             Y             Z
Electronic contribution:      1.82066      -1.93279       0.00008
Nuclear contribution   :     -2.09944       2.00104      -0.00007
                        -----------------------------------------
Total Dipole Moment    :     -0.27878       0.06825       0.00001
                        -----------------------------------------
Magnitude (a.u.)       :      0.28701
Magnitude (Debye)      :      0.72953

Rotational constants in cm-1:     0.263321     0.070205     0.056579
Rotational constants in MHz :  7894.168451  2104.695051  1696.186798

                             ****ORCA TERMINATED NORMALLY****
TOTAL RUN TIME: 0 days 0 hours 0 minutes 45 seconds 146 msec
