                         Program Version 5.0.3 -  RELEASE  -
|  1> !ri-mp2 aug-cc-pvdz aug-cc-pvdz/c tightscf
|  2> %pal nprocs 16 end
|  3>
|  4> * xyz 0 1
|  5> C      0.121338   -1.552985    0.000000
|  6> C     -1.266480   -1.587989    0.000000
|  7> C     -1.384777    0.677563    0.000000
|  8> C      0.784658   -0.329802    0.000000
|  9> C      0.000000    0.833406    0.000000
| 10> C      2.286145   -0.262994    0.000000
| 11> C      0.610891    2.207110    0.000000
| 12> N     -2.022279   -0.492366    0.000000
| 13> H      0.683596   -2.478145    0.000000
| 14> H     -1.790838   -2.537250    0.000000
| 15> H     -2.015999    1.561189    0.000000
| 16> H      2.660028    0.271394    0.876276
| 17> H      2.724758   -1.259274    0.000000
| 18> H      2.660028    0.271394   -0.876276
| 19> H      1.242218    2.367833   -0.877127
| 20> H     -0.160709    2.975727    0.000000
| 21> H      1.242218    2.367833    0.877127
| 22> *
| 23>
| 24>                          ****END OF INPUT****

CARTESIAN COORDINATES (ANGSTROEM)
---------------------------------
  C      0.121338   -1.552985    0.000000
  C     -1.266480   -1.587989    0.000000
  C     -1.384777    0.677563    0.000000
  C      0.784658   -0.329802    0.000000
  C      0.000000    0.833406    0.000000
  C      2.286145   -0.262994    0.000000
  C      0.610891    2.207110    0.000000
  N     -2.022279   -0.492366    0.000000
  H      0.683596   -2.478145    0.000000
  H     -1.790838   -2.537250    0.000000
  H     -2.015999    1.561189    0.000000
  H      2.660028    0.271394    0.876276
  H      2.724758   -1.259274    0.000000
  H      2.660028    0.271394   -0.876276
  H      1.242218    2.367833   -0.877127
  H     -0.160709    2.975727    0.000000
  H      1.242218    2.367833    0.877127

 Total Charge           Charge          ....    0
 Multiplicity           Mult            ....    1
 Number of Electrons    NEL             ....   58
 Basis Dimension        Dim             ....  265

ORBITAL ENERGIES
----------------

  NO   OCC          E(Eh)            E(eV)
   0   2.0000     -15.563985      -423.5176
   1   2.0000     -11.271155      -306.7037
   2   2.0000     -11.269729      -306.6649
   3   2.0000     -11.263407      -306.4929
   4   2.0000     -11.245198      -305.9974
   5   2.0000     -11.241698      -305.9022
   6   2.0000     -11.237357      -305.7840
   7   2.0000     -11.237268      -305.7816
   8   2.0000      -1.256614       -34.1942
   9   2.0000      -1.117781       -30.4164
  10   2.0000      -1.051472       -28.6120
  11   2.0000      -0.977961       -26.6117
  12   2.0000      -0.942485       -25.6463
  13   2.0000      -0.839325       -22.8392
  14   2.0000      -0.812648       -22.1133
  15   2.0000      -0.685664       -18.6579
  16   2.0000      -0.680598       -18.5200
  17   2.0000      -0.629073       -17.1180
  18   2.0000      -0.604036       -16.4367
  19   2.0000      -0.577755       -15.7215
  20   2.0000      -0.561950       -15.2914
  21   2.0000      -0.559548       -15.2261
  22   2.0000      -0.553447       -15.0600
  23   2.0000      -0.539861       -14.6904
  24   2.0000      -0.520658       -14.1678
  25   2.0000      -0.498063       -13.5530
  26   2.0000      -0.408707       -11.1215
  27   2.0000      -0.362859        -9.8739
  28   2.0000      -0.333361        -9.0712
  29   0.0000       0.032217         0.8767
  30   0.0000       0.038629         1.0511
  31   0.0000       0.043318         1.1787
  32   0.0000       0.053645         1.4598
  33   0.0000       0.056448         1.5360

MULLIKEN ATOMIC CHARGES
-----------------------
   0 C :    0.937568
   1 C :    0.361594
   2 C :    0.614852
   3 C :   -1.074044
   4 C :   -0.035570
   5 C :    0.523824
   6 C :    0.487804
   7 N :   -0.747530
   8 H :   -0.541008
   9 H :   -0.332658
  10 H :   -0.407976
  11 H :    0.172626
  12 H :   -0.246725
  13 H :    0.172626
  14 H :    0.168767
  15 H :   -0.222914
  16 H :    0.168767
Sum of atomic charges:    0.0000000

LOEWDIN ATOMIC CHARGES
----------------------
   0 C :    0.047268
   1 C :   -0.035426
   2 C :   -0.001908
   3 C :   -0.175408
   4 C :   -0.173360
   5 C :    0.184466
   6 C :    0.172410
   7 N :    0.029148
   8 H :    0.001748
   9 H :    0.000353
  10 H :    0.003993
  11 H :   -0.004184
  12 H :   -0.013699
  13 H :   -0.004184
  14 H :   -0.008132
  15 H :   -0.014954
  16 H :   -0.008132

  Mayer bond orders larger than 0.100000
B(  0-C ,  1-C ) :   0.7422 B(  0-C ,  3-C ) :   1.5162 B(  0-C ,  4-C ) :  -0.1686
B(  0-C ,  5-C ) :  -0.2984 B(  0-C ,  9-H ) :  -0.1211 B(  1-C ,  2-C ) :   0.2168
B(  1-C ,  3-C ) :   0.5754 B(  1-C ,  4-C ) :  -0.2148 B(  1-C ,  5-C ) :   0.1907
B(  1-C ,  7-N ) :   1.3883 B(  1-C ,  9-H ) :   0.8382 B(  2-C ,  3-C ) :  -0.1631
B(  2-C ,  4-C ) :   1.3655 B(  2-C ,  6-C ) :  -0.1279 B(  2-C ,  7-N ) :   1.3188
B(  2-C , 10-H ) :   0.5987 B(  3-C ,  4-C ) :   1.9121 B(  3-C ,  5-C ) :   1.2568
B(  3-C ,  6-C ) :  -0.1309 B(  3-C ,  8-H ) :   0.5485 B(  3-C ,  9-H ) :   0.2115
B(  3-C , 10-H ) :   0.1312 B(  3-C , 12-H ) :   0.4383 B(  4-C ,  6-C ) :   1.3419
B(  4-C ,  7-N ) :  -0.1094 B(  4-C , 14-H ) :   0.1456 B(  4-C , 15-H ) :   0.3120
B(  4-C , 16-H ) :   0.1456 B(  5-C ,  6-C ) :  -0.1356 B(  5-C , 11-H ) :   0.8649
B(  5-C , 12-H ) :   0.5004 B(  5-C , 13-H ) :   0.8649 B(  6-C , 14-H ) :   0.8727
B(  6-C , 15-H ) :   0.5468 B(  6-C , 16-H ) :   0.8727

MP2 TOTAL ENERGY:     -325.949512377 Eh
FINAL SINGLE POINT ENERGY      -325.949512376598

DIPOLE MOMENT
-------------
                                X             Y             Z
Electronic contribution:     -6.18257      -3.38981       0.00000
Nuclear contribution   :      7.35306       3.59632       0.00000
                        -----------------------------------------
Total Dipole Moment    :      1.17050       0.20651       0.00000
                        -----------------------------------------
Magnitude (a.u.)       :      1.18857
Magnitude (Debye)      :      3.02112

Rotational constants in cm-1:     0.107787     0.073114     0.044273
Rotational constants in MHz :  3231.373351  2191.912093  1327.273014

                             ****ORCA TERMINATED NORMALLY****
TOTAL RUN TIME: 0 days 0 hours 1 minutes 5 seconds 521 msec
