                         Program Version 5.0.3 -  RELEASE  -
|  1> !ri-mp2 aug-cc-pvdz aug-cc-pvdz/c tightscf
|  2> %pal nprocs 16 end
|  3>
|  4> * xyz 0 1
|  5> O      1.940466    0.100077   -0.356377
|  6> H      2.421588   -0.726471   -0.237956
|  7> N      0.023471   -1.215094    0.138296
|  8> C     -1.181592   -0.930797   -0.131038
|  9> H     -1.898279   -1.715924   -0.357940
| 10> C      0.758775    0.029689    0.415101
| 11> H      1.011317    0.022646    1.482130
| 12> C     -1.554766    0.529531   -0.103113
| 13> H     -2.214713    0.732484    0.745109
| 14> H     -2.099834    0.828700   -0.999730
| 15> C     -0.174244    1.197650    0.045596
| 16> H     -0.160808    1.988315    0.792056
| 17> H      0.163676    1.618849   -0.900003
| 18> *
| 19>
| 20>                          ****END OF INPUT****

CARTESIAN COORDINATES (ANGSTROEM)
---------------------------------
  O      1.940466    0.100077   -0.356377
  H      2.421588   -0.726471   -0.237956
  N      0.023471   -1.215094    0.138296
  C     -1.181592   -0.930797   -0.131038
  H     -1.898279   -1.715924   -0.357940
  C      0.758775    0.029689    0.415101
  H      1.011317    0.022646    1.482130
  C     -1.554766    0.529531   -0.103113
  H     -2.214713    0.732484    0.745109
  H     -2.099834    0.828700   -0.999730
  C     -0.174244    1.197650    0.045596
  H     -0.160808    1.988315    0.792056
  H      0.163676    1.618849   -0.900003

 Total Charge           Charge          ....    0
 Multiplicity           Mult            ....    1
 Number of Electrons    NEL             ....   46
 Basis Dimension        Dim             ....  201

ORBITAL ENERGIES
----------------

  NO   OCC          E(Eh)            E(eV)
   0   2.0000     -20.567417      -559.6679
   1   2.0000     -15.565661      -423.5632
   2   2.0000     -11.313324      -307.8512
   3   2.0000     -11.287587      -307.1508
   4   2.0000     -11.246840      -306.0421
   5   2.0000     -11.233504      -305.6792
   6   2.0000      -1.374674       -37.4068
   7   2.0000      -1.247737       -33.9527
   8   2.0000      -1.041960       -28.3532
   9   2.0000      -0.967936       -26.3389
  10   2.0000      -0.817999       -22.2589
  11   2.0000      -0.771821       -21.0023
  12   2.0000      -0.700337       -19.0571
  13   2.0000      -0.673903       -18.3378
  14   2.0000      -0.642065       -17.4715
  15   2.0000      -0.598988       -16.2993
  16   2.0000      -0.557073       -15.1587
  17   2.0000      -0.520605       -14.1664
  18   2.0000      -0.512610       -13.9488
  19   2.0000      -0.506391       -13.7796
  20   2.0000      -0.458504       -12.4765
  21   2.0000      -0.417852       -11.3703
  22   2.0000      -0.410332       -11.1657
  23   0.0000       0.033895         0.9223
  24   0.0000       0.044156         1.2015
  25   0.0000       0.048494         1.3196
  26   0.0000       0.050092         1.3631
  27   0.0000       0.064623         1.7585

MULLIKEN ATOMIC CHARGES
-----------------------
   0 O :   -0.760461
   1 H :    0.114502
   2 N :   -0.766660
   3 C :    0.422114
   4 H :   -0.216075
   5 C :    1.263297
   6 H :   -0.213371
   7 C :    0.309121
   8 H :   -0.079563
   9 H :   -0.097461
  10 C :    0.196202
  11 H :   -0.060739
  12 H :   -0.110906
Sum of atomic charges:    0.0000000

LOEWDIN ATOMIC CHARGES
----------------------
   0 O :    0.136026
   1 H :   -0.053491
   2 N :    0.042490
   3 C :   -0.021447
   4 H :    0.005961
   5 C :   -0.242504
   6 H :    0.028211
   7 C :    0.011687
   8 H :    0.013863
   9 H :    0.011242
  10 C :    0.041266
  11 H :    0.011581
  12 H :    0.015115

  Mayer bond orders larger than 0.100000
B(  0-O ,  1-H ) :   1.1212 B(  0-O ,  5-C ) :   0.2950 B(  2-N ,  3-C ) :   1.8523
B(  2-N ,  5-C ) :   0.8866 B(  3-C ,  4-H ) :   0.9567 B(  3-C ,  7-C ) :   1.0201
B(  5-C ,  6-H ) :   0.6949 B(  5-C , 10-C ) :   1.2209 B(  5-C , 12-H ) :   0.1143
B(  7-C ,  8-H ) :   0.8180 B(  7-C ,  9-H ) :   0.8160 B(  7-C , 10-C ) :   1.2935
B( 10-C , 11-H ) :   0.8025 B( 10-C , 12-H ) :   0.7855 B( 11-H , 12-H ) :  -0.1138

MP2 TOTAL ENERGY:     -285.814673828 Eh
FINAL SINGLE POINT ENERGY      -285.814673827530

DIPOLE MOMENT
-------------
                                X             Y             Z
Electronic contribution:      1.98364      -2.51372      -0.25196
Nuclear contribution   :     -2.78781       2.78447       0.52670
                        -----------------------------------------
Total Dipole Moment    :     -0.80417       0.27075       0.27473
                        -----------------------------------------
Magnitude (a.u.)       :      0.89189
Magnitude (Debye)      :      2.26700

Rotational constants in cm-1:     0.230334     0.117514     0.085824
Rotational constants in MHz :  6905.225436  3522.985584  2572.938349

                             ****ORCA TERMINATED NORMALLY****
TOTAL RUN TIME: 0 days 0 hours 0 minutes 40 seconds 125 msec
