                         Program Version 5.0.3 -  RELEASE  -
|  1> !ri-mp2 aug-cc-pvdz aug-cc-pvdz/c tightscf
|  2> %pal nprocs 16 end
|  3>
|  4> * xyz 0 1
|  5> C      1.635229    1.169984    0.080429
|  6> C      0.276934    1.186693   -0.201516
|  7> C      2.267258   -0.057658    0.237114
|  8> C      0.324908   -1.186647   -0.148460
|  9> C     -0.416052   -0.015986   -0.320449
| 10> C     -2.745423    0.061771    0.682967
| 11> C     -1.897892   -0.062347   -0.591011
| 12> N      1.628799   -1.222087    0.123692
| 13> H      2.197669    2.088931    0.173539
| 14> H     -0.242156    2.128401   -0.334054
| 15> H      3.327219   -0.108700    0.457919
| 16> H     -0.166546   -2.150313   -0.242291
| 17> H     -2.523086   -0.747211    1.379701
| 18> H     -3.809451    0.022818    0.446195
| 19> H     -2.548064    1.004033    1.195978
| 20> H     -2.164854    0.740982   -1.281320
| 21> H     -2.142103   -0.999187   -1.095962
| 22> *
| 23>
| 24>                          ****END OF INPUT****

CARTESIAN COORDINATES (ANGSTROEM)
---------------------------------
  C      1.635229    1.169984    0.080429
  C      0.276934    1.186693   -0.201516
  C      2.267258   -0.057658    0.237114
  C      0.324908   -1.186647   -0.148460
  C     -0.416052   -0.015986   -0.320449
  C     -2.745423    0.061771    0.682967
  C     -1.897892   -0.062347   -0.591011
  N      1.628799   -1.222087    0.123692
  H      2.197669    2.088931    0.173539
  H     -0.242156    2.128401   -0.334054
  H      3.327219   -0.108700    0.457919
  H     -0.166546   -2.150313   -0.242291
  H     -2.523086   -0.747211    1.379701
  H     -3.809451    0.022818    0.446195
  H     -2.548064    1.004033    1.195978
  H     -2.164854    0.740982   -1.281320
  H     -2.142103   -0.999187   -1.095962

 Total Charge           Charge          ....    0
 Multiplicity           Mult            ....    1
 Number of Electrons    NEL             ....   58
 Basis Dimension        Dim             ....  265

ORBITAL ENERGIES
----------------

  NO   OCC          E(Eh)            E(eV)
   0   2.0000     -15.570147      -423.6852
   1   2.0000     -11.273785      -306.7753
   2   2.0000     -11.272945      -306.7524
   3   2.0000     -11.257368      -306.3286
   4   2.0000     -11.248165      -306.0781
   5   2.0000     -11.244250      -305.9716
   6   2.0000     -11.242141      -305.9142
   7   2.0000     -11.229263      -305.5638
   8   2.0000      -1.259615       -34.2759
   9   2.0000      -1.109311       -30.1859
  10   2.0000      -1.058567       -28.8051
  11   2.0000      -1.000893       -27.2357
  12   2.0000      -0.882841       -24.0233
  13   2.0000      -0.859658       -23.3925
  14   2.0000      -0.812929       -22.1209
  15   2.0000      -0.709870       -19.3165
  16   2.0000      -0.674475       -18.3534
  17   2.0000      -0.639650       -17.4057
  18   2.0000      -0.602769       -16.4022
  19   2.0000      -0.595745       -16.2111
  20   2.0000      -0.570678       -15.5289
  21   2.0000      -0.558487       -15.1972
  22   2.0000      -0.537544       -14.6273
  23   2.0000      -0.514531       -14.0011
  24   2.0000      -0.501839       -13.6557
  25   2.0000      -0.489969       -13.3327
  26   2.0000      -0.410961       -11.1828
  27   2.0000      -0.376774       -10.2526
  28   2.0000      -0.335581        -9.1316
  29   0.0000       0.032388         0.8813
  30   0.0000       0.038154         1.0382
  31   0.0000       0.045150         1.2286
  32   0.0000       0.049583         1.3492
  33   0.0000       0.055332         1.5057

MULLIKEN ATOMIC CHARGES
-----------------------
   0 C :    0.504238
   1 C :    0.126148
   2 C :    0.427069
   3 C :    0.640504
   4 C :    0.778398
   5 C :    0.322429
   6 C :    0.160564
   7 N :   -0.722039
   8 H :   -0.410310
   9 H :   -0.561853
  10 H :   -0.330075
  11 H :   -0.426412
  12 H :   -0.083782
  13 H :   -0.085629
  14 H :   -0.093713
  15 H :   -0.114004
  16 H :   -0.131534
Sum of atomic charges:   -0.0000000

LOEWDIN ATOMIC CHARGES
----------------------
   0 C :    0.018934
   1 C :    0.053612
   2 C :   -0.037104
   3 C :    0.004273
   4 C :   -0.179924
   5 C :    0.146339
   6 C :   -0.035420
   7 N :    0.032873
   8 H :   -0.001486
   9 H :    0.014501
  10 H :   -0.000981
  11 H :    0.007691
  12 H :   -0.015660
  13 H :   -0.019235
  14 H :   -0.018144
  15 H :    0.015396
  16 H :    0.014335

  Mayer bond orders larger than 0.100000
B(  0-C ,  1-C ) :   1.8353 B(  0-C ,  2-C ) :   1.2937 B(  0-C ,  4-C ) :  -0.1066
B(  0-C ,  7-N ) :  -0.1063 B(  0-C ,  8-H ) :   0.4461 B(  0-C ,  9-H ) :   0.1178
B(  1-C ,  2-C ) :   0.1833 B(  1-C ,  3-C ) :  -0.4293 B(  1-C ,  4-C ) :   1.3715
B(  1-C ,  6-C ) :  -0.2747 B(  1-C ,  8-H ) :   0.2767 B(  1-C ,  9-H ) :   0.1977
B(  2-C ,  7-N ) :   1.3769 B(  2-C , 10-H ) :   0.8516 B(  3-C ,  4-C ) :   1.5819
B(  3-C ,  6-C ) :  -0.1252 B(  3-C ,  7-N ) :   1.2689 B(  3-C , 11-H ) :   0.6325
B(  4-C ,  6-C ) :   1.2628 B(  4-C ,  9-H ) :   0.2942 B(  4-C , 16-H ) :   0.1074
B(  5-C ,  6-C ) :   1.2119 B(  5-C , 12-H ) :   0.9563 B(  5-C , 13-H ) :   0.9200
B(  5-C , 14-H ) :   0.9547 B(  6-C , 15-H ) :   0.8267 B(  6-C , 16-H ) :   0.7672

MP2 TOTAL ENERGY:     -325.943712083 Eh
FINAL SINGLE POINT ENERGY      -325.943712083483

DIPOLE MOMENT
-------------
                                X             Y             Z
Electronic contribution:      7.56044      -1.22848      -0.82546
Nuclear contribution   :     -8.19514       2.00520       0.71202
                        -----------------------------------------
Total Dipole Moment    :     -0.63470       0.77672      -0.11344
                        -----------------------------------------
Magnitude (a.u.)       :      1.00946
Magnitude (Debye)      :      2.56584

Rotational constants in cm-1:     0.156684     0.049410     0.041156
Rotational constants in MHz :  4697.280952  1481.277675  1233.811233

                             ****ORCA TERMINATED NORMALLY****
TOTAL RUN TIME: 0 days 0 hours 0 minutes 56 seconds 148 msec
