                         Program Version 5.0.3 -  RELEASE  -
|  1> !ri-mp2 aug-cc-pvdz aug-cc-pvdz/c tightscf
|  2> %pal nprocs 16 end
|  3>
|  4> * xyz 0 1
|  5> S     0.849093   -1.404452   -0.001478
|  6> N     2.043738   -0.263167    0.010200
|  7> N    -0.588772    2.219969   -0.067972
|  8> N    -2.942184   -0.775655    0.010632
|  9> C    -0.440552   -0.233849   -0.006414
| 10> C     0.105987    1.037713   -0.005426
| 11> C     1.531170    0.941099    0.004087
| 12> C    -1.808893   -0.550499   -0.000160
| 13> H    -0.122155    3.047725    0.260526
| 14> H    -1.574094    2.192039    0.137048
| 15> H     2.195028    1.796650    0.003525
| 16> *
| 17>
| 18>                          ****END OF INPUT****

CARTESIAN COORDINATES (ANGSTROEM)
---------------------------------
  S      0.849093   -1.404452   -0.001478
  N      2.043738   -0.263167    0.010200
  N     -0.588772    2.219969   -0.067972
  N     -2.942184   -0.775655    0.010632
  C     -0.440552   -0.233849   -0.006414
  C      0.105987    1.037713   -0.005426
  C      1.531170    0.941099    0.004087
  C     -1.808893   -0.550499   -0.000160
  H     -0.122155    3.047725    0.260526
  H     -1.574094    2.192039    0.137048
  H      2.195028    1.796650    0.003525

 Total Charge           Charge          ....    0
 Multiplicity           Mult            ....    1
 Number of Electrons    NEL             ....   64
 Basis Dimension        Dim             ....  215

ORBITAL ENERGIES
----------------

  NO   OCC          E(Eh)            E(eV)
   0   2.0000     -92.036927     -2504.4521
   1   2.0000     -15.637282      -425.5121
   2   2.0000     -15.617008      -424.9604
   3   2.0000     -15.599118      -424.4736
   4   2.0000     -11.339433      -308.5617
   5   2.0000     -11.315709      -307.9161
   6   2.0000     -11.311792      -307.8095
   7   2.0000     -11.303453      -307.5826
   8   2.0000      -9.035558      -245.8700
   9   2.0000      -6.717276      -182.7864
  10   2.0000      -6.715813      -182.7466
  11   2.0000      -6.713771      -182.6910
  12   2.0000      -1.320085       -35.9213
  13   2.0000      -1.257512       -34.2187
  14   2.0000      -1.239238       -33.7214
  15   2.0000      -1.092896       -29.7392
  16   2.0000      -1.022239       -27.8165
  17   2.0000      -0.894412       -24.3382
  18   2.0000      -0.821657       -22.3584
  19   2.0000      -0.764698       -20.8085
  20   2.0000      -0.719776       -19.5861
  21   2.0000      -0.655206       -17.8291
  22   2.0000      -0.633768       -17.2457
  23   2.0000      -0.613739       -16.7007
  24   2.0000      -0.572702       -15.5840
  25   2.0000      -0.531034       -14.4502
  26   2.0000      -0.516821       -14.0634
  27   2.0000      -0.511340       -13.9143
  28   2.0000      -0.500170       -13.6103
  29   2.0000      -0.460104       -12.5201
  30   2.0000      -0.386961       -10.5298
  31   2.0000      -0.335875        -9.1396
  32   0.0000       0.021303         0.5797
  33   0.0000       0.041486         1.1289
  34   0.0000       0.046956         1.2777
  35   0.0000       0.059926         1.6307
  36   0.0000       0.074392         2.0243

MULLIKEN ATOMIC CHARGES
-----------------------
   0 S :    0.657036
   1 N :   -1.004640
   2 N :   -0.513540
   3 N :   -0.212150
   4 C :    1.221187
   5 C :    0.027273
   6 C :    1.051143
   7 C :   -0.946910
   8 H :   -0.054558
   9 H :    0.014365
  10 H :   -0.239206
Sum of atomic charges:   -0.0000000

LOEWDIN ATOMIC CHARGES
----------------------
   0 S :    0.998616
   1 N :   -0.290629
   2 N :    0.264124
   3 N :    0.089276
   4 C :   -0.465735
   5 C :   -0.282438
   6 C :   -0.080336
   7 C :   -0.204649
   8 H :   -0.017983
   9 H :   -0.015093
  10 H :    0.004847

  Mayer bond orders larger than 0.100000
B(  0-S ,  1-N ) :   0.9034 B(  0-S ,  4-C ) :   0.7299 B(  0-S ,  5-C ) :   0.1616
B(  0-S ,  6-C ) :  -0.1328 B(  1-N ,  5-C ) :   0.1408 B(  1-N ,  6-C ) :   1.2850
B(  2-N ,  4-C ) :  -0.1136 B(  2-N ,  5-C ) :   0.8508 B(  2-N ,  8-H ) :   1.1938
B(  2-N ,  9-H ) :   1.1250 B(  3-N ,  7-C ) :   2.5263 B(  4-C ,  5-C ) :   1.3721
B(  4-C ,  6-C ) :   0.1675 B(  4-C ,  7-C ) :  -0.2842 B(  4-C , 10-H ) :   0.1146
B(  5-C ,  6-C ) :   1.2679 B(  5-C ,  7-C ) :   0.2996 B(  5-C ,  8-H ) :  -0.1101
B(  6-C ,  7-C ) :  -0.1051 B(  6-C , 10-H ) :   0.7427

MP2 TOTAL ENERGY:     -715.282116084 Eh
FINAL SINGLE POINT ENERGY      -715.282116084368

DIPOLE MOMENT
-------------
                                X             Y             Z
Electronic contribution:      0.32159      -5.23886      -0.08898
Nuclear contribution   :      0.44549       6.80625       0.38501
                        -----------------------------------------
Total Dipole Moment    :      0.76708       1.56739       0.29602
                        -----------------------------------------
Magnitude (a.u.)       :      1.76996
Magnitude (Debye)      :      4.49888

Rotational constants in cm-1:     0.090268     0.059115     0.035744
Rotational constants in MHz :  2706.151700  1772.211939  1071.571396

                             ****ORCA TERMINATED NORMALLY****
TOTAL RUN TIME: 0 days 0 hours 0 minutes 50 seconds 105 msec
