                         Program Version 5.0.3 -  RELEASE  -
|  1> !ri-mp2 aug-cc-pvdz aug-cc-pvdz/c tightscf
|  2> %pal nprocs 16 end
|  3>
|  4> * xyz 0 1
|  5> S      1.535241    1.076974    0.000006
|  6> S     -2.578025   -0.232305    0.000005
|  7> O      2.214634   -1.515497   -0.000019
|  8> N     -0.028314   -1.003049   -0.000009
|  9> C     -0.279530    1.342985    0.000012
| 10> C     -0.953928   -0.011648    0.000002
| 11> C      1.338317   -0.698704   -0.000010
| 12> H     -0.577310    1.904471   -0.882290
| 13> H     -0.577306    1.904457    0.882325
| 14> H     -0.308867   -1.974111   -0.000017
| 15> *
| 16>
| 17>                          ****END OF INPUT****

CARTESIAN COORDINATES (ANGSTROEM)
---------------------------------
  S      1.535241    1.076974    0.000006
  S     -2.578025   -0.232305    0.000005
  O      2.214634   -1.515497   -0.000019
  N     -0.028314   -1.003049   -0.000009
  C     -0.279530    1.342985    0.000012
  C     -0.953928   -0.011648    0.000002
  C      1.338317   -0.698704   -0.000010
  H     -0.577310    1.904471   -0.882290
  H     -0.577306    1.904457    0.882325
  H     -0.308867   -1.974111   -0.000017

 Total Charge           Charge          ....    0
 Multiplicity           Mult            ....    1
 Number of Electrons    NEL             ....   68
 Basis Dimension        Dim             ....  196

ORBITAL ENERGIES
----------------

  NO   OCC          E(Eh)            E(eV)
   0   2.0000     -92.010766     -2503.7402
   1   2.0000     -91.943463     -2501.9088
   2   2.0000     -20.592912      -560.3616
   3   2.0000     -15.668382      -426.3584
   4   2.0000     -11.435209      -311.1678
   5   2.0000     -11.400034      -310.2107
   6   2.0000     -11.322913      -308.1121
   7   2.0000      -9.013410      -245.2674
   8   2.0000      -8.946788      -243.4545
   9   2.0000      -6.694930      -182.1783
  10   2.0000      -6.693850      -182.1489
  11   2.0000      -6.691605      -182.0878
  12   2.0000      -6.629011      -180.3845
  13   2.0000      -6.626484      -180.3158
  14   2.0000      -6.625064      -180.2772
  15   2.0000      -1.454416       -39.5767
  16   2.0000      -1.336465       -36.3671
  17   2.0000      -1.116187       -30.3730
  18   2.0000      -1.071588       -29.1594
  19   2.0000      -0.939076       -25.5535
  20   2.0000      -0.863405       -23.4945
  21   2.0000      -0.842477       -22.9250
  22   2.0000      -0.711721       -19.3669
  23   2.0000      -0.683609       -18.6020
  24   2.0000      -0.649006       -17.6603
  25   2.0000      -0.635215       -17.2851
  26   2.0000      -0.619530       -16.8583
  27   2.0000      -0.571920       -15.5627
  28   2.0000      -0.525249       -14.2927
  29   2.0000      -0.511922       -13.9301
  30   2.0000      -0.467904       -12.7323
  31   2.0000      -0.411909       -11.2086
  32   2.0000      -0.370200       -10.0737
  33   2.0000      -0.360024        -9.7967
  34   0.0000       0.030596         0.8326
  35   0.0000       0.042665         1.1610
  36   0.0000       0.047636         1.2962
  37   0.0000       0.058698         1.5973
  38   0.0000       0.067070         1.8251

MULLIKEN ATOMIC CHARGES
-----------------------
   0 S :    0.672931
   1 S :    0.031758
   2 O :   -0.642931
   3 N :   -0.521538
   4 C :   -0.294230
   5 C :    0.212393
   6 C :    0.430010
   7 H :    0.091898
   8 H :    0.091899
   9 H :   -0.072190
Sum of atomic charges:    0.0000000

LOEWDIN ATOMIC CHARGES
----------------------
   0 S :    0.931995
   1 S :    0.596278
   2 O :    0.011632
   3 N :    0.029999
   4 C :   -0.252799
   5 C :   -0.742952
   6 C :   -0.570360
   7 H :   -0.019578
   8 H :   -0.019578
   9 H :    0.035363

  Mayer bond orders larger than 0.100000
B(  0-S ,  4-C ) :   1.0315 B(  0-S ,  6-C ) :   1.0156 B(  1-S ,  5-C ) :   1.8456
B(  2-O ,  6-C ) :   1.5051 B(  3-N ,  5-C ) :   0.8216 B(  3-N ,  6-C ) :   1.0062
B(  3-N ,  9-H ) :   1.2493 B(  4-C ,  5-C ) :   1.1846 B(  4-C ,  6-C ) :   0.1015
B(  4-C ,  7-H ) :   0.9227 B(  4-C ,  8-H ) :   0.9227 B(  5-C ,  6-C ) :  -0.1378
B(  5-C ,  9-H ) :  -0.1383 B(  6-C ,  9-H ) :  -0.1034

MP2 TOTAL ENERGY:    -1040.826874935 Eh
FINAL SINGLE POINT ENERGY     -1040.826874935224

DIPOLE MOMENT
-------------
                                X             Y             Z
Electronic contribution:      1.23807      -0.96477      -0.00001
Nuclear contribution   :     -1.33916       1.70586       0.00002
                        -----------------------------------------
Total Dipole Moment    :     -0.10109       0.74109       0.00001
                        -----------------------------------------
Magnitude (a.u.)       :      0.74795
Magnitude (Debye)      :      1.90113

Rotational constants in cm-1:     0.129617     0.041847     0.031822
Rotational constants in MHz :  3885.819497  1254.551550   953.986542

                             ****ORCA TERMINATED NORMALLY****
TOTAL RUN TIME: 0 days 0 hours 0 minutes 36 seconds 806 msec
