                         Program Version 5.0.3 -  RELEASE  -
|  1> !ri-mp2 aug-cc-pvdz aug-cc-pvdz/c tightscf
|  2> %pal nprocs 16 end
|  3>
|  4> * xyz 0 1
|  5> Cl     2.401410   -0.258167   -0.000042
|  6> O     -2.704169   -0.697729    0.000040
|  7> N     -1.435056   -0.167750    0.000025
|  8> N     -1.265034    1.139232    0.000023
|  9> C      0.703455    0.056232   -0.000012
| 10> C     -0.307179   -0.895635    0.000004
| 11> C      0.067053    1.299981    0.000002
| 12> H     -3.268039    0.091657    0.000098
| 13> H     -0.301932   -1.969154    0.000002
| 14> H      0.500000    2.284319   -0.000003
| 15> *
| 16>
| 17>                          ****END OF INPUT****

CARTESIAN COORDINATES (ANGSTROEM)
---------------------------------
  Cl     2.401410   -0.258167   -0.000042
  O     -2.704169   -0.697729    0.000040
  N     -1.435056   -0.167750    0.000025
  N     -1.265034    1.139232    0.000023
  C      0.703455    0.056232   -0.000012
  C     -0.307179   -0.895635    0.000004
  C      0.067053    1.299981    0.000002
  H     -3.268039    0.091657    0.000098
  H     -0.301932   -1.969154    0.000002
  H      0.500000    2.284319   -0.000003

 Total Charge           Charge          ....    0
 Multiplicity           Mult            ....    1
 Number of Electrons    NEL             ....   60
 Basis Dimension        Dim             ....  192

ORBITAL ENERGIES
----------------

  NO   OCC          E(Eh)            E(eV)
   0   2.0000    -104.850711     -2853.1329
   1   2.0000     -20.662716      -562.2611
   2   2.0000     -15.731862      -428.0857
   3   2.0000     -15.624135      -425.1543
   4   2.0000     -11.307074      -307.6811
   5   2.0000     -11.301265      -307.5230
   6   2.0000     -11.283518      -307.0401
   7   2.0000     -10.576202      -287.7931
   8   2.0000      -8.044166      -218.8929
   9   2.0000      -8.040695      -218.7984
  10   2.0000      -8.040504      -218.7933
  11   2.0000      -1.520548       -41.3762
  12   2.0000      -1.358575       -36.9687
  13   2.0000      -1.164325       -31.6829
  14   2.0000      -1.113922       -30.3114
  15   2.0000      -1.028922       -27.9984
  16   2.0000      -0.856038       -23.2940
  17   2.0000      -0.821045       -22.3418
  18   2.0000      -0.756435       -20.5836
  19   2.0000      -0.703331       -19.1386
  20   2.0000      -0.701833       -19.0979
  21   2.0000      -0.623735       -16.9727
  22   2.0000      -0.607113       -16.5204
  23   2.0000      -0.588444       -16.0124
  24   2.0000      -0.566440       -15.4136
  25   2.0000      -0.506336       -13.7781
  26   2.0000      -0.498916       -13.5762
  27   2.0000      -0.457983       -12.4623
  28   2.0000      -0.373036       -10.1508
  29   2.0000      -0.348201        -9.4750
  30   0.0000       0.034929         0.9505
  31   0.0000       0.044184         1.2023
  32   0.0000       0.049127         1.3368
  33   0.0000       0.084125         2.2892
  34   0.0000       0.088425         2.4062

MULLIKEN ATOMIC CHARGES
-----------------------
   0 Cl:   -0.209449
   1 O :   -0.736976
   2 N :    0.067405
   3 N :   -0.544219
   4 C :   -0.107444
   5 C :    0.909971
   6 C :    0.894237
   7 H :    0.201537
   8 H :   -0.257016
   9 H :   -0.218047
Sum of atomic charges:   -0.0000000

LOEWDIN ATOMIC CHARGES
----------------------
   0 Cl:    0.562067
   1 O :    0.213900
   2 N :   -0.245802
   3 N :    0.059039
   4 C :   -0.597725
   5 C :    0.077808
   6 C :   -0.047396
   7 H :   -0.029717
   8 H :    0.012982
   9 H :   -0.005156

  Mayer bond orders larger than 0.100000
B(  0-Cl,  4-C ) :   0.9818 B(  0-Cl,  5-C ) :  -0.1098 B(  0-Cl,  6-C ) :  -0.1171
B(  1-O ,  2-N ) :   0.5282 B(  1-O ,  5-C ) :  -0.1875 B(  1-O ,  7-H ) :   1.0907
B(  2-N ,  3-N ) :   0.9079 B(  2-N ,  5-C ) :   1.5959 B(  2-N ,  6-C ) :  -0.2486
B(  2-N ,  8-H ) :   0.1112 B(  3-N ,  4-C ) :   0.1850 B(  3-N ,  5-C ) :  -0.1385
B(  3-N ,  6-C ) :   1.2947 B(  4-C ,  5-C ) :   1.4317 B(  4-C ,  6-C ) :   1.2578
B(  5-C ,  6-C ) :   0.2246 B(  5-C ,  8-H ) :   0.6430 B(  6-C ,  8-H ) :   0.1303
B(  6-C ,  9-H ) :   0.7480

MP2 TOTAL ENERGY:     -759.648199485 Eh
FINAL SINGLE POINT ENERGY      -759.648199484977

DIPOLE MOMENT
-------------
                                X             Y             Z
Electronic contribution:      5.71473      -0.87673      -0.00011
Nuclear contribution   :     -6.24068       0.73290       0.00015
                        -----------------------------------------
Total Dipole Moment    :     -0.52595      -0.14383       0.00004
                        -----------------------------------------
Magnitude (a.u.)       :      0.54526
Magnitude (Debye)      :      1.38595

Rotational constants in cm-1:     0.248450     0.043158     0.036771
Rotational constants in MHz :  7448.342655  1293.849570  1102.359076

                             ****ORCA TERMINATED NORMALLY****
TOTAL RUN TIME: 0 days 0 hours 0 minutes 37 seconds 891 msec
