                         Program Version 5.0.3 -  RELEASE  -
|  1> !ri-mp2 aug-cc-pvdz aug-cc-pvdz/c tightscf
|  2> %pal nprocs 16 end
|  3> %maxcore 3800
|  4>
|  5> * xyz 0 1
|  6> C     -1.115443   -0.498903    0.000000
|  7> C      1.250967   -0.260855    0.000000
|  8> C     -0.986607   -1.880476    0.000000
|  9> C      1.399896   -1.643053    0.000000
| 10> C     -0.004568    0.350470    0.000000
| 11> C      0.278520   -2.460677    0.000000
| 12> C     -0.986607    2.295203    1.257771
| 13> C     -0.986607    2.295203   -1.257771
| 14> C      1.138805    2.629595    0.000000
| 15> C     -0.198372    1.873754    0.000000
| 16> O      0.472057   -3.816729    0.000000
| 17> H     -2.113690   -0.082584    0.000000
| 18> H      2.147758    0.340453    0.000000
| 19> H     -1.871422   -2.506840    0.000000
| 20> H      2.382431   -2.094241    0.000000
| 21> H     -1.134610    3.376937    1.269176
| 22> H     -1.969239    1.825058    1.295308
| 23> H     -0.449010    2.016368    2.165116
| 24> H     -1.969239    1.825058   -1.295308
| 25> H     -1.134610    3.376937   -1.269176
| 26> H     -0.449010    2.016368   -2.165116
| 27> H      0.952247    3.704407    0.000000
| 28> H      1.735409    2.400064    0.883926
| 29> H      1.735409    2.400064   -0.883926
| 30> H     -0.378786   -4.265777    0.000000
| 31> *
| 32>
| 33>                          ****END OF INPUT****

CARTESIAN COORDINATES (ANGSTROEM)
---------------------------------
  C     -1.115443   -0.498903    0.000000
  C      1.250967   -0.260855    0.000000
  C     -0.986607   -1.880476    0.000000
  C      1.399896   -1.643053    0.000000
  C     -0.004568    0.350470    0.000000
  C      0.278520   -2.460677    0.000000
  C     -0.986607    2.295203    1.257771
  C     -0.986607    2.295203   -1.257771
  C      1.138805    2.629595    0.000000
  C     -0.198372    1.873754    0.000000
  O      0.472057   -3.816729    0.000000
  H     -2.113690   -0.082584    0.000000
  H      2.147758    0.340453    0.000000
  H     -1.871422   -2.506840    0.000000
  H      2.382431   -2.094241    0.000000
  H     -1.134610    3.376937    1.269176
  H     -1.969239    1.825058    1.295308
  H     -0.449010    2.016368    2.165116
  H     -1.969239    1.825058   -1.295308
  H     -1.134610    3.376937   -1.269176
  H     -0.449010    2.016368   -2.165116
  H      0.952247    3.704407    0.000000
  H      1.735409    2.400064    0.883926
  H      1.735409    2.400064   -0.883926
  H     -0.378786   -4.265777    0.000000

 Total Charge           Charge          ....    0
 Multiplicity           Mult            ....    1
 Number of Electrons    NEL             ....   82
 Basis Dimension        Dim             ....  379

ORBITAL ENERGIES
----------------

  NO   OCC          E(Eh)            E(eV)
   0   2.0000     -20.597205      -560.4784
   1   2.0000     -11.302412      -307.5543
   2   2.0000     -11.247285      -306.0542
   3   2.0000     -11.240513      -305.8699
   4   2.0000     -11.237843      -305.7973
   5   2.0000     -11.236916      -305.7720
   6   2.0000     -11.234000      -305.6927
   7   2.0000     -11.229515      -305.5706
   8   2.0000     -11.218751      -305.2777
   9   2.0000     -11.218214      -305.2631
  10   2.0000     -11.218197      -305.2627
  11   2.0000      -1.405231       -38.2383
  12   2.0000      -1.158719       -31.5303
  13   2.0000      -1.096855       -29.8470
  14   2.0000      -1.020633       -27.7728
  15   2.0000      -0.993432       -27.0327
  16   2.0000      -0.935013       -25.4430
  17   2.0000      -0.932555       -25.3761
  18   2.0000      -0.846936       -23.0463
  19   2.0000      -0.831455       -22.6250
  20   2.0000      -0.754571       -20.5329
  21   2.0000      -0.734107       -19.9761
  22   2.0000      -0.672726       -18.3058
  23   2.0000      -0.644560       -17.5394
  24   2.0000      -0.620566       -16.8865
  25   2.0000      -0.600929       -16.3521
  26   2.0000      -0.593146       -16.1403
  27   2.0000      -0.588835       -16.0230
  28   2.0000      -0.586296       -15.9539
  29   2.0000      -0.577052       -15.7024
  30   2.0000      -0.548304       -14.9201
  31   2.0000      -0.545084       -14.8325
  32   2.0000      -0.527675       -14.3588
  33   2.0000      -0.514073       -13.9886
  34   2.0000      -0.497716       -13.5436
  35   2.0000      -0.483225       -13.1492
  36   2.0000      -0.463034       -12.5998
  37   2.0000      -0.457307       -12.4439
  38   2.0000      -0.452615       -12.3163
  39   2.0000      -0.339482        -9.2378
  40   2.0000      -0.305102        -8.3023
  41   0.0000       0.031821         0.8659
  42   0.0000       0.037989         1.0337
  43   0.0000       0.042636         1.1602
  44   0.0000       0.050141         1.3644
  45   0.0000       0.051200         1.3932

MULLIKEN ATOMIC CHARGES
-----------------------
   0 C :    0.454028
   1 C :    1.194882
   2 C :    0.052175
   3 C :    0.218787
   4 C :    1.634796
   5 C :    0.690402
   6 C :    1.046160
   7 C :    1.046160
   8 C :    1.235826
   9 C :   -3.524244
  10 O :   -0.912930
  11 H :   -0.734891
  12 H :   -0.854141
  13 H :   -0.585779
  14 H :   -0.492011
  15 H :   -0.062291
  16 H :   -0.123928
  17 H :   -0.070382
  18 H :   -0.123928
  19 H :   -0.062291
  20 H :   -0.070382
  21 H :   -0.150304
  22 H :    0.014868
  23 H :    0.014868
  24 H :    0.164548
Sum of atomic charges:   -0.0000000

LOEWDIN ATOMIC CHARGES
----------------------
   0 C :    0.047913
   1 C :    0.051492
   2 C :    0.047939
   3 C :    0.058493
   4 C :   -0.125365
   5 C :   -0.231167
   6 C :    0.180110
   7 C :    0.180110
   8 C :    0.162185
   9 C :   -0.445479
  10 O :    0.179610
  11 H :    0.003164
  12 H :   -0.005918
  13 H :    0.001044
  14 H :    0.008057
  15 H :   -0.008135
  16 H :   -0.016301
  17 H :   -0.001966
  18 H :   -0.016301
  19 H :   -0.008135
  20 H :   -0.001966
  21 H :   -0.007753
  22 H :   -0.004267
  23 H :   -0.004267
  24 H :   -0.043096

  Mayer bond orders larger than 0.100000
B(  0-C ,  1-C ) :  -0.4212 B(  0-C ,  2-C ) :   1.9554 B(  0-C ,  3-C ) :  -0.2119
B(  0-C ,  4-C ) :   0.7122 B(  0-C ,  8-C ) :  -0.1166 B(  0-C ,  9-C ) :  -0.2842
B(  0-C , 10-O ) :   0.1163 B(  0-C , 11-H ) :  -0.5708 B(  0-C , 13-H ) :   0.4177
B(  1-C ,  2-C ) :   0.3977 B(  1-C ,  3-C ) :   1.4519 B(  1-C ,  4-C ) :   2.6292
B(  1-C ,  5-C ) :  -0.1197 B(  1-C ,  8-C ) :  -0.1251 B(  1-C ,  9-C ) :  -0.8045
B(  1-C , 12-H ) :  -1.7368 B(  1-C , 14-H ) :   0.3316 B(  1-C , 22-H ) :   0.1211
B(  1-C , 23-H ) :   0.1211 B(  2-C ,  3-C ) :   0.1388 B(  2-C ,  4-C ) :  -1.1205
B(  2-C ,  5-C ) :   1.5127 B(  2-C ,  6-C ) :   0.1670 B(  2-C ,  7-C ) :   0.1670
B(  2-C ,  9-C ) :   0.4678 B(  2-C , 10-O ) :   0.2613 B(  2-C , 11-H ) :   0.3388
B(  2-C , 12-H ) :   0.1487 B(  2-C , 13-H ) :  -0.1082 B(  3-C ,  4-C ) :  -0.4790
B(  3-C ,  5-C ) :   1.6386 B(  3-C ,  8-C ) :   0.1279 B(  3-C ,  9-C ) :   0.2352
B(  3-C , 10-O ) :  -0.1192 B(  3-C , 12-H ) :   0.7831 B(  3-C , 14-H ) :  -0.2687
B(  4-C ,  5-C ) :   0.6416 B(  4-C ,  9-C ) :   0.5689 B(  4-C , 11-H ) :   0.9053
B(  4-C , 12-H ) :   1.2342 B(  4-C , 13-H ) :  -0.1582 B(  4-C , 22-H ) :  -0.1177
B(  4-C , 23-H ) :  -0.1177 B(  5-C , 11-H ) :  -0.1719 B(  5-C , 12-H ) :  -0.3176
B(  5-C , 13-H ) :   0.3494 B(  5-C , 14-H ) :   0.5929 B(  5-C , 24-H ) :  -0.1538
B(  6-C ,  7-C ) :  -0.2055 B(  6-C ,  8-C ) :  -0.1450 B(  6-C ,  9-C ) :   1.3912
B(  6-C , 15-H ) :   0.7036 B(  6-C , 16-H ) :   0.8012 B(  6-C , 17-H ) :   0.7982
B(  7-C ,  8-C ) :  -0.1450 B(  7-C ,  9-C ) :   1.3912 B(  7-C , 18-H ) :   0.8012
B(  7-C , 19-H ) :   0.7036 B(  7-C , 20-H ) :   0.7982 B(  8-C ,  9-C ) :   1.5825
B(  8-C , 21-H ) :   0.6079 B(  8-C , 22-H ) :   0.7008 B(  8-C , 23-H ) :   0.7008
B(  9-C , 11-H ) :  -0.1977 B(  9-C , 12-H ) :   0.1940 B(  9-C , 15-H ) :   0.2693
B(  9-C , 16-H ) :   0.1846 B(  9-C , 17-H ) :   0.1759 B(  9-C , 18-H ) :   0.1846
B(  9-C , 19-H ) :   0.2693 B(  9-C , 20-H ) :   0.1759 B(  9-C , 21-H ) :   0.3331
B(  9-C , 22-H ) :   0.1144 B(  9-C , 23-H ) :   0.1144 B( 10-O , 24-H ) :   1.0653
B( 15-H , 16-H ) :  -0.1114 B( 15-H , 17-H ) :  -0.1140 B( 18-H , 19-H ) :  -0.1114
B( 19-H , 20-H ) :  -0.1140 B( 21-H , 22-H ) :  -0.1237 B( 21-H , 23-H ) :  -0.1237
B( 22-H , 23-H ) :  -0.1244

MP2 TOTAL ENERGY:     -463.372485583 Eh
FINAL SINGLE POINT ENERGY      -463.372485583230

DIPOLE MOMENT
-------------
                                X             Y             Z
Electronic contribution:      2.01616     -14.42560       0.00000
Nuclear contribution   :     -2.57207      14.63132       0.00000
                        -----------------------------------------
Total Dipole Moment    :     -0.55590       0.20572       0.00000
                        -----------------------------------------
Magnitude (a.u.)       :      0.59275
Magnitude (Debye)      :      1.50665

Rotational constants in cm-1:     0.085273     0.021290     0.019196
Rotational constants in MHz :  2556.407227   638.261078   575.483676

                             ****ORCA TERMINATED NORMALLY****
TOTAL RUN TIME: 0 days 0 hours 2 minutes 49 seconds 876 msec
