                         Program Version 5.0.3 -  RELEASE  -
|  1> !ri-mp2 aug-cc-pvdz aug-cc-pvdz/c tightscf
|  2> %pal nprocs 16 end
|  3> %maxcore 3800
|  4>
|  5> * xyz 0 1
|  6> C     -0.358008   -1.192497   -0.280254
|  7> C     -0.343198    1.192831   -0.282150
|  8> C     -1.721958   -1.189747   -0.010477
|  9> C     -1.704067    1.215219   -0.013027
| 10> C      0.359997   -0.006025   -0.420220
| 11> C     -2.398815    0.017812    0.125458
| 12> C      4.192562   -0.004905    0.338317
| 13> C      1.847021   -0.015398   -0.674427
| 14> C      2.689971    0.002765    0.610921
| 15> O     -3.741651    0.088900    0.388088
| 16> H      0.152278   -2.141809   -0.388206
| 17> H      0.183030    2.133209   -0.392492
| 18> H     -2.257935   -2.126629    0.088883
| 19> H     -2.239210    2.149244    0.086996
| 20> H      4.489024   -0.895456   -0.219839
| 21> H      4.492677    0.865907   -0.248259
| 22> H      4.763947    0.008939    1.267358
| 23> H      2.112002   -0.900851   -1.258622
| 24> H      2.117837    0.849206   -1.286581
| 25> H      2.424357    0.886004    1.197601
| 26> H      2.420111   -0.860563    1.224708
| 27> H     -4.105938   -0.798727    0.458901
| 28> *
| 29>
| 30>                          ****END OF INPUT****

CARTESIAN COORDINATES (ANGSTROEM)
---------------------------------
  C     -0.358008   -1.192497   -0.280254
  C     -0.343198    1.192831   -0.282150
  C     -1.721958   -1.189747   -0.010477
  C     -1.704067    1.215219   -0.013027
  C      0.359997   -0.006025   -0.420220
  C     -2.398815    0.017812    0.125458
  C      4.192562   -0.004905    0.338317
  C      1.847021   -0.015398   -0.674427
  C      2.689971    0.002765    0.610921
  O     -3.741651    0.088900    0.388088
  H      0.152278   -2.141809   -0.388206
  H      0.183030    2.133209   -0.392492
  H     -2.257935   -2.126629    0.088883
  H     -2.239210    2.149244    0.086996
  H      4.489024   -0.895456   -0.219839
  H      4.492677    0.865907   -0.248259
  H      4.763947    0.008939    1.267358
  H      2.112002   -0.900851   -1.258622
  H      2.117837    0.849206   -1.286581
  H      2.424357    0.886004    1.197601
  H      2.420111   -0.860563    1.224708
  H     -4.105938   -0.798727    0.458901

 Total Charge           Charge          ....    0
 Multiplicity           Mult            ....    1
 Number of Electrons    NEL             ....   74
 Basis Dimension        Dim             ....  338

ORBITAL ENERGIES
----------------

  NO   OCC          E(Eh)            E(eV)
   0   2.0000     -20.597402      -560.4838
   1   2.0000     -11.303460      -307.5828
   2   2.0000     -11.241264      -305.8903
   3   2.0000     -11.239559      -305.8440
   4   2.0000     -11.237315      -305.7829
   5   2.0000     -11.234491      -305.7060
   6   2.0000     -11.231650      -305.6287
   7   2.0000     -11.229411      -305.5678
   8   2.0000     -11.225420      -305.4592
   9   2.0000     -11.219215      -305.2904
  10   2.0000      -1.405462       -38.2446
  11   2.0000      -1.155789       -31.4506
  12   2.0000      -1.072785       -29.1920
  13   2.0000      -1.020768       -27.7765
  14   2.0000      -1.010015       -27.4839
  15   2.0000      -0.921843       -25.0846
  16   2.0000      -0.847647       -23.0657
  17   2.0000      -0.824011       -22.4225
  18   2.0000      -0.790645       -21.5145
  19   2.0000      -0.733834       -19.9686
  20   2.0000      -0.675090       -18.3701
  21   2.0000      -0.649177       -17.6650
  22   2.0000      -0.625170       -17.0117
  23   2.0000      -0.605181       -16.4678
  24   2.0000      -0.587897       -15.9975
  25   2.0000      -0.587528       -15.9874
  26   2.0000      -0.576514       -15.6877
  27   2.0000      -0.565669       -15.3926
  28   2.0000      -0.543214       -14.7816
  29   2.0000      -0.525440       -14.2979
  30   2.0000      -0.492205       -13.3936
  31   2.0000      -0.489333       -13.3154
  32   2.0000      -0.474662       -12.9162
  33   2.0000      -0.468072       -12.7369
  34   2.0000      -0.460995       -12.5443
  35   2.0000      -0.340481        -9.2650
  36   2.0000      -0.304962        -8.2984
  37   0.0000       0.032379         0.8811
  38   0.0000       0.038181         1.0390
  39   0.0000       0.042440         1.1548
  40   0.0000       0.048204         1.3117
  41   0.0000       0.051431         1.3995

MULLIKEN ATOMIC CHARGES
-----------------------
   0 C :    0.198246
   1 C :    0.550874
   2 C :    0.211551
   3 C :    0.386841
   4 C :    1.472558
   5 C :    0.559964
   6 C :    0.402982
   7 C :    0.172687
   8 C :    0.208717
   9 O :   -0.896238
  10 H :   -0.643091
  11 H :   -0.678354
  12 H :   -0.582415
  13 H :   -0.494346
  14 H :   -0.063975
  15 H :   -0.066034
  16 H :   -0.072483
  17 H :   -0.229273
  18 H :   -0.217695
  19 H :   -0.191514
  20 H :   -0.192899
  21 H :    0.163897
Sum of atomic charges:    0.0000000

LOEWDIN ATOMIC CHARGES
----------------------
   0 C :    0.044991
   1 C :    0.048861
   2 C :    0.043083
   3 C :    0.054122
   4 C :   -0.185315
   5 C :   -0.231867
   6 C :    0.131834
   7 C :   -0.007726
   8 C :   -0.061289
   9 O :    0.178655
  10 H :    0.009421
  11 H :    0.010395
  12 H :   -0.000330
  13 H :    0.007436
  14 H :   -0.019900
  15 H :   -0.019770
  16 H :   -0.021198
  17 H :    0.017902
  18 H :    0.018320
  19 H :    0.012731
  20 H :    0.012743
  21 H :   -0.043099

  Mayer bond orders larger than 0.100000
B(  0-C ,  1-C ) :  -0.9064 B(  0-C ,  2-C ) :   2.1105 B(  0-C ,  4-C ) :   1.8029
B(  0-C ,  5-C ) :  -0.1486 B(  0-C ,  7-C ) :  -0.3837 B(  0-C , 10-H ) :  -0.2350
B(  0-C , 12-H ) :   0.3488 B(  1-C ,  2-C ) :   0.2358 B(  1-C ,  3-C ) :   2.1420
B(  1-C ,  4-C ) :   1.9571 B(  1-C ,  5-C ) :  -0.1553 B(  1-C ,  7-C ) :  -0.4073
B(  1-C , 11-H ) :  -0.5214 B(  1-C , 13-H ) :   0.3212 B(  1-C , 19-H ) :   0.1018
B(  2-C ,  4-C ) :  -0.6336 B(  2-C ,  5-C ) :   1.4788 B(  2-C ,  7-C ) :   0.2665
B(  2-C ,  9-O ) :   0.1897 B(  2-C , 10-H ) :   0.3049 B(  2-C , 11-H ) :   0.1019
B(  3-C ,  4-C ) :  -0.6940 B(  3-C ,  5-C ) :   1.6759 B(  3-C ,  7-C ) :   0.2650
B(  3-C , 11-H ) :   0.4527 B(  3-C , 13-H ) :  -0.2666 B(  4-C ,  5-C ) :   0.5590
B(  4-C ,  7-C ) :   1.3728 B(  4-C ,  8-C ) :  -0.2231 B(  4-C , 10-H ) :   0.6120
B(  4-C , 11-H ) :   0.7315 B(  4-C , 12-H ) :  -0.1037 B(  4-C , 13-H ) :  -0.1437
B(  4-C , 19-H ) :  -0.1291 B(  4-C , 20-H ) :  -0.1255 B(  5-C , 10-H ) :  -0.1370
B(  5-C , 11-H ) :  -0.2178 B(  5-C , 12-H ) :   0.4156 B(  5-C , 13-H ) :   0.6497
B(  5-C , 21-H ) :  -0.1309 B(  6-C ,  8-C ) :   1.1608 B(  6-C , 14-H ) :   0.9450
B(  6-C , 15-H ) :   0.9440 B(  6-C , 16-H ) :   0.9080 B(  7-C ,  8-C ) :   1.2640
B(  7-C , 17-H ) :   0.7420 B(  7-C , 18-H ) :   0.7662 B(  8-C , 19-H ) :   0.7521
B(  8-C , 20-H ) :   0.7536 B(  9-O , 21-H ) :   1.0650

MP2 TOTAL ENERGY:     -424.177616784 Eh
FINAL SINGLE POINT ENERGY      -424.177616783529

DIPOLE MOMENT
-------------
                                X             Y             Z
Electronic contribution:    -14.54976       0.32105      -0.54482
Nuclear contribution   :     14.78939      -0.84709       0.54753
                        -----------------------------------------
Total Dipole Moment    :      0.23963      -0.52604       0.00272
                        -----------------------------------------
Magnitude (a.u.)       :      0.57806
Magnitude (Debye)      :      1.46931

Rotational constants in cm-1:     0.141465     0.019982     0.018525
Rotational constants in MHz :  4241.025755   599.035012   555.376886

                             ****ORCA TERMINATED NORMALLY****
TOTAL RUN TIME: 0 days 0 hours 1 minutes 40 seconds 665 msec
