                         Program Version 5.0.3 -  RELEASE  -
|  1> !ri-mp2 aug-cc-pvdz aug-cc-pvdz/c tightscf
|  2> %pal nprocs 16 end
|  3>
|  4> * xyz 0 1
|  5> S     0.234585    1.466163    0.000019
|  6> O    -2.496898   -1.266018   -0.000007
|  7> N    -0.187033   -1.159171   -0.000015
|  8> N     3.238743   -0.724713   -0.000024
|  9> C    -1.499104    0.930285    0.000020
| 10> C    -1.494441   -0.611498   -0.000002
| 11> C     0.703863   -0.238954   -0.000007
| 12> C     2.103888   -0.535976   -0.000017
| 13> H    -2.012693    1.296805   -0.885980
| 14> H    -2.012684    1.296780    0.886036
| 15> *
| 16>
| 17>                          ****END OF INPUT****

CARTESIAN COORDINATES (ANGSTROEM)
---------------------------------
  S      0.234585    1.466163    0.000019
  O     -2.496898   -1.266018   -0.000007
  N     -0.187033   -1.159171   -0.000015
  N      3.238743   -0.724713   -0.000024
  C     -1.499104    0.930285    0.000020
  C     -1.494441   -0.611498   -0.000002
  C      0.703863   -0.238954   -0.000007
  C      2.103888   -0.535976   -0.000017
  H     -2.012693    1.296805   -0.885980
  H     -2.012684    1.296780    0.886036

 Total Charge           Charge          ....    0
 Multiplicity           Mult            ....    1
 Number of Electrons    NEL             ....   64
 Basis Dimension        Dim             ....  206

ORBITAL ENERGIES
----------------

  NO   OCC          E(Eh)            E(eV)
   0   2.0000     -92.032371     -2504.3281
   1   2.0000     -20.595103      -560.4212
   2   2.0000     -15.640202      -425.5915
   3   2.0000     -15.634513      -425.4367
   4   2.0000     -11.419298      -310.7349
   5   2.0000     -11.409016      -310.4551
   6   2.0000     -11.330036      -308.3060
   7   2.0000     -11.324818      -308.1640
   8   2.0000      -9.034745      -245.8479
   9   2.0000      -6.716357      -182.7614
  10   2.0000      -6.715075      -182.7265
  11   2.0000      -6.712939      -182.6684
  12   2.0000      -1.447159       -39.3792
  13   2.0000      -1.330540       -36.2058
  14   2.0000      -1.270185       -34.5635
  15   2.0000      -1.115409       -30.3518
  16   2.0000      -1.046065       -28.4649
  17   2.0000      -0.914043       -24.8724
  18   2.0000      -0.824548       -22.4371
  19   2.0000      -0.749102       -20.3841
  20   2.0000      -0.686299       -18.6751
  21   2.0000      -0.684784       -18.6339
  22   2.0000      -0.627243       -17.0681
  23   2.0000      -0.602311       -16.3897
  24   2.0000      -0.595684       -16.2094
  25   2.0000      -0.579050       -15.7567
  26   2.0000      -0.556249       -15.1363
  27   2.0000      -0.515715       -14.0333
  28   2.0000      -0.491274       -13.3682
  29   2.0000      -0.486475       -13.2376
  30   2.0000      -0.458602       -12.4792
  31   2.0000      -0.403589       -10.9822
  32   0.0000       0.011797         0.3210
  33   0.0000       0.025178         0.6851
  34   0.0000       0.044162         1.2017
  35   0.0000       0.055671         1.5149
  36   0.0000       0.063987         1.7412

MULLIKEN ATOMIC CHARGES
-----------------------
   0 S :    0.480460
   1 O :   -0.716038
   2 N :   -0.685343
   3 N :   -0.128161
   4 C :   -0.170147
   5 C :    0.918076
   6 C :    0.932024
   7 C :   -0.690642
   8 H :    0.029886
   9 H :    0.029886
Sum of atomic charges:    0.0000000

LOEWDIN ATOMIC CHARGES
----------------------
   0 S :    0.959152
   1 O :    0.075647
   2 N :    0.065353
   3 N :    0.122030
   4 C :   -0.175633
   5 C :   -0.359597
   6 C :   -0.524736
   7 C :   -0.128922
   8 H :   -0.016647
   9 H :   -0.016647

  Mayer bond orders larger than 0.100000
B(  0-S ,  4-C ) :   1.0735 B(  0-S ,  6-C ) :   0.9648 B(  1-O ,  5-C ) :   1.4566
B(  2-N ,  5-C ) :   0.8219 B(  2-N ,  6-C ) :   1.5054 B(  2-N ,  7-C ) :   0.1895
B(  3-N ,  7-C ) :   2.5884 B(  4-C ,  5-C ) :   0.9682 B(  4-C ,  8-H ) :   0.9129
B(  4-C ,  9-H ) :   0.9129 B(  5-C ,  6-C ) :  -0.2384

MP2 TOTAL ENERGY:     -735.127095853 Eh
FINAL SINGLE POINT ENERGY      -735.127095853181

DIPOLE MOMENT
-------------
                                X             Y             Z
Electronic contribution:      3.31143      -0.73366      -0.00003
Nuclear contribution   :     -3.86326       2.39885       0.00005
                        -----------------------------------------
Total Dipole Moment    :     -0.55184       1.66520       0.00003
                        -----------------------------------------
Magnitude (a.u.)       :      1.75425
Magnitude (Debye)      :      4.45896

Rotational constants in cm-1:     0.116612     0.045365     0.032861
Rotational constants in MHz :  3495.928680  1360.009191   985.150594

                             ****ORCA TERMINATED NORMALLY****
TOTAL RUN TIME: 0 days 0 hours 0 minutes 35 seconds 894 msec
