                         Program Version 5.0.3 -  RELEASE  -
|  1> !ri-mp2 aug-cc-pvdz aug-cc-pvdz/c tightscf
|  2> %pal nprocs 16 end
|  3>
|  4> * xyz 0 1
|  5> O     2.409384   -1.476771   -0.000003
|  6> O     2.963804    0.626484    0.000002
|  7> N    -1.062861    1.308586    0.000003
|  8> N     2.141777   -0.283046    0.000000
|  9> N    -3.957177   -0.642796   -0.000002
| 10> C     0.751730    0.081376    0.000000
| 11> C    -0.341936   -0.807462   -0.000002
| 12> C     0.284912    1.380757    0.000003
| 13> C    -1.469753   -0.017320    0.000000
| 14> C    -2.836470   -0.370988   -0.000001
| 15> H    -0.303559   -1.881146   -0.000005
| 16> H     0.823963    2.309913    0.000006
| 17> H    -1.688970    2.096140    0.000005
| 18> *
| 19>
| 20>                          ****END OF INPUT****

CARTESIAN COORDINATES (ANGSTROEM)
---------------------------------
  O      2.409384   -1.476771   -0.000003
  O      2.963804    0.626484    0.000002
  N     -1.062861    1.308586    0.000003
  N      2.141777   -0.283046    0.000000
  N     -3.957177   -0.642796   -0.000002
  C      0.751730    0.081376    0.000000
  C     -0.341936   -0.807462   -0.000002
  C      0.284912    1.380757    0.000003
  C     -1.469753   -0.017320    0.000000
  C     -2.836470   -0.370988   -0.000001
  H     -0.303559   -1.881146   -0.000005
  H      0.823963    2.309913    0.000006
  H     -1.688970    2.096140    0.000005

 Total Charge           Charge          ....    0
 Multiplicity           Mult            ....    1
 Number of Electrons    NEL             ....   70
 Basis Dimension        Dim             ....  257

ORBITAL ENERGIES
----------------

  NO   OCC          E(Eh)            E(eV)
   0   2.0000     -20.623651      -561.1981
   1   2.0000     -20.620538      -561.1134
   2   2.0000     -15.876353      -432.0175
   3   2.0000     -15.691595      -426.9900
   4   2.0000     -15.613130      -424.8549
   5   2.0000     -11.349074      -308.8240
   6   2.0000     -11.346462      -308.7529
   7   2.0000     -11.322209      -308.0930
   8   2.0000     -11.314676      -307.8880
   9   2.0000     -11.301791      -307.5374
  10   2.0000      -1.623229       -44.1703
  11   2.0000      -1.415610       -38.5207
  12   2.0000      -1.380487       -37.5650
  13   2.0000      -1.252754       -34.0892
  14   2.0000      -1.158279       -31.5184
  15   2.0000      -1.091859       -29.7110
  16   2.0000      -1.003326       -27.3019
  17   2.0000      -0.901812       -24.5396
  18   2.0000      -0.843183       -22.9442
  19   2.0000      -0.827450       -22.5160
  20   2.0000      -0.746746       -20.3200
  21   2.0000      -0.740806       -20.1584
  22   2.0000      -0.735381       -20.0107
  23   2.0000      -0.701905       -19.0998
  24   2.0000      -0.659777       -17.9535
  25   2.0000      -0.649572       -17.6758
  26   2.0000      -0.622495       -16.9390
  27   2.0000      -0.585847       -15.9417
  28   2.0000      -0.522496       -14.2178
  29   2.0000      -0.513876       -13.9833
  30   2.0000      -0.506495       -13.7824
  31   2.0000      -0.497226       -13.5302
  32   2.0000      -0.465696       -12.6722
  33   2.0000      -0.426101       -11.5948
  34   2.0000      -0.365222        -9.9382
  35   0.0000       0.015691         0.4270
  36   0.0000       0.039885         1.0853
  37   0.0000       0.041395         1.1264
  38   0.0000       0.045149         1.2286
  39   0.0000       0.067502         1.8368

MULLIKEN ATOMIC CHARGES
-----------------------
   0 O :   -0.805093
   1 O :   -0.824777
   2 N :   -0.730021
   3 N :    0.454809
   4 N :   -0.222001
   5 C :    0.924846
   6 C :    0.377552
   7 C :    0.770850
   8 C :    1.521560
   9 C :   -0.763609
  10 H :   -0.373562
  11 H :   -0.240686
  12 H :   -0.089868
Sum of atomic charges:    0.0000000

LOEWDIN ATOMIC CHARGES
----------------------
   0 O :    0.093141
   1 O :    0.081015
   2 N :    0.129200
   3 N :   -0.354241
   4 N :    0.101759
   5 C :   -0.132126
   6 C :    0.141385
   7 C :    0.143587
   8 C :   -0.202316
   9 C :   -0.106324
  10 H :    0.025497
  11 H :    0.027915
  12 H :    0.051506

  Mayer bond orders larger than 0.100000
B(  0-O ,  1-O ) :   0.1935 B(  0-O ,  3-N ) :   1.2571 B(  0-O ,  5-C ) :  -0.1653
B(  1-O ,  3-N ) :   1.2253 B(  1-O ,  5-C ) :  -0.1881 B(  2-N ,  6-C ) :  -0.1732
B(  2-N ,  7-C ) :   1.2367 B(  2-N ,  8-C ) :   0.8849 B(  2-N , 12-H ) :   1.2527
B(  3-N ,  5-C ) :   0.3261 B(  4-N ,  8-C ) :  -0.1064 B(  4-N ,  9-C ) :   2.5703
B(  5-C ,  6-C ) :   1.4097 B(  5-C ,  7-C ) :   1.4001 B(  5-C , 10-H ) :   0.2892
B(  6-C ,  7-C ) :   0.1169 B(  6-C ,  8-C ) :   1.4430 B(  6-C , 10-H ) :   0.4580
B(  7-C , 11-H ) :   0.7879 B(  7-C , 12-H ) :  -0.1355 B(  8-C ,  9-C ) :  -0.1939
B(  8-C , 10-H ) :   0.1057 B(  8-C , 12-H ) :  -0.1019

MP2 TOTAL ENERGY:     -505.655661047 Eh
FINAL SINGLE POINT ENERGY      -505.655661047481

DIPOLE MOMENT
-------------
                                X             Y             Z
Electronic contribution:      0.52694      -0.84904      -0.00000
Nuclear contribution   :     -1.05553       2.41047       0.00001
                        -----------------------------------------
Total Dipole Moment    :     -0.52859       1.56143       0.00000
                        -----------------------------------------
Magnitude (a.u.)       :      1.64847
Magnitude (Debye)      :      4.19009

Rotational constants in cm-1:     0.143033     0.025228     0.021445
Rotational constants in MHz :  4288.006814   756.303518   642.909422

                             ****ORCA TERMINATED NORMALLY****
TOTAL RUN TIME: 0 days 0 hours 0 minutes 51 seconds 241 msec
