                         Program Version 5.0.3 -  RELEASE  -
|  1> !ri-mp2 aug-cc-pvdz aug-cc-pvdz/c tightscf
|  2> %pal nprocs 16 end
|  3>
|  4> * xyz 0 1
|  5> C      0.170112    1.186351   -0.008143
|  6> C      0.170422   -1.186190   -0.008142
|  7> C     -1.217953    1.135555    0.002250
|  8> C     -1.217513   -1.135808    0.002253
|  9> C      0.901466    0.000262   -0.011063
| 10> C      2.404775    0.000161    0.007281
| 11> N     -1.916745   -0.000180    0.008110
| 12> H      0.673396    2.144679   -0.017182
| 13> H      0.673970   -2.144393   -0.017199
| 14> H     -1.795666    2.053142    0.003167
| 15> H     -1.794994   -2.053533    0.003164
| 16> H      2.808502   -0.876247   -0.498790
| 17> H      2.808455    0.891635   -0.471579
| 18> H      2.775701   -0.016004    1.035029
| 19> *
| 20>
| 21>                          ****END OF INPUT****

CARTESIAN COORDINATES (ANGSTROEM)
---------------------------------
  C      0.170112    1.186351   -0.008143
  C      0.170422   -1.186190   -0.008142
  C     -1.217953    1.135555    0.002250
  C     -1.217513   -1.135808    0.002253
  C      0.901466    0.000262   -0.011063
  C      2.404775    0.000161    0.007281
  N     -1.916745   -0.000180    0.008110
  H      0.673396    2.144679   -0.017182
  H      0.673970   -2.144393   -0.017199
  H     -1.795666    2.053142    0.003167
  H     -1.794994   -2.053533    0.003164
  H      2.808502   -0.876247   -0.498790
  H      2.808455    0.891635   -0.471579
  H      2.775701   -0.016004    1.035029

 Total Charge           Charge          ....    0
 Multiplicity           Mult            ....    1
 Number of Electrons    NEL             ....   50
 Basis Dimension        Dim             ....  224

ORBITAL ENERGIES
----------------

  NO   OCC          E(Eh)            E(eV)
   0   2.0000     -15.566613      -423.5891
   1   2.0000     -11.277366      -306.8727
   2   2.0000     -11.277334      -306.8719
   3   2.0000     -11.269476      -306.6580
   4   2.0000     -11.243465      -305.9502
   5   2.0000     -11.239877      -305.8526
   6   2.0000     -11.239837      -305.8515
   7   2.0000      -1.259218       -34.2651
   8   2.0000      -1.111704       -30.2510
   9   2.0000      -1.032819       -28.1044
  10   2.0000      -0.972409       -26.4606
  11   2.0000      -0.857687       -23.3389
  12   2.0000      -0.825562       -22.4647
  13   2.0000      -0.695819       -18.9342
  14   2.0000      -0.672487       -18.2993
  15   2.0000      -0.648474       -17.6459
  16   2.0000      -0.594394       -16.1743
  17   2.0000      -0.590526       -16.0690
  18   2.0000      -0.560366       -15.2483
  19   2.0000      -0.550353       -14.9759
  20   2.0000      -0.528771       -14.3886
  21   2.0000      -0.506785       -13.7903
  22   2.0000      -0.413461       -11.2508
  23   2.0000      -0.368297       -10.0219
  24   2.0000      -0.345227        -9.3941
  25   0.0000       0.032541         0.8855
  26   0.0000       0.040417         1.0998
  27   0.0000       0.042913         1.1677
  28   0.0000       0.053132         1.4458
  29   0.0000       0.058473         1.5911

MULLIKEN ATOMIC CHARGES
-----------------------
   0 C :    0.950275
   1 C :    0.939573
   2 C :    0.287879
   3 C :    0.288212
   4 C :   -0.529638
   5 C :    0.477333
   6 N :   -0.694745
   7 H :   -0.527291
   8 H :   -0.527797
   9 H :   -0.323162
  10 H :   -0.323336
  11 H :   -0.059766
  12 H :   -0.069637
  13 H :    0.112100
Sum of atomic charges:    0.0000000

LOEWDIN ATOMIC CHARGES
----------------------
   0 C :    0.045657
   1 C :    0.045683
   2 C :   -0.032604
   3 C :   -0.032657
   4 C :   -0.216910
   5 C :    0.183807
   6 N :    0.023875
   7 H :    0.002711
   8 H :    0.002897
   9 H :    0.001290
  10 H :    0.001272
  11 H :   -0.011288
  12 H :   -0.011622
  13 H :   -0.002110

  Mayer bond orders larger than 0.100000
B(  0-C ,  2-C ) :   1.0631 B(  0-C ,  3-C ) :  -0.1042 B(  0-C ,  4-C ) :   1.4791
B(  0-C ,  5-C ) :  -0.2652 B(  0-C ,  6-N ) :  -0.1203 B(  0-C ,  7-H ) :   0.2219
B(  1-C ,  2-C ) :  -0.1024 B(  1-C ,  3-C ) :   1.0747 B(  1-C ,  4-C ) :   1.4703
B(  1-C ,  5-C ) :  -0.2642 B(  1-C ,  6-N ) :  -0.1214 B(  1-C ,  8-H ) :   0.2238
B(  2-C ,  3-C ) :   0.1306 B(  2-C ,  4-C ) :   0.2731 B(  2-C ,  6-N ) :   1.3375
B(  2-C ,  7-H ) :   0.1003 B(  2-C ,  9-H ) :   0.9067 B(  3-C ,  4-C ) :   0.2678
B(  3-C ,  6-N ) :   1.3357 B(  3-C ,  8-H ) :   0.1024 B(  3-C , 10-H ) :   0.9062
B(  4-C ,  5-C ) :   1.5228 B(  4-C ,  6-N ) :   0.1480 B(  4-C ,  7-H ) :   0.3932
B(  4-C ,  8-H ) :   0.3922 B(  4-C ,  9-H ) :   0.1170 B(  4-C , 10-H ) :   0.1153
B(  4-C , 11-H ) :   0.2384 B(  4-C , 12-H ) :   0.2506 B(  4-C , 13-H ) :   0.1567
B(  5-C , 11-H ) :   0.8004 B(  5-C , 12-H ) :   0.7914 B(  5-C , 13-H ) :   0.8772

MP2 TOTAL ENERGY:     -286.755453273 Eh
FINAL SINGLE POINT ENERGY      -286.755453273308

DIPOLE MOMENT
-------------
                                X             Y             Z
Electronic contribution:     -5.07354       0.00050      -0.02710
Nuclear contribution   :      6.18917      -0.00073       0.03696
                        -----------------------------------------
Total Dipole Moment    :      1.11563      -0.00023       0.00986
                        -----------------------------------------
Magnitude (a.u.)       :      1.11567
Magnitude (Debye)      :      2.83581

Rotational constants in cm-1:     0.196717     0.084610     0.059818
Rotational constants in MHz :  5897.438347  2536.548825  1793.311200

                             ****ORCA TERMINATED NORMALLY****
TOTAL RUN TIME: 0 days 0 hours 0 minutes 44 seconds 339 msec
