                         Program Version 5.0.3 -  RELEASE  -
|  1> !ri-mp2 aug-cc-pvdz aug-cc-pvdz/c tightscf
|  2> %pal nprocs 16 end
|  3>
|  4> * xyz 0 1
|  5> C      0.182296   -1.194600   -0.232278
|  6> C      0.200946    1.190822   -0.237286
|  7> C     -1.192318   -1.189355   -0.023350
|  8> C     -1.170510    1.215647   -0.029025
|  9> C      0.907341   -0.009408   -0.342365
| 10> C     -1.872642    0.019468    0.080035
| 11> C      3.186098    0.002643    0.787434
| 12> C      2.404665   -0.021419   -0.533621
| 13> O     -3.225765    0.093049    0.281877
| 14> H      0.695495   -2.144808   -0.315944
| 15> H      0.733105    2.130212   -0.325596
| 16> H     -1.733693   -2.125233    0.053648
| 17> H     -1.708215    2.150587    0.045495
| 18> H      2.948053    0.896107    1.366309
| 19> H      4.262069   -0.005627    0.605398
| 20> H      2.940274   -0.864143    1.402489
| 21> H      2.689551   -0.909460   -1.102288
| 22> H      2.698617    0.839070   -1.138965
| 23> H     -3.594392   -0.793890    0.337165
| 24> *
| 25>
| 26>                          ****END OF INPUT****

CARTESIAN COORDINATES (ANGSTROEM)
---------------------------------
  C      0.182296   -1.194600   -0.232278
  C      0.200946    1.190822   -0.237286
  C     -1.192318   -1.189355   -0.023350
  C     -1.170510    1.215647   -0.029025
  C      0.907341   -0.009408   -0.342365
  C     -1.872642    0.019468    0.080035
  C      3.186098    0.002643    0.787434
  C      2.404665   -0.021419   -0.533621
  O     -3.225765    0.093049    0.281877
  H      0.695495   -2.144808   -0.315944
  H      0.733105    2.130212   -0.325596
  H     -1.733693   -2.125233    0.053648
  H     -1.708215    2.150587    0.045495
  H      2.948053    0.896107    1.366309
  H      4.262069   -0.005627    0.605398
  H      2.940274   -0.864143    1.402489
  H      2.689551   -0.909460   -1.102288
  H      2.698617    0.839070   -1.138965
  H     -3.594392   -0.793890    0.337165

 Total Charge           Charge          ....    0
 Multiplicity           Mult            ....    1
 Number of Electrons    NEL             ....   66
 Basis Dimension        Dim             ....  297

ORBITAL ENERGIES
----------------

  NO   OCC          E(Eh)            E(eV)
   0   2.0000     -20.597570      -560.4884
   1   2.0000     -11.303686      -307.5889
   2   2.0000     -11.241525      -305.8975
   3   2.0000     -11.239835      -305.8515
   4   2.0000     -11.237582      -305.7902
   5   2.0000     -11.234763      -305.7134
   6   2.0000     -11.232233      -305.6446
   7   2.0000     -11.231945      -305.6368
   8   2.0000     -11.221326      -305.3478
   9   2.0000      -1.405670       -38.2502
  10   2.0000      -1.155843       -31.4521
  11   2.0000      -1.059739       -28.8370
  12   2.0000      -1.021029       -27.7836
  13   2.0000      -0.979188       -26.6451
  14   2.0000      -0.865238       -23.5443
  15   2.0000      -0.845430       -23.0053
  16   2.0000      -0.795522       -21.6473
  17   2.0000      -0.734042       -19.9743
  18   2.0000      -0.674124       -18.3439
  19   2.0000      -0.648289       -17.6408
  20   2.0000      -0.614159       -16.7121
  21   2.0000      -0.596710       -16.2373
  22   2.0000      -0.588659       -16.0182
  23   2.0000      -0.586909       -15.9706
  24   2.0000      -0.569801       -15.5051
  25   2.0000      -0.555645       -15.1199
  26   2.0000      -0.523382       -14.2420
  27   2.0000      -0.497927       -13.5493
  28   2.0000      -0.480647       -13.0791
  29   2.0000      -0.477914       -13.0047
  30   2.0000      -0.468187       -12.7400
  31   2.0000      -0.340797        -9.2736
  32   2.0000      -0.305500        -8.3131
  33   0.0000       0.032445         0.8829
  34   0.0000       0.038198         1.0394
  35   0.0000       0.043057         1.1716
  36   0.0000       0.052083         1.4172
  37   0.0000       0.052206         1.4206

MULLIKEN ATOMIC CHARGES
-----------------------
   0 C :    0.355763
   1 C :    0.679965
   2 C :    0.173943
   3 C :    0.366263
   4 C :    0.984756
   5 C :    0.652535
   6 C :    0.329038
   7 C :    0.140668
   8 O :   -0.901771
   9 H :   -0.617902
  10 H :   -0.649887
  11 H :   -0.582862
  12 H :   -0.489437
  13 H :   -0.103269
  14 H :   -0.084172
  15 H :   -0.103773
  16 H :   -0.160531
  17 H :   -0.153287
  18 H :    0.163961
Sum of atomic charges:   -0.0000000

LOEWDIN ATOMIC CHARGES
----------------------
   0 C :    0.043362
   1 C :    0.047259
   2 C :    0.042891
   3 C :    0.053977
   4 C :   -0.192453
   5 C :   -0.231837
   6 C :    0.143546
   7 C :   -0.037961
   8 O :    0.178686
   9 H :    0.008999
  10 H :    0.009995
  11 H :   -0.000294
  12 H :    0.007479
  13 H :   -0.018035
  14 H :   -0.020678
  15 H :   -0.017963
  16 H :    0.012786
  17 H :    0.013286
  18 H :   -0.043048

  Mayer bond orders larger than 0.100000
B(  0-C ,  1-C ) :  -0.8328 B(  0-C ,  2-C ) :   2.0349 B(  0-C ,  4-C ) :   1.9676
B(  0-C ,  5-C ) :  -0.2122 B(  0-C ,  7-C ) :  -0.3872 B(  0-C ,  9-H ) :  -0.2229
B(  0-C , 11-H ) :   0.3328 B(  1-C ,  2-C ) :   0.1964 B(  1-C ,  3-C ) :   2.0492
B(  1-C ,  4-C ) :   2.0154 B(  1-C ,  5-C ) :  -0.1865 B(  1-C ,  7-C ) :  -0.4090
B(  1-C , 10-H ) :  -0.4623 B(  1-C , 12-H ) :   0.2980 B(  2-C ,  3-C ) :   0.1846
B(  2-C ,  4-C ) :  -0.5691 B(  2-C ,  5-C ) :   1.4816 B(  2-C ,  7-C ) :   0.2315
B(  2-C ,  8-O ) :   0.1827 B(  2-C ,  9-H ) :   0.2545 B(  2-C , 10-H ) :   0.1137
B(  3-C ,  4-C ) :  -0.6271 B(  3-C ,  5-C ) :   1.6956 B(  3-C ,  7-C ) :   0.2334
B(  3-C , 10-H ) :   0.3692 B(  3-C , 12-H ) :  -0.2296 B(  4-C ,  5-C ) :   0.5853
B(  4-C ,  6-C ) :  -0.1248 B(  4-C ,  7-C ) :   1.3694 B(  4-C ,  9-H ) :   0.6452
B(  4-C , 10-H ) :   0.7481 B(  4-C , 11-H ) :  -0.1211 B(  4-C , 12-H ) :  -0.1398
B(  5-C ,  9-H ) :  -0.1559 B(  5-C , 10-H ) :  -0.2306 B(  5-C , 11-H ) :   0.4334
B(  5-C , 12-H ) :   0.6364 B(  5-C , 18-H ) :  -0.1325 B(  6-C ,  7-C ) :   1.2011
B(  6-C , 13-H ) :   0.9531 B(  6-C , 14-H ) :   0.9185 B(  6-C , 15-H ) :   0.9519
B(  7-C , 16-H ) :   0.7813 B(  7-C , 17-H ) :   0.8002 B(  8-O , 18-H ) :   1.0657

MP2 TOTAL ENERGY:     -384.989175837 Eh
FINAL SINGLE POINT ENERGY      -384.989175836617

DIPOLE MOMENT
-------------
                                X             Y             Z
Electronic contribution:     -9.78839       0.31020      -0.96848
Nuclear contribution   :     10.02444      -0.83779       0.94578
                        -----------------------------------------
Total Dipole Moment    :      0.23604      -0.52759      -0.02269
                        -----------------------------------------
Magnitude (a.u.)       :      0.57843
Magnitude (Debye)      :      1.47025

Rotational constants in cm-1:     0.148867     0.031451     0.027856
Rotational constants in MHz :  4462.906573   942.870267   835.096428

                             ****ORCA TERMINATED NORMALLY****
TOTAL RUN TIME: 0 days 0 hours 1 minutes 24 seconds 71 msec
