                         Program Version 5.0.3 -  RELEASE  -
|  1> !ri-mp2 aug-cc-pvdz aug-cc-pvdz/c tightscf
|  2> %pal nprocs 16 end
|  3>
|  4> * xyz 0 1
|  5> Cl    -2.003064   -0.016547   -0.000005
|  6> N      1.843891    0.756301    0.000005
|  7> N      1.813601   -0.586654    0.000004
|  8> C     -0.275304   -0.001147    0.000000
|  9> C      0.569529    1.124682    0.000002
| 10> C      0.559203   -1.094849    0.000001
| 11> H      2.680219   -1.094481    0.000006
| 12> H      0.296397    2.165829    0.000002
| 13> H      0.352459   -2.149705    0.000000
| 14> *
| 15>
| 16>                          ****END OF INPUT****

CARTESIAN COORDINATES (ANGSTROEM)
---------------------------------
  Cl    -2.003064   -0.016547   -0.000005
  N      1.843891    0.756301    0.000005
  N      1.813601   -0.586654    0.000004
  C     -0.275304   -0.001147    0.000000
  C      0.569529    1.124682    0.000002
  C      0.559203   -1.094849    0.000001
  H      2.680219   -1.094481    0.000006
  H      0.296397    2.165829    0.000002
  H      0.352459   -2.149705    0.000000

 Total Charge           Charge          ....    0
 Multiplicity           Mult            ....    1
 Number of Electrons    NEL             ....   52
 Basis Dimension        Dim             ....  169

ORBITAL ENERGIES
----------------

  NO   OCC          E(Eh)            E(eV)
   0   2.0000    -104.847753     -2853.0524
   1   2.0000     -15.663971      -426.2383
   2   2.0000     -15.613292      -424.8593
   3   2.0000     -11.301812      -307.5379
   4   2.0000     -11.295004      -307.3527
   5   2.0000     -11.276931      -306.8609
   6   2.0000     -10.573289      -287.7138
   7   2.0000      -8.041244      -218.8134
   8   2.0000      -8.037791      -218.7194
   9   2.0000      -8.037612      -218.7145
  10   2.0000      -1.400090       -38.0984
  11   2.0000      -1.162305       -31.6279
  12   2.0000      -1.119729       -30.4694
  13   2.0000      -1.036542       -28.2057
  14   2.0000      -0.843675       -22.9576
  15   2.0000      -0.806791       -21.9539
  16   2.0000      -0.754918       -20.5424
  17   2.0000      -0.634199       -17.2574
  18   2.0000      -0.630790       -17.1647
  19   2.0000      -0.599430       -16.3113
  20   2.0000      -0.590459       -16.0672
  21   2.0000      -0.504130       -13.7181
  22   2.0000      -0.492092       -13.3905
  23   2.0000      -0.449866       -12.2415
  24   2.0000      -0.379517       -10.3272
  25   2.0000      -0.347890        -9.4666
  26   0.0000       0.027960         0.7608
  27   0.0000       0.046516         1.2658
  28   0.0000       0.050253         1.3675
  29   0.0000       0.086160         2.3445
  30   0.0000       0.090618         2.4658

MULLIKEN ATOMIC CHARGES
-----------------------
   0 Cl:   -0.221107
   1 N :   -0.669291
   2 N :   -0.403567
   3 C :   -0.231142
   4 C :    0.894932
   5 C :    1.066843
   6 H :    0.009672
   7 H :   -0.198551
   8 H :   -0.247788
Sum of atomic charges:   -0.0000000

LOEWDIN ATOMIC CHARGES
----------------------
   0 Cl:    0.555766
   1 N :    0.032340
   2 N :    0.006453
   3 C :   -0.598417
   4 C :   -0.057378
   5 C :    0.032341
   6 H :    0.026656
   7 H :   -0.003637
   8 H :    0.005876

  Mayer bond orders larger than 0.100000
B(  0-Cl,  3-C ) :   1.0261 B(  0-Cl,  4-C ) :  -0.1279 B(  0-Cl,  5-C ) :  -0.1343
B(  1-N ,  2-N ) :   1.0288 B(  1-N ,  3-C ) :   0.1788 B(  1-N ,  4-C ) :   1.4610
B(  1-N ,  5-C ) :  -0.1356 B(  1-N ,  6-H ) :  -0.1476 B(  2-N ,  4-C ) :  -0.2649
B(  2-N ,  5-C ) :   1.0084 B(  2-N ,  6-H ) :   1.2032 B(  3-C ,  4-C ) :   1.2500
B(  3-C ,  5-C ) :   1.5515 B(  4-C ,  5-C ) :   0.2522 B(  4-C ,  7-H ) :   0.7555
B(  5-C ,  6-H ) :  -0.1272 B(  5-C ,  8-H ) :   0.6260

MP2 TOTAL ENERGY:     -684.641905310 Eh
FINAL SINGLE POINT ENERGY      -684.641905309760

DIPOLE MOMENT
-------------
                                X             Y             Z
Electronic contribution:     -5.47383       0.10719      -0.00001
Nuclear contribution   :      5.92131      -1.00370       0.00001
                        -----------------------------------------
Total Dipole Moment    :      0.44748      -0.89651       0.00000
                        -----------------------------------------
Magnitude (a.u.)       :      1.00198
Magnitude (Debye)      :      2.54683

Rotational constants in cm-1:     0.318271     0.066992     0.055343
Rotational constants in MHz :  9541.517979  2008.381679  1659.149470

                             ****ORCA TERMINATED NORMALLY****
TOTAL RUN TIME: 0 days 0 hours 0 minutes 29 seconds 91 msec
