                         Program Version 5.0.3 -  RELEASE  -
|  1> !ri-mp2 aug-cc-pvdz aug-cc-pvdz/c tightscf
|  2> %pal nprocs 16 end
|  3>
|  4> * xyz 0 1
|  5> S    -1.958243    0.228807    0.000000
|  6> S     2.220685   -0.683816    0.000001
|  7> N    -0.289940   -1.729567    0.000001
|  8> N     0.650712    2.984496    0.000000
|  9> C    -0.252301    0.588485    0.000000
| 10> C     0.464268   -0.591163    0.000000
| 11> C    -1.558175   -1.448494    0.000000
| 12> C     0.241588    1.904998    0.000000
| 13> H     2.237266   -2.028192    0.000001
| 14> H    -2.334026   -2.199110    0.000000
| 15> *
| 16>
| 17>                          ****END OF INPUT****

CARTESIAN COORDINATES (ANGSTROEM)
---------------------------------
  S     -1.958243    0.228807    0.000000
  S      2.220685   -0.683816    0.000001
  N     -0.289940   -1.729567    0.000001
  N      0.650712    2.984496    0.000000
  C     -0.252301    0.588485    0.000000
  C      0.464268   -0.591163    0.000000
  C     -1.558175   -1.448494    0.000000
  C      0.241588    1.904998    0.000000
  H      2.237266   -2.028192    0.000001
  H     -2.334026   -2.199110    0.000000

 Total Charge           Charge          ....    0
 Multiplicity           Mult            ....    1
 Number of Electrons    NEL             ....   72
 Basis Dimension        Dim             ....  210

ORBITAL ENERGIES
----------------

  NO   OCC          E(Eh)            E(eV)
   0   2.0000     -92.038276     -2504.4888
   1   2.0000     -92.000922     -2503.4724
   2   2.0000     -15.620797      -425.0635
   3   2.0000     -15.598423      -424.4547
   4   2.0000     -11.363368      -309.2130
   5   2.0000     -11.359256      -309.1011
   6   2.0000     -11.322669      -308.1055
   7   2.0000     -11.302533      -307.5576
   8   2.0000      -9.040383      -246.0013
   9   2.0000      -9.003077      -244.9862
  10   2.0000      -6.721802      -182.9095
  11   2.0000      -6.720936      -182.8860
  12   2.0000      -6.718984      -182.8328
  13   2.0000      -6.685107      -181.9110
  14   2.0000      -6.683733      -181.8736
  15   2.0000      -6.681523      -181.8135
  16   2.0000      -1.337059       -36.3832
  17   2.0000      -1.240536       -33.7567
  18   2.0000      -1.121662       -30.5220
  19   2.0000      -1.096322       -29.8324
  20   2.0000      -0.986318       -26.8391
  21   2.0000      -0.891929       -24.2706
  22   2.0000      -0.819449       -22.2984
  23   2.0000      -0.737566       -20.0702
  24   2.0000      -0.645075       -17.5534
  25   2.0000      -0.635891       -17.3035
  26   2.0000      -0.619596       -16.8601
  27   2.0000      -0.571182       -15.5427
  28   2.0000      -0.555506       -15.1161
  29   2.0000      -0.518635       -14.1128
  30   2.0000      -0.516757       -14.0617
  31   2.0000      -0.485863       -13.2210
  32   2.0000      -0.461868       -12.5681
  33   2.0000      -0.454929       -12.3793
  34   2.0000      -0.413392       -11.2490
  35   2.0000      -0.340923        -9.2770
  36   0.0000       0.026146         0.7115
  37   0.0000       0.041511         1.1296
  38   0.0000       0.044601         1.2136
  39   0.0000       0.062551         1.7021
  40   0.0000       0.076320         2.0768

MULLIKEN ATOMIC CHARGES
-----------------------
   0 S :    0.390816
   1 S :    0.363438
   2 N :   -0.812957
   3 N :   -0.203651
   4 C :    0.931911
   5 C :    0.056273
   6 C :    0.304116
   7 C :   -0.944209
   8 H :    0.126049
   9 H :   -0.211785
Sum of atomic charges:    0.0000000

LOEWDIN ATOMIC CHARGES
----------------------
   0 S :    1.030387
   1 S :    0.855568
   2 N :   -0.074012
   3 N :    0.091170
   4 C :   -0.541712
   5 C :   -0.622368
   6 C :   -0.283883
   7 C :   -0.229985
   8 H :   -0.189454
   9 H :   -0.035712

  Mayer bond orders larger than 0.100000
B(  0-S ,  4-C ) :   0.8805 B(  0-S ,  6-C ) :   0.9910 B(  0-S ,  7-C ) :  -0.1059
B(  0-S ,  9-H ) :  -0.1196 B(  1-S ,  5-C ) :   1.0458 B(  1-S ,  8-H ) :   0.9314
B(  2-N ,  5-C ) :   1.0730 B(  2-N ,  6-C ) :   1.5990 B(  3-N ,  7-C ) :   2.4949
B(  4-C ,  5-C ) :   1.5366 B(  4-C ,  6-C ) :   0.1358 B(  5-C ,  6-C ) :  -0.2532
B(  5-C ,  7-C ) :   0.1418 B(  6-C ,  9-H ) :   1.0509

MP2 TOTAL ENERGY:    -1057.741070256 Eh
FINAL SINGLE POINT ENERGY     -1057.741070255937

DIPOLE MOMENT
-------------
                                X             Y             Z
Electronic contribution:     -0.90899       2.34464      -0.00000
Nuclear contribution   :     -0.09770      -3.99965       0.00000
                        -----------------------------------------
Total Dipole Moment    :     -1.00669      -1.65501      -0.00000
                        -----------------------------------------
Magnitude (a.u.)       :      1.93714
Magnitude (Debye)      :      4.92381

Rotational constants in cm-1:     0.062582     0.050790     0.028036
Rotational constants in MHz :  1876.147160  1522.634134   840.502951

                             ****ORCA TERMINATED NORMALLY****
TOTAL RUN TIME: 0 days 0 hours 0 minutes 45 seconds 96 msec
