                         Program Version 5.0.3 -  RELEASE  -
|  1> !ri-mp2 aug-cc-pvdz aug-cc-pvdz/c tightscf
|  2> %pal nprocs 16 end
|  3>
|  4> * xyz 0 1
|  5> C     0.000000     0.000000    1.088734
|  6> C     0.000000     1.198351    0.149259
|  7> C     0.000000    -1.198351    0.149259
|  8> C     0.000000     0.669044   -1.243983
|  9> C     0.000000    -0.669044   -1.243983
| 10> O     0.000000     2.365037    0.458652
| 11> O     0.000000    -2.365037    0.458652
| 12> H     0.878958     0.000000    1.734426
| 13> H    -0.878958     0.000000    1.734426
| 14> H     0.000000     1.326391   -2.101506
| 15> H     0.000000    -1.326391   -2.101506
| 16> *
| 17>
| 18>                          ****END OF INPUT****

CARTESIAN COORDINATES (ANGSTROEM)
---------------------------------
  C      0.000000    0.000000    1.088734
  C      0.000000    1.198351    0.149259
  C      0.000000   -1.198351    0.149259
  C      0.000000    0.669044   -1.243983
  C      0.000000   -0.669044   -1.243983
  O      0.000000    2.365037    0.458652
  O      0.000000   -2.365037    0.458652
  H      0.878958    0.000000    1.734426
  H     -0.878958    0.000000    1.734426
  H      0.000000    1.326391   -2.101506
  H      0.000000   -1.326391   -2.101506

 Total Charge           Charge          ....    0
 Multiplicity           Mult            ....    1
 Number of Electrons    NEL             ....   50
 Basis Dimension        Dim             ....  197

ORBITAL ENERGIES
----------------

  NO   OCC          E(Eh)            E(eV)
   0   2.0000     -20.584214      -560.1249
   1   2.0000     -20.584214      -560.1249
   2   2.0000     -11.367755      -309.3323
   3   2.0000     -11.367745      -309.3321
   4   2.0000     -11.294921      -307.3504
   5   2.0000     -11.293266      -307.3054
   6   2.0000     -11.271216      -306.7054
   7   2.0000      -1.421496       -38.6809
   8   2.0000      -1.416750       -38.5517
   9   2.0000      -1.174677       -31.9646
  10   2.0000      -1.027840       -27.9690
  11   2.0000      -0.920691       -25.0533
  12   2.0000      -0.795703       -21.6522
  13   2.0000      -0.766247       -20.8506
  14   2.0000      -0.711042       -19.3484
  15   2.0000      -0.655964       -17.8497
  16   2.0000      -0.648591       -17.6491
  17   2.0000      -0.642549       -17.4846
  18   2.0000      -0.615028       -16.7358
  19   2.0000      -0.604351       -16.4452
  20   2.0000      -0.552422       -15.0322
  21   2.0000      -0.526985       -14.3400
  22   2.0000      -0.461693       -12.5633
  23   2.0000      -0.422567       -11.4986
  24   2.0000      -0.421259       -11.4630
  25   0.0000       0.028678         0.7804
  26   0.0000       0.037745         1.0271
  27   0.0000       0.043205         1.1757
  28   0.0000       0.046674         1.2701
  29   0.0000       0.051503         1.4015

MULLIKEN ATOMIC CHARGES
-----------------------
   0 C :   -0.097236
   1 C :    0.521091
   2 C :    0.521091
   3 C :    0.483559
   4 C :    0.483559
   5 O :   -0.775038
   6 O :   -0.775038
   7 H :    0.091119
   8 H :    0.091119
   9 H :   -0.272112
  10 H :   -0.272112
Sum of atomic charges:   -0.0000000

LOEWDIN ATOMIC CHARGES
----------------------
   0 C :    0.111135
   1 C :   -0.267509
   2 C :   -0.267509
   3 C :    0.103544
   4 C :    0.103544
   5 O :    0.056829
   6 O :    0.056829
   7 H :    0.037270
   8 H :    0.037270
   9 H :    0.014299
  10 H :    0.014299

  Mayer bond orders larger than 0.100000
B(  0-C ,  1-C ) :   1.1071 B(  0-C ,  2-C ) :   1.1071 B(  0-C ,  5-O ) :   0.1110
B(  0-C ,  6-O ) :   0.1110 B(  0-C ,  7-H ) :   0.8337 B(  0-C ,  8-H ) :   0.8337
B(  1-C ,  2-C ) :  -0.1053 B(  1-C ,  3-C ) :   0.9872 B(  1-C ,  5-O ) :   1.2941
B(  2-C ,  4-C ) :   0.9872 B(  2-C ,  6-O ) :   1.2941 B(  3-C ,  4-C ) :   2.1882
B(  3-C ,  9-H ) :   0.7456 B(  4-C , 10-H ) :   0.7456

MP2 TOTAL ENERGY:     -342.466428199 Eh
FINAL SINGLE POINT ENERGY      -342.466428199130

DIPOLE MOMENT
-------------
                                X             Y             Z
Electronic contribution:      0.00000      -0.00000      -0.07831
Nuclear contribution   :      0.00000       0.00000      -0.70336
                        -----------------------------------------
Total Dipole Moment    :      0.00000      -0.00000      -0.78167
                        -----------------------------------------
Magnitude (a.u.)       :      0.78167
Magnitude (Debye)      :      1.98684

Rotational constants in cm-1:     0.224178     0.073508     0.055929
Rotational constants in MHz :  6720.700600  2203.709278  1676.696922

                             ****ORCA TERMINATED NORMALLY****
TOTAL RUN TIME: 0 days 0 hours 0 minutes 34 seconds 164 msec
