                         Program Version 5.0.3 -  RELEASE  -
|  1> !ri-mp2 aug-cc-pvdz aug-cc-pvdz/c tightscf
|  2> %pal nprocs 16 end
|  3>
|  4> * xyz 0 1
|  5> C      0.233751   -0.248858    1.186174
|  6> C      0.233751   -0.248858   -1.186174
|  7> C      0.233751   -1.636587    1.135286
|  8> C      0.233751   -1.636587   -1.135286
|  9> C      0.232164    0.482399    0.000000
| 10> C     -1.236306    2.546240    0.000000
| 11> C      0.194870    1.988942    0.000000
| 12> N      0.233121   -2.335890    0.000000
| 13> H      0.240621    0.255199    2.144492
| 14> H      0.240621    0.255199   -2.144492
| 15> H      0.238122   -2.214612    2.053040
| 16> H      0.238122   -2.214612   -2.053040
| 17> H     -1.786360    2.212834   -0.880654
| 18> H     -1.225706    3.636797    0.000000
| 19> H     -1.786360    2.212834    0.880654
| 20> H      0.727349    2.363720    0.876427
| 21> H      0.727349    2.363720   -0.876427
| 22> *
| 23>
| 24>                          ****END OF INPUT****

CARTESIAN COORDINATES (ANGSTROEM)
---------------------------------
  C      0.233751   -0.248858    1.186174
  C      0.233751   -0.248858   -1.186174
  C      0.233751   -1.636587    1.135286
  C      0.233751   -1.636587   -1.135286
  C      0.232164    0.482399    0.000000
  C     -1.236306    2.546240    0.000000
  C      0.194870    1.988942    0.000000
  N      0.233121   -2.335890    0.000000
  H      0.240621    0.255199    2.144492
  H      0.240621    0.255199   -2.144492
  H      0.238122   -2.214612    2.053040
  H      0.238122   -2.214612   -2.053040
  H     -1.786360    2.212834   -0.880654
  H     -1.225706    3.636797    0.000000
  H     -1.786360    2.212834    0.880654
  H      0.727349    2.363720    0.876427
  H      0.727349    2.363720   -0.876427

 Total Charge           Charge          ....    0
 Multiplicity           Mult            ....    1
 Number of Electrons    NEL             ....   58
 Basis Dimension        Dim             ....  265

ORBITAL ENERGIES
----------------

  NO   OCC          E(Eh)            E(eV)
   0   2.0000     -15.566225      -423.5785
   1   2.0000     -11.276554      -306.8506
   2   2.0000     -11.276535      -306.8501
   3   2.0000     -11.265470      -306.5490
   4   2.0000     -11.245830      -306.0146
   5   2.0000     -11.239298      -305.8369
   6   2.0000     -11.239262      -305.8359
   7   2.0000     -11.233366      -305.6754
   8   2.0000      -1.258835       -34.2546
   9   2.0000      -1.118244       -30.4290
  10   2.0000      -1.032214       -28.0880
  11   2.0000      -1.022435       -27.8219
  12   2.0000      -0.889806       -24.2128
  13   2.0000      -0.857214       -23.3260
  14   2.0000      -0.810745       -22.0615
  15   2.0000      -0.695154       -18.9161
  16   2.0000      -0.675918       -18.3927
  17   2.0000      -0.648638       -17.6503
  18   2.0000      -0.604302       -16.4439
  19   2.0000      -0.599022       -16.3002
  20   2.0000      -0.589803       -16.0494
  21   2.0000      -0.550354       -14.9759
  22   2.0000      -0.521005       -14.1773
  23   2.0000      -0.519314       -14.1313
  24   2.0000      -0.508322       -13.8321
  25   2.0000      -0.491569       -13.3763
  26   2.0000      -0.412355       -11.2208
  27   2.0000      -0.367666       -10.0047
  28   2.0000      -0.344496        -9.3742
  29   0.0000       0.031644         0.8611
  30   0.0000       0.039732         1.0812
  31   0.0000       0.041660         1.1336
  32   0.0000       0.048057         1.3077
  33   0.0000       0.057970         1.5775

MULLIKEN ATOMIC CHARGES
-----------------------
   0 C :    0.889859
   1 C :    0.889859
   2 C :    0.287192
   3 C :    0.287192
   4 C :    0.047990
   5 C :    0.307390
   6 C :    0.278312
   7 N :   -0.704566
   8 H :   -0.562713
   9 H :   -0.562713
  10 H :   -0.320258
  11 H :   -0.320258
  12 H :   -0.087313
  13 H :   -0.080817
  14 H :   -0.087313
  15 H :   -0.130922
  16 H :   -0.130922
Sum of atomic charges:   -0.0000000

LOEWDIN ATOMIC CHARGES
----------------------
   0 C :    0.050083
   1 C :    0.050083
   2 C :   -0.031658
   3 C :   -0.031658
   4 C :   -0.184746
   5 C :    0.150485
   6 C :   -0.025287
   7 N :    0.025201
   8 H :    0.005623
   9 H :    0.005623
  10 H :    0.001540
  11 H :    0.001540
  12 H :   -0.015863
  13 H :   -0.018077
  14 H :   -0.015863
  15 H :    0.016487
  16 H :    0.016487

  Mayer bond orders larger than 0.100000
B(  0-C ,  1-C ) :  -0.1222 B(  0-C ,  2-C ) :   1.0216 B(  0-C ,  3-C ) :  -0.1593
B(  0-C ,  4-C ) :   1.3819 B(  0-C ,  6-C ) :  -0.2402 B(  0-C ,  7-N ) :  -0.1329
B(  1-C ,  2-C ) :  -0.1593 B(  1-C ,  3-C ) :   1.0216 B(  1-C ,  4-C ) :   1.3819
B(  1-C ,  6-C ) :  -0.2402 B(  1-C ,  7-N ) :  -0.1329 B(  2-C ,  3-C ) :   0.1226
B(  2-C ,  4-C ) :   0.2820 B(  2-C ,  7-N ) :   1.3627 B(  2-C ,  8-H ) :   0.1330
B(  2-C , 10-H ) :   0.8837 B(  3-C ,  4-C ) :   0.2820 B(  3-C ,  7-N ) :   1.3627
B(  3-C ,  9-H ) :   0.1330 B(  3-C , 11-H ) :   0.8837 B(  4-C ,  6-C ) :   1.3167
B(  4-C ,  7-N ) :   0.1689 B(  4-C ,  8-H ) :   0.5050 B(  4-C ,  9-H ) :   0.5050
B(  4-C , 10-H ) :   0.1337 B(  4-C , 11-H ) :   0.1337 B(  5-C ,  6-C ) :   1.2086
B(  5-C , 12-H ) :   0.9596 B(  5-C , 13-H ) :   0.9183 B(  5-C , 14-H ) :   0.9596
B(  6-C , 15-H ) :   0.7824 B(  6-C , 16-H ) :   0.7824

MP2 TOTAL ENERGY:     -325.944163911 Eh
FINAL SINGLE POINT ENERGY      -325.944163911055

DIPOLE MOMENT
-------------
                                X             Y             Z
Electronic contribution:      2.37717      -7.86418       0.00000
Nuclear contribution   :     -2.42432       9.00386       0.00000
                        -----------------------------------------
Total Dipole Moment    :     -0.04714       1.13968       0.00000
                        -----------------------------------------
Magnitude (a.u.)       :      1.14065
Magnitude (Debye)      :      2.89930

Rotational constants in cm-1:     0.159720     0.048688     0.040919
Rotational constants in MHz :  4788.279056  1459.618881  1226.714672

                             ****ORCA TERMINATED NORMALLY****
TOTAL RUN TIME: 0 days 0 hours 1 minutes 17 seconds 214 msec
