                         Program Version 5.0.3 -  RELEASE  -
|  1> !ri-mp2 aug-cc-pvdz aug-cc-pvdz/c tightscf
|  2> %pal nprocs 16 end
|  3>
|  4> * xyz 0 1
|  5> C      0.000000    1.224565    0.305825
|  6> C      0.000000   -1.224565    0.305825
|  7> C      0.000000    1.188942   -1.044134
|  8> C      0.000000   -1.188942   -1.044134
|  9> C      0.000000    0.000000    1.104808
| 10> N      0.000000    0.000000   -1.722199
| 11> O      0.000000    0.000000    2.335063
| 12> H      0.000000    2.171811    0.824427
| 13> H      0.000000   -2.171811    0.824427
| 14> H      0.000000    2.077841   -1.658455
| 15> H      0.000000   -2.077841   -1.658455
| 16> H      0.000000    0.000000   -2.726202
| 17> *
| 18>
| 19>                          ****END OF INPUT****

CARTESIAN COORDINATES (ANGSTROEM)
---------------------------------
  C      0.000000    1.224565    0.305825
  C      0.000000   -1.224565    0.305825
  C      0.000000    1.188942   -1.044134
  C      0.000000   -1.188942   -1.044134
  C      0.000000    0.000000    1.104808
  N      0.000000    0.000000   -1.722199
  O      0.000000    0.000000    2.335063
  H      0.000000    2.171811    0.824427
  H      0.000000   -2.171811    0.824427
  H      0.000000    2.077841   -1.658455
  H      0.000000   -2.077841   -1.658455
  H      0.000000    0.000000   -2.726202

 Total Charge           Charge          ....    0
 Multiplicity           Mult            ....    1
 Number of Electrons    NEL             ....   50
 Basis Dimension        Dim             ....  206

ORBITAL ENERGIES
----------------

  NO   OCC          E(Eh)            E(eV)
   0   2.0000     -20.511185      -558.1377
   1   2.0000     -15.645442      -425.7341
   2   2.0000     -11.319806      -308.0276
   3   2.0000     -11.316349      -307.9335
   4   2.0000     -11.316320      -307.9327
   5   2.0000     -11.239017      -305.8292
   6   2.0000     -11.239003      -305.8288
   7   2.0000      -1.348304       -36.6892
   8   2.0000      -1.318137       -35.8683
   9   2.0000      -1.071043       -29.1446
  10   2.0000      -1.068821       -29.0841
  11   2.0000      -0.880003       -23.9461
  12   2.0000      -0.856745       -23.3132
  13   2.0000      -0.786832       -21.4108
  14   2.0000      -0.696554       -18.9542
  15   2.0000      -0.673074       -18.3153
  16   2.0000      -0.633246       -17.2315
  17   2.0000      -0.621118       -16.9015
  18   2.0000      -0.601157       -16.3583
  19   2.0000      -0.564821       -15.3696
  20   2.0000      -0.544695       -14.8219
  21   2.0000      -0.510099       -13.8805
  22   2.0000      -0.396342       -10.7850
  23   2.0000      -0.388985       -10.5848
  24   2.0000      -0.325574        -8.8593
  25   0.0000       0.016308         0.4438
  26   0.0000       0.033614         0.9147
  27   0.0000       0.045881         1.2485
  28   0.0000       0.059551         1.6205
  29   0.0000       0.068240         1.8569

MULLIKEN ATOMIC CHARGES
-----------------------
   0 C :    1.016172
   1 C :    1.016172
   2 C :    0.587631
   3 C :    0.587631
   4 C :   -0.112559
   5 N :   -0.515848
   6 O :   -0.862024
   7 H :   -0.452215
   8 H :   -0.452215
   9 H :   -0.373243
  10 H :   -0.373243
  11 H :   -0.066257
Sum of atomic charges:   -0.0000000

LOEWDIN ATOMIC CHARGES
----------------------
   0 C :    0.071505
   1 C :    0.071505
   2 C :    0.037944
   3 C :    0.037944
   4 C :   -0.343519
   5 N :    0.072809
   6 O :   -0.017996
   7 H :    0.003604
   8 H :    0.003604
   9 H :    0.019009
  10 H :    0.019009
  11 H :    0.024582

  Mayer bond orders larger than 0.100000
B(  0-C ,  1-C ) :   0.1444 B(  0-C ,  2-C ) :   1.5694 B(  0-C ,  4-C ) :   0.9304
B(  0-C ,  7-H ) :   0.4385 B(  1-C ,  3-C ) :   1.5694 B(  1-C ,  4-C ) :   0.9304
B(  1-C ,  8-H ) :   0.4385 B(  2-C ,  3-C ) :   0.2062 B(  2-C ,  4-C ) :   0.2390
B(  2-C ,  5-N ) :   0.9761 B(  2-C ,  7-H ) :   0.1059 B(  2-C ,  9-H ) :   0.6955
B(  2-C , 11-H ) :  -0.1003 B(  3-C ,  4-C ) :   0.2390 B(  3-C ,  5-N ) :   0.9761
B(  3-C ,  8-H ) :   0.1059 B(  3-C , 10-H ) :   0.6955 B(  3-C , 11-H ) :  -0.1003
B(  4-C ,  6-O ) :   1.2374 B(  4-C ,  7-H ) :   0.2133 B(  4-C ,  8-H ) :   0.2133
B(  5-N , 11-H ) :   1.1678

MP2 TOTAL ENERGY:     -322.627219616 Eh
FINAL SINGLE POINT ENERGY      -322.627219615892

DIPOLE MOMENT
-------------
                                X             Y             Z
Electronic contribution:     -0.00000      -0.00000       1.38626
Nuclear contribution   :      0.00000       0.00000      -4.31257
                        -----------------------------------------
Total Dipole Moment    :     -0.00000      -0.00000      -2.92631
                        -----------------------------------------
Magnitude (a.u.)       :      2.92631
Magnitude (Debye)      :      7.43808

Rotational constants in cm-1:     0.191146     0.090591     0.061462
Rotational constants in MHz :  5730.417964  2715.860918  1842.588720

                             ****ORCA TERMINATED NORMALLY****
TOTAL RUN TIME: 0 days 0 hours 0 minutes 36 seconds 933 msec
