                         Program Version 5.0.3 -  RELEASE  -
|  1> !ri-mp2 aug-cc-pvdz aug-cc-pvdz/c tightscf
|  2> %pal nprocs 16 end
|  3>
|  4> * xyz 0 1
|  5> S    -0.844455   -1.432131   -0.001735
|  6> N    -1.485615    1.063138    0.005370
|  7> N     0.565464    2.204052   -0.054581
|  8> N     2.937529   -0.771304    0.008341
|  9> C    -0.117671    1.028945   -0.005236
| 10> C     0.435762   -0.243451   -0.005215
| 11> C    -1.980824   -0.136886    0.007729
| 12> C     1.800797   -0.558509   -0.000399
| 13> H    -3.040901   -0.340536    0.015885
| 14> H     0.051496    3.036922    0.173244
| 15> H     1.550661    2.205914    0.143440
| 16> *
| 17>
| 18>                          ****END OF INPUT****

CARTESIAN COORDINATES (ANGSTROEM)
---------------------------------
  S     -0.844455   -1.432131   -0.001735
  N     -1.485615    1.063138    0.005370
  N      0.565464    2.204052   -0.054581
  N      2.937529   -0.771304    0.008341
  C     -0.117671    1.028945   -0.005236
  C      0.435762   -0.243451   -0.005215
  C     -1.980824   -0.136886    0.007729
  C      1.800797   -0.558509   -0.000399
  H     -3.040901   -0.340536    0.015885
  H      0.051496    3.036922    0.173244
  H      1.550661    2.205914    0.143440

 Total Charge           Charge          ....    0
 Multiplicity           Mult            ....    1
 Number of Electrons    NEL             ....   64
 Basis Dimension        Dim             ....  215

ORBITAL ENERGIES
----------------

  NO   OCC          E(Eh)            E(eV)
   0   2.0000     -92.024060     -2504.1020
   1   2.0000     -15.610163      -424.7741
   2   2.0000     -15.607634      -424.7053
   3   2.0000     -15.584414      -424.0735
   4   2.0000     -11.364748      -309.2505
   5   2.0000     -11.357400      -309.0506
   6   2.0000     -11.295063      -307.3543
   7   2.0000     -11.292798      -307.2926
   8   2.0000      -9.026056      -245.6115
   9   2.0000      -6.707579      -182.5225
  10   2.0000      -6.706692      -182.4984
  11   2.0000      -6.704661      -182.4431
  12   2.0000      -1.341118       -36.4937
  13   2.0000      -1.238656       -33.7055
  14   2.0000      -1.227688       -33.4071
  15   2.0000      -1.105636       -30.0859
  16   2.0000      -1.021544       -27.7976
  17   2.0000      -0.890299       -24.2263
  18   2.0000      -0.822219       -22.3737
  19   2.0000      -0.776285       -21.1238
  20   2.0000      -0.705995       -19.2111
  21   2.0000      -0.658557       -17.9203
  22   2.0000      -0.629654       -17.1338
  23   2.0000      -0.620152       -16.8752
  24   2.0000      -0.560008       -15.2386
  25   2.0000      -0.557773       -15.1778
  26   2.0000      -0.508860       -13.8468
  27   2.0000      -0.497586       -13.5400
  28   2.0000      -0.474909       -12.9229
  29   2.0000      -0.454804       -12.3758
  30   2.0000      -0.408193       -11.1075
  31   2.0000      -0.326371        -8.8810
  32   0.0000       0.028155         0.7661
  33   0.0000       0.034009         0.9254
  34   0.0000       0.059752         1.6259
  35   0.0000       0.060742         1.6529
  36   0.0000       0.071918         1.9570

MULLIKEN ATOMIC CHARGES
-----------------------
   0 S :    0.434153
   1 N :   -0.698463
   2 N :   -0.326887
   3 N :   -0.294089
   4 C :    0.397809
   5 C :    1.107947
   6 C :    0.287758
   7 C :   -0.655040
   8 H :   -0.221522
   9 H :   -0.034650
  10 H :    0.002984
Sum of atomic charges:   -0.0000000

LOEWDIN ATOMIC CHARGES
----------------------
   0 S :    1.010727
   1 N :    0.003374
   2 N :    0.282903
   3 N :    0.076009
   4 C :   -0.334582
   5 C :   -0.470984
   6 C :   -0.280635
   7 C :   -0.229765
   8 H :   -0.035303
   9 H :   -0.011237
  10 H :   -0.010508

  Mayer bond orders larger than 0.100000
B(  0-S ,  5-C ) :   0.9061 B(  0-S ,  6-C ) :   0.9877 B(  0-S ,  7-C ) :  -0.1641
B(  0-S ,  8-H ) :  -0.1151 B(  1-N ,  4-C ) :   0.9295 B(  1-N ,  6-C ) :   1.6255
B(  2-N ,  4-C ) :   0.8839 B(  2-N ,  5-C ) :  -0.1908 B(  2-N ,  9-H ) :   1.1595
B(  2-N , 10-H ) :   1.1163 B(  3-N ,  7-C ) :   2.5441 B(  4-C ,  5-C ) :   1.0854
B(  4-C ,  6-C ) :  -0.2416 B(  4-C ,  7-C ) :   0.2786 B(  4-C ,  9-H ) :  -0.1032
B(  5-C ,  6-C ) :   0.1098 B(  6-C ,  8-H ) :   1.0485

MP2 TOTAL ENERGY:     -715.294405776 Eh
FINAL SINGLE POINT ENERGY      -715.294405776334

DIPOLE MOMENT
-------------
                                X             Y             Z
Electronic contribution:     -0.16521      -4.10175      -0.07543
Nuclear contribution   :     -1.34541       4.76482       0.31923
                        -----------------------------------------
Total Dipole Moment    :     -1.51062       0.66307       0.24380
                        -----------------------------------------
Magnitude (a.u.)       :      1.66766
Magnitude (Debye)      :      4.23885

Rotational constants in cm-1:     0.089024     0.060272     0.035954
Rotational constants in MHz :  2668.881103  1806.911918  1077.866202

                             ****ORCA TERMINATED NORMALLY****
TOTAL RUN TIME: 0 days 0 hours 0 minutes 43 seconds 627 msec
