                         Program Version 5.0.3 -  RELEASE  -
|  1> !ri-mp2 aug-cc-pvdz aug-cc-pvdz/c tightscf
|  2> %pal nprocs 16 end
|  3>
|  4> * xyz 0 1
|  5> S    -3.117372   -0.219151   -0.000042
|  6> O     1.880210    1.021564   -0.000017
|  7> O     3.047958   -0.924185    0.000000
|  8> N     0.735994   -0.877231    0.000067
|  9> C    -0.262689    0.101627    0.000020
| 10> C     2.003640   -0.340666    0.000015
| 11> C     0.502611    1.419673    0.000015
| 12> C    -1.560452   -0.063026   -0.000009
| 13> H     0.587091   -1.870027    0.000039
| 14> H     0.307433    2.016200   -0.890818
| 15> H     0.307471    2.016180    0.890870
| 16> *
| 17>
| 18>                          ****END OF INPUT****

CARTESIAN COORDINATES (ANGSTROEM)
---------------------------------
  S     -3.117372   -0.219151   -0.000042
  O      1.880210    1.021564   -0.000017
  O      3.047958   -0.924185    0.000000
  N      0.735994   -0.877231    0.000067
  C     -0.262689    0.101627    0.000020
  C      2.003640   -0.340666    0.000015
  C      0.502611    1.419673    0.000015
  C     -1.560452   -0.063026   -0.000009
  H      0.587091   -1.870027    0.000039
  H      0.307433    2.016200   -0.890818
  H      0.307471    2.016180    0.890870

 Total Charge           Charge          ....    0
 Multiplicity           Mult            ....    1
 Number of Electrons    NEL             ....   66
 Basis Dimension        Dim             ....  215

ORBITAL ENERGIES
----------------

  NO   OCC          E(Eh)            E(eV)
   0   2.0000     -91.995598     -2503.3275
   1   2.0000     -20.639322      -561.6245
   2   2.0000     -20.562338      -559.5297
   3   2.0000     -15.645454      -425.7345
   4   2.0000     -11.439651      -311.2887
   5   2.0000     -11.349222      -308.8280
   6   2.0000     -11.346613      -308.7570
   7   2.0000     -11.337416      -308.5068
   8   2.0000      -8.997271      -244.8282
   9   2.0000      -6.679304      -181.7531
  10   2.0000      -6.677397      -181.7012
  11   2.0000      -6.675065      -181.6378
  12   2.0000      -1.500614       -40.8338
  13   2.0000      -1.395586       -37.9758
  14   2.0000      -1.292257       -35.1641
  15   2.0000      -1.128812       -30.7165
  16   2.0000      -1.046252       -28.4700
  17   2.0000      -0.951369       -25.8881
  18   2.0000      -0.875958       -23.8360
  19   2.0000      -0.804991       -21.9049
  20   2.0000      -0.734583       -19.9890
  21   2.0000      -0.725716       -19.7477
  22   2.0000      -0.662399       -18.0248
  23   2.0000      -0.633614       -17.2415
  24   2.0000      -0.612586       -16.6693
  25   2.0000      -0.611615       -16.6429
  26   2.0000      -0.581649       -15.8275
  27   2.0000      -0.565002       -15.3745
  28   2.0000      -0.484136       -13.1740
  29   2.0000      -0.482814       -13.1380
  30   2.0000      -0.464242       -12.6327
  31   2.0000      -0.442754       -12.0480
  32   2.0000      -0.316023        -8.5994
  33   0.0000       0.023604         0.6423
  34   0.0000       0.028750         0.7823
  35   0.0000       0.042465         1.1555
  36   0.0000       0.047192         1.2842
  37   0.0000       0.060618         1.6495

MULLIKEN ATOMIC CHARGES
-----------------------
   0 S :    0.044429
   1 O :   -0.830541
   2 O :   -0.710056
   3 N :   -0.654874
   4 C :    0.346661
   5 C :    1.139384
   6 C :    1.079038
   7 C :   -0.148598
   8 H :   -0.128626
   9 H :   -0.068417
  10 H :   -0.068401
Sum of atomic charges:   -0.0000000

LOEWDIN ATOMIC CHARGES
----------------------
   0 S :    0.679913
   1 O :    0.103575
   2 O :    0.057075
   3 N :    0.144938
   4 C :   -0.278824
   5 C :   -0.349914
   6 C :    0.094672
   7 C :   -0.533296
   8 H :    0.039679
   9 H :    0.021091
  10 H :    0.021091

  Mayer bond orders larger than 0.100000
B(  0-S ,  4-C ) :   0.3009 B(  0-S ,  7-C ) :   1.7480 B(  1-O ,  4-C ) :   0.4316
B(  1-O ,  5-C ) :   0.7649 B(  1-O ,  6-C ) :   0.2595 B(  2-O ,  4-C ) :   0.1061
B(  2-O ,  5-C ) :   1.5447 B(  3-N ,  4-C ) :   0.8039 B(  3-N ,  5-C ) :   1.1453
B(  3-N ,  7-C ) :  -0.2243 B(  3-N ,  8-H ) :   1.2759 B(  4-C ,  6-C ) :   0.9300
B(  4-C ,  7-C ) :   1.5005 B(  4-C ,  8-H ) :  -0.1458 B(  5-C ,  8-H ) :  -0.1028
B(  6-C ,  9-H ) :   0.9552 B(  6-C , 10-H ) :   0.9552 B(  9-H , 10-H ) :  -0.1034

MP2 TOTAL ENERGY:     -756.149619367 Eh
FINAL SINGLE POINT ENERGY      -756.149619366926

DIPOLE MOMENT
-------------
                                X             Y             Z
Electronic contribution:     -2.51515      -1.71954      -0.00007
Nuclear contribution   :      1.32483       2.07863       0.00009
                        -----------------------------------------
Total Dipole Moment    :     -1.19032       0.35909       0.00002
                        -----------------------------------------
Magnitude (a.u.)       :      1.24331
Magnitude (Debye)      :      3.16023

Rotational constants in cm-1:     0.206241     0.027736     0.024562
Rotational constants in MHz :  6182.944808   831.503362   736.352791

                             ****ORCA TERMINATED NORMALLY****
TOTAL RUN TIME: 0 days 0 hours 0 minutes 43 seconds 60 msec
