                         Program Version 5.0.3 -  RELEASE  -
|  1> !ri-mp2 aug-cc-pvdz aug-cc-pvdz/c tightscf
|  2> %pal nprocs 16 end
|  3>
|  4> * xyz 0 1
|  5> N      0.022052   -1.868589        0.000000
|  6> C     -1.118779   -1.180044        0.000000
|  7> C     -1.190003    0.206824        0.000000
|  8> C      0.000000    0.928441        0.000000
|  9> C      1.202363    0.228588        0.000000
| 10> C      1.152339   -1.156758        0.000000
| 11> O      0.047471    2.286339        0.000000
| 12> H     -2.032661   -1.763240        0.000000
| 13> H     -2.150092    0.708021        0.000000
| 14> H      2.143131    0.759763        0.000000
| 15> H      2.074927   -1.725725        0.000000
| 16> H     -0.844958    2.648295        0.000000
| 17> *
| 18>
| 19>                          ****END OF INPUT****

CARTESIAN COORDINATES (ANGSTROEM)
---------------------------------
  N      0.022052   -1.868589    0.000000
  C     -1.118779   -1.180044    0.000000
  C     -1.190003    0.206824    0.000000
  C      0.000000    0.928441    0.000000
  C      1.202363    0.228588    0.000000
  C      1.152339   -1.156758    0.000000
  O      0.047471    2.286339    0.000000
  H     -2.032661   -1.763240    0.000000
  H     -2.150092    0.708021    0.000000
  H      2.143131    0.759763    0.000000
  H      2.074927   -1.725725    0.000000
  H     -0.844958    2.648295    0.000000

 Total Charge           Charge          ....    0
 Multiplicity           Mult            ....    1
 Number of Electrons    NEL             ....   50
 Basis Dimension        Dim             ....  206

ORBITAL ENERGIES
----------------

  NO   OCC          E(Eh)            E(eV)
   0   2.0000     -20.621154      -561.1301
   1   2.0000     -15.566202      -423.5779
   2   2.0000     -11.334998      -308.4410
   3   2.0000     -11.288048      -307.1634
   4   2.0000     -11.285405      -307.0915
   5   2.0000     -11.247552      -306.0615
   6   2.0000     -11.241400      -305.8940
   7   2.0000      -1.432384       -38.9771
   8   2.0000      -1.262422       -34.3522
   9   2.0000      -1.084466       -29.5098
  10   2.0000      -1.043273       -28.3889
  11   2.0000      -0.880287       -23.9538
  12   2.0000      -0.860121       -23.4051
  13   2.0000      -0.761408       -20.7190
  14   2.0000      -0.703116       -19.1328
  15   2.0000      -0.666908       -18.1475
  16   2.0000      -0.634357       -17.2617
  17   2.0000      -0.611248       -16.6329
  18   2.0000      -0.603888       -16.4326
  19   2.0000      -0.591970       -16.1083
  20   2.0000      -0.527379       -14.3507
  21   2.0000      -0.517704       -14.0875
  22   2.0000      -0.420929       -11.4541
  23   2.0000      -0.360799        -9.8178
  24   2.0000      -0.354896        -9.6572
  25   0.0000       0.027389         0.7453
  26   0.0000       0.041436         1.1275
  27   0.0000       0.044693         1.2162
  28   0.0000       0.059836         1.6282
  29   0.0000       0.066279         1.8035

MULLIKEN ATOMIC CHARGES
-----------------------
   0 N :   -0.591820
   1 C :    0.294803
   2 C :    1.055884
   3 C :    0.087600
   4 C :    1.166024
   5 C :    0.242160
   6 O :   -0.847246
   7 H :   -0.301582
   8 H :   -0.530290
   9 H :   -0.436425
  10 H :   -0.305990
  11 H :    0.166881
Sum of atomic charges:   -0.0000000

LOEWDIN ATOMIC CHARGES
----------------------
   0 N :    0.017462
   1 C :   -0.036068
   2 C :    0.048778
   3 C :   -0.231679
   4 C :    0.058011
   5 C :   -0.031812
   6 O :    0.196494
   7 H :    0.003869
   8 H :   -0.001538
   9 H :    0.005862
  10 H :    0.003943
  11 H :   -0.033320

  Mayer bond orders larger than 0.100000
B(  0-N ,  1-C ) :   1.2917 B(  0-N ,  5-C ) :   1.2653 B(  0-N , 10-H ) :  -0.1058
B(  1-C ,  2-C ) :   1.1522 B(  1-C ,  3-C ) :   0.3772 B(  1-C ,  4-C ) :  -0.2100
B(  1-C ,  5-C ) :   0.3024 B(  1-C ,  7-H ) :   0.9108 B(  2-C ,  3-C ) :   1.1692
B(  2-C ,  4-C ) :   0.2060 B(  2-C ,  5-C ) :  -0.1503 B(  2-C ,  8-H ) :   0.4042
B(  3-C ,  4-C ) :   1.2411 B(  3-C ,  5-C ) :   0.4569 B(  3-C ,  6-O ) :   0.1134
B(  3-C ,  8-H ) :   0.2846 B(  3-C ,  9-H ) :   0.3744 B(  4-C ,  5-C ) :   1.0135
B(  4-C ,  9-H ) :   0.2728 B(  5-C ,  9-H ) :   0.1026 B(  5-C , 10-H ) :   0.9506
B(  6-O , 11-H ) :   1.0639

MP2 TOTAL ENERGY:     -322.634901996 Eh
FINAL SINGLE POINT ENERGY      -322.634901995733

DIPOLE MOMENT
-------------
                                X             Y             Z
Electronic contribution:      0.24470       0.20842      -0.00000
Nuclear contribution   :     -0.79859       0.64398       0.00000
                        -----------------------------------------
Total Dipole Moment    :     -0.55390       0.85240      -0.00000
                        -----------------------------------------
Magnitude (a.u.)       :      1.01655
Magnitude (Debye)      :      2.58387

Rotational constants in cm-1:     0.200926     0.088202     0.061295
Rotational constants in MHz :  6023.595181  2644.228179  1837.573224

                             ****ORCA TERMINATED NORMALLY****
TOTAL RUN TIME: 0 days 0 hours 0 minutes 34 seconds 131 msec
