                         Program Version 5.0.3 -  RELEASE  -
|  1> !ri-mp2 aug-cc-pvdz aug-cc-pvdz/c tightscf
|  2> %pal nprocs 16 end
|  3>
|  4> * xyz 0 1
|  5> C     2.045287    1.959573    0.000020
|  6> C     1.079023    0.821006    0.000009
|  7> C     1.317642   -0.506197    0.000000
|  8> C     2.614953   -1.243781    0.000000
|  9> S    -0.210914   -1.391881   -0.000010
| 10> C    -1.168018    0.085615   -0.000003
| 11> N    -0.281545    1.116807    0.000007
| 12> S    -2.819584    0.202116   -0.000008
| 13> H     1.909294    2.589853   -0.881908
| 14> H     3.071241    1.602683    0.000021
| 15> H     1.909289    2.589840    0.881956
| 16> H     2.709293   -1.883500   -0.879789
| 17> H     2.709288   -1.883511    0.879781
| 18> H     3.456495   -0.553476    0.000007
| 19> H    -0.639431    2.059413    0.000012
| 20> *
| 21>
| 22>                          ****END OF INPUT****

CARTESIAN COORDINATES (ANGSTROEM)
---------------------------------
  C      2.045287    1.959573    0.000020
  C      1.079023    0.821006    0.000009
  C      1.317642   -0.506197    0.000000
  C      2.614953   -1.243781    0.000000
  S     -0.210914   -1.391881   -0.000010
  C     -1.168018    0.085615   -0.000003
  N     -0.281545    1.116807    0.000007
  S     -2.819584    0.202116   -0.000008
  H      1.909294    2.589853   -0.881908
  H      3.071241    1.602683    0.000021
  H      1.909289    2.589840    0.881956
  H      2.709293   -1.883500   -0.879789
  H      2.709288   -1.883511    0.879781
  H      3.456495   -0.553476    0.000007
  H     -0.639431    2.059413    0.000012

 Total Charge           Charge          ....    0
 Multiplicity           Mult            ....    1
 Number of Electrons    NEL             ....   76
 Basis Dimension        Dim             ....  255

ORBITAL ENERGIES
----------------

  NO   OCC          E(Eh)            E(eV)
   0   2.0000     -91.999215     -2503.4259
   1   2.0000     -91.903353     -2500.8174
   2   2.0000     -15.644247      -425.7016
   3   2.0000     -11.378481      -309.6242
   4   2.0000     -11.311964      -307.8142
   5   2.0000     -11.286430      -307.1194
   6   2.0000     -11.268869      -306.6415
   7   2.0000     -11.261360      -306.4372
   8   2.0000      -9.001874      -244.9534
   9   2.0000      -8.906509      -242.3584
  10   2.0000      -6.683376      -181.8639
  11   2.0000      -6.682301      -181.8347
  12   2.0000      -6.680298      -181.7802
  13   2.0000      -6.589004      -179.2959
  14   2.0000      -6.585892      -179.2112
  15   2.0000      -6.585035      -179.1879
  16   2.0000      -1.334052       -36.3014
  17   2.0000      -1.121289       -30.5118
  18   2.0000      -1.088262       -29.6131
  19   2.0000      -1.002703       -27.2849
  20   2.0000      -0.982485       -26.7348
  21   2.0000      -0.901378       -24.5277
  22   2.0000      -0.815458       -22.1897
  23   2.0000      -0.779039       -21.1987
  24   2.0000      -0.683447       -18.5975
  25   2.0000      -0.641872       -17.4662
  26   2.0000      -0.620467       -16.8838
  27   2.0000      -0.594273       -16.1710
  28   2.0000      -0.590744       -16.0750
  29   2.0000      -0.579124       -15.7588
  30   2.0000      -0.571557       -15.5529
  31   2.0000      -0.562644       -15.3103
  32   2.0000      -0.506288       -13.7768
  33   2.0000      -0.488715       -13.2986
  34   2.0000      -0.421566       -11.4714
  35   2.0000      -0.397087       -10.8053
  36   2.0000      -0.325910        -8.8685
  37   2.0000      -0.292075        -7.9478
  38   0.0000       0.024139         0.6569
  39   0.0000       0.032813         0.8929
  40   0.0000       0.046085         1.2540
  41   0.0000       0.047037         1.2799
  42   0.0000       0.059059         1.6071

MULLIKEN ATOMIC CHARGES
-----------------------
   0 C :    0.582731
   1 C :   -0.064728
   2 C :   -0.459811
   3 C :    0.438043
   4 S :    0.447728
   5 C :   -0.333573
   6 N :   -0.717380
   7 S :   -0.033430
   8 H :    0.089855
   9 H :   -0.067208
  10 H :    0.089854
  11 H :    0.101176
  12 H :    0.101175
  13 H :   -0.071893
  14 H :   -0.102539
Sum of atomic charges:    0.0000000

LOEWDIN ATOMIC CHARGES
----------------------
   0 C :    0.203037
   1 C :   -0.270229
   2 C :   -0.453498
   3 C :    0.126821
   4 S :    0.989520
   5 C :   -0.991609
   6 N :   -0.005322
   7 S :    0.437139
   8 H :   -0.000577
   9 H :   -0.017402
  10 H :   -0.000577
  11 H :   -0.010035
  12 H :   -0.010035
  13 H :   -0.022870
  14 H :    0.025637

  Mayer bond orders larger than 0.100000
B(  0-C ,  1-C ) :   1.3104 B(  0-C ,  3-C ) :   0.1064 B(  0-C ,  6-N ) :  -0.1654
B(  0-C ,  8-H ) :   0.8528 B(  0-C ,  9-H ) :   0.7071 B(  0-C , 10-H ) :   0.8528
B(  1-C ,  2-C ) :   1.9402 B(  1-C ,  3-C ) :  -0.1968 B(  1-C ,  4-S ) :   0.1558
B(  1-C ,  6-N ) :   0.6242 B(  1-C ,  8-H ) :   0.1510 B(  1-C ,  9-H ) :   0.4586
B(  1-C , 10-H ) :   0.1510 B(  1-C , 13-H ) :  -0.1155 B(  1-C , 14-H ) :  -0.1167
B(  2-C ,  3-C ) :   1.3551 B(  2-C ,  4-S ) :   0.8452 B(  2-C ,  9-H ) :  -0.1729
B(  2-C , 13-H ) :   0.2740 B(  3-C ,  4-S ) :  -0.1861 B(  3-C , 11-H ) :   0.8554
B(  3-C , 12-H ) :   0.8554 B(  3-C , 13-H ) :   0.8314 B(  4-S ,  5-C ) :   1.0044
B(  5-C ,  6-N ) :   1.4338 B(  5-C ,  7-S ) :   1.8776 B(  6-N , 14-H ) :   1.2365

MP2 TOTAL ENERGY:    -1044.120380014 Eh
FINAL SINGLE POINT ENERGY     -1044.120380013628

DIPOLE MOMENT
-------------
                                X             Y             Z
Electronic contribution:    -12.35235      -3.73040      -0.00007
Nuclear contribution   :     14.95492       4.48586       0.00008
                        -----------------------------------------
Total Dipole Moment    :      2.60257       0.75545       0.00001
                        -----------------------------------------
Magnitude (a.u.)       :      2.71000
Magnitude (Debye)      :      6.88827

Rotational constants in cm-1:     0.089823     0.034637     0.025232
Rotational constants in MHz :  2692.812609  1038.402137   756.431794

                             ****ORCA TERMINATED NORMALLY****
TOTAL RUN TIME: 0 days 0 hours 0 minutes 58 seconds 701 msec
