                         Program Version 5.0.3 -  RELEASE  -
|  1> !ri-mp2 aug-cc-pvdz aug-cc-pvdz/c tightscf
|  2> %pal nprocs 16 end
|  3>
|  4> * xyz 0 1
|  5> F    -1.348626   -0.049956    1.364939
|  6> F    -2.375705   -0.844928   -0.412965
|  7> O     0.433224   -0.723724   -0.682853
|  8> O     1.618313    0.882499    0.312093
|  9> O     2.419188   -1.228012    0.268661
| 10> C    -0.406254    0.422707   -0.759710
| 11> C     1.578879   -0.436900    0.000770
| 12> C    -1.668924    0.213355    0.065480
| 13> C     0.485739    1.562976   -0.229668
| 14> H    -0.703392    0.567543   -1.797832
| 15> H    -2.315882    1.094850    0.045598
| 16> H     0.016202    2.142547    0.562716
| 17> H     0.819614    2.230086   -1.022680
| 18> *
| 19>
| 20>                          ****END OF INPUT****

CARTESIAN COORDINATES (ANGSTROEM)
---------------------------------
  F     -1.348626   -0.049956    1.364939
  F     -2.375705   -0.844928   -0.412965
  O      0.433224   -0.723724   -0.682853
  O      1.618313    0.882499    0.312093
  O      2.419188   -1.228012    0.268661
  C     -0.406254    0.422707   -0.759710
  C      1.578879   -0.436900    0.000770
  C     -1.668924    0.213355    0.065480
  C      0.485739    1.562976   -0.229668
  H     -0.703392    0.567543   -1.797832
  H     -2.315882    1.094850    0.045598
  H      0.016202    2.142547    0.562716
  H      0.819614    2.230086   -1.022680

 Total Charge           Charge          ....    0
 Multiplicity           Mult            ....    1
 Number of Electrons    NEL             ....   70
 Basis Dimension        Dim             ....  243

ORBITAL ENERGIES
----------------

  NO   OCC          E(Eh)            E(eV)
   0   2.0000     -26.349316      -717.0013
   1   2.0000     -26.347221      -716.9443
   2   2.0000     -20.651155      -561.9465
   3   2.0000     -20.648200      -561.8661
   4   2.0000     -20.569423      -559.7225
   5   2.0000     -11.458708      -311.8073
   6   2.0000     -11.448194      -311.5212
   7   2.0000     -11.359162      -309.0985
   8   2.0000     -11.348585      -308.8107
   9   2.0000      -1.690181       -45.9922
  10   2.0000      -1.628924       -44.3253
  11   2.0000      -1.543898       -42.0116
  12   2.0000      -1.418356       -38.5954
  13   2.0000      -1.407654       -38.3042
  14   2.0000      -1.112241       -30.2656
  15   2.0000      -0.996104       -27.1054
  16   2.0000      -0.914902       -24.8958
  17   2.0000      -0.859929       -23.3998
  18   2.0000      -0.807054       -21.9611
  19   2.0000      -0.794801       -21.6276
  20   2.0000      -0.783845       -21.3295
  21   2.0000      -0.743535       -20.2326
  22   2.0000      -0.724950       -19.7269
  23   2.0000      -0.698798       -19.0153
  24   2.0000      -0.687581       -18.7100
  25   2.0000      -0.656946       -17.8764
  26   2.0000      -0.655053       -17.8249
  27   2.0000      -0.641448       -17.4547
  28   2.0000      -0.632491       -17.2109
  29   2.0000      -0.591751       -16.1024
  30   2.0000      -0.575631       -15.6637
  31   2.0000      -0.560179       -15.2433
  32   2.0000      -0.495763       -13.4904
  33   2.0000      -0.489728       -13.3262
  34   2.0000      -0.483148       -13.1471
  35   0.0000       0.018190         0.4950
  36   0.0000       0.036185         0.9846
  37   0.0000       0.040628         1.1055
  38   0.0000       0.058595         1.5944
  39   0.0000       0.069584         1.8935

MULLIKEN ATOMIC CHARGES
-----------------------
   0 F :   -0.643856
   1 F :   -0.624608
   2 O :   -0.904494
   3 O :   -0.822299
   4 O :   -0.660702
   5 C :    0.444942
   6 C :    1.249906
   7 C :    1.708115
   8 C :    1.004836
   9 H :   -0.174924
  10 H :   -0.202398
  11 H :   -0.219161
  12 H :   -0.155357
Sum of atomic charges:    0.0000000

LOEWDIN ATOMIC CHARGES
----------------------
   0 F :    0.057991
   1 F :    0.057420
   2 O :    0.122457
   3 O :    0.102022
   4 O :    0.078748
   5 C :   -0.129479
   6 C :   -0.349420
   7 C :   -0.134760
   8 C :    0.079947
   9 H :    0.046018
  10 H :    0.036394
  11 H :    0.015282
  12 H :    0.017379

  Mayer bond orders larger than 0.100000
B(  0-F ,  5-C ) :   0.2159 B(  0-F ,  7-C ) :   0.2783 B(  1-F ,  5-C ) :   0.1730
B(  1-F ,  7-C ) :   0.2566 B(  2-O ,  5-C ) :   0.2692 B(  2-O ,  6-C ) :   0.8651
B(  2-O ,  8-C ) :   0.1426 B(  3-O ,  5-C ) :   0.2142 B(  3-O ,  6-C ) :   0.7559
B(  3-O ,  8-C ) :   0.4756 B(  4-O ,  6-C ) :   1.6669 B(  5-C ,  7-C ) :   1.1945
B(  5-C ,  8-C ) :   1.0767 B(  5-C ,  9-H ) :   0.7607 B(  7-C , 10-H ) :   0.8875
B(  8-C , 11-H ) :   0.9539 B(  8-C , 12-H ) :   0.8863

MP2 TOTAL ENERGY:     -578.881194312 Eh
FINAL SINGLE POINT ENERGY      -578.881194311642

DIPOLE MOMENT
-------------
                                X             Y             Z
Electronic contribution:     -2.78445      -4.38863       2.07720
Nuclear contribution   :      1.49027       6.57183      -3.00311
                        -----------------------------------------
Total Dipole Moment    :     -1.29418       2.18320      -0.92592
                        -----------------------------------------
Magnitude (a.u.)       :      2.70159
Magnitude (Debye)      :      6.86689

Rotational constants in cm-1:     0.102365     0.040526     0.036729
Rotational constants in MHz :  3068.812102  1214.932037  1101.105192

                             ****ORCA TERMINATED NORMALLY****
TOTAL RUN TIME: 0 days 0 hours 0 minutes 48 seconds 91 msec
