                         Program Version 5.0.3 -  RELEASE  -
|  1> !ri-mp2 aug-cc-pvdz aug-cc-pvdz/c tightscf
|  2> %pal nprocs 16 end
|  3>
|  4> * xyz 0 1
|  5> C      0.106519    0.321839    1.198642
|  6> C      0.106519    0.321839   -1.198642
|  7> C      0.106519   -1.199020    1.172521
|  8> C      0.106519   -1.199020   -1.172521
|  9> C     -0.609708    2.294708    0.000000
| 10> N     -0.539239    0.845250    0.000000
| 11> O      0.737364   -1.697303    0.000000
| 12> H     -0.440093    0.670990    2.077415
| 13> H      1.146930    0.681983    1.286343
| 14> H      1.146930    0.681983   -1.286343
| 15> H     -0.440093    0.670990   -2.077415
| 16> H      0.665003   -1.599068    2.017754
| 17> H     -0.925754   -1.568194    1.224034
| 18> H     -0.925754   -1.568194   -1.224034
| 19> H      0.665003   -1.599068   -2.017754
| 20> H      0.384828    2.772550    0.000000
| 21> H     -1.149724    2.637811    0.883102
| 22> H     -1.149724    2.637811   -0.883102
| 23> *
| 24>
| 25>                          ****END OF INPUT****

CARTESIAN COORDINATES (ANGSTROEM)
---------------------------------
  C      0.106519    0.321839    1.198642
  C      0.106519    0.321839   -1.198642
  C      0.106519   -1.199020    1.172521
  C      0.106519   -1.199020   -1.172521
  C     -0.609708    2.294708    0.000000
  N     -0.539239    0.845250    0.000000
  O      0.737364   -1.697303    0.000000
  H     -0.440093    0.670990    2.077415
  H      1.146930    0.681983    1.286343
  H      1.146930    0.681983   -1.286343
  H     -0.440093    0.670990   -2.077415
  H      0.665003   -1.599068    2.017754
  H     -0.925754   -1.568194    1.224034
  H     -0.925754   -1.568194   -1.224034
  H      0.665003   -1.599068   -2.017754
  H      0.384828    2.772550    0.000000
  H     -1.149724    2.637811    0.883102
  H     -1.149724    2.637811   -0.883102

 Total Charge           Charge          ....    0
 Multiplicity           Mult            ....    1
 Number of Electrons    NEL             ....   56
 Basis Dimension        Dim             ....  260

ORBITAL ENERGIES
----------------

  NO   OCC          E(Eh)            E(eV)
   0   2.0000     -20.561713      -559.5127
   1   2.0000     -15.557148      -423.3315
   2   2.0000     -11.276343      -306.8449
   3   2.0000     -11.276323      -306.8443
   4   2.0000     -11.254104      -306.2397
   5   2.0000     -11.254089      -306.2393
   6   2.0000     -11.251439      -306.1672
   7   2.0000      -1.376526       -37.4572
   8   2.0000      -1.232273       -33.5319
   9   2.0000      -1.037050       -28.2196
  10   2.0000      -0.982236       -26.7280
  11   2.0000      -0.879945       -23.9445
  12   2.0000      -0.870060       -23.6755
  13   2.0000      -0.772897       -21.0316
  14   2.0000      -0.679925       -18.5017
  15   2.0000      -0.643529       -17.5113
  16   2.0000      -0.638885       -17.3849
  17   2.0000      -0.633002       -17.2249
  18   2.0000      -0.625952       -17.0330
  19   2.0000      -0.571508       -15.5515
  20   2.0000      -0.555056       -15.1038
  21   2.0000      -0.537871       -14.6362
  22   2.0000      -0.527069       -14.3423
  23   2.0000      -0.500826       -13.6282
  24   2.0000      -0.483244       -13.1497
  25   2.0000      -0.455897       -12.4056
  26   2.0000      -0.413335       -11.2474
  27   2.0000      -0.357128        -9.7179
  28   0.0000       0.036452         0.9919
  29   0.0000       0.044249         1.2041
  30   0.0000       0.047490         1.2923
  31   0.0000       0.048193         1.3114
  32   0.0000       0.062473         1.7000

MULLIKEN ATOMIC CHARGES
-----------------------
   0 C :    0.639702
   1 C :    0.639702
   2 C :    0.866830
   3 C :    0.866830
   4 C :    0.665948
   5 N :   -0.955861
   6 O :   -0.936418
   7 H :   -0.247306
   8 H :   -0.129313
   9 H :   -0.129313
  10 H :   -0.247306
  11 H :   -0.229896
  12 H :   -0.086857
  13 H :   -0.086857
  14 H :   -0.229896
  15 H :   -0.027509
  16 H :   -0.186240
  17 H :   -0.186240
Sum of atomic charges:   -0.0000000

LOEWDIN ATOMIC CHARGES
----------------------
   0 C :   -0.026419
   1 C :   -0.026419
   2 C :   -0.013572
   3 C :   -0.013572
   4 C :    0.135450
   5 N :   -0.170032
   6 O :    0.002338
   7 H :    0.020698
   8 H :    0.027182
   9 H :    0.027182
  10 H :    0.020698
  11 H :    0.009864
  12 H :    0.016493
  13 H :    0.016493
  14 H :    0.009864
  15 H :   -0.007558
  16 H :   -0.014344
  17 H :   -0.014344

  Mayer bond orders larger than 0.100000
B(  0-C ,  2-C ) :   1.2555 B(  0-C ,  5-N ) :   0.9385 B(  0-C ,  7-H ) :   0.8961
B(  0-C ,  8-H ) :   0.8142 B(  1-C ,  3-C ) :   1.2555 B(  1-C ,  5-N ) :   0.9385
B(  1-C ,  9-H ) :   0.8142 B(  1-C , 10-H ) :   0.8961 B(  2-C ,  6-O ) :   0.6189
B(  2-C , 11-H ) :   0.9524 B(  2-C , 12-H ) :   0.8549 B(  3-C ,  6-O ) :   0.6189
B(  3-C , 13-H ) :   0.8549 B(  3-C , 14-H ) :   0.9524 B(  4-C ,  5-N ) :   1.0403
B(  4-C , 15-H ) :   0.8092 B(  4-C , 16-H ) :   0.9956 B(  4-C , 17-H ) :   0.9956
B(  5-N ,  8-H ) :   0.1237 B(  5-N ,  9-H ) :   0.1237 B(  5-N , 15-H ) :   0.1700
B(  7-H ,  8-H ) :  -0.1011 B(  9-H , 10-H ) :  -0.1011 B( 11-H , 12-H ) :  -0.1379
B( 13-H , 14-H ) :  -0.1379 B( 16-H , 17-H ) :  -0.1230

MP2 TOTAL ENERGY:     -326.177990136 Eh
FINAL SINGLE POINT ENERGY      -326.177990136457

DIPOLE MOMENT
-------------
                                X             Y             Z
Electronic contribution:      0.85583      -4.03597       0.00000
Nuclear contribution   :     -1.05432       4.57272      -0.00000
                        -----------------------------------------
Total Dipole Moment    :     -0.19849       0.53675       0.00000
                        -----------------------------------------
Magnitude (a.u.)       :      0.57227
Magnitude (Debye)      :      1.45460

Rotational constants in cm-1:     0.160190     0.077987     0.057014
Rotational constants in MHz :  4802.386395  2337.986611  1709.231312

                             ****ORCA TERMINATED NORMALLY****
TOTAL RUN TIME: 0 days 0 hours 1 minutes 1 seconds 26 msec
