                         Program Version 5.0.3 -  RELEASE  -
|  1> !ri-mp2 aug-cc-pvdz aug-cc-pvdz/c tightscf
|  2> %pal nprocs 16 end
|  3>
|  4> * xyz 0 1
|  5> S     0.212246    1.503595    0.000013
|  6> S     2.374967   -0.597531   -0.000005
|  7> N    -0.270384   -1.016336   -0.000009
|  8> N    -2.558616   -1.309203   -0.000011
|  9> C     0.793728   -0.164480   -0.000001
| 10> C    -1.566028   -0.523204   -0.000005
| 11> C    -1.550107    0.995182    0.000009
| 12> H    -0.112586   -2.013711   -0.000018
| 13> H    -3.442358   -0.809316   -0.000007
| 14> H    -2.051518    1.379900   -0.885946
| 15> H    -2.051518    1.379884    0.885970
| 16> *
| 17>
| 18>                          ****END OF INPUT****

CARTESIAN COORDINATES (ANGSTROEM)
---------------------------------
  S      0.212246    1.503595    0.000013
  S      2.374967   -0.597531   -0.000005
  N     -0.270384   -1.016336   -0.000009
  N     -2.558616   -1.309203   -0.000011
  C      0.793728   -0.164480   -0.000001
  C     -1.566028   -0.523204   -0.000005
  C     -1.550107    0.995182    0.000009
  H     -0.112586   -2.013711   -0.000018
  H     -3.442358   -0.809316   -0.000007
  H     -2.051518    1.379900   -0.885946
  H     -2.051518    1.379884    0.885970

 Total Charge           Charge          ....    0
 Multiplicity           Mult            ....    1
 Number of Electrons    NEL             ....   68
 Basis Dimension        Dim             ....  205

ORBITAL ENERGIES
----------------

  NO   OCC          E(Eh)            E(eV)
   0   2.0000     -92.008570     -2503.6805
   1   2.0000     -91.929150     -2501.5193
   2   2.0000     -15.651048      -425.8867
   3   2.0000     -15.577421      -423.8832
   4   2.0000     -11.401539      -310.2516
   5   2.0000     -11.373654      -309.4929
   6   2.0000     -11.317843      -307.9742
   7   2.0000      -9.010793      -245.1961
   8   2.0000      -8.932600      -243.0684
   9   2.0000      -6.692335      -182.1077
  10   2.0000      -6.691103      -182.0742
  11   2.0000      -6.688902      -182.0143
  12   2.0000      -6.614919      -180.0011
  13   2.0000      -6.612127      -179.9251
  14   2.0000      -6.610899      -179.8917
  15   2.0000      -1.355043       -36.8726
  16   2.0000      -1.227303       -33.3966
  17   2.0000      -1.106345       -30.1052
  18   2.0000      -1.051429       -28.6108
  19   2.0000      -0.929543       -25.2942
  20   2.0000      -0.857725       -23.3399
  21   2.0000      -0.827585       -22.5197
  22   2.0000      -0.698141       -18.9974
  23   2.0000      -0.675739       -18.3878
  24   2.0000      -0.648332       -17.6420
  25   2.0000      -0.622928       -16.9507
  26   2.0000      -0.586023       -15.9465
  27   2.0000      -0.535377       -14.5683
  28   2.0000      -0.523050       -14.2329
  29   2.0000      -0.484265       -13.1775
  30   2.0000      -0.451104       -12.2752
  31   2.0000      -0.389355       -10.5949
  32   2.0000      -0.348277        -9.4771
  33   2.0000      -0.347579        -9.4581
  34   0.0000       0.023508         0.6397
  35   0.0000       0.044094         1.1999
  36   0.0000       0.048101         1.3089
  37   0.0000       0.052673         1.4333
  38   0.0000       0.062523         1.7013

MULLIKEN ATOMIC CHARGES
-----------------------
   0 S :    0.671050
   1 S :    0.100872
   2 N :   -0.554317
   3 N :   -0.539242
   4 C :   -0.188982
   5 C :    0.475808
   6 C :    0.014459
   7 H :   -0.095285
   8 H :   -0.014611
   9 H :    0.065125
  10 H :    0.065122
Sum of atomic charges:    0.0000000

LOEWDIN ATOMIC CHARGES
----------------------
   0 S :    0.907512
   1 S :    0.512204
   2 N :    0.012678
   3 N :    0.181317
   4 C :   -1.015124
   5 C :   -0.347599
   6 C :   -0.169383
   7 H :    0.031402
   8 H :   -0.077981
   9 H :   -0.017513
  10 H :   -0.017513

  Mayer bond orders larger than 0.100000
B(  0-S ,  4-C ) :   0.9828 B(  0-S ,  5-C ) :  -0.1174 B(  0-S ,  6-C ) :   1.1044
B(  1-S ,  4-C ) :   1.8798 B(  2-N ,  3-N ) :  -0.1013 B(  2-N ,  4-C ) :   1.0741
B(  2-N ,  5-C ) :   0.9209 B(  2-N ,  6-C ) :  -0.1240 B(  2-N ,  7-H ) :   1.2751
B(  3-N ,  5-C ) :   1.5516 B(  3-N ,  8-H ) :   1.0338 B(  4-C ,  7-H ) :  -0.1487
B(  5-C ,  6-C ) :   1.1112 B(  5-C ,  7-H ) :  -0.1146 B(  5-C ,  9-H ) :   0.1640
B(  5-C , 10-H ) :   0.1640 B(  6-C ,  9-H ) :   0.8595 B(  6-C , 10-H ) :   0.8595

MP2 TOTAL ENERGY:    -1020.956930995 Eh
FINAL SINGLE POINT ENERGY     -1020.956930995047

DIPOLE MOMENT
-------------
                                X             Y             Z
Electronic contribution:      5.83538       0.89951       0.00001
Nuclear contribution   :     -7.49104      -0.10129      -0.00000
                        -----------------------------------------
Total Dipole Moment    :     -1.65566       0.79822       0.00001
                        -----------------------------------------
Magnitude (a.u.)       :      1.83803
Magnitude (Debye)      :      4.67191

Rotational constants in cm-1:     0.113864     0.046505     0.033225
Rotational constants in MHz :  3413.554851  1394.194101   996.067774

                             ****ORCA TERMINATED NORMALLY****
TOTAL RUN TIME: 0 days 0 hours 0 minutes 42 seconds 841 msec
