                         Program Version 5.0.3 -  RELEASE  -
|  1> !ri-mp2 aug-cc-pvdz aug-cc-pvdz/c tightscf
|  2> %pal nprocs 16 end
|  3>
|  4> * xyz 0 1
|  5> C    -1.612174    0.568511    0.325815
|  6> C    -1.359474   -0.903273    0.131974
|  7> C    -0.398399    1.283143   -0.255369
|  8> N    -0.231575   -1.335367   -0.251174
|  9> O     1.735392    0.014128    0.833141
| 10> S     0.935671   -0.012414   -0.425050
| 11> H    -2.539917    0.860498   -0.169257
| 12> H    -1.752446    0.764996    1.391742
| 13> H    -2.153498   -1.621061    0.337364
| 14> H    -0.586582    1.674298   -1.253682
| 15> H     0.019870    2.064161    0.373207
| 16> *
| 17>
| 18>                          ****END OF INPUT****

CARTESIAN COORDINATES (ANGSTROEM)
---------------------------------
  C     -1.612174    0.568511    0.325815
  C     -1.359474   -0.903273    0.131974
  C     -0.398399    1.283143   -0.255369
  N     -0.231575   -1.335367   -0.251174
  O      1.735392    0.014128    0.833141
  S      0.935671   -0.012414   -0.425050
  H     -2.539917    0.860498   -0.169257
  H     -1.752446    0.764996    1.391742
  H     -2.153498   -1.621061    0.337364
  H     -0.586582    1.674298   -1.253682
  H      0.019870    2.064161    0.373207

 Total Charge           Charge          ....    0
 Multiplicity           Mult            ....    1
 Number of Electrons    NEL             ....   54
 Basis Dimension        Dim             ....  187

ORBITAL ENERGIES
----------------

  NO   OCC          E(Eh)            E(eV)
   0   2.0000     -92.104235     -2506.2836
   1   2.0000     -20.526737      -558.5609
   2   2.0000     -15.606628      -424.6779
   3   2.0000     -11.327147      -308.2273
   4   2.0000     -11.284941      -307.0789
   5   2.0000     -11.280424      -306.9559
   6   2.0000      -9.089341      -247.3335
   7   2.0000      -6.771354      -184.2579
   8   2.0000      -6.770586      -184.2370
   9   2.0000      -6.768346      -184.1761
  10   2.0000      -1.361702       -37.0538
  11   2.0000      -1.259951       -34.2850
  12   2.0000      -1.080507       -29.4021
  13   2.0000      -0.989819       -26.9343
  14   2.0000      -0.847249       -23.0548
  15   2.0000      -0.783768       -21.3274
  16   2.0000      -0.694583       -18.9006
  17   2.0000      -0.677065       -18.4239
  18   2.0000      -0.624570       -16.9954
  19   2.0000      -0.579394       -15.7661
  20   2.0000      -0.570627       -15.5275
  21   2.0000      -0.555863       -15.1258
  22   2.0000      -0.550932       -14.9916
  23   2.0000      -0.482323       -13.1247
  24   2.0000      -0.454203       -12.3595
  25   2.0000      -0.409378       -11.1398
  26   2.0000      -0.377164       -10.2632
  27   0.0000       0.024903         0.6777
  28   0.0000       0.038794         1.0556
  29   0.0000       0.045360         1.2343
  30   0.0000       0.052706         1.4342
  31   0.0000       0.065992         1.7957

MULLIKEN ATOMIC CHARGES
-----------------------
   0 C :    0.060156
   1 C :    0.560855
   2 C :    0.023187
   3 N :   -0.891114
   4 O :   -1.105511
   5 S :    1.685909
   6 H :   -0.035011
   7 H :   -0.027419
   8 H :   -0.193636
   9 H :   -0.021127
  10 H :   -0.056290
Sum of atomic charges:    0.0000000

LOEWDIN ATOMIC CHARGES
----------------------
   0 C :   -0.053569
   1 C :   -0.110946
   2 C :   -0.131785
   3 N :   -0.185134
   4 O :   -0.558236
   5 S :    1.028294
   6 H :    0.017607
   7 H :    0.022937
   8 H :    0.012456
   9 H :   -0.024301
  10 H :   -0.017324

  Mayer bond orders larger than 0.100000
B(  0-C ,  1-C ) :   1.1176 B(  0-C ,  2-C ) :   1.2837 B(  0-C ,  6-H ) :   0.8619
B(  0-C ,  7-H ) :   0.8513 B(  0-C , 10-H ) :   0.1008 B(  1-C ,  3-N ) :   1.8700
B(  1-C ,  8-H ) :   0.9553 B(  2-C ,  5-S ) :   0.9640 B(  2-C ,  9-H ) :   0.8878
B(  2-C , 10-H ) :   0.8610 B(  3-N ,  4-O ) :   0.1208 B(  3-N ,  5-S ) :   0.6683
B(  4-O ,  5-S ) :   0.9463

MP2 TOTAL ENERGY:     -644.247800802 Eh
FINAL SINGLE POINT ENERGY      -644.247800802212

DIPOLE MOMENT
-------------
                                X             Y             Z
Electronic contribution:      4.78115      -2.72898      -1.27095
Nuclear contribution   :     -6.89825       3.67325       0.69238
                        -----------------------------------------
Total Dipole Moment    :     -2.11709       0.94427      -0.57857
                        -----------------------------------------
Magnitude (a.u.)       :      2.38924
Magnitude (Debye)      :      6.07296

Rotational constants in cm-1:     0.180823     0.098965     0.078067
Rotational constants in MHz :  5420.928284  2966.895317  2340.389099

                             ****ORCA TERMINATED NORMALLY****
TOTAL RUN TIME: 0 days 0 hours 0 minutes 33 seconds 902 msec
