                         Program Version 5.0.3 -  RELEASE  -
|  1> !ri-mp2 aug-cc-pvdz aug-cc-pvdz/c tightscf
|  2> %pal nprocs 16 end
|  3> %maxcore 3800
|  4>
|  5> * xyz 0 1
|  6> C     -0.550872    1.183343    1.818393
|  7> C      0.550872   -1.183343    1.818393
|  8> C     -0.290910    0.631581    0.558623
|  9> C      0.290910   -0.631581    0.558623
| 10> C      0.216434    3.129438   -2.389797
| 11> C     -0.216434   -3.129438   -2.389797
| 12> C     -0.608822    1.420841   -0.684182
| 13> C      0.608822   -1.420841   -0.684182
| 14> C      0.550872    2.327591   -1.134342
| 15> C     -0.550872   -2.327591   -1.134342
| 16> N     -0.282914    0.601718    2.979528
| 17> N      0.282914   -0.601718    2.979528
| 18> H     -1.012928    2.161604    1.897374
| 19> H      1.012928   -2.161604    1.897374
| 20> H     -0.012670    2.471736   -3.230631
| 21> H     -0.650384    3.773094   -2.228370
| 22> H      1.051528    3.765640   -2.684387
| 23> H      0.012670   -2.471736   -3.230631
| 24> H      0.650384   -3.773094   -2.228370
| 25> H     -1.051528   -3.765640   -2.684387
| 26> H     -0.878678    0.750885   -1.501953
| 27> H     -1.486647    2.042926   -0.493539
| 28> H      0.878678   -0.750885   -1.501953
| 29> H      1.486647   -2.042926   -0.493539
| 30> H      0.807198    3.006117   -0.317347
| 31> H      1.439842    1.716802   -1.310001
| 32> H     -0.807198   -3.006117   -0.317347
| 33> H     -1.439842   -1.716802   -1.310001
| 34> *
| 35>
| 36>                          ****END OF INPUT****

CARTESIAN COORDINATES (ANGSTROEM)
---------------------------------
  C     -0.550872    1.183343    1.818393
  C      0.550872   -1.183343    1.818393
  C     -0.290910    0.631581    0.558623
  C      0.290910   -0.631581    0.558623
  C      0.216434    3.129438   -2.389797
  C     -0.216434   -3.129438   -2.389797
  C     -0.608822    1.420841   -0.684182
  C      0.608822   -1.420841   -0.684182
  C      0.550872    2.327591   -1.134342
  C     -0.550872   -2.327591   -1.134342
  N     -0.282914    0.601718    2.979528
  N      0.282914   -0.601718    2.979528
  H     -1.012928    2.161604    1.897374
  H      1.012928   -2.161604    1.897374
  H     -0.012670    2.471736   -3.230631
  H     -0.650384    3.773094   -2.228370
  H      1.051528    3.765640   -2.684387
  H      0.012670   -2.471736   -3.230631
  H      0.650384   -3.773094   -2.228370
  H     -1.051528   -3.765640   -2.684387
  H     -0.878678    0.750885   -1.501953
  H     -1.486647    2.042926   -0.493539
  H      0.878678   -0.750885   -1.501953
  H      1.486647   -2.042926   -0.493539
  H      0.807198    3.006117   -0.317347
  H      1.439842    1.716802   -1.310001
  H     -0.807198   -3.006117   -0.317347
  H     -1.439842   -1.716802   -1.310001

 Total Charge           Charge          ....    0
 Multiplicity           Mult            ....    1
 Number of Electrons    NEL             ....   90
 Basis Dimension        Dim             ....  420

ORBITAL ENERGIES
----------------

  NO   OCC          E(Eh)            E(eV)
   0   2.0000     -15.605581      -424.6495
   1   2.0000     -15.604767      -424.6273
   2   2.0000     -11.275630      -306.8255
   3   2.0000     -11.275608      -306.8249
   4   2.0000     -11.267742      -306.6109
   5   2.0000     -11.266509      -306.5773
   6   2.0000     -11.250069      -306.1299
   7   2.0000     -11.250064      -306.1298
   8   2.0000     -11.243241      -305.9441
   9   2.0000     -11.243240      -305.9441
  10   2.0000     -11.232191      -305.6434
  11   2.0000     -11.232190      -305.6434
  12   2.0000      -1.340335       -36.4724
  13   2.0000      -1.146109       -31.1872
  14   2.0000      -1.115674       -30.3590
  15   2.0000      -1.077147       -29.3107
  16   2.0000      -1.054564       -28.6961
  17   2.0000      -0.976480       -26.5714
  18   2.0000      -0.947108       -25.7721
  19   2.0000      -0.869387       -23.6572
  20   2.0000      -0.860732       -23.4217
  21   2.0000      -0.820599       -22.3296
  22   2.0000      -0.809962       -22.0402
  23   2.0000      -0.718713       -19.5572
  24   2.0000      -0.684878       -18.6365
  25   2.0000      -0.649846       -17.6832
  26   2.0000      -0.637048       -17.3350
  27   2.0000      -0.634881       -17.2760
  28   2.0000      -0.599019       -16.3001
  29   2.0000      -0.595658       -16.2087
  30   2.0000      -0.593322       -16.1451
  31   2.0000      -0.572291       -15.5728
  32   2.0000      -0.554730       -15.0950
  33   2.0000      -0.548627       -14.9289
  34   2.0000      -0.544947       -14.8288
  35   2.0000      -0.505806       -13.7637
  36   2.0000      -0.505412       -13.7530
  37   2.0000      -0.499060       -13.5801
  38   2.0000      -0.497598       -13.5403
  39   2.0000      -0.490617       -13.3504
  40   2.0000      -0.487455       -13.2643
  41   2.0000      -0.461377       -12.5547
  42   2.0000      -0.392437       -10.6788
  43   2.0000      -0.369929       -10.0663
  44   2.0000      -0.369852       -10.0642
  45   0.0000       0.028647         0.7795
  46   0.0000       0.034110         0.9282
  47   0.0000       0.037046         1.0081
  48   0.0000       0.042693         1.1617
  49   0.0000       0.050547         1.3755

MULLIKEN ATOMIC CHARGES
-----------------------
   0 C :    0.942957
   1 C :    0.942957
   2 C :    0.011899
   3 C :    0.011899
   4 C :    0.443219
   5 C :    0.443219
   6 C :    0.428535
   7 C :    0.428535
   8 C :    0.324040
   9 C :    0.324040
  10 N :   -0.696627
  11 N :   -0.696627
  12 H :   -0.457343
  13 H :   -0.457343
  14 H :   -0.102804
  15 H :   -0.062515
  16 H :   -0.061241
  17 H :   -0.102804
  18 H :   -0.062515
  19 H :   -0.061241
  20 H :   -0.122863
  21 H :   -0.247015
  22 H :   -0.122863
  23 H :   -0.247015
  24 H :   -0.196925
  25 H :   -0.203316
  26 H :   -0.196925
  27 H :   -0.203316
Sum of atomic charges:    0.0000000

LOEWDIN ATOMIC CHARGES
----------------------
   0 C :    0.008942
   1 C :    0.008942
   2 C :   -0.124836
   3 C :   -0.124836
   4 C :    0.138667
   5 C :    0.138667
   6 C :    0.008969
   7 C :    0.008969
   8 C :   -0.050586
   9 C :   -0.050586
  10 N :   -0.002126
  11 N :   -0.002126
  12 H :    0.009604
  13 H :    0.009604
  14 H :   -0.018286
  15 H :   -0.017147
  16 H :   -0.018073
  17 H :   -0.018286
  18 H :   -0.017147
  19 H :   -0.018073
  20 H :    0.013106
  21 H :    0.023536
  22 H :    0.013106
  23 H :    0.023536
  24 H :    0.015982
  25 H :    0.012248
  26 H :    0.015982
  27 H :    0.012248

  Mayer bond orders larger than 0.100000
B(  0-C ,  2-C ) :   1.2197 B(  0-C ,  3-C ) :  -0.1566 B(  0-C , 10-N ) :   1.3346
B(  0-C , 12-H ) :   0.1096 B(  1-C ,  2-C ) :  -0.1566 B(  1-C ,  3-C ) :   1.2197
B(  1-C , 11-N ) :   1.3346 B(  1-C , 13-H ) :   0.1096 B(  2-C ,  3-C ) :   2.3154
B(  2-C ,  6-C ) :   1.2103 B(  2-C ,  7-C ) :  -0.3080 B(  2-C ,  8-C ) :  -0.1594
B(  2-C , 12-H ) :   0.4030 B(  2-C , 20-H ) :   0.2967 B(  2-C , 21-H ) :   0.2746
B(  2-C , 23-H ) :   0.1058 B(  3-C ,  6-C ) :  -0.3080 B(  3-C ,  7-C ) :   1.2103
B(  3-C ,  9-C ) :  -0.1594 B(  3-C , 13-H ) :   0.4030 B(  3-C , 21-H ) :   0.1058
B(  3-C , 22-H ) :   0.2967 B(  3-C , 23-H ) :   0.2746 B(  4-C ,  8-C ) :   1.1622
B(  4-C , 14-H ) :   0.9560 B(  4-C , 15-H ) :   0.9190 B(  4-C , 16-H ) :   0.9213
B(  5-C ,  9-C ) :   1.1622 B(  5-C , 17-H ) :   0.9560 B(  5-C , 18-H ) :   0.9190
B(  5-C , 19-H ) :   0.9213 B(  6-C ,  7-C ) :   0.2224 B(  6-C ,  8-C ) :   1.2007
B(  6-C , 12-H ) :   0.1832 B(  6-C , 20-H ) :   0.6312 B(  6-C , 21-H ) :   0.5462
B(  7-C ,  9-C ) :   1.2007 B(  7-C , 13-H ) :   0.1832 B(  7-C , 22-H ) :   0.6312
B(  7-C , 23-H ) :   0.5462 B(  8-C , 24-H ) :   0.7150 B(  8-C , 25-H ) :   0.7578
B(  9-C , 26-H ) :   0.7150 B(  9-C , 27-H ) :   0.7578 B( 10-N , 11-N ) :   1.0426
B( 20-H , 21-H ) :  -0.1071 B( 22-H , 23-H ) :  -0.1071

MP2 TOTAL ENERGY:     -498.697686484 Eh
FINAL SINGLE POINT ENERGY      -498.697686484385

DIPOLE MOMENT
-------------
                                X             Y             Z
Electronic contribution:     -0.00000       0.00000      18.12095
Nuclear contribution   :     -0.00000      -0.00000     -20.27546
                        -----------------------------------------
Total Dipole Moment    :     -0.00000       0.00000      -2.15451
                        -----------------------------------------
Magnitude (a.u.)       :      2.15451
Magnitude (Debye)      :      5.47634

Rotational constants in cm-1:     0.027203     0.026949     0.014606
Rotational constants in MHz :   815.518980   807.918462   437.869545

                             ****ORCA TERMINATED NORMALLY****
TOTAL RUN TIME: 0 days 0 hours 3 minutes 28 seconds 770 msec
