                         Program Version 5.0.3 -  RELEASE  -
|  1> !ri-mp2 aug-cc-pvdz aug-cc-pvdz/c tightscf
|  2> %pal nprocs 16 end
|  3>
|  4> * xyz 0 1
|  5> C      1.108723   -0.145442    0.000000
|  6> C     -0.725124   -1.365652    0.000000
|  7> C      0.000000    0.658242    0.000000
|  8> C     -0.075878    2.147531    0.000000
|  9> N     -1.137354   -0.122450    0.000000
| 10> N      0.632730   -1.439852    0.000000
| 11> H      2.160529    0.077190    0.000000
| 12> H     -1.353102   -2.241108    0.000000
| 13> H     -0.613019    2.509034    0.878479
| 14> H      0.918810    2.592122    0.000000
| 15> H     -0.613019    2.509034   -0.878479
| 16> H      1.185847   -2.278231    0.000000
| 17> *
| 18>
| 19>                          ****END OF INPUT****

CARTESIAN COORDINATES (ANGSTROEM)
---------------------------------
  C      1.108723   -0.145442    0.000000
  C     -0.725124   -1.365652    0.000000
  C      0.000000    0.658242    0.000000
  C     -0.075878    2.147531    0.000000
  N     -1.137354   -0.122450    0.000000
  N      0.632730   -1.439852    0.000000
  H      2.160529    0.077190    0.000000
  H     -1.353102   -2.241108    0.000000
  H     -0.613019    2.509034    0.878479
  H      0.918810    2.592122    0.000000
  H     -0.613019    2.509034   -0.878479
  H      1.185847   -2.278231    0.000000

 Total Charge           Charge          ....    0
 Multiplicity           Mult            ....    1
 Number of Electrons    NEL             ....   44
 Basis Dimension        Dim             ....  192

ORBITAL ENERGIES
----------------

  NO   OCC          E(Eh)            E(eV)
   0   2.0000     -15.623905      -425.1481
   1   2.0000     -15.546841      -423.0511
   2   2.0000     -11.301119      -307.5191
   3   2.0000     -11.257594      -306.3347
   4   2.0000     -11.251421      -306.1667
   5   2.0000     -11.221870      -305.3626
   6   2.0000      -1.341629       -36.5076
   7   2.0000      -1.168333       -31.7920
   8   2.0000      -1.035123       -28.1671
   9   2.0000      -0.940633       -25.5959
  10   2.0000      -0.826195       -22.4819
  11   2.0000      -0.772722       -21.0268
  12   2.0000      -0.739155       -20.1134
  13   2.0000      -0.620266       -16.8783
  14   2.0000      -0.604469       -16.4484
  15   2.0000      -0.597229       -16.2514
  16   2.0000      -0.548565       -14.9272
  17   2.0000      -0.542679       -14.7670
  18   2.0000      -0.527012       -14.3407
  19   2.0000      -0.430913       -11.7257
  20   2.0000      -0.390564       -10.6278
  21   2.0000      -0.311392        -8.4734
  22   0.0000       0.027685         0.7533
  23   0.0000       0.041238         1.1221
  24   0.0000       0.046854         1.2750
  25   0.0000       0.058969         1.6046
  26   0.0000       0.065260         1.7758

MULLIKEN ATOMIC CHARGES
-----------------------
   0 C :    0.840997
   1 C :    0.872718
   2 C :   -0.065117
   3 C :    0.389418
   4 N :   -0.910849
   5 N :   -0.611736
   6 H :   -0.300813
   7 H :   -0.148893
   8 H :    0.044168
   9 H :   -0.047443
  10 H :    0.044168
  11 H :   -0.106617
Sum of atomic charges:   -0.0000000

LOEWDIN ATOMIC CHARGES
----------------------
   0 C :    0.060206
   1 C :   -0.029686
   2 C :   -0.296925
   3 C :    0.171183
   4 N :    0.043418
   5 N :    0.067865
   6 H :   -0.006704
   7 H :    0.003538
   8 H :   -0.011678
   9 H :   -0.015689
  10 H :   -0.011678
  11 H :    0.026151

  Mayer bond orders larger than 0.100000
B(  0-C ,  1-C ) :  -0.1011 B(  0-C ,  2-C ) :   1.4310 B(  0-C ,  5-N ) :   0.7585
B(  0-C ,  6-H ) :   0.7558 B(  0-C ,  9-H ) :  -0.1106 B(  0-C , 11-H ) :  -0.1690
B(  1-C ,  2-C ) :   0.1095 B(  1-C ,  4-N ) :   1.5371 B(  1-C ,  5-N ) :   1.0435
B(  1-C ,  7-H ) :   0.9434 B(  1-C , 11-H ) :  -0.1262 B(  2-C ,  3-C ) :   1.2421
B(  2-C ,  4-N ) :   0.9106 B(  2-C ,  7-H ) :   0.1552 B(  2-C ,  8-H ) :   0.1017
B(  2-C ,  9-H ) :   0.2386 B(  2-C , 10-H ) :   0.1017 B(  3-C ,  8-H ) :   0.8773
B(  3-C ,  9-H ) :   0.8280 B(  3-C , 10-H ) :   0.8773 B(  5-N , 11-H ) :   1.2520

MP2 TOTAL ENERGY:     -264.791925207 Eh
FINAL SINGLE POINT ENERGY      -264.791925207116

DIPOLE MOMENT
-------------
                                X             Y             Z
Electronic contribution:     -0.61191      -4.01444       0.00000
Nuclear contribution   :      1.69393       3.17923       0.00000
                        -----------------------------------------
Total Dipole Moment    :      1.08203      -0.83521       0.00000
                        -----------------------------------------
Magnitude (a.u.)       :      1.36688
Magnitude (Debye)      :      3.47432

Rotational constants in cm-1:     0.301745     0.117222     0.085761
Rotational constants in MHz :  9046.098565  3514.238323  2571.060082

                             ****ORCA TERMINATED NORMALLY****
TOTAL RUN TIME: 0 days 0 hours 0 minutes 34 seconds 856 msec
