                         Program Version 5.0.3 -  RELEASE  -
|  1> !ri-mp2 aug-cc-pvdz aug-cc-pvdz/c tightscf
|  2> %pal nprocs 16 end
|  3>
|  4> * xyz 0 1
|  5> S    -1.983658   -0.378275   -0.077921
|  6> S     2.278646   -0.016762   -0.202915
|  7> N    -0.053374    1.287591    0.110852
|  8> N    -1.248787    1.259796   -0.126326
|  9> C     0.571612   -0.012113    0.475502
| 10> C    -0.332408   -1.149797   -0.006743
| 11> H     2.698054   -1.070500    0.520774
| 12> H     0.640671    0.011826    1.564772
| 13> H    -0.043820   -1.503899   -0.993521
| 14> H    -0.334803   -1.977092    0.697118
| 15> *
| 16>
| 17>                          ****END OF INPUT****

CARTESIAN COORDINATES (ANGSTROEM)
---------------------------------
  S     -1.983658   -0.378275   -0.077921
  S      2.278646   -0.016762   -0.202915
  N     -0.053374    1.287591    0.110852
  N     -1.248787    1.259796   -0.126326
  C      0.571612   -0.012113    0.475502
  C     -0.332408   -1.149797   -0.006743
  H      2.698054   -1.070500    0.520774
  H      0.640671    0.011826    1.564772
  H     -0.043820   -1.503899   -0.993521
  H     -0.334803   -1.977092    0.697118

 Total Charge           Charge          ....    0
 Multiplicity           Mult            ....    1
 Number of Electrons    NEL             ....   62
 Basis Dimension        Dim             ....  182

ORBITAL ENERGIES
----------------

  NO   OCC          E(Eh)            E(eV)
   0   2.0000     -91.998350     -2503.4024
   1   2.0000     -91.983024     -2502.9853
   2   2.0000     -15.685121      -426.8138
   3   2.0000     -15.659297      -426.1111
   4   2.0000     -11.337374      -308.5056
   5   2.0000     -11.295898      -307.3770
   6   2.0000      -8.998469      -244.8608
   7   2.0000      -8.984488      -244.4803
   8   2.0000      -6.680038      -181.7731
   9   2.0000      -6.678461      -181.7302
  10   2.0000      -6.676162      -181.6676
  11   2.0000      -6.666342      -181.4004
  12   2.0000      -6.665163      -181.3683
  13   2.0000      -6.662832      -181.3049
  14   2.0000      -1.411971       -38.4217
  15   2.0000      -1.119991       -30.4765
  16   2.0000      -1.062460       -28.9110
  17   2.0000      -0.958321       -26.0772
  18   2.0000      -0.867021       -23.5928
  19   2.0000      -0.784098       -21.3364
  20   2.0000      -0.700107       -19.0509
  21   2.0000      -0.660976       -17.9861
  22   2.0000      -0.608243       -16.5511
  23   2.0000      -0.589174       -16.0323
  24   2.0000      -0.548629       -14.9289
  25   2.0000      -0.544246       -14.8097
  26   2.0000      -0.515208       -14.0195
  27   2.0000      -0.465484       -12.6665
  28   2.0000      -0.399727       -10.8771
  29   2.0000      -0.382790       -10.4162
  30   2.0000      -0.368873       -10.0375
  31   0.0000       0.027740         0.7548
  32   0.0000       0.046017         1.2522
  33   0.0000       0.049462         1.3459
  34   0.0000       0.057481         1.5641
  35   0.0000       0.080230         2.1832

MULLIKEN ATOMIC CHARGES
-----------------------
   0 S :    0.696841
   1 S :    0.345569
   2 N :   -0.379234
   3 N :   -0.579340
   4 C :   -0.019080
   5 C :    0.008128
   6 H :    0.111675
   7 H :   -0.111930
   8 H :   -0.089064
   9 H :    0.016435
Sum of atomic charges:    0.0000000

LOEWDIN ATOMIC CHARGES
----------------------
   0 S :    0.792990
   1 S :    0.768548
   2 N :   -0.121033
   3 N :   -0.257688
   4 C :   -0.562547
   5 C :   -0.313897
   6 H :   -0.218834
   7 H :   -0.008831
   8 H :   -0.045067
   9 H :   -0.033640

  Mayer bond orders larger than 0.100000
B(  0-S ,  3-N ) :   0.6889 B(  0-S ,  5-C ) :   1.0543 B(  1-S ,  2-N ) :  -0.1034
B(  1-S ,  4-C ) :   1.1252 B(  1-S ,  6-H ) :   0.9458 B(  2-N ,  3-N ) :   1.4440
B(  2-N ,  4-C ) :   0.7180 B(  4-C ,  5-C ) :   1.2900 B(  4-C ,  7-H ) :   1.0264
B(  4-C ,  9-H ) :   0.1002 B(  5-C ,  8-H ) :   0.9891 B(  5-C ,  9-H ) :   0.8775

MP2 TOTAL ENERGY:     -982.898227587 Eh
FINAL SINGLE POINT ENERGY      -982.898227587076

DIPOLE MOMENT
-------------
                                X             Y             Z
Electronic contribution:     -2.43811       2.98764      -1.19621
Nuclear contribution   :      2.85158      -4.37182       1.74166
                        -----------------------------------------
Total Dipole Moment    :      0.41348      -1.38418       0.54546
                        -----------------------------------------
Magnitude (a.u.)       :      1.54417
Magnitude (Debye)      :      3.92496

Rotational constants in cm-1:     0.205763     0.050114     0.042070
Rotational constants in MHz :  6168.614870  1502.367606  1261.230864

                             ****ORCA TERMINATED NORMALLY****
TOTAL RUN TIME: 0 days 0 hours 0 minutes 35 seconds 498 msec
