                         Program Version 5.0.3 -  RELEASE  -
|  1> !ri-mp2 aug-cc-pvdz aug-cc-pvdz/c tightscf
|  2> %pal nprocs 16 end
|  3> %maxcore 3800
|  4>
|  5> * xyz 0 1
|  6> C      0.000000    0.000000    0.295876
|  7> C      0.000056    3.828834   -0.530290
|  8> C     -0.000056   -3.828834   -0.530290
|  9> C      0.000000    1.290026   -0.509256
| 10> C      0.000000   -1.290026   -0.509256
| 11> C      0.000059    2.564624    0.327131
| 12> C     -0.000059   -2.564624    0.327131
| 13> O      0.000000    0.000000    1.506774
| 14> H     -0.880828    3.873562   -1.174448
| 15> H      0.000099    4.725217    0.090803
| 16> H      0.880894    3.873522   -1.174514
| 17> H      0.880828   -3.873562   -1.174448
| 18> H     -0.000099   -4.725217    0.090803
| 19> H     -0.880894   -3.873522   -1.174514
| 20> H      0.868429    1.265284   -1.177370
| 21> H     -0.868485    1.265321   -1.177299
| 22> H      0.868485   -1.265321   -1.177299
| 23> H     -0.868429   -1.265284   -1.177370
| 24> H     -0.869532    2.558992    0.986328
| 25> H      0.869698    2.558953    0.986265
| 26> H      0.869532   -2.558992    0.986328
| 27> H     -0.869698   -2.558953    0.986265
| 28> *
| 29>
| 30>                          ****END OF INPUT****

CARTESIAN COORDINATES (ANGSTROEM)
---------------------------------
  C      0.000000    0.000000    0.295876
  C      0.000056    3.828834   -0.530290
  C     -0.000056   -3.828834   -0.530290
  C      0.000000    1.290026   -0.509256
  C      0.000000   -1.290026   -0.509256
  C      0.000059    2.564624    0.327131
  C     -0.000059   -2.564624    0.327131
  O      0.000000    0.000000    1.506774
  H     -0.880828    3.873562   -1.174448
  H      0.000099    4.725217    0.090803
  H      0.880894    3.873522   -1.174514
  H      0.880828   -3.873562   -1.174448
  H     -0.000099   -4.725217    0.090803
  H     -0.880894   -3.873522   -1.174514
  H      0.868429    1.265284   -1.177370
  H     -0.868485    1.265321   -1.177299
  H      0.868485   -1.265321   -1.177299
  H     -0.868429   -1.265284   -1.177370
  H     -0.869532    2.558992    0.986328
  H      0.869698    2.558953    0.986265
  H      0.869532   -2.558992    0.986328
  H     -0.869698   -2.558953    0.986265

 Total Charge           Charge          ....    0
 Multiplicity           Mult            ....    1
 Number of Electrons    NEL             ....   64
 Basis Dimension        Dim             ....  310

ORBITAL ENERGIES
----------------

  NO   OCC          E(Eh)            E(eV)
   0   2.0000     -20.552289      -559.2562
   1   2.0000     -11.332220      -308.3654
   2   2.0000     -11.240175      -305.8607
   3   2.0000     -11.240149      -305.8600
   4   2.0000     -11.226356      -305.4847
   5   2.0000     -11.226354      -305.4846
   6   2.0000     -11.222172      -305.3708
   7   2.0000     -11.222171      -305.3708
   8   2.0000      -1.389369       -37.8066
   9   2.0000      -1.083966       -29.4962
  10   2.0000      -1.066353       -29.0169
  11   2.0000      -0.987514       -26.8716
  12   2.0000      -0.937761       -25.5178
  13   2.0000      -0.839194       -22.8356
  14   2.0000      -0.802974       -21.8500
  15   2.0000      -0.730503       -19.8780
  16   2.0000      -0.655744       -17.8437
  17   2.0000      -0.655306       -17.8318
  18   2.0000      -0.630309       -17.1516
  19   2.0000      -0.627956       -17.0875
  20   2.0000      -0.572379       -15.5752
  21   2.0000      -0.572236       -15.5713
  22   2.0000      -0.557549       -15.1717
  23   2.0000      -0.536840       -14.6082
  24   2.0000      -0.520203       -14.1555
  25   2.0000      -0.497515       -13.5381
  26   2.0000      -0.489361       -13.3162
  27   2.0000      -0.485869       -13.2212
  28   2.0000      -0.477606       -12.9963
  29   2.0000      -0.476405       -12.9636
  30   2.0000      -0.470088       -12.7917
  31   2.0000      -0.401234       -10.9181
  32   0.0000       0.033007         0.8982
  33   0.0000       0.037746         1.0271
  34   0.0000       0.044024         1.1980
  35   0.0000       0.046196         1.2571
  36   0.0000       0.056146         1.5278

MULLIKEN ATOMIC CHARGES
-----------------------
   0 C :   -0.029906
   1 C :    0.582541
   2 C :    0.582541
   3 C :    0.038541
   4 C :    0.038541
   5 C :    0.487220
   6 C :    0.487220
   7 O :   -0.800143
   8 H :   -0.095874
   9 H :   -0.065849
  10 H :   -0.095879
  11 H :   -0.095874
  12 H :   -0.065849
  13 H :   -0.095879
  14 H :   -0.053585
  15 H :   -0.053578
  16 H :   -0.053578
  17 H :   -0.053585
  18 H :   -0.164253
  19 H :   -0.164259
  20 H :   -0.164253
  21 H :   -0.164259
Sum of atomic charges:   -0.0000000

LOEWDIN ATOMIC CHARGES
----------------------
   0 C :   -0.258978
   1 C :    0.133157
   2 C :    0.133157
   3 C :    0.009942
   4 C :    0.009942
   5 C :   -0.062779
   6 C :   -0.062779
   7 O :    0.057951
   8 H :   -0.020616
   9 H :   -0.020174
  10 H :   -0.020616
  11 H :   -0.020616
  12 H :   -0.020174
  13 H :   -0.020616
  14 H :    0.025010
  15 H :    0.025011
  16 H :    0.025011
  17 H :    0.025010
  18 H :    0.015789
  19 H :    0.015790
  20 H :    0.015789
  21 H :    0.015790

  Mayer bond orders larger than 0.100000
B(  0-C ,  3-C ) :   1.1351 B(  0-C ,  4-C ) :   1.1351 B(  0-C ,  5-C ) :  -0.1099
B(  0-C ,  6-C ) :  -0.1099 B(  0-C ,  7-O ) :   1.4390 B(  1-C ,  3-C ) :  -0.1072
B(  1-C ,  5-C ) :   1.1981 B(  1-C ,  8-H ) :   0.9157 B(  1-C ,  9-H ) :   0.9120
B(  1-C , 10-H ) :   0.9157 B(  2-C ,  4-C ) :  -0.1072 B(  2-C ,  6-C ) :   1.1981
B(  2-C , 11-H ) :   0.9157 B(  2-C , 12-H ) :   0.9120 B(  2-C , 13-H ) :   0.9157
B(  3-C ,  5-C ) :   1.1606 B(  3-C , 14-H ) :   0.8652 B(  3-C , 15-H ) :   0.8653
B(  4-C ,  6-C ) :   1.1606 B(  4-C , 16-H ) :   0.8653 B(  4-C , 17-H ) :   0.8652
B(  5-C , 18-H ) :   0.7502 B(  5-C , 19-H ) :   0.7502 B(  6-C , 20-H ) :   0.7502
B(  6-C , 21-H ) :   0.7502

MP2 TOTAL ENERGY:     -349.365649021 Eh
FINAL SINGLE POINT ENERGY      -349.365649021103

DIPOLE MOMENT
-------------
                                X             Y             Z
Electronic contribution:      0.00000      -0.00000       4.39812
Nuclear contribution   :      0.00000       0.00000      -5.53333
                        -----------------------------------------
Total Dipole Moment    :      0.00000      -0.00000      -1.13521
                        -----------------------------------------
Magnitude (a.u.)       :      1.13521
Magnitude (Debye)      :      2.88547

Rotational constants in cm-1:     0.218931     0.024161     0.022290
Rotational constants in MHz :  6563.376058   724.324750   668.237092

                             ****ORCA TERMINATED NORMALLY****
TOTAL RUN TIME: 0 days 0 hours 1 minutes 22 seconds 451 msec
