                         Program Version 5.0.3 -  RELEASE  -
|  1> !ri-mp2 aug-cc-pvdz aug-cc-pvdz/c tightscf
|  2> %pal nprocs 16 end
|  3>
|  4> * xyz 0 1
|  5> C      1.214937   -1.114720        0.000000
|  6> C     -1.194532   -1.123734        0.000000
|  7> C      1.208906    0.272121        0.000000
|  8> C     -1.202251    0.266088        0.000000
|  9> C      0.012562   -1.816947        0.000000
| 10> C      0.000000    0.956110        0.000000
| 11> O      0.080600   -3.181991        0.000000
| 12> Cl    -0.005372    2.710582        0.000000
| 13> H      2.146145   -1.663099        0.000000
| 14> H     -2.133071   -1.664730        0.000000
| 15> H      2.139489    0.820428        0.000000
| 16> H     -2.137764    0.805811        0.000000
| 17> H     -0.805998   -3.555873        0.000000
| 18> *
| 19>
| 20>                          ****END OF INPUT****

CARTESIAN COORDINATES (ANGSTROEM)
---------------------------------
  C      1.214937   -1.114720    0.000000
  C     -1.194532   -1.123734    0.000000
  C      1.208906    0.272121    0.000000
  C     -1.202251    0.266088    0.000000
  C      0.012562   -1.816947    0.000000
  C      0.000000    0.956110    0.000000
  O      0.080600   -3.181991    0.000000
  Cl    -0.005372    2.710582    0.000000
  H      2.146145   -1.663099    0.000000
  H     -2.133071   -1.664730    0.000000
  H      2.139489    0.820428    0.000000
  H     -2.137764    0.805811    0.000000
  H     -0.805998   -3.555873    0.000000

 Total Charge           Charge          ....    0
 Multiplicity           Mult            ....    1
 Number of Electrons    NEL             ....   66
 Basis Dimension        Dim             ....  233

ORBITAL ENERGIES
----------------

  NO   OCC          E(Eh)            E(eV)
   0   2.0000    -104.837184     -2852.7648
   1   2.0000     -20.612036      -560.8820
   2   2.0000     -11.322669      -308.1055
   3   2.0000     -11.302867      -307.5666
   4   2.0000     -11.265132      -306.5398
   5   2.0000     -11.263306      -306.4901
   6   2.0000     -11.256396      -306.3021
   7   2.0000     -11.250722      -306.1477
   8   2.0000     -10.563059      -287.4355
   9   2.0000      -8.030864      -218.5309
  10   2.0000      -8.027604      -218.4422
  11   2.0000      -8.027429      -218.4374
  12   2.0000      -1.421479       -38.6804
  13   2.0000      -1.193210       -32.4689
  14   2.0000      -1.117784       -30.4165
  15   2.0000      -1.043893       -28.4058
  16   2.0000      -0.995043       -27.0765
  17   2.0000      -0.870380       -23.6842
  18   2.0000      -0.829703       -22.5774
  19   2.0000      -0.752899       -20.4874
  20   2.0000      -0.691871       -18.8268
  21   2.0000      -0.661500       -18.0003
  22   2.0000      -0.628395       -17.0995
  23   2.0000      -0.611079       -16.6283
  24   2.0000      -0.603855       -16.4317
  25   2.0000      -0.586485       -15.9591
  26   2.0000      -0.534335       -14.5400
  27   2.0000      -0.532524       -14.4907
  28   2.0000      -0.516823       -14.0635
  29   2.0000      -0.457531       -12.4500
  30   2.0000      -0.454695       -12.3729
  31   2.0000      -0.360468        -9.8088
  32   2.0000      -0.320988        -8.7345
  33   0.0000       0.028520         0.7761
  34   0.0000       0.041422         1.1271
  35   0.0000       0.045177         1.2293
  36   0.0000       0.059671         1.6237
  37   0.0000       0.066268         1.8032

MULLIKEN ATOMIC CHARGES
-----------------------
   0 C :    0.836641
   1 C :    0.645285
   2 C :    0.718356
   3 C :    0.507627
   4 C :    0.631616
   5 C :   -0.425827
   6 O :   -0.888402
   7 Cl:   -0.376638
   8 H :   -0.479304
   9 H :   -0.576593
  10 H :   -0.389673
  11 H :   -0.372569
  12 H :    0.169480
Sum of atomic charges:   -0.0000000

LOEWDIN ATOMIC CHARGES
----------------------
   0 C :    0.054581
   1 C :    0.043478
   2 C :   -0.010890
   3 C :   -0.015052
   4 C :   -0.227399
   5 C :   -0.554333
   6 O :    0.184915
   7 Cl:    0.546941
   8 H :    0.010479
   9 H :    0.002773
  10 H :    0.002116
  11 H :    0.001410
  12 H :   -0.039018

  Mayer bond orders larger than 0.100000
B(  0-C ,  2-C ) :   1.8463 B(  0-C ,  3-C ) :   0.1614 B(  0-C ,  4-C ) :   1.7490
B(  0-C ,  5-C ) :  -0.2021 B(  0-C ,  7-Cl) :   0.1118 B(  0-C ,  8-H ) :  -0.1429
B(  1-C ,  2-C ) :   0.3403 B(  1-C ,  3-C ) :   1.8920 B(  1-C ,  4-C ) :   1.6237
B(  1-C ,  5-C ) :  -0.2213 B(  1-C ,  6-O ) :   0.1593 B(  1-C ,  7-Cl) :   0.1119
B(  2-C ,  4-C ) :  -0.1936 B(  2-C ,  5-C ) :   1.7139 B(  2-C ,  7-Cl) :  -0.2792
B(  2-C ,  8-H ) :   0.2306 B(  2-C , 10-H ) :   0.1976 B(  3-C ,  4-C ) :  -0.1980
B(  3-C ,  5-C ) :   1.7034 B(  3-C ,  7-Cl) :  -0.2867 B(  3-C ,  9-H ) :   0.2525
B(  3-C , 11-H ) :   0.3320 B(  4-C ,  5-C ) :   0.1305 B(  4-C ,  8-H ) :   0.6408
B(  4-C ,  9-H ) :   0.4687 B(  4-C , 10-H ) :  -0.1036 B(  4-C , 12-H ) :  -0.1243
B(  5-C ,  7-Cl) :   1.0268 B(  5-C ,  8-H ) :  -0.1826 B(  5-C ,  9-H ) :  -0.1746
B(  5-C , 10-H ) :   0.4531 B(  5-C , 11-H ) :   0.3912 B(  6-O , 12-H ) :   1.0650

MP2 TOTAL ENERGY:     -765.674734752 Eh
FINAL SINGLE POINT ENERGY      -765.674734752148

DIPOLE MOMENT
-------------
                                X             Y             Z
Electronic contribution:      0.22405       8.10691       0.00000
Nuclear contribution   :     -0.75422      -8.85649       0.00000
                        -----------------------------------------
Total Dipole Moment    :     -0.53017      -0.74958       0.00000
                        -----------------------------------------
Magnitude (a.u.)       :      0.91813
Magnitude (Debye)      :      2.33369

Rotational constants in cm-1:     0.189457     0.032174     0.027503
Rotational constants in MHz :  5679.772561   964.541220   824.520776

                             ****ORCA TERMINATED NORMALLY****
TOTAL RUN TIME: 0 days 0 hours 0 minutes 49 seconds 636 msec
