                         Program Version 5.0.3 -  RELEASE  -
|  1> !ri-mp2 aug-cc-pvdz aug-cc-pvdz/c tightscf
|  2> %pal nprocs 16 end
|  3>
|  4> * xyz 0 1
|  5> H      0.028003   -2.438976    1.284839
|  6> C     -0.009038   -1.553163    0.664724
|  7> H      0.028003   -2.438976   -1.284839
|  8> C     -0.009038   -1.553163   -0.664724
|  9> H      0.979678    0.096300    1.630209
| 10> H     -0.717848   -0.020955    2.047210
| 11> C     -0.009038   -0.154824    1.227012
| 12> H     -0.717848   -0.020955   -2.047210
| 13> H      0.979678    0.096300   -1.630209
| 14> C     -0.009038   -0.154824   -1.227012
| 15> H     -1.442190    0.863921    0.000000
| 16> C     -0.357295    0.727796    0.000000
| 17> H      0.014739    2.680869    0.880857
| 18> H      0.014739    2.680869   -0.880857
| 19> H      1.389603    2.014165    0.000000
| 20> C      0.300687    2.102752    0.000000
| 21> *
| 22>
| 23>                          ****END OF INPUT****

CARTESIAN COORDINATES (ANGSTROEM)
---------------------------------
  H      0.028003   -2.438976    1.284839
  C     -0.009038   -1.553163    0.664724
  H      0.028003   -2.438976   -1.284839
  C     -0.009038   -1.553163   -0.664724
  H      0.979678    0.096300    1.630209
  H     -0.717848   -0.020955    2.047210
  C     -0.009038   -0.154824    1.227012
  H     -0.717848   -0.020955   -2.047210
  H      0.979678    0.096300   -1.630209
  C     -0.009038   -0.154824   -1.227012
  H     -1.442190    0.863921    0.000000
  C     -0.357295    0.727796    0.000000
  H      0.014739    2.680869    0.880857
  H      0.014739    2.680869   -0.880857
  H      1.389603    2.014165    0.000000
  C      0.300687    2.102752    0.000000

 Total Charge           Charge          ....    0
 Multiplicity           Mult            ....    1
 Number of Electrons    NEL             ....   46
 Basis Dimension        Dim             ....  228

ORBITAL ENERGIES
----------------

  NO   OCC          E(Eh)            E(eV)
   0   2.0000     -11.229027      -305.5574
   1   2.0000     -11.225183      -305.4527
   2   2.0000     -11.223755      -305.4139
   3   2.0000     -11.223329      -305.4023
   4   2.0000     -11.223076      -305.3954
   5   2.0000     -11.217302      -305.2383
   6   2.0000      -1.135303       -30.8932
   7   2.0000      -1.011400       -27.5216
   8   2.0000      -0.955854       -26.0101
   9   2.0000      -0.893876       -24.3236
  10   2.0000      -0.764232       -20.7958
  11   2.0000      -0.725481       -19.7413
  12   2.0000      -0.668882       -18.2012
  13   2.0000      -0.625870       -17.0308
  14   2.0000      -0.562580       -15.3086
  15   2.0000      -0.548915       -14.9367
  16   2.0000      -0.547845       -14.9076
  17   2.0000      -0.529234       -14.4012
  18   2.0000      -0.487411       -13.2631
  19   2.0000      -0.472507       -12.8576
  20   2.0000      -0.462452       -12.5840
  21   2.0000      -0.447784       -12.1848
  22   2.0000      -0.339425        -9.2362
  23   0.0000       0.037032         1.0077
  24   0.0000       0.044025         1.1980
  25   0.0000       0.046390         1.2623
  26   0.0000       0.049732         1.3533
  27   0.0000       0.059405         1.6165

MULLIKEN ATOMIC CHARGES
-----------------------
   0 H :   -0.302077
   1 C :    0.221739
   2 H :   -0.302077
   3 C :    0.221739
   4 H :   -0.072778
   5 H :   -0.090454
   6 C :    0.408835
   7 H :   -0.090454
   8 H :   -0.072778
   9 C :    0.408835
  10 H :   -0.171573
  11 C :   -0.669404
  12 H :   -0.077929
  13 H :   -0.077929
  14 H :   -0.022390
  15 C :    0.688694
Sum of atomic charges:    0.0000000

LOEWDIN ATOMIC CHARGES
----------------------
   0 H :   -0.008198
   1 C :    0.007031
   2 H :   -0.008198
   3 C :    0.007031
   4 H :    0.014385
   5 H :    0.011600
   6 C :    0.009030
   7 H :    0.011600
   8 H :    0.014385
   9 C :    0.009030
  10 H :    0.038188
  11 C :   -0.214474
  12 H :   -0.014885
  13 H :   -0.014885
  14 H :   -0.013693
  15 C :    0.152054

  Mayer bond orders larger than 0.100000
B(  0-H ,  1-C ) :   0.6251 B(  0-H ,  3-C ) :   0.1688 B(  1-C ,  2-H ) :   0.1688
B(  1-C ,  3-C ) :   2.2444 B(  1-C ,  6-C ) :   1.1905 B(  2-H ,  3-C ) :   0.6251
B(  3-C ,  9-C ) :   1.1905 B(  4-H ,  6-C ) :   0.8171 B(  5-H ,  6-C ) :   0.7108
B(  5-H , 11-C ) :   0.1485 B(  6-C , 11-C ) :   1.1658 B(  6-C , 15-C ) :  -0.1130
B(  7-H ,  9-C ) :   0.7108 B(  7-H , 11-C ) :   0.1485 B(  8-H ,  9-C ) :   0.8171
B(  9-C , 11-C ) :   1.1658 B(  9-C , 15-C ) :  -0.1130 B( 10-H , 11-C ) :   0.6919
B( 11-C , 12-H ) :   0.1133 B( 11-C , 13-H ) :   0.1133 B( 11-C , 15-C ) :   1.2028
B( 12-H , 15-C ) :   0.8426 B( 13-H , 15-C ) :   0.8426 B( 14-H , 15-C ) :   0.9230

MP2 TOTAL ENERGY:     -233.898385018 Eh
FINAL SINGLE POINT ENERGY      -233.898385017987

DIPOLE MOMENT
-------------
                                X             Y             Z
Electronic contribution:     -0.58885      -3.60273       0.00000
Nuclear contribution   :      0.58532       3.69409      -0.00000
                        -----------------------------------------
Total Dipole Moment    :     -0.00353       0.09136       0.00000
                        -----------------------------------------
Magnitude (a.u.)       :      0.09143
Magnitude (Debye)      :      0.23238

Rotational constants in cm-1:     0.225334     0.106139     0.078417
Rotational constants in MHz :  6755.342207  3181.958180  2350.878795

                             ****ORCA TERMINATED NORMALLY****
TOTAL RUN TIME: 0 days 0 hours 0 minutes 46 seconds 525 msec
