                         Program Version 5.0.3 -  RELEASE  -
|  1> !ri-mp2 aug-cc-pvdz aug-cc-pvdz/c tightscf
|  2> %pal nprocs 16 end
|  3>
|  4> * xyz 0 1
|  5> Cl     2.146887   -0.158355   -0.305057
|  6> S     -1.585845   -0.628523   -0.400452
|  7> O     -1.548273    1.014367    0.043950
|  8> N     -0.277672   -1.009832    0.627787
|  9> C      0.609969    0.131067    0.637735
| 10> C     -0.158865    1.344018    0.027468
| 11> H     -0.595129   -1.227421    1.564642
| 12> H      0.945527    0.317665    1.652134
| 13> H      0.182044    1.521159   -0.992647
| 14> H     -0.032741    2.240381    0.631744
| 15> *
| 16>
| 17>                          ****END OF INPUT****

CARTESIAN COORDINATES (ANGSTROEM)
---------------------------------
  Cl     2.146887   -0.158355   -0.305057
  S     -1.585845   -0.628523   -0.400452
  O     -1.548273    1.014367    0.043950
  N     -0.277672   -1.009832    0.627787
  C      0.609969    0.131067    0.637735
  C     -0.158865    1.344018    0.027468
  H     -0.595129   -1.227421    1.564642
  H      0.945527    0.317665    1.652134
  H      0.182044    1.521159   -0.992647
  H     -0.032741    2.240381    0.631744

 Total Charge           Charge          ....    0
 Multiplicity           Mult            ....    1
 Number of Electrons    NEL             ....   64
 Basis Dimension        Dim             ....  182

ORBITAL ENERGIES
----------------

  NO   OCC          E(Eh)            E(eV)
   0   2.0000    -104.830178     -2852.5742
   1   2.0000     -92.044981     -2504.6713
   2   2.0000     -20.616541      -561.0046
   3   2.0000     -15.621216      -425.0749
   4   2.0000     -11.361053      -309.1500
   5   2.0000     -11.318369      -307.9885
   6   2.0000     -10.556333      -287.2524
   7   2.0000      -9.037841      -245.9321
   8   2.0000      -8.023851      -218.3401
   9   2.0000      -8.020753      -218.2558
  10   2.0000      -8.020710      -218.2546
  11   2.0000      -6.719552      -182.8483
  12   2.0000      -6.718047      -182.8073
  13   2.0000      -6.714805      -182.7191
  14   2.0000      -1.415895       -38.5285
  15   2.0000      -1.255791       -34.1718
  16   2.0000      -1.122543       -30.5459
  17   2.0000      -1.009142       -27.4601
  18   2.0000      -0.896932       -24.4067
  19   2.0000      -0.845183       -22.9986
  20   2.0000      -0.735044       -20.0016
  21   2.0000      -0.682982       -18.5849
  22   2.0000      -0.656839       -17.8735
  23   2.0000      -0.622377       -16.9357
  24   2.0000      -0.594434       -16.1754
  25   2.0000      -0.535103       -14.5609
  26   2.0000      -0.517502       -14.0820
  27   2.0000      -0.498162       -13.5557
  28   2.0000      -0.456062       -12.4101
  29   2.0000      -0.447668       -12.1817
  30   2.0000      -0.443613       -12.0713
  31   2.0000      -0.363454        -9.8901
  32   0.0000       0.029988         0.8160
  33   0.0000       0.045690         1.2433
  34   0.0000       0.053541         1.4569
  35   0.0000       0.063512         1.7282
  36   0.0000       0.077879         2.1192

MULLIKEN ATOMIC CHARGES
-----------------------
   0 Cl:   -0.088994
   1 S :    0.862490
   2 O :   -1.005015
   3 N :   -0.619703
   4 C :   -0.153929
   5 C :    1.145689
   6 H :    0.014467
   7 H :    0.052286
   8 H :   -0.066396
   9 H :   -0.140895
Sum of atomic charges:    0.0000000

LOEWDIN ATOMIC CHARGES
----------------------
   0 Cl:    0.472419
   1 S :    0.881886
   2 O :   -0.306433
   3 N :   -0.292007
   4 C :   -0.546242
   5 C :   -0.115371
   6 H :   -0.066716
   7 H :   -0.011006
   8 H :   -0.019738
   9 H :    0.003208

  Mayer bond orders larger than 0.100000
B(  0-Cl,  3-N ) :  -0.1481 B(  0-Cl,  4-C ) :   1.3412 B(  0-Cl,  7-H ) :  -0.1029
B(  1-S ,  2-O ) :   0.5895 B(  1-S ,  3-N ) :   0.7428 B(  1-S ,  4-C ) :   0.1154
B(  2-O ,  5-C ) :   0.5479 B(  3-N ,  4-C ) :   1.1231 B(  3-N ,  6-H ) :   1.0907
B(  4-C ,  5-C ) :   1.1456 B(  4-C ,  7-H ) :   0.8048 B(  5-C ,  8-H ) :   0.9030
B(  5-C ,  9-H ) :   0.9236 B(  8-H ,  9-H ) :  -0.1031

MP2 TOTAL ENERGY:    -1065.330746002 Eh
FINAL SINGLE POINT ENERGY     -1065.330746002282

DIPOLE MOMENT
-------------
                                X             Y             Z
Electronic contribution:      2.32611      -2.67770      -2.33174
Nuclear contribution   :     -2.43973       2.97473       3.16736
                        -----------------------------------------
Total Dipole Moment    :     -0.11362       0.29703       0.83562
                        -----------------------------------------
Magnitude (a.u.)       :      0.89409
Magnitude (Debye)      :      2.27260

Rotational constants in cm-1:     0.167679     0.053540     0.046227
Rotational constants in MHz :  5026.897064  1605.076118  1385.857403

                             ****ORCA TERMINATED NORMALLY****
TOTAL RUN TIME: 0 days 0 hours 0 minutes 35 seconds 880 msec
