                         Program Version 5.0.3 -  RELEASE  -
|  1> !ri-mp2 aug-cc-pvdz aug-cc-pvdz/c tightscf
|  2> %pal nprocs 16 end
|  3>
|  4> * xyz 0 1
|  5> F      2.506325    1.085625   -0.291206
|  6> F      2.521596   -0.878303    0.707492
|  7> O     -2.800863   -1.049313   -0.310556
|  8> O     -2.668371    1.055585    0.407816
|  9> C      1.976955   -0.173421   -0.324959
| 10> C      0.523022   -0.117121   -0.183650
| 11> C     -0.674290   -0.101787   -0.111486
| 12> C     -2.125829   -0.103987   -0.024120
| 13> H     -1.980086    1.705683    0.601006
| 14> H      2.283524   -0.643865   -1.260372
| 15> *
| 16>
| 17>                          ****END OF INPUT****

CARTESIAN COORDINATES (ANGSTROEM)
---------------------------------
  F      2.506325    1.085625   -0.291206
  F      2.521596   -0.878303    0.707492
  O     -2.800863   -1.049313   -0.310556
  O     -2.668371    1.055585    0.407816
  C      1.976955   -0.173421   -0.324959
  C      0.523022   -0.117121   -0.183650
  C     -0.674290   -0.101787   -0.111486
  C     -2.125829   -0.103987   -0.024120
  H     -1.980086    1.705683    0.601006
  H      2.283524   -0.643865   -1.260372

 Total Charge           Charge          ....    0
 Multiplicity           Mult            ....    1
 Number of Electrons    NEL             ....   60
 Basis Dimension        Dim             ....  202

ORBITAL ENERGIES
----------------

  NO   OCC          E(Eh)            E(eV)
   0   2.0000     -26.357081      -717.2126
   1   2.0000     -26.356677      -717.2016
   2   2.0000     -20.652686      -561.9882
   3   2.0000     -20.593028      -560.3648
   4   2.0000     -11.478311      -312.3407
   5   2.0000     -11.447484      -311.5019
   6   2.0000     -11.312707      -307.8344
   7   2.0000     -11.307529      -307.6935
   8   2.0000      -1.697958       -46.2038
   9   2.0000      -1.636354       -44.5275
  10   2.0000      -1.498692       -40.7815
  11   2.0000      -1.405109       -38.2350
  12   2.0000      -1.128349       -30.7039
  13   2.0000      -1.027350       -27.9556
  14   2.0000      -0.921875       -25.0855
  15   2.0000      -0.844535       -22.9810
  16   2.0000      -0.819394       -22.2969
  17   2.0000      -0.809631       -22.0312
  18   2.0000      -0.790802       -21.5188
  19   2.0000      -0.698747       -19.0139
  20   2.0000      -0.696741       -18.9593
  21   2.0000      -0.673648       -18.3309
  22   2.0000      -0.664383       -18.0788
  23   2.0000      -0.661428       -17.9984
  24   2.0000      -0.632368       -17.2076
  25   2.0000      -0.596202       -16.2235
  26   2.0000      -0.517941       -14.0939
  27   2.0000      -0.506590       -13.7850
  28   2.0000      -0.461311       -12.5529
  29   2.0000      -0.458011       -12.4631
  30   0.0000       0.027275         0.7422
  31   0.0000       0.036176         0.9844
  32   0.0000       0.059695         1.6244
  33   0.0000       0.072942         1.9848
  34   0.0000       0.085697         2.3319

MULLIKEN ATOMIC CHARGES
-----------------------
   0 F :   -0.583844
   1 F :   -0.575972
   2 O :   -0.668273
   3 O :   -0.655002
   4 C :    1.567840
   5 C :   -0.425048
   6 C :    0.208342
   7 C :    0.957559
   8 H :    0.226765
   9 H :   -0.052368
Sum of atomic charges:    0.0000000

LOEWDIN ATOMIC CHARGES
----------------------
   0 F :    0.045728
   1 F :    0.051907
   2 O :    0.082841
   3 O :    0.217965
   4 C :   -0.179056
   5 C :    0.068553
   6 C :    0.086517
   7 C :   -0.381066
   8 H :   -0.027094
   9 H :    0.033705

  Mayer bond orders larger than 0.100000
B(  0-F ,  4-C ) :   0.2860 B(  0-F ,  5-C ) :   0.2747 B(  1-F ,  4-C ) :   0.3171
B(  1-F ,  5-C ) :   0.2675 B(  2-O ,  7-C ) :   1.6170 B(  3-O ,  6-C ) :   0.1265
B(  3-O ,  7-C ) :   0.4785 B(  3-O ,  8-H ) :   0.9812 B(  4-C ,  5-C ) :   1.1269
B(  4-C ,  6-C ) :   0.1064 B(  4-C ,  9-H ) :   0.8525 B(  5-C ,  6-C ) :   2.4511
B(  5-C ,  9-H ) :   0.2435 B(  6-C ,  7-C ) :   1.1218

MP2 TOTAL ENERGY:     -502.549336579 Eh
FINAL SINGLE POINT ENERGY      -502.549336578690

DIPOLE MOMENT
-------------
                                X             Y             Z
Electronic contribution:      5.33228      -0.09995       0.70310
Nuclear contribution   :     -4.45682       0.80455      -1.00333
                        -----------------------------------------
Total Dipole Moment    :      0.87546       0.70460      -0.30023
                        -----------------------------------------
Magnitude (a.u.)       :      1.16320
Magnitude (Debye)      :      2.95661

Rotational constants in cm-1:     0.176288     0.027296     0.024961
Rotational constants in MHz :  5284.983863   818.318106   748.324762

                             ****ORCA TERMINATED NORMALLY****
TOTAL RUN TIME: 0 days 0 hours 0 minutes 32 seconds 704 msec
