                         Program Version 5.0.3 -  RELEASE  -
|  1> !ri-mp2 aug-cc-pvdz aug-cc-pvdz/c tightscf
|  2> %pal nprocs 16 end
|  3>
|  4> * xyz 0 1
|  5> C     -1.206951    0.001465        0.000000
|  6> C      1.216264    0.012824        0.000000
|  7> C     -1.196872   -1.382293        0.000000
|  8> C      1.225228   -1.368685        0.000000
|  9> C      0.000000    0.687846        0.000000
| 10> C      0.018081   -2.070366        0.000000
| 11> N     -0.009275    2.152677        0.000000
| 12> O     -1.096069    2.717197        0.000000
| 13> O      1.070131    2.730377        0.000000
| 14> O      0.088467   -3.425739        0.000000
| 15> H     -2.133281    0.554066        0.000000
| 16> H      2.135640    0.576959        0.000000
| 17> H     -2.130792   -1.930246        0.000000
| 18> H      2.153866   -1.920498        0.000000
| 19> H     -0.795242   -3.808449        0.000000
| 20> *
| 21>
| 22>                          ****END OF INPUT****

CARTESIAN COORDINATES (ANGSTROEM)
---------------------------------
  C     -1.206951    0.001465    0.000000
  C      1.216264    0.012824    0.000000
  C     -1.196872   -1.382293    0.000000
  C      1.225228   -1.368685    0.000000
  C      0.000000    0.687846    0.000000
  C      0.018081   -2.070366    0.000000
  N     -0.009275    2.152677    0.000000
  O     -1.096069    2.717197    0.000000
  O      1.070131    2.730377    0.000000
  O      0.088467   -3.425739    0.000000
  H     -2.133281    0.554066    0.000000
  H      2.135640    0.576959    0.000000
  H     -2.130792   -1.930246    0.000000
  H      2.153866   -1.920498    0.000000
  H     -0.795242   -3.808449    0.000000

 Total Charge           Charge          ....    0
 Multiplicity           Mult            ....    1
 Number of Electrons    NEL             ....   72
 Basis Dimension        Dim             ....  275

ORBITAL ENERGIES
----------------

  NO   OCC          E(Eh)            E(eV)
   0   2.0000     -20.634034      -561.4806
   1   2.0000     -20.608943      -560.7979
   2   2.0000     -20.608552      -560.7872
   3   2.0000     -15.859785      -431.5667
   4   2.0000     -11.351367      -308.8864
   5   2.0000     -11.307984      -307.7059
   6   2.0000     -11.289543      -307.2041
   7   2.0000     -11.286857      -307.1310
   8   2.0000     -11.271522      -306.7137
   9   2.0000     -11.265374      -306.5464
  10   2.0000      -1.609063       -43.7848
  11   2.0000      -1.446388       -39.3582
  12   2.0000      -1.401392       -38.1338
  13   2.0000      -1.203715       -32.7547
  14   2.0000      -1.091369       -29.6977
  15   2.0000      -1.064388       -28.9635
  16   2.0000      -0.959803       -26.1176
  17   2.0000      -0.888408       -24.1748
  18   2.0000      -0.838560       -22.8184
  19   2.0000      -0.784493       -21.3471
  20   2.0000      -0.770691       -20.9716
  21   2.0000      -0.730657       -19.8822
  22   2.0000      -0.718237       -19.5442
  23   2.0000      -0.694470       -18.8975
  24   2.0000      -0.656814       -17.8728
  25   2.0000      -0.632808       -17.2196
  26   2.0000      -0.623819       -16.9750
  27   2.0000      -0.619380       -16.8542
  28   2.0000      -0.590399       -16.0656
  29   2.0000      -0.531767       -14.4701
  30   2.0000      -0.520385       -14.1604
  31   2.0000      -0.495520       -13.4838
  32   2.0000      -0.490738       -13.3537
  33   2.0000      -0.453719       -12.3463
  34   2.0000      -0.378757       -10.3065
  35   2.0000      -0.355943        -9.6857
  36   0.0000       0.021656         0.5893
  37   0.0000       0.037542         1.0216
  38   0.0000       0.043185         1.1751
  39   0.0000       0.043197         1.1754
  40   0.0000       0.060362         1.6425

MULLIKEN ATOMIC CHARGES
-----------------------
   0 C :    0.279534
   1 C :    0.554627
   2 C :    0.319486
   3 C :    0.589386
   4 C :    1.379211
   5 C :    0.699915
   6 N :    0.454667
   7 O :   -0.813536
   8 O :   -0.812457
   9 O :   -0.878370
  10 H :   -0.456645
  11 H :   -0.471874
  12 H :   -0.571254
  13 H :   -0.458381
  14 H :    0.185692
Sum of atomic charges:   -0.0000000

LOEWDIN ATOMIC CHARGES
----------------------
   0 C :    0.079042
   1 C :    0.081953
   2 C :    0.061652
   3 C :    0.071874
   4 C :   -0.124460
   5 C :   -0.207370
   6 N :   -0.339951
   7 O :    0.081750
   8 O :    0.083721
   9 O :    0.200242
  10 H :    0.011048
  11 H :    0.011380
  12 H :    0.005986
  13 H :    0.013430
  14 H :   -0.030296

  Mayer bond orders larger than 0.100000
B(  0-C ,  2-C ) :   2.3200 B(  0-C ,  3-C ) :   0.1327 B(  0-C ,  4-C ) :   1.1833
B(  0-C ,  5-C ) :  -0.1506 B(  0-C , 10-H ) :   0.2135 B(  0-C , 12-H ) :   0.2920
B(  1-C ,  2-C ) :   0.3438 B(  1-C ,  3-C ) :   2.2191 B(  1-C ,  4-C ) :   1.3283
B(  1-C ,  5-C ) :  -0.1247 B(  1-C , 11-H ) :   0.1306 B(  1-C , 13-H ) :   0.1836
B(  2-C ,  3-C ) :  -0.1718 B(  2-C ,  4-C ) :  -0.1308 B(  2-C ,  5-C ) :   1.6088
B(  2-C ,  9-O ) :   0.1863 B(  2-C , 10-H ) :   0.2328 B(  3-C ,  4-C ) :  -0.1511
B(  3-C ,  5-C ) :   1.6837 B(  3-C , 11-H ) :   0.2402 B(  4-C ,  5-C ) :   0.1893
B(  4-C ,  6-N ) :   0.2584 B(  4-C ,  7-O ) :  -0.1026 B(  4-C ,  8-O ) :  -0.1208
B(  4-C , 10-H ) :   0.3546 B(  4-C , 11-H ) :   0.4058 B(  4-C , 12-H ) :  -0.1101
B(  4-C , 13-H ) :  -0.1565 B(  5-C , 11-H ) :  -0.1219 B(  5-C , 12-H ) :   0.3844
B(  5-C , 13-H ) :   0.5646 B(  5-C , 14-H ) :  -0.1258 B(  6-N ,  7-O ) :   1.1091
B(  6-N ,  8-O ) :   1.1147 B(  7-O ,  8-O ) :   0.1981 B(  9-O , 14-H ) :   1.0485

MP2 TOTAL ENERGY:     -510.687190589 Eh
FINAL SINGLE POINT ENERGY      -510.687190588770

DIPOLE MOMENT
-------------
                                X             Y             Z
Electronic contribution:      0.21964       4.19562      -0.00000
Nuclear contribution   :     -0.74738      -6.30241       0.00000
                        -----------------------------------------
Total Dipole Moment    :     -0.52774      -2.10679      -0.00000
                        -----------------------------------------
Magnitude (a.u.)       :      2.17189
Magnitude (Debye)      :      5.52050

Rotational constants in cm-1:     0.132509     0.027404     0.022708
Rotational constants in MHz :  3972.513077   821.557614   680.767677

                             ****ORCA TERMINATED NORMALLY****
TOTAL RUN TIME: 0 days 0 hours 1 minutes 2 seconds 42 msec
