                         Program Version 5.0.3 -  RELEASE  -
|  1> !ri-mp2 aug-cc-pvdz aug-cc-pvdz/c tightscf
|  2> %pal nprocs 16 end
|  3>
|  4> * xyz 0 1
|  5> Cl    1.997780   -1.371459    0.000000
|  6> S    -1.725995    0.605097    0.000000
|  7> O     0.396341    2.866951    0.000000
|  8> N    -1.923957   -1.041509    0.000000
|  9> C     0.000000    0.542410    0.000000
| 10> C     0.370267   -0.782870    0.000000
| 11> C    -0.756625   -1.641068    0.000000
| 12> C     0.840877    1.741435    0.000000
| 13> H    -0.703404   -2.720895    0.000000
| 14> H     1.926917    1.549668    0.000000
| 15> *
| 16>
| 17>                          ****END OF INPUT****

CARTESIAN COORDINATES (ANGSTROEM)
---------------------------------
  Cl     1.997780   -1.371459    0.000000
  S     -1.725995    0.605097    0.000000
  O      0.396341    2.866951    0.000000
  N     -1.923957   -1.041509    0.000000
  C      0.000000    0.542410    0.000000
  C      0.370267   -0.782870    0.000000
  C     -0.756625   -1.641068    0.000000
  C      0.840877    1.741435    0.000000
  H     -0.703404   -2.720895    0.000000
  H      1.926917    1.549668    0.000000

 Total Charge           Charge          ....    0
 Multiplicity           Mult            ....    1
 Number of Electrons    NEL             ....   74
 Basis Dimension        Dim             ....  210

ORBITAL ENERGIES
----------------

  NO   OCC          E(Eh)            E(eV)
   0   2.0000    -104.880920     -2853.9549
   1   2.0000     -92.044541     -2504.6593
   2   2.0000     -20.598182      -560.5050
   3   2.0000     -15.638164      -425.5361
   4   2.0000     -11.376781      -309.5779
   5   2.0000     -11.349079      -308.8241
   6   2.0000     -11.322201      -308.0927
   7   2.0000     -11.318671      -307.9967
   8   2.0000     -10.606656      -288.6218
   9   2.0000      -9.043237      -246.0790
  10   2.0000      -8.074556      -219.7199
  11   2.0000      -8.071033      -219.6240
  12   2.0000      -8.070893      -219.6202
  13   2.0000      -6.724763      -182.9901
  14   2.0000      -6.723363      -182.9520
  15   2.0000      -6.721566      -182.9031
  16   2.0000      -1.428133       -38.8615
  17   2.0000      -1.318660       -35.8826
  18   2.0000      -1.194067       -32.4922
  19   2.0000      -1.097119       -29.8541
  20   2.0000      -1.021457       -27.7953
  21   2.0000      -0.926844       -25.2207
  22   2.0000      -0.816780       -22.2257
  23   2.0000      -0.781091       -21.2546
  24   2.0000      -0.709517       -19.3069
  25   2.0000      -0.688432       -18.7332
  26   2.0000      -0.646979       -17.6052
  27   2.0000      -0.619049       -16.8452
  28   2.0000      -0.607176       -16.5221
  29   2.0000      -0.557430       -15.1684
  30   2.0000      -0.535636       -14.5754
  31   2.0000      -0.523113       -14.2346
  32   2.0000      -0.505491       -13.7551
  33   2.0000      -0.471878       -12.8405
  34   2.0000      -0.459201       -12.4955
  35   2.0000      -0.399190       -10.8625
  36   2.0000      -0.374055       -10.1786
  37   0.0000       0.020027         0.5449
  38   0.0000       0.034275         0.9327
  39   0.0000       0.042195         1.1482
  40   0.0000       0.067485         1.8364
  41   0.0000       0.078783         2.1438

MULLIKEN ATOMIC CHARGES
-----------------------
   0 Cl:   -0.335541
   1 S :    0.654415
   2 O :   -0.695629
   3 N :   -0.978296
   4 C :    0.431373
   5 C :   -0.290471
   6 C :    0.586791
   7 C :    0.904053
   8 H :   -0.207157
   9 H :   -0.069538
Sum of atomic charges:    0.0000000

LOEWDIN ATOMIC CHARGES
----------------------
   0 Cl:    0.604457
   1 S :    1.037929
   2 O :    0.027885
   3 N :   -0.290647
   4 C :   -0.483194
   5 C :   -0.618223
   6 C :   -0.157383
   7 C :   -0.125340
   8 H :   -0.000766
   9 H :    0.005283

  Mayer bond orders larger than 0.100000
B(  0-Cl,  4-C ) :  -0.2876 B(  0-Cl,  5-C ) :   1.0132 B(  1-S ,  3-N ) :   0.8483
B(  1-S ,  4-C ) :   1.0732 B(  2-O ,  7-C ) :   1.5828 B(  3-N ,  4-C ) :   0.1759
B(  3-N ,  6-C ) :   1.4216 B(  4-C ,  5-C ) :   0.9704 B(  4-C ,  7-C ) :   0.9579
B(  4-C ,  8-H ) :   0.1416 B(  4-C ,  9-H ) :   0.1214 B(  5-C ,  6-C ) :   1.1476
B(  6-C ,  7-C ) :   0.1053 B(  6-C ,  8-H ) :   0.8494 B(  7-C ,  9-H ) :   0.7471

MP2 TOTAL ENERGY:    -1140.164949151 Eh
FINAL SINGLE POINT ENERGY     -1140.164949151253

DIPOLE MOMENT
-------------
                                X             Y             Z
Electronic contribution:      2.13303      -1.68218      -0.00000
Nuclear contribution   :     -1.49394       0.76398       0.00000
                        -----------------------------------------
Total Dipole Moment    :      0.63909      -0.91820      -0.00000
                        -----------------------------------------
Magnitude (a.u.)       :      1.11871
Magnitude (Debye)      :      2.84354

Rotational constants in cm-1:     0.064044     0.046306     0.026875
Rotational constants in MHz :  1919.988034  1388.210022   805.679281

                             ****ORCA TERMINATED NORMALLY****
TOTAL RUN TIME: 0 days 0 hours 0 minutes 48 seconds 640 msec
