                         Program Version 5.0.3 -  RELEASE  -
|  1> !ri-mp2 aug-cc-pvdz aug-cc-pvdz/c tightscf
|  2> %pal nprocs 16 end
|  3>
|  4> * xyz 0 1
|  5> Cl   -2.280642   -0.628707   -0.145550
|  6> O     1.092025    1.391278    0.220496
|  7> O    -0.955684    2.323645   -0.050493
|  8> O     2.553373   -0.218210   -0.655230
|  9> N     0.574476   -2.183960    0.238082
| 10> C    -0.663800   -0.075616    0.058842
| 11> C     0.431472   -0.842507    0.189010
| 12> C    -0.290734    1.338463    0.058027
| 13> C     1.619020    0.075759    0.341980
| 14> H     3.324738    0.348497   -0.543164
| 15> H    -0.217906   -2.752537   -0.012740
| 16> H     1.479328   -2.567370    0.021871
| 17> H     2.069968   -0.003146    1.336481
| 18> *
| 19>
| 20>                          ****END OF INPUT****

CARTESIAN COORDINATES (ANGSTROEM)
---------------------------------
  Cl    -2.280642   -0.628707   -0.145550
  O      1.092025    1.391278    0.220496
  O     -0.955684    2.323645   -0.050493
  O      2.553373   -0.218210   -0.655230
  N      0.574476   -2.183960    0.238082
  C     -0.663800   -0.075616    0.058842
  C      0.431472   -0.842507    0.189010
  C     -0.290734    1.338463    0.058027
  C      1.619020    0.075759    0.341980
  H      3.324738    0.348497   -0.543164
  H     -0.217906   -2.752537   -0.012740
  H      1.479328   -2.567370    0.021871
  H      2.069968   -0.003146    1.336481

 Total Charge           Charge          ....    0
 Multiplicity           Mult            ....    1
 Number of Electrons    NEL             ....   76
 Basis Dimension        Dim             ....  247

ORBITAL ENERGIES
----------------

  NO   OCC          E(Eh)            E(eV)
   0   2.0000    -104.856967     -2853.3031
   1   2.0000     -20.623475      -561.1933
   2   2.0000     -20.620981      -561.1254
   3   2.0000     -20.558708      -559.4309
   4   2.0000     -15.626829      -425.2276
   5   2.0000     -11.402188      -310.2693
   6   2.0000     -11.395932      -310.0991
   7   2.0000     -11.344124      -308.6893
   8   2.0000     -11.304414      -307.6087
   9   2.0000     -10.582467      -287.9636
  10   2.0000      -8.050410      -219.0628
  11   2.0000      -8.046930      -218.9681
  12   2.0000      -8.046740      -218.9629
  13   2.0000      -1.486487       -40.4494
  14   2.0000      -1.422383       -38.7050
  15   2.0000      -1.372452       -37.3463
  16   2.0000      -1.283856       -34.9355
  17   2.0000      -1.171603       -31.8809
  18   2.0000      -1.064319       -28.9616
  19   2.0000      -0.978306       -26.6211
  20   2.0000      -0.846531       -23.0353
  21   2.0000      -0.822572       -22.3833
  22   2.0000      -0.765323       -20.8255
  23   2.0000      -0.736640       -20.0450
  24   2.0000      -0.724160       -19.7054
  25   2.0000      -0.693629       -18.8746
  26   2.0000      -0.652703       -17.7609
  27   2.0000      -0.641552       -17.4575
  28   2.0000      -0.600563       -16.3421
  29   2.0000      -0.585837       -15.9414
  30   2.0000      -0.566517       -15.4157
  31   2.0000      -0.547603       -14.9010
  32   2.0000      -0.525992       -14.3130
  33   2.0000      -0.497081       -13.5262
  34   2.0000      -0.479822       -13.0566
  35   2.0000      -0.475660       -12.9434
  36   2.0000      -0.449886       -12.2420
  37   2.0000      -0.352122        -9.5817
  38   0.0000       0.020665         0.5623
  39   0.0000       0.033811         0.9201
  40   0.0000       0.046229         1.2580
  41   0.0000       0.056817         1.5461
  42   0.0000       0.081003         2.2042

MULLIKEN ATOMIC CHARGES
-----------------------
   0 Cl:   -0.306795
   1 O :   -0.980823
   2 O :   -0.727231
   3 O :   -0.734223
   4 N :   -0.439111
   5 C :    0.244756
   6 C :    0.319988
   7 C :    0.817520
   8 C :    1.766342
   9 H :    0.148414
  10 H :   -0.004299
  11 H :   -0.024882
  12 H :   -0.079657
Sum of atomic charges:   -0.0000000

LOEWDIN ATOMIC CHARGES
----------------------
   0 Cl:    0.612783
   1 O :    0.096930
   2 O :    0.056999
   3 O :    0.167721
   4 N :    0.283238
   5 C :   -0.492206
   6 C :   -0.228792
   7 C :   -0.343307
   8 C :   -0.152732
   9 H :   -0.031533
  10 H :   -0.012396
  11 H :   -0.005180
  12 H :    0.048475

  Mayer bond orders larger than 0.100000
B(  0-Cl,  5-C ) :   0.9130 B(  0-Cl,  7-C ) :  -0.1020 B(  1-O ,  5-C ) :   0.2390
B(  1-O ,  7-C ) :   0.4306 B(  1-O ,  8-C ) :   0.5588 B(  2-O ,  5-C ) :  -0.3131
B(  2-O ,  7-C ) :   1.7244 B(  3-O ,  6-C ) :   0.1528 B(  3-O ,  8-C ) :   0.4656
B(  3-O ,  9-H ) :   1.1071 B(  4-N ,  5-C ) :  -0.1318 B(  4-N ,  6-C ) :   0.7887
B(  4-N , 10-H ) :   1.1361 B(  4-N , 11-H ) :   1.1916 B(  5-C ,  6-C ) :   1.9290
B(  5-C ,  7-C ) :   0.8619 B(  5-C ,  8-C ) :   0.1575 B(  5-C , 10-H ) :  -0.1081
B(  6-C ,  8-C ) :   0.7408 B(  6-C , 11-H ) :  -0.1447 B(  6-C , 12-H ) :   0.1212
B(  8-C , 12-H ) :   0.7802

MP2 TOTAL ENERGY:     -893.849040271 Eh
FINAL SINGLE POINT ENERGY      -893.849040271209

DIPOLE MOMENT
-------------
                                X             Y             Z
Electronic contribution:     -7.85777       1.80372      -0.60167
Nuclear contribution   :      9.51160      -3.84941       0.95876
                        -----------------------------------------
Total Dipole Moment    :      1.65383      -2.04569       0.35708
                        -----------------------------------------
Magnitude (a.u.)       :      2.65472
Magnitude (Debye)      :      6.74776

Rotational constants in cm-1:     0.065717     0.042411     0.026864
Rotational constants in MHz :  1970.154874  1271.436614   805.350556

                             ****ORCA TERMINATED NORMALLY****
TOTAL RUN TIME: 0 days 0 hours 0 minutes 54 seconds 162 msec
