                         Program Version 5.0.3 -  RELEASE  -
|  1> !ri-mp2 aug-cc-pvdz aug-cc-pvdz/c tightscf
|  2> %pal nprocs 16 end
|  3>
|  4> * xyz 0 1
|  5> Cl     3.790159   -0.565860   -0.387381
|  6> S     -2.085317   -0.503553    0.546804
|  7> N     -4.695349   -0.036278   -0.498130
|  8> C     -1.119696    0.706179   -0.506380
|  9> C      2.801833    0.572983    0.637702
| 10> C      0.267289    0.664830   -0.108118
| 11> C      1.418175    0.614979    0.230597
| 12> C     -3.630791   -0.216125   -0.084152
| 13> H     -1.553731    1.692329   -0.354795
| 14> H     -1.245536    0.411120   -1.546247
| 15> H      3.273951    1.547665    0.545309
| 16> H      2.904272    0.222241    1.661369
| 17> *
| 18>
| 19>                          ****END OF INPUT****

CARTESIAN COORDINATES (ANGSTROEM)
---------------------------------
  Cl     3.790159   -0.565860   -0.387381
  S     -2.085317   -0.503553    0.546804
  N     -4.695349   -0.036278   -0.498130
  C     -1.119696    0.706179   -0.506380
  C      2.801833    0.572983    0.637702
  C      0.267289    0.664830   -0.108118
  C      1.418175    0.614979    0.230597
  C     -3.630791   -0.216125   -0.084152
  H     -1.553731    1.692329   -0.354795
  H     -1.245536    0.411120   -1.546247
  H      3.273951    1.547665    0.545309
  H      2.904272    0.222241    1.661369

 Total Charge           Charge          ....    0
 Multiplicity           Mult            ....    1
 Number of Electrons    NEL             ....   74
 Basis Dimension        Dim             ....  228

ORBITAL ENERGIES
----------------

  NO   OCC          E(Eh)            E(eV)
   0   2.0000    -104.844622     -2852.9672
   1   2.0000     -92.031719     -2504.3104
   2   2.0000     -15.601369      -424.5348
   3   2.0000     -11.348996      -308.8219
   4   2.0000     -11.338527      -308.5370
   5   2.0000     -11.313055      -307.8439
   6   2.0000     -11.282558      -307.0140
   7   2.0000     -11.278775      -306.9111
   8   2.0000     -10.570040      -287.6254
   9   2.0000      -9.031938      -245.7715
  10   2.0000      -8.037676      -218.7163
  11   2.0000      -8.034375      -218.6265
  12   2.0000      -8.034295      -218.6243
  13   2.0000      -6.714101      -182.7000
  14   2.0000      -6.712056      -182.6443
  15   2.0000      -6.709903      -182.5858
  16   2.0000      -1.242495       -33.8100
  17   2.0000      -1.166048       -31.7298
  18   2.0000      -1.133392       -30.8412
  19   2.0000      -1.062934       -28.9239
  20   2.0000      -0.990533       -26.9538
  21   2.0000      -0.936018       -25.4703
  22   2.0000      -0.724181       -19.7060
  23   2.0000      -0.697272       -18.9737
  24   2.0000      -0.667215       -18.1558
  25   2.0000      -0.665037       -18.0966
  26   2.0000      -0.663334       -18.0502
  27   2.0000      -0.583031       -15.8651
  28   2.0000      -0.578053       -15.7296
  29   2.0000      -0.547155       -14.8888
  30   2.0000      -0.528890       -14.3918
  31   2.0000      -0.476140       -12.9564
  32   2.0000      -0.464526       -12.6404
  33   2.0000      -0.458774       -12.4839
  34   2.0000      -0.417557       -11.3623
  35   2.0000      -0.411323       -11.1927
  36   2.0000      -0.392929       -10.6922
  37   0.0000       0.026466         0.7202
  38   0.0000       0.037158         1.0111
  39   0.0000       0.045919         1.2495
  40   0.0000       0.050438         1.3725
  41   0.0000       0.065626         1.7858

MULLIKEN ATOMIC CHARGES
-----------------------
   0 Cl:   -0.091613
   1 S :    0.801689
   2 N :   -0.297347
   3 C :   -0.214079
   4 C :   -0.289990
   5 C :    0.075359
   6 C :   -0.181971
   7 C :   -0.401740
   8 H :    0.144799
   9 H :    0.133293
  10 H :    0.161387
  11 H :    0.160213
Sum of atomic charges:   -0.0000000

LOEWDIN ATOMIC CHARGES
----------------------
   0 Cl:    0.455418
   1 S :    0.896171
   2 N :   -0.010199
   3 C :   -0.238834
   4 C :   -0.324072
   5 C :   -0.087414
   6 C :   -0.073615
   7 C :   -0.551709
   8 H :   -0.011929
   9 H :   -0.010426
  10 H :   -0.021823
  11 H :   -0.021567

  Mayer bond orders larger than 0.100000
B(  0-Cl,  4-C ) :   1.3240 B(  0-Cl,  5-C ) :   0.2123 B(  0-Cl,  6-C ) :  -0.4902
B(  1-S ,  3-C ) :   1.0219 B(  1-S ,  5-C ) :  -0.1195 B(  1-S ,  7-C ) :   0.8967
B(  2-N ,  7-C ) :   2.4245 B(  3-C ,  4-C ) :   0.1026 B(  3-C ,  5-C ) :   1.0924
B(  3-C ,  6-C ) :   0.4180 B(  3-C ,  7-C ) :  -0.1504 B(  3-C ,  8-H ) :   0.8889
B(  3-C ,  9-H ) :   0.9162 B(  4-C ,  5-C ) :   0.3333 B(  4-C ,  6-C ) :   1.0276
B(  4-C , 10-H ) :   0.8664 B(  4-C , 11-H ) :   0.8113 B(  5-C ,  6-C ) :   2.6200
B(  5-C ,  8-H ) :   0.2613 B(  5-C ,  9-H ) :   0.2456 B(  5-C , 11-H ) :  -0.1253
B(  6-C ,  8-H ) :  -0.1260 B(  6-C ,  9-H ) :  -0.1330 B(  6-C , 10-H ) :   0.2527
B(  6-C , 11-H ) :   0.3368

MP2 TOTAL ENERGY:    -1104.212762673 Eh
FINAL SINGLE POINT ENERGY     -1104.212762672575

DIPOLE MOMENT
-------------
                                X             Y             Z
Electronic contribution:      3.20734      -3.72230      -0.29256
Nuclear contribution   :     -1.91530       4.48432       0.80180
                        -----------------------------------------
Total Dipole Moment    :      1.29203       0.76201       0.50924
                        -----------------------------------------
Magnitude (a.u.)       :      1.58409
Magnitude (Debye)      :      4.02643

Rotational constants in cm-1:     0.216357     0.012905     0.012782
Rotational constants in MHz :  6486.205281   386.869623   383.209107

                             ****ORCA TERMINATED NORMALLY****
TOTAL RUN TIME: 0 days 0 hours 0 minutes 46 seconds 987 msec
