                         Program Version 5.0.3 -  RELEASE  -
|  1> !ri-mp2 aug-cc-pvdz aug-cc-pvdz/c tightscf
|  2> %pal nprocs 16 end
|  3>
|  4> * xyz 0 1
|  5> N      1.836314    0.047911   -0.000037
|  6> C      1.226255   -1.073102   -0.000001
|  7> C     -0.257423   -1.256683    0.000068
|  8> C     -1.075456    0.025969   -0.000044
|  9> C     -0.291026    1.257772    0.000051
| 10> C      1.053818    1.213993   -0.000020
| 11> O     -2.292236    0.003283   -0.000067
| 12> H      1.839628   -1.972339   -0.000073
| 13> H     -0.551220   -1.860885    0.865345
| 14> H     -0.825378    2.197611    0.000125
| 15> H      1.634483    2.127729    0.000039
| 16> H     -0.550829   -1.861455   -0.864964
| 17> *
| 18>
| 19>                          ****END OF INPUT****

CARTESIAN COORDINATES (ANGSTROEM)
---------------------------------
  N      1.836314    0.047911   -0.000037
  C      1.226255   -1.073102   -0.000001
  C     -0.257423   -1.256683    0.000068
  C     -1.075456    0.025969   -0.000044
  C     -0.291026    1.257772    0.000051
  C      1.053818    1.213993   -0.000020
  O     -2.292236    0.003283   -0.000067
  H      1.839628   -1.972339   -0.000073
  H     -0.551220   -1.860885    0.865345
  H     -0.825378    2.197611    0.000125
  H      1.634483    2.127729    0.000039
  H     -0.550829   -1.861455   -0.864964

 Total Charge           Charge          ....    0
 Multiplicity           Mult            ....    1
 Number of Electrons    NEL             ....   50
 Basis Dimension        Dim             ....  206

ORBITAL ENERGIES
----------------

  NO   OCC          E(Eh)            E(eV)
   0   2.0000     -20.557112      -559.3874
   1   2.0000     -15.593295      -424.3151
   2   2.0000     -11.349958      -308.8481
   3   2.0000     -11.325601      -308.1853
   4   2.0000     -11.308472      -307.7192
   5   2.0000     -11.271770      -306.7205
   6   2.0000     -11.250806      -306.1500
   7   2.0000      -1.393187       -37.9105
   8   2.0000      -1.282083       -34.8873
   9   2.0000      -1.073635       -29.2151
  10   2.0000      -1.061195       -28.8766
  11   2.0000      -0.891125       -24.2487
  12   2.0000      -0.838480       -22.8162
  13   2.0000      -0.708776       -19.2868
  14   2.0000      -0.696052       -18.9405
  15   2.0000      -0.682506       -18.5719
  16   2.0000      -0.641438       -17.4544
  17   2.0000      -0.616255       -16.7691
  18   2.0000      -0.606946       -16.5158
  19   2.0000      -0.563914       -15.3449
  20   2.0000      -0.522038       -14.2054
  21   2.0000      -0.509784       -13.8719
  22   2.0000      -0.440583       -11.9889
  23   2.0000      -0.420934       -11.4542
  24   2.0000      -0.361743        -9.8435
  25   0.0000       0.029320         0.7978
  26   0.0000       0.038874         1.0578
  27   0.0000       0.045982         1.2512
  28   0.0000       0.049741         1.3535
  29   0.0000       0.050897         1.3850

MULLIKEN ATOMIC CHARGES
-----------------------
   0 N :   -0.617174
   1 C :    0.534190
   2 C :    0.052439
   3 C :   -0.072257
   4 C :    1.104651
   5 C :    0.577233
   6 O :   -0.834148
   7 H :   -0.280222
   8 H :    0.138739
   9 H :   -0.430055
  10 H :   -0.312107
  11 H :    0.138712
Sum of atomic charges:   -0.0000000

LOEWDIN ATOMIC CHARGES
----------------------
   0 N :    0.022040
   1 C :    0.008725
   2 C :    0.067021
   3 C :   -0.290908
   4 C :    0.061221
   5 C :   -0.005075
   6 O :    0.032429
   7 H :    0.014691
   8 H :    0.040047
   9 H :    0.004677
  10 H :    0.005079
  11 H :    0.040054

  Mayer bond orders larger than 0.100000
B(  0-N ,  1-C ) :   1.9423 B(  0-N ,  4-C ) :  -0.1543 B(  0-N ,  5-C ) :   0.7739
B(  1-C ,  2-C ) :   1.1245 B(  1-C ,  4-C ) :   0.1331 B(  1-C ,  7-H ) :   0.9380
B(  2-C ,  3-C ) :   1.1181 B(  2-C ,  8-H ) :   0.8757 B(  2-C , 11-H ) :   0.8757
B(  3-C ,  4-C ) :   0.9246 B(  3-C ,  5-C ) :   0.2317 B(  3-C ,  6-O ) :   1.3597
B(  3-C ,  9-H ) :   0.2157 B(  4-C ,  5-C ) :   1.6014 B(  4-C ,  6-O ) :  -0.1269
B(  4-C ,  9-H ) :   0.5225 B(  5-C , 10-H ) :   0.8796

MP2 TOTAL ENERGY:     -322.597573523 Eh
FINAL SINGLE POINT ENERGY      -322.597573523413

DIPOLE MOMENT
-------------
                                X             Y             Z
Electronic contribution:     -0.63464       0.89288      -0.00032
Nuclear contribution   :      1.50217      -1.35177       0.00046
                        -----------------------------------------
Total Dipole Moment    :      0.86754      -0.45889       0.00014
                        -----------------------------------------
Magnitude (a.u.)       :      0.98143
Magnitude (Debye)      :      2.49458

Rotational constants in cm-1:     0.184502     0.090009     0.061158
Rotational constants in MHz :  5531.221339  2698.389089  1833.477084

                             ****ORCA TERMINATED NORMALLY****
TOTAL RUN TIME: 0 days 0 hours 0 minutes 36 seconds 180 msec
