                         Program Version 5.0.3 -  RELEASE  -
|  1> !ri-mp2 aug-cc-pvdz aug-cc-pvdz/c tightscf
|  2> %pal nprocs 16 end
|  3>
|  4> * xyz 0 1
|  5> C     -0.225569    1.332966   -0.000002
|  6> C     -0.455485   -1.064735   -0.000006
|  7> C      1.156764    1.200181   -0.000032
|  8> C      0.920244   -1.190395   -0.000036
|  9> C     -1.043674    0.204925    0.000012
| 10> C      1.751261   -0.060989   -0.000040
| 11> C     -2.509207    0.366017    0.000015
| 12> C      3.247030   -0.218201    0.000041
| 13> O     -3.310674   -0.540952    0.000015
| 14> H     -0.675329    2.318557   -0.000006
| 15> H     -1.096676   -1.935469   -0.000014
| 16> H      1.781369    2.084082   -0.000052
| 17> H      1.367447   -2.176702   -0.000067
| 18> H     -2.854814    1.419797    0.000014
| 19> H      3.582124   -0.775241   -0.877101
| 20> H      3.750856    0.746927   -0.001219
| 21> H      3.582235   -0.772949    0.878607
| 22> *
| 23>
| 24>                          ****END OF INPUT****

CARTESIAN COORDINATES (ANGSTROEM)
---------------------------------
  C     -0.225569    1.332966   -0.000002
  C     -0.455485   -1.064735   -0.000006
  C      1.156764    1.200181   -0.000032
  C      0.920244   -1.190395   -0.000036
  C     -1.043674    0.204925    0.000012
  C      1.751261   -0.060989   -0.000040
  C     -2.509207    0.366017    0.000015
  C      3.247030   -0.218201    0.000041
  O     -3.310674   -0.540952    0.000015
  H     -0.675329    2.318557   -0.000006
  H     -1.096676   -1.935469   -0.000014
  H      1.781369    2.084082   -0.000052
  H      1.367447   -2.176702   -0.000067
  H     -2.854814    1.419797    0.000014
  H      3.582124   -0.775241   -0.877101
  H      3.750856    0.746927   -0.001219
  H      3.582235   -0.772949    0.878607

 Total Charge           Charge          ....    0
 Multiplicity           Mult            ....    1
 Number of Electrons    NEL             ....   64
 Basis Dimension        Dim             ....  279

ORBITAL ENERGIES
----------------

  NO   OCC          E(Eh)            E(eV)
   0   2.0000     -20.561665      -559.5113
   1   2.0000     -11.339616      -308.5666
   2   2.0000     -11.269854      -306.6683
   3   2.0000     -11.264147      -306.5130
   4   2.0000     -11.257179      -306.3234
   5   2.0000     -11.250710      -306.1474
   6   2.0000     -11.249734      -306.1208
   7   2.0000     -11.248410      -306.0848
   8   2.0000     -11.244377      -305.9750
   9   2.0000      -1.393040       -37.9065
  10   2.0000      -1.178600       -32.0713
  11   2.0000      -1.076577       -29.2951
  12   2.0000      -1.035389       -28.1744
  13   2.0000      -0.970048       -26.3963
  14   2.0000      -0.867290       -23.6002
  15   2.0000      -0.847441       -23.0600
  16   2.0000      -0.787908       -21.4401
  17   2.0000      -0.708205       -19.2712
  18   2.0000      -0.672728       -18.3059
  19   2.0000      -0.650653       -17.7052
  20   2.0000      -0.623789       -16.9742
  21   2.0000      -0.607550       -16.5323
  22   2.0000      -0.601914       -16.3789
  23   2.0000      -0.590972       -16.0812
  24   2.0000      -0.553115       -15.0510
  25   2.0000      -0.549602       -14.9554
  26   2.0000      -0.519774       -14.1438
  27   2.0000      -0.501476       -13.6459
  28   2.0000      -0.491371       -13.3709
  29   2.0000      -0.424510       -11.5515
  30   2.0000      -0.353362        -9.6155
  31   2.0000      -0.341663        -9.2971
  32   0.0000       0.030179         0.8212
  33   0.0000       0.035967         0.9787
  34   0.0000       0.042904         1.1675
  35   0.0000       0.051967         1.4141
  36   0.0000       0.052787         1.4364

MULLIKEN ATOMIC CHARGES
-----------------------
   0 C :   -0.006714
   1 C :   -0.026647
   2 C :    0.468136
   3 C :    0.493729
   4 C :    0.967643
   5 C :   -0.166715
   6 C :    1.219717
   7 C :    0.587982
   8 O :   -0.800352
   9 H :   -0.621031
  10 H :   -0.606381
  11 H :   -0.604719
  12 H :   -0.618820
  13 H :   -0.284809
  14 H :    0.089585
  15 H :   -0.180654
  16 H :    0.090048
Sum of atomic charges:    0.0000000

LOEWDIN ATOMIC CHARGES
----------------------
   0 C :    0.052166
   1 C :    0.072641
   2 C :    0.047320
   3 C :    0.054716
   4 C :   -0.185410
   5 C :   -0.201473
   6 C :   -0.068746
   7 C :    0.179924
   8 O :    0.020605
   9 H :    0.008949
  10 H :    0.015174
  11 H :    0.003872
  12 H :    0.009731
  13 H :    0.015498
  14 H :   -0.005082
  15 H :   -0.014832
  16 H :   -0.005053

  Mayer bond orders larger than 0.100000
B(  0-C ,  1-C ) :  -0.8628 B(  0-C ,  2-C ) :   2.3535 B(  0-C ,  3-C ) :   0.2355
B(  0-C ,  4-C ) :   1.9101 B(  0-C ,  5-C ) :  -0.3333 B(  0-C ,  6-C ) :  -0.1681
B(  0-C ,  7-C ) :   0.2602 B(  0-C ,  9-H ) :  -0.3780 B(  0-C , 11-H ) :   0.3244
B(  0-C , 13-H ) :   0.1062 B(  1-C ,  2-C ) :   0.2084 B(  1-C ,  3-C ) :   2.9828
B(  1-C ,  4-C ) :   1.3843 B(  1-C ,  5-C ) :  -0.6004 B(  1-C ,  6-C ) :  -0.6335
B(  1-C ,  7-C ) :   0.2716 B(  1-C , 10-H ) :  -0.1005 B(  1-C , 12-H ) :   0.4442
B(  2-C ,  3-C ) :  -0.4950 B(  2-C ,  4-C ) :  -0.4650 B(  2-C ,  5-C ) :   1.8969
B(  2-C ,  7-C ) :  -0.2708 B(  2-C ,  9-H ) :   0.2962 B(  2-C , 11-H ) :  -0.4378
B(  2-C , 15-H ) :  -0.1739 B(  3-C ,  4-C ) :  -0.5438 B(  3-C ,  5-C ) :   1.4497
B(  3-C ,  7-C ) :  -0.7272 B(  3-C , 10-H ) :   0.3207 B(  3-C , 12-H ) :  -0.2963
B(  4-C ,  5-C ) :   0.6608 B(  4-C ,  6-C ) :   1.1213 B(  4-C ,  9-H ) :   0.7600
B(  4-C , 10-H ) :   0.5081 B(  4-C , 11-H ) :  -0.1961 B(  4-C , 12-H ) :  -0.2076
B(  4-C , 13-H ) :   0.2522 B(  5-C ,  7-C ) :   1.6418 B(  5-C ,  9-H ) :  -0.1720
B(  5-C , 10-H ) :  -0.1340 B(  5-C , 11-H ) :   0.7543 B(  5-C , 12-H ) :   0.5682
B(  5-C , 14-H ) :   0.2347 B(  5-C , 15-H ) :   0.5428 B(  5-C , 16-H ) :   0.2344
B(  6-C ,  7-C ) :   0.1550 B(  6-C ,  8-O ) :   1.4452 B(  6-C , 13-H ) :   0.4407
B(  7-C , 14-H ) :   0.8270 B(  7-C , 15-H ) :   0.5599 B(  7-C , 16-H ) :   0.8273

MP2 TOTAL ENERGY:     -383.793777814 Eh
FINAL SINGLE POINT ENERGY      -383.793777813586

DIPOLE MOMENT
-------------
                                X             Y             Z
Electronic contribution:     -7.83482      -0.24427      -0.00012
Nuclear contribution   :      9.38859       0.90082       0.00016
                        -----------------------------------------
Total Dipole Moment    :      1.55377       0.65655       0.00005
                        -----------------------------------------
Magnitude (a.u.)       :      1.68679
Magnitude (Debye)      :      4.28748

Rotational constants in cm-1:     0.168041     0.032874     0.027635
Rotational constants in MHz :  5037.748588   985.524657   828.472188

                             ****ORCA TERMINATED NORMALLY****
TOTAL RUN TIME: 0 days 0 hours 1 minutes 19 seconds 862 msec
