                         Program Version 5.0.3 -  RELEASE  -
|  1> !ri-mp2 aug-cc-pvdz aug-cc-pvdz/c tightscf
|  2> %pal nprocs 16 end
|  3>
|  4> * xyz 0 1
|  5> S     3.132710   -0.028210    0.000007
|  6> O    -1.337989    2.079383   -0.000019
|  7> N     0.658787    0.991064   -0.000007
|  8> N     0.797722   -1.297239    0.000012
|  9> N    -3.917479   -0.575246   -0.000004
| 10> C    -1.360122   -0.311158    0.000000
| 11> C    -0.749660    1.025767   -0.000010
| 12> C    -0.554818   -1.403788    0.000010
| 13> C     1.482361   -0.097815    0.000004
| 14> C    -2.773022   -0.442707   -0.000002
| 15> H     1.112595    1.894358   -0.000013
| 16> H    -0.951396   -2.408389    0.000017
| 17> H     1.377708   -2.121519    0.000020
| 18> *
| 19>
| 20>                          ****END OF INPUT****

CARTESIAN COORDINATES (ANGSTROEM)
---------------------------------
  S      3.132710   -0.028210    0.000007
  O     -1.337989    2.079383   -0.000019
  N      0.658787    0.991064   -0.000007
  N      0.797722   -1.297239    0.000012
  N     -3.917479   -0.575246   -0.000004
  C     -1.360122   -0.311158    0.000000
  C     -0.749660    1.025767   -0.000010
  C     -0.554818   -1.403788    0.000010
  C      1.482361   -0.097815    0.000004
  C     -2.773022   -0.442707   -0.000002
  H      1.112595    1.894358   -0.000013
  H     -0.951396   -2.408389    0.000017
  H      1.377708   -2.121519    0.000020

 Total Charge           Charge          ....    0
 Multiplicity           Mult            ....    1
 Number of Electrons    NEL             ....   78
 Basis Dimension        Dim             ....  261

ORBITAL ENERGIES
----------------

  NO   OCC          E(Eh)            E(eV)
   0   2.0000     -91.945058     -2501.9522
   1   2.0000     -20.586733      -560.1935
   2   2.0000     -15.696224      -427.1160
   3   2.0000     -15.674203      -426.5167
   4   2.0000     -15.601891      -424.5490
   5   2.0000     -11.442428      -311.3643
   6   2.0000     -11.425379      -310.9004
   7   2.0000     -11.393910      -310.0441
   8   2.0000     -11.323712      -308.1339
   9   2.0000     -11.305567      -307.6401
  10   2.0000      -8.948511      -243.5014
  11   2.0000      -6.630944      -180.4372
  12   2.0000      -6.627874      -180.3536
  13   2.0000      -6.626928      -180.3279
  14   2.0000      -1.453310       -39.5466
  15   2.0000      -1.397665       -38.0324
  16   2.0000      -1.290827       -35.1252
  17   2.0000      -1.246578       -33.9211
  18   2.0000      -1.160781       -31.5865
  19   2.0000      -1.050042       -28.5731
  20   2.0000      -0.966341       -26.2955
  21   2.0000      -0.911820       -24.8119
  22   2.0000      -0.881010       -23.9735
  23   2.0000      -0.803793       -21.8723
  24   2.0000      -0.753498       -20.5037
  25   2.0000      -0.729513       -19.8511
  26   2.0000      -0.701814       -19.0973
  27   2.0000      -0.690409       -18.7870
  28   2.0000      -0.646957       -17.6046
  29   2.0000      -0.598349       -16.2819
  30   2.0000      -0.576869       -15.6974
  31   2.0000      -0.570976       -15.5370
  32   2.0000      -0.553002       -15.0479
  33   2.0000      -0.497004       -13.5242
  34   2.0000      -0.495081       -13.4718
  35   2.0000      -0.481488       -13.1019
  36   2.0000      -0.413382       -11.2487
  37   2.0000      -0.374531       -10.1915
  38   2.0000      -0.359417        -9.7802
  39   0.0000       0.012888         0.3507
  40   0.0000       0.026414         0.7188
  41   0.0000       0.042289         1.1508
  42   0.0000       0.047354         1.2886
  43   0.0000       0.065529         1.7831

MULLIKEN ATOMIC CHARGES
-----------------------
   0 S :    0.080111
   1 O :   -0.792114
   2 N :   -0.685425
   3 N :   -0.729543
   4 N :   -0.285040
   5 C :    1.547276
   6 C :    0.614905
   7 C :    0.955705
   8 C :    0.523478
   9 C :   -0.797252
  10 H :   -0.013575
  11 H :   -0.407445
  12 H :   -0.011081
Sum of atomic charges:    0.0000000

LOEWDIN ATOMIC CHARGES
----------------------
   0 S :    0.569738
   1 O :    0.076036
   2 N :    0.127640
   3 N :    0.078542
   4 N :    0.106972
   5 C :   -0.142871
   6 C :   -0.270832
   7 C :    0.131430
   8 C :   -0.667106
   9 C :   -0.124216
  10 H :    0.035173
  11 H :    0.050127
  12 H :    0.029368

  Mayer bond orders larger than 0.100000
B(  0-S ,  8-C ) :   1.8892 B(  1-O ,  6-C ) :   1.3979 B(  2-N ,  6-C ) :   0.9611
B(  2-N ,  8-C ) :   0.8742 B(  2-N , 10-H ) :   1.1695 B(  3-N ,  7-C ) :   1.1044
B(  3-N ,  8-C ) :   0.9304 B(  3-N , 12-H ) :   1.1774 B(  4-N ,  9-C ) :   2.4548
B(  5-C ,  6-C ) :   0.2940 B(  5-C ,  7-C ) :   1.2528 B(  6-C ,  8-C ) :  -0.1424
B(  6-C ,  9-C ) :  -0.1618 B(  7-C ,  8-C ) :  -0.1131 B(  7-C ,  9-C ) :  -0.1373
B(  7-C , 11-H ) :   0.5796 B(  7-C , 12-H ) :  -0.1419 B(  8-C , 10-H ) :  -0.1065

MP2 TOTAL ENERGY:     -828.382405993 Eh
FINAL SINGLE POINT ENERGY      -828.382405993428

DIPOLE MOMENT
-------------
                                X             Y             Z
Electronic contribution:     -0.16056       0.83331      -0.00001
Nuclear contribution   :      1.34545      -2.49355       0.00002
                        -----------------------------------------
Total Dipole Moment    :      1.18489      -1.66024       0.00002
                        -----------------------------------------
Magnitude (a.u.)       :      2.03970
Magnitude (Debye)      :      5.18449

Rotational constants in cm-1:     0.102131     0.023133     0.018861
Rotational constants in MHz :  3061.808098   693.524586   565.446359

                             ****ORCA TERMINATED NORMALLY****
TOTAL RUN TIME: 0 days 0 hours 1 minutes 0 seconds 551 msec
