                         Program Version 5.0.3 -  RELEASE  -
|  1> !ri-mp2 aug-cc-pvdz aug-cc-pvdz/c tightscf
|  2> %pal nprocs 16 end
|  3>
|  4> * xyz 0 1
|  5> C      1.232892    0.302834        0.000000
|  6> C      1.206555   -1.054025        0.000000
|  7> C     -1.049356   -1.149467        0.000000
|  8> C      0.000000    1.055988        0.000000
|  9> N      0.061359   -1.812046        0.000000
| 10> N     -1.126414    0.202125        0.000000
| 11> O     -0.144293    2.264784        0.000000
| 12> H      2.159160    0.856946        0.000000
| 13> H      2.129679   -1.620129        0.000000
| 14> H     -1.994198   -1.680952        0.000000
| 15> H     -2.025462    0.663333        0.000000
| 16> *
| 17>
| 18>                          ****END OF INPUT****

CARTESIAN COORDINATES (ANGSTROEM)
---------------------------------
  C      1.232892    0.302834    0.000000
  C      1.206555   -1.054025    0.000000
  C     -1.049356   -1.149467    0.000000
  C      0.000000    1.055988    0.000000
  N      0.061359   -1.812046    0.000000
  N     -1.126414    0.202125    0.000000
  O     -0.144293    2.264784    0.000000
  H      2.159160    0.856946    0.000000
  H      2.129679   -1.620129    0.000000
  H     -1.994198   -1.680952    0.000000
  H     -2.025462    0.663333    0.000000

 Total Charge           Charge          ....    0
 Multiplicity           Mult            ....    1
 Number of Electrons    NEL             ....   50
 Basis Dimension        Dim             ....  197

ORBITAL ENERGIES
----------------

  NO   OCC          E(Eh)            E(eV)
   0   2.0000     -20.541819      -558.9713
   1   2.0000     -15.649248      -425.8377
   2   2.0000     -15.584657      -424.0801
   3   2.0000     -11.379491      -309.6517
   4   2.0000     -11.366891      -309.3088
   5   2.0000     -11.311786      -307.8093
   6   2.0000     -11.251809      -306.1773
   7   2.0000      -1.406165       -38.2637
   8   2.0000      -1.332076       -36.2476
   9   2.0000      -1.224423       -33.3182
  10   2.0000      -1.080514       -29.4023
  11   2.0000      -0.922985       -25.1157
  12   2.0000      -0.896537       -24.3960
  13   2.0000      -0.780604       -21.2413
  14   2.0000      -0.727862       -19.8061
  15   2.0000      -0.708805       -19.2876
  16   2.0000      -0.647011       -17.6061
  17   2.0000      -0.633326       -17.2337
  18   2.0000      -0.624996       -17.0070
  19   2.0000      -0.573699       -15.6112
  20   2.0000      -0.525710       -14.3053
  21   2.0000      -0.458447       -12.4750
  22   2.0000      -0.455343       -12.3905
  23   2.0000      -0.442711       -12.0468
  24   2.0000      -0.351501        -9.5648
  25   0.0000       0.025541         0.6950
  26   0.0000       0.038428         1.0457
  27   0.0000       0.051200         1.3932
  28   0.0000       0.059478         1.6185
  29   0.0000       0.069089         1.8800

MULLIKEN ATOMIC CHARGES
-----------------------
   0 C :    0.950437
   1 C :    0.486537
   2 C :    0.853343
   3 C :    0.652591
   4 N :   -0.746118
   5 N :   -0.480025
   6 O :   -0.803615
   7 H :   -0.408606
   8 H :   -0.263863
   9 H :   -0.184888
  10 H :   -0.055793
Sum of atomic charges:    0.0000000

LOEWDIN ATOMIC CHARGES
----------------------
   0 C :    0.074937
   1 C :   -0.015509
   2 C :   -0.002665
   3 C :   -0.326481
   4 N :    0.023389
   5 N :    0.154148
   6 O :    0.012252
   7 H :    0.004565
   8 H :    0.008993
   9 H :    0.027598
  10 H :    0.038774

  Mayer bond orders larger than 0.100000
B(  0-C ,  1-C ) :   1.5623 B(  0-C ,  3-C ) :   0.8208 B(  0-C ,  7-H ) :   0.5669
B(  1-C ,  3-C ) :   0.1649 B(  1-C ,  4-N ) :   0.9994 B(  1-C ,  7-H ) :   0.1037
B(  1-C ,  8-H ) :   0.8612 B(  2-C ,  4-N ) :   1.6186 B(  2-C ,  5-N ) :   0.9466
B(  2-C ,  9-H ) :   1.0293 B(  2-C , 10-H ) :  -0.1211 B(  3-C ,  5-N ) :   0.8526
B(  3-C ,  6-O ) :   1.2850 B(  3-C ,  7-H ) :   0.1633 B(  5-N , 10-H ) :   1.1720

MP2 TOTAL ENERGY:     -338.674219801 Eh
FINAL SINGLE POINT ENERGY      -338.674219800880

DIPOLE MOMENT
-------------
                                X             Y             Z
Electronic contribution:     -0.84766       0.75837      -0.00000
Nuclear contribution   :      0.25473      -1.71465       0.00000
                        -----------------------------------------
Total Dipole Moment    :     -0.59294      -0.95628      -0.00000
                        -----------------------------------------
Magnitude (a.u.)       :      1.12519
Magnitude (Debye)      :      2.86000

Rotational constants in cm-1:     0.200261     0.093996     0.063970
Rotational constants in MHz :  6003.683555  2817.926347  1917.783518

                             ****ORCA TERMINATED NORMALLY****
TOTAL RUN TIME: 0 days 0 hours 0 minutes 36 seconds 811 msec
