                         Program Version 5.0.3 -  RELEASE  -
|  1> !ri-mp2 aug-cc-pvdz aug-cc-pvdz/c tightscf
|  2> %pal nprocs 16 end
|  3>
|  4> * xyz 0 1
|  5> Cl     2.035348   -0.011575   -0.003987
|  6> O     -1.801008   -0.820277    0.011276
|  7> O     -1.875262    0.660254   -0.028353
|  8> C      0.315681   -0.055902   -0.001214
|  9> C     -0.477853   -1.114474    0.001648
| 10> C     -0.531551    1.179920    0.019645
| 11> H     -0.253678   -2.168788    0.002003
| 12> H     -0.374491    1.821150   -0.853262
| 13> H     -0.400253    1.767328    0.935181
| 14> *
| 15>
| 16>                          ****END OF INPUT****

CARTESIAN COORDINATES (ANGSTROEM)
---------------------------------
  Cl     2.035348   -0.011575   -0.003987
  O     -1.801008   -0.820277    0.011276
  O     -1.875262    0.660254   -0.028353
  C      0.315681   -0.055902   -0.001214
  C     -0.477853   -1.114474    0.001648
  C     -0.531551    1.179920    0.019645
  H     -0.253678   -2.168788    0.002003
  H     -0.374491    1.821150   -0.853262
  H     -0.400253    1.767328    0.935181

 Total Charge           Charge          ....    0
 Multiplicity           Mult            ....    1
 Number of Electrons    NEL             ....   54
 Basis Dimension        Dim             ....  169

ORBITAL ENERGIES
----------------

  NO   OCC          E(Eh)            E(eV)
   0   2.0000    -104.864612     -2853.5112
   1   2.0000     -20.669786      -562.4535
   2   2.0000     -20.657755      -562.1261
   3   2.0000     -11.330839      -308.3278
   4   2.0000     -11.325478      -308.1819
   5   2.0000     -11.310645      -307.7783
   6   2.0000     -10.590045      -288.1698
   7   2.0000      -8.058007      -219.2695
   8   2.0000      -8.054480      -219.1735
   9   2.0000      -8.054319      -219.1692
  10   2.0000      -1.514135       -41.2017
  11   2.0000      -1.283766       -34.9330
  12   2.0000      -1.185665       -32.2636
  13   2.0000      -1.055601       -28.7244
  14   2.0000      -0.913385       -24.8545
  15   2.0000      -0.816622       -22.2214
  16   2.0000      -0.728131       -19.8134
  17   2.0000      -0.709764       -19.3137
  18   2.0000      -0.630780       -17.1644
  19   2.0000      -0.604379       -16.4460
  20   2.0000      -0.599559       -16.3148
  21   2.0000      -0.588260       -16.0074
  22   2.0000      -0.555077       -15.1044
  23   2.0000      -0.536235       -14.5917
  24   2.0000      -0.475634       -12.9426
  25   2.0000      -0.471687       -12.8352
  26   2.0000      -0.350517        -9.5381
  27   0.0000       0.036275         0.9871
  28   0.0000       0.043131         1.1737
  29   0.0000       0.053932         1.4676
  30   0.0000       0.073705         2.0056
  31   0.0000       0.095754         2.6056

MULLIKEN ATOMIC CHARGES
-----------------------
   0 Cl:   -0.217448
   1 O :   -0.646531
   2 O :   -0.545313
   3 C :   -0.804630
   4 C :    1.503140
   5 C :    0.959815
   6 H :   -0.171462
   7 H :   -0.042916
   8 H :   -0.034656
Sum of atomic charges:   -0.0000000

LOEWDIN ATOMIC CHARGES
----------------------
   0 Cl:    0.583779
   1 O :    0.045228
   2 O :    0.043626
   3 C :   -0.614748
   4 C :   -0.048503
   5 C :   -0.032862
   6 H :    0.006914
   7 H :    0.008056
   8 H :    0.008509

  Mayer bond orders larger than 0.100000
B(  0-Cl,  3-C ) :   1.0200 B(  0-Cl,  4-C ) :  -0.1756 B(  1-O ,  2-O ) :   0.8378
B(  1-O ,  3-C ) :   0.1389 B(  1-O ,  4-C ) :   0.3355 B(  2-O ,  3-C ) :   0.4314
B(  2-O ,  4-C ) :  -0.2950 B(  2-O ,  5-C ) :   0.3488 B(  3-C ,  4-C ) :   1.7003
B(  3-C ,  5-C ) :   1.1592 B(  4-C ,  6-H ) :   0.7424 B(  5-C ,  7-H ) :   0.9070
B(  5-C ,  8-H ) :   0.9023

MP2 TOTAL ENERGY:     -725.411736968 Eh
FINAL SINGLE POINT ENERGY      -725.411736968036

DIPOLE MOMENT
-------------
                                X             Y             Z
Electronic contribution:      4.33380      -1.35993      -0.06079
Nuclear contribution   :     -3.80710       1.36518       0.08508
                        -----------------------------------------
Total Dipole Moment    :      0.52670       0.00525       0.02430
                        -----------------------------------------
Magnitude (a.u.)       :      0.52729
Magnitude (Debye)      :      1.34025

Rotational constants in cm-1:     0.270729     0.063802     0.052156
Rotational constants in MHz :  8116.245433  1912.738443  1563.603014

                             ****ORCA TERMINATED NORMALLY****
TOTAL RUN TIME: 0 days 0 hours 0 minutes 29 seconds 913 msec
