                         Program Version 5.0.3 -  RELEASE  -
|  1> !ri-mp2 aug-cc-pvdz aug-cc-pvdz/c tightscf
|  2> %pal nprocs 16 end
|  3>
|  4> * xyz 0 1
|  5> Cl    -2.010456   -0.590268   -0.599839
|  6> S      1.409201   -1.226558   -0.189113
|  7> S      1.477785    0.867297   -0.404520
|  8> O     -0.613216    2.315389    0.315501
|  9> C     -0.892502   -0.061929    0.726505
| 10> C      0.101019   -1.136073    1.098478
| 11> C     -0.172173    1.206202    0.240534
| 12> H     -1.528841    0.214376    1.562461
| 13> H      0.561916   -0.885355    2.054656
| 14> H     -0.359432   -2.118613    1.161173
| 15> *
| 16>
| 17>                          ****END OF INPUT****

CARTESIAN COORDINATES (ANGSTROEM)
---------------------------------
  Cl    -2.010456   -0.590268   -0.599839
  S      1.409201   -1.226558   -0.189113
  S      1.477785    0.867297   -0.404520
  O     -0.613216    2.315389    0.315501
  C     -0.892502   -0.061929    0.726505
  C      0.101019   -1.136073    1.098478
  C     -0.172173    1.206202    0.240534
  H     -1.528841    0.214376    1.562461
  H      0.561916   -0.885355    2.054656
  H     -0.359432   -2.118613    1.161173

 Total Charge           Charge          ....    0
 Multiplicity           Mult            ....    1
 Number of Electrons    NEL             ....   78
 Basis Dimension        Dim             ....  200

ORBITAL ENERGIES
----------------

  NO   OCC          E(Eh)            E(eV)
   0   2.0000    -104.853357     -2853.2049
   1   2.0000     -92.013339     -2503.8102
   2   2.0000     -92.006990     -2503.6375
   3   2.0000     -20.601811      -560.6038
   4   2.0000     -11.407050      -310.4016
   5   2.0000     -11.353584      -308.9467
   6   2.0000     -11.317528      -307.9656
   7   2.0000     -10.578895      -287.8664
   8   2.0000      -9.014637      -245.3007
   9   2.0000      -9.007205      -245.0985
  10   2.0000      -8.046537      -218.9574
  11   2.0000      -8.043227      -218.8673
  12   2.0000      -8.043125      -218.8646
  13   2.0000      -6.695992      -182.2072
  14   2.0000      -6.694744      -182.1733
  15   2.0000      -6.692246      -182.1053
  16   2.0000      -6.688861      -182.0132
  17   2.0000      -6.687370      -181.9726
  18   2.0000      -6.684634      -181.8981
  19   2.0000      -1.445508       -39.3343
  20   2.0000      -1.197318       -32.5807
  21   2.0000      -1.108220       -30.1562
  22   2.0000      -1.019372       -27.7385
  23   2.0000      -0.976110       -26.5613
  24   2.0000      -0.844215       -22.9723
  25   2.0000      -0.767952       -20.8970
  26   2.0000      -0.699816       -19.0430
  27   2.0000      -0.681479       -18.5440
  28   2.0000      -0.643401       -17.5078
  29   2.0000      -0.614051       -16.7092
  30   2.0000      -0.597255       -16.2521
  31   2.0000      -0.548446       -14.9240
  32   2.0000      -0.517894       -14.0926
  33   2.0000      -0.487929       -13.2772
  34   2.0000      -0.477619       -12.9967
  35   2.0000      -0.461096       -12.5470
  36   2.0000      -0.454443       -12.3660
  37   2.0000      -0.426361       -11.6019
  38   2.0000      -0.350645        -9.5415
  39   0.0000       0.028756         0.7825
  40   0.0000       0.044227         1.2035
  41   0.0000       0.051151         1.3919
  42   0.0000       0.064090         1.7440
  43   0.0000       0.066177         1.8008

MULLIKEN ATOMIC CHARGES
-----------------------
   0 Cl:   -0.135171
   1 S :    0.252144
   2 S :    0.268299
   3 O :   -0.657255
   4 C :   -0.030451
   5 C :    0.031279
   6 C :    0.293414
   7 H :   -0.011024
   8 H :   -0.031917
   9 H :    0.020682
Sum of atomic charges:    0.0000000

LOEWDIN ATOMIC CHARGES
----------------------
   0 Cl:    0.536699
   1 S :    0.504803
   2 S :    0.567631
   3 O :    0.009122
   4 C :   -0.563560
   5 C :   -0.360161
   6 C :   -0.642688
   7 H :    0.002006
   8 H :   -0.023708
   9 H :   -0.030144

  Mayer bond orders larger than 0.100000
B(  0-Cl,  4-C ) :   1.0643 B(  1-S ,  2-S ) :   0.9890 B(  1-S ,  4-C ) :  -0.4194
B(  1-S ,  5-C ) :   1.2144 B(  2-S ,  4-C ) :  -0.2159 B(  2-S ,  6-C ) :   1.1822
B(  3-O ,  6-C ) :   1.4735 B(  4-C ,  5-C ) :   1.1352 B(  4-C ,  6-C ) :   0.7378
B(  4-C ,  7-H ) :   0.7947 B(  4-C ,  8-H ) :   0.1569 B(  5-C ,  6-C ) :   0.1287
B(  5-C ,  8-H ) :   0.8767 B(  5-C ,  9-H ) :   0.8636 B(  6-C ,  7-H ) :   0.1096

MP2 TOTAL ENERGY:    -1445.840296146 Eh
FINAL SINGLE POINT ENERGY     -1445.840296146493

DIPOLE MOMENT
-------------
                                X             Y             Z
Electronic contribution:     -1.23134       0.74923      -4.38922
Nuclear contribution   :      1.37478      -1.79765       5.36183
                        -----------------------------------------
Total Dipole Moment    :      0.14343      -1.04843       0.97261
                        -----------------------------------------
Magnitude (a.u.)       :      1.43727
Magnitude (Debye)      :      3.65325

Rotational constants in cm-1:     0.065115     0.048738     0.033392
Rotational constants in MHz :  1952.100844  1461.114743  1001.080779

                             ****ORCA TERMINATED NORMALLY****
TOTAL RUN TIME: 0 days 0 hours 0 minutes 53 seconds 681 msec
