                         Program Version 5.0.3 -  RELEASE  -
|  1> !ri-mp2 aug-cc-pvdz aug-cc-pvdz/c tightscf
|  2> %pal nprocs 16 end
|  3>
|  4> * xyz 0 1
|  5> C      1.363855    0.030075   -0.170042
|  6> C      2.606929   -0.557824    0.463532
|  7> C     -1.455280    1.225604    0.713644
|  8> C     -2.421092   -0.889332   -0.272124
|  9> C      0.061163   -0.705726    0.102479
| 10> C     -1.218410    0.057722   -0.248330
| 11> O      1.416645    1.020203   -0.864763
| 12> H      2.642224   -1.640680    0.332842
| 13> H      3.496393   -0.099039    0.039705
| 14> H      2.584875   -0.368191    1.539724
| 15> H     -2.352545    1.781025    0.436354
| 16> H     -1.594220    0.865028    1.736746
| 17> H     -0.618385    1.922898    0.706321
| 18> H     -3.332967   -0.354649   -0.542235
| 19> H     -2.584846   -1.345226    0.707862
| 20> H     -2.281272   -1.695729   -0.994592
| 21> H      0.119090   -1.634373   -0.479035
| 22> H      0.049131   -1.027199    1.149683
| 23> H     -1.083622    0.471398   -1.250224
| 24> *
| 25>
| 26>                          ****END OF INPUT****

CARTESIAN COORDINATES (ANGSTROEM)
---------------------------------
  C      1.363855    0.030075   -0.170042
  C      2.606929   -0.557824    0.463532
  C     -1.455280    1.225604    0.713644
  C     -2.421092   -0.889332   -0.272124
  C      0.061163   -0.705726    0.102479
  C     -1.218410    0.057722   -0.248330
  O      1.416645    1.020203   -0.864763
  H      2.642224   -1.640680    0.332842
  H      3.496393   -0.099039    0.039705
  H      2.584875   -0.368191    1.539724
  H     -2.352545    1.781025    0.436354
  H     -1.594220    0.865028    1.736746
  H     -0.618385    1.922898    0.706321
  H     -3.332967   -0.354649   -0.542235
  H     -2.584846   -1.345226    0.707862
  H     -2.281272   -1.695729   -0.994592
  H      0.119090   -1.634373   -0.479035
  H      0.049131   -1.027199    1.149683
  H     -1.083622    0.471398   -1.250224

 Total Charge           Charge          ....    0
 Multiplicity           Mult            ....    1
 Number of Electrons    NEL             ....   56
 Basis Dimension        Dim             ....  269

ORBITAL ENERGIES
----------------

  NO   OCC          E(Eh)            E(eV)
   0   2.0000     -20.553677      -559.2940
   1   2.0000     -11.336943      -308.4939
   2   2.0000     -11.240432      -305.8677
   3   2.0000     -11.240353      -305.8656
   4   2.0000     -11.233475      -305.6784
   5   2.0000     -11.220912      -305.3365
   6   2.0000     -11.214626      -305.1655
   7   2.0000      -1.391058       -37.8526
   8   2.0000      -1.096811       -29.8457
   9   2.0000      -1.025376       -27.9019
  10   2.0000      -0.950613       -25.8675
  11   2.0000      -0.931077       -25.3359
  12   2.0000      -0.790989       -21.5239
  13   2.0000      -0.732389       -19.9293
  14   2.0000      -0.660780       -17.9807
  15   2.0000      -0.637959       -17.3597
  16   2.0000      -0.627695       -17.0804
  17   2.0000      -0.600628       -16.3439
  18   2.0000      -0.581109       -15.8128
  19   2.0000      -0.567075       -15.4309
  20   2.0000      -0.552159       -15.0250
  21   2.0000      -0.536669       -14.6035
  22   2.0000      -0.522249       -14.2111
  23   2.0000      -0.491165       -13.3653
  24   2.0000      -0.478427       -13.0187
  25   2.0000      -0.465710       -12.6726
  26   2.0000      -0.464107       -12.6290
  27   2.0000      -0.405283       -11.0283
  28   0.0000       0.032016         0.8712
  29   0.0000       0.041238         1.1221
  30   0.0000       0.044587         1.2133
  31   0.0000       0.049327         1.3422
  32   0.0000       0.061453         1.6722

MULLIKEN ATOMIC CHARGES
-----------------------
   0 C :    0.144836
   1 C :    0.365082
   2 C :    0.749492
   3 C :    0.923369
   4 C :    0.533212
   5 C :   -1.203046
   6 O :   -0.821626
   7 H :    0.011782
   8 H :   -0.068130
   9 H :    0.073499
  10 H :   -0.089936
  11 H :   -0.038971
  12 H :   -0.095955
  13 H :   -0.053774
  14 H :   -0.009896
  15 H :   -0.106591
  16 H :   -0.035211
  17 H :   -0.108350
  18 H :   -0.169785
Sum of atomic charges:    0.0000000

LOEWDIN ATOMIC CHARGES
----------------------
   0 C :   -0.299699
   1 C :    0.195465
   2 C :    0.162482
   3 C :    0.156667
   4 C :    0.026924
   5 C :   -0.278260
   6 O :    0.050534
   7 H :   -0.010062
   8 H :   -0.009100
   9 H :   -0.005301
  10 H :   -0.013673
  11 H :   -0.011608
  12 H :   -0.016658
  13 H :   -0.014050
  14 H :   -0.011576
  15 H :   -0.015942
  16 H :    0.029417
  17 H :    0.027671
  18 H :    0.036769

  Mayer bond orders larger than 0.100000
B(  0-C ,  1-C ) :   1.0536 B(  0-C ,  4-C ) :   1.0964 B(  0-C ,  6-O ) :   1.3482
B(  0-C ,  8-H ) :   0.1525 B(  1-C ,  7-H ) :   0.9369 B(  1-C ,  8-H ) :   0.8325
B(  1-C ,  9-H ) :   0.9398 B(  2-C ,  3-C ) :  -0.1901 B(  2-C ,  5-C ) :   1.3836
B(  2-C , 10-H ) :   0.8153 B(  2-C , 11-H ) :   0.8817 B(  2-C , 12-H ) :   0.8508
B(  3-C ,  4-C ) :  -0.1589 B(  3-C ,  5-C ) :   1.3140 B(  3-C , 13-H ) :   0.8181
B(  3-C , 14-H ) :   0.8980 B(  3-C , 15-H ) :   0.7902 B(  4-C ,  5-C ) :   1.1019
B(  4-C , 11-H ) :  -0.1060 B(  4-C , 16-H ) :   0.8420 B(  4-C , 17-H ) :   0.7657
B(  5-C , 10-H ) :   0.1588 B(  5-C , 11-H ) :   0.1735 B(  5-C , 12-H ) :   0.1070
B(  5-C , 13-H ) :   0.1498 B(  5-C , 14-H ) :   0.1331 B(  5-C , 15-H ) :   0.1495
B(  5-C , 18-H ) :   0.6832

MP2 TOTAL ENERGY:     -310.181607799 Eh
FINAL SINGLE POINT ENERGY      -310.181607799394

DIPOLE MOMENT
-------------
                                X             Y             Z
Electronic contribution:      5.09830       2.27841      -2.88295
Nuclear contribution   :     -5.18065      -3.26418       3.53810
                        -----------------------------------------
Total Dipole Moment    :     -0.08235      -0.98577       0.65515
                        -----------------------------------------
Magnitude (a.u.)       :      1.18649
Magnitude (Debye)      :      3.01581

Rotational constants in cm-1:     0.157667     0.049243     0.044132
Rotational constants in MHz :  4726.737481  1476.254154  1323.040304

                             ****ORCA TERMINATED NORMALLY****
TOTAL RUN TIME: 0 days 0 hours 1 minutes 1 seconds 772 msec
