                         Program Version 5.0.3 -  RELEASE  -
|  1> !ri-mp2 aug-cc-pvdz aug-cc-pvdz/c tightscf
|  2> %pal nprocs 16 end
|  3>
|  4> * xyz 0 1
|  5> F    -2.610592   -0.327834    1.201239
|  6> F    -2.811525   -0.037318   -0.964662
|  7> O     1.182464    1.333129    0.117243
|  8> N     1.584817    0.016648   -0.354989
|  9> C    -0.642997   -0.097857   -0.059740
| 10> C     0.463626   -0.798090   -0.297934
| 11> C    -2.016538   -0.627408   -0.004321
| 12> C    -0.262774    1.356137    0.055783
| 13> C     2.824717   -0.333007   -0.014553
| 14> C     3.962621   -0.634351    0.227184
| 15> H     0.589733   -1.853786   -0.474588
| 16> H    -2.071144   -1.706782   -0.144639
| 17> H    -0.624227    1.838730    0.964570
| 18> H    -0.584651    1.938157   -0.814947
| 19> H     4.963978   -0.904064    0.448868
| 20> *
| 21>
| 22>                          ****END OF INPUT****

CARTESIAN COORDINATES (ANGSTROEM)
---------------------------------
  F     -2.610592   -0.327834    1.201239
  F     -2.811525   -0.037318   -0.964662
  O      1.182464    1.333129    0.117243
  N      1.584817    0.016648   -0.354989
  C     -0.642997   -0.097857   -0.059740
  C      0.463626   -0.798090   -0.297934
  C     -2.016538   -0.627408   -0.004321
  C     -0.262774    1.356137    0.055783
  C      2.824717   -0.333007   -0.014553
  C      3.962621   -0.634351    0.227184
  H      0.589733   -1.853786   -0.474588
  H     -2.071144   -1.706782   -0.144639
  H     -0.624227    1.838730    0.964570
  H     -0.584651    1.938157   -0.814947
  H      4.963978   -0.904064    0.448868

 Total Charge           Charge          ....    0
 Multiplicity           Mult            ....    1
 Number of Electrons    NEL             ....   74
 Basis Dimension        Dim             ....  275

ORBITAL ENERGIES
----------------

  NO   OCC          E(Eh)            E(eV)
   0   2.0000     -26.327709      -716.4134
   1   2.0000     -26.327664      -716.4122
   2   2.0000     -20.636598      -561.5504
   3   2.0000     -15.684706      -426.8026
   4   2.0000     -11.436045      -311.1906
   5   2.0000     -11.327019      -308.2239
   6   2.0000     -11.319117      -308.0088
   7   2.0000     -11.292474      -307.2838
   8   2.0000     -11.268471      -306.6307
   9   2.0000     -11.251036      -306.1563
  10   2.0000      -1.665480       -45.3200
  11   2.0000      -1.603934       -43.6453
  12   2.0000      -1.461997       -39.7830
  13   2.0000      -1.231268       -33.5045
  14   2.0000      -1.138589       -30.9826
  15   2.0000      -1.035602       -28.1802
  16   2.0000      -0.981600       -26.7107
  17   2.0000      -0.922171       -25.0935
  18   2.0000      -0.841555       -22.8999
  19   2.0000      -0.799116       -21.7451
  20   2.0000      -0.775887       -21.1130
  21   2.0000      -0.758793       -20.6478
  22   2.0000      -0.744381       -20.2556
  23   2.0000      -0.712514       -19.3885
  24   2.0000      -0.702063       -19.1041
  25   2.0000      -0.668697       -18.1962
  26   2.0000      -0.649692       -17.6790
  27   2.0000      -0.631668       -17.1886
  28   2.0000      -0.627098       -17.0642
  29   2.0000      -0.593861       -16.1598
  30   2.0000      -0.592045       -16.1104
  31   2.0000      -0.582880       -15.8610
  32   2.0000      -0.529673       -14.4131
  33   2.0000      -0.488813       -13.3013
  34   2.0000      -0.424076       -11.5397
  35   2.0000      -0.417092       -11.3497
  36   2.0000      -0.328440        -8.9373
  37   0.0000       0.029549         0.8041
  38   0.0000       0.037963         1.0330
  39   0.0000       0.045376         1.2347
  40   0.0000       0.054986         1.4963
  41   0.0000       0.059580         1.6213

MULLIKEN ATOMIC CHARGES
-----------------------
   0 F :   -0.647882
   1 F :   -0.649530
   2 O :   -0.968118
   3 N :   -0.458518
   4 C :   -0.688775
   5 C :    1.078329
   6 C :    1.994001
   7 C :    0.823644
   8 C :   -0.412544
   9 C :    1.225874
  10 H :   -0.422401
  11 H :   -0.288130
  12 H :   -0.072959
  13 H :   -0.034273
  14 H :   -0.478717
Sum of atomic charges:    0.0000000

LOEWDIN ATOMIC CHARGES
----------------------
   0 F :    0.032728
   1 F :    0.031182
   2 O :    0.079152
   3 N :   -0.124258
   4 C :   -0.169585
   5 C :    0.098122
   6 C :   -0.120016
   7 C :    0.065955
   8 C :   -0.129672
   9 C :    0.236023
  10 H :    0.035084
  11 H :    0.030800
  12 H :    0.016365
  13 H :    0.018930
  14 H :   -0.100810

  Mayer bond orders larger than 0.100000
B(  0-F ,  4-C ) :   0.1489 B(  0-F ,  6-C ) :   0.3068 B(  1-F ,  4-C ) :   0.1149
B(  1-F ,  6-C ) :   0.3362 B(  2-O ,  3-N ) :   0.8388 B(  2-O ,  4-C ) :   0.2971
B(  2-O ,  7-C ) :   0.3138 B(  2-O ,  8-C ) :  -0.1926 B(  3-N ,  4-C ) :   0.1510
B(  3-N ,  5-C ) :   0.5301 B(  3-N ,  8-C ) :   1.2571 B(  3-N ,  9-C ) :  -0.2876
B(  4-C ,  5-C ) :   1.6580 B(  4-C ,  6-C ) :   0.8918 B(  4-C ,  7-C ) :   1.2317
B(  4-C , 10-H ) :   0.2352 B(  4-C , 11-H ) :   0.5292 B(  4-C , 12-H ) :   0.1117
B(  5-C , 10-H ) :   0.3169 B(  5-C , 11-H ) :  -0.1771 B(  6-C , 11-H ) :   0.5362
B(  7-C , 12-H ) :   0.8653 B(  7-C , 13-H ) :   0.9071 B(  8-C ,  9-C ) :   2.7114
B(  8-C , 14-H ) :   0.9701 B(  9-C , 14-H ) :  -0.4101 B( 12-H , 13-H ) :  -0.1090

MP2 TOTAL ENERGY:     -559.764682543 Eh
FINAL SINGLE POINT ENERGY      -559.764682542912

DIPOLE MOMENT
-------------
                                X             Y             Z
Electronic contribution:     -6.97660      -0.54516       0.11398
Nuclear contribution   :      7.33299      -0.29308      -0.24386
                        -----------------------------------------
Total Dipole Moment    :      0.35639      -0.83824      -0.12988
                        -----------------------------------------
Magnitude (a.u.)       :      0.92007
Magnitude (Debye)      :      2.33863

Rotational constants in cm-1:     0.123478     0.022192     0.021220
Rotational constants in MHz :  3701.774362   665.314204   636.151821

                             ****ORCA TERMINATED NORMALLY****
TOTAL RUN TIME: 0 days 0 hours 1 minutes 10 seconds 910 msec
