                         Program Version 5.0.3 -  RELEASE  -
|  1> !ri-mp2 aug-cc-pvdz aug-cc-pvdz/c tightscf
|  2> %pal nprocs 16 end
|  3>
|  4> * xyz 0 1
|  5> H      3.260702   -1.294214   -0.401232
|  6> C      1.438044   -0.423931    0.191330
|  7> H      3.206899    0.548451   -0.421234
|  8> C      2.695041   -0.387967   -0.232098
|  9> H      0.306468    0.824211    1.506818
| 10> C      0.591287    0.786117    0.451638
| 11> H     -1.211253    1.787841   -0.217654
| 12> H     -0.463260    0.753418   -1.450887
| 13> C     -0.675702    0.859133   -0.390868
| 14> H      0.963360   -1.382561    0.370238
| 15> H      1.169489    1.691325    0.243452
| 16> Cl    -1.854378   -0.466387    0.014735
| 17> *
| 18>
| 19>                          ****END OF INPUT****

CARTESIAN COORDINATES (ANGSTROEM)
---------------------------------
  H      3.260702   -1.294214   -0.401232
  C      1.438044   -0.423931    0.191330
  H      3.206899    0.548451   -0.421234
  C      2.695041   -0.387967   -0.232098
  H      0.306468    0.824211    1.506818
  C      0.591287    0.786117    0.451638
  H     -1.211253    1.787841   -0.217654
  H     -0.463260    0.753418   -1.450887
  C     -0.675702    0.859133   -0.390868
  H      0.963360   -1.382561    0.370238
  H      1.169489    1.691325    0.243452
  Cl    -1.854378   -0.466387    0.014735

 Total Charge           Charge          ....    0
 Multiplicity           Mult            ....    1
 Number of Electrons    NEL             ....   48
 Basis Dimension        Dim             ....  182

ORBITAL ENERGIES
----------------

  NO   OCC          E(Eh)            E(eV)
   0   2.0000    -104.820010     -2852.2975
   1   2.0000     -11.305258      -307.6317
   2   2.0000     -11.253298      -306.2178
   3   2.0000     -11.246022      -306.0198
   4   2.0000     -11.235273      -305.7273
   5   2.0000     -10.546010      -286.9715
   6   2.0000      -8.013588      -218.0608
   7   2.0000      -8.010568      -217.9786
   8   2.0000      -8.010489      -217.9765
   9   2.0000      -1.141956       -31.0742
  10   2.0000      -1.073887       -29.2220
  11   2.0000      -0.983191       -26.7540
  12   2.0000      -0.858927       -23.3726
  13   2.0000      -0.766231       -20.8502
  14   2.0000      -0.665077       -18.0977
  15   2.0000      -0.639312       -17.3966
  16   2.0000      -0.600779       -16.3480
  17   2.0000      -0.569958       -15.5093
  18   2.0000      -0.552936       -15.0461
  19   2.0000      -0.508675       -13.8418
  20   2.0000      -0.492598       -13.4043
  21   2.0000      -0.435629       -11.8541
  22   2.0000      -0.432055       -11.7568
  23   2.0000      -0.371488       -10.1087
  24   0.0000       0.035006         0.9526
  25   0.0000       0.042396         1.1537
  26   0.0000       0.049949         1.3592
  27   0.0000       0.052861         1.4384
  28   0.0000       0.064866         1.7651

MULLIKEN ATOMIC CHARGES
-----------------------
   0 H :   -0.269716
   1 C :    0.725792
   2 H :   -0.290365
   3 C :    0.372631
   4 H :   -0.000161
   5 C :    0.221251
   6 H :    0.026452
   7 H :    0.026754
   8 C :   -0.148512
   9 H :   -0.427610
  10 H :   -0.091187
  11 Cl:   -0.145329
Sum of atomic charges:   -0.0000000

LOEWDIN ATOMIC CHARGES
----------------------
   0 H :   -0.042475
   1 C :   -0.078407
   2 H :   -0.039639
   3 C :    0.162510
   4 H :    0.015248
   5 C :   -0.100547
   6 H :   -0.032755
   7 H :   -0.029732
   8 C :   -0.299001
   9 H :   -0.011238
  10 H :    0.018059
  11 Cl:    0.437978

  Mayer bond orders larger than 0.100000
B(  0-H ,  1-C ) :   0.1459 B(  0-H ,  2-H ) :  -0.1883 B(  0-H ,  3-C ) :   0.7697
B(  1-C ,  3-C ) :   1.9654 B(  1-C ,  5-C ) :   1.1001 B(  1-C ,  9-H ) :   0.7129
B(  2-H ,  3-C ) :   0.9266 B(  4-H ,  5-C ) :   0.8861 B(  5-C ,  8-C ) :   1.2676
B(  5-C ,  9-H ) :  -0.1732 B(  5-C , 10-H ) :   0.8453 B(  5-C , 11-Cl) :  -0.1661
B(  6-H ,  8-C ) :   0.8785 B(  7-H ,  8-C ) :   0.9420 B(  8-C , 11-Cl) :   1.1832

MP2 TOTAL ENERGY:     -615.772122135 Eh
FINAL SINGLE POINT ENERGY      -615.772122135243

DIPOLE MOMENT
-------------
                                X             Y             Z
Electronic contribution:     -9.26419      -2.90707       0.26769
Nuclear contribution   :      9.84111       3.57961      -0.38983
                        -----------------------------------------
Total Dipole Moment    :      0.57692       0.67253      -0.12214
                        -----------------------------------------
Magnitude (a.u.)       :      0.89446
Magnitude (Debye)      :      2.27353

Rotational constants in cm-1:     0.341423     0.060579     0.054928
Rotational constants in MHz : 10235.598716  1816.116375  1646.710475

                             ****ORCA TERMINATED NORMALLY****
TOTAL RUN TIME: 0 days 0 hours 0 minutes 35 seconds 152 msec
