                         Program Version 5.0.3 -  RELEASE  -
|  1> !ri-mp2 aug-cc-pvdz aug-cc-pvdz/c tightscf
|  2> %pal nprocs 16 end
|  3>
|  4> * xyz 0 1
|  5> C     -0.005988    2.507272        0.000000
|  6> C     -1.204001    0.369123        0.000000
|  7> C      1.211150    0.375851        0.000000
|  8> C     -1.197969   -1.015172        0.000000
|  9> C      1.219241   -1.005857        0.000000
| 10> C      0.000000    1.080084        0.000000
| 11> C      0.013220   -1.706493        0.000000
| 12> N     -0.011295    3.660282        0.000000
| 13> O      0.081551   -3.064394        0.000000
| 14> H     -2.141968    0.905432        0.000000
| 15> H      2.144005    0.921085        0.000000
| 16> H     -2.133901   -1.560076        0.000000
| 17> H      2.147877   -1.558073        0.000000
| 18> H     -0.803265   -3.444050        0.000000
| 19> *
| 20>
| 21>                          ****END OF INPUT****

CARTESIAN COORDINATES (ANGSTROEM)
---------------------------------
  C     -0.005988    2.507272    0.000000
  C     -1.204001    0.369123    0.000000
  C      1.211150    0.375851    0.000000
  C     -1.197969   -1.015172    0.000000
  C      1.219241   -1.005857    0.000000
  C      0.000000    1.080084    0.000000
  C      0.013220   -1.706493    0.000000
  N     -0.011295    3.660282    0.000000
  O      0.081551   -3.064394    0.000000
  H     -2.141968    0.905432    0.000000
  H      2.144005    0.921085    0.000000
  H     -2.133901   -1.560076    0.000000
  H      2.147877   -1.558073    0.000000
  H     -0.803265   -3.444050    0.000000

 Total Charge           Charge          ....    0
 Multiplicity           Mult            ....    1
 Number of Electrons    NEL             ....   62
 Basis Dimension        Dim             ....  252

ORBITAL ENERGIES
----------------

  NO   OCC          E(Eh)            E(eV)
   0   2.0000     -20.628855      -561.3397
   1   2.0000     -15.579136      -423.9298
   2   2.0000     -11.344365      -308.6959
   3   2.0000     -11.287567      -307.1503
   4   2.0000     -11.285289      -307.0883
   5   2.0000     -11.283062      -307.0277
   6   2.0000     -11.282811      -307.0209
   7   2.0000     -11.267456      -306.6031
   8   2.0000     -11.261413      -306.4386
   9   2.0000      -1.440456       -39.1968
  10   2.0000      -1.228175       -33.4203
  11   2.0000      -1.186032       -32.2736
  12   2.0000      -1.059215       -28.8227
  13   2.0000      -1.058017       -28.7901
  14   2.0000      -0.894988       -24.3539
  15   2.0000      -0.877036       -23.8654
  16   2.0000      -0.770953       -20.9787
  17   2.0000      -0.766088       -20.8463
  18   2.0000      -0.698173       -18.9982
  19   2.0000      -0.647471       -17.6186
  20   2.0000      -0.625873       -17.0309
  21   2.0000      -0.619669       -16.8621
  22   2.0000      -0.611984       -16.6529
  23   2.0000      -0.584094       -15.8940
  24   2.0000      -0.549598       -14.9553
  25   2.0000      -0.543886       -14.7999
  26   2.0000      -0.528968       -14.3940
  27   2.0000      -0.471111       -12.8196
  28   2.0000      -0.466130       -12.6840
  29   2.0000      -0.374886       -10.2012
  30   2.0000      -0.339641        -9.2421
  31   0.0000       0.021936         0.5969
  32   0.0000       0.036974         1.0061
  33   0.0000       0.041590         1.1317
  34   0.0000       0.058170         1.5829
  35   0.0000       0.064565         1.7569

MULLIKEN ATOMIC CHARGES
-----------------------
   0 C :   -1.161308
   1 C :    0.042790
   2 C :    0.279792
   3 C :    0.508320
   4 C :    0.738104
   5 C :    2.327744
   6 C :    0.351852
   7 N :   -0.253193
   8 O :   -0.873125
   9 H :   -0.549411
  10 H :   -0.565002
  11 H :   -0.556591
  12 H :   -0.466181
  13 H :    0.176210
Sum of atomic charges:    0.0000000

LOEWDIN ATOMIC CHARGES
----------------------
   0 C :   -0.133845
   1 C :    0.066629
   2 C :    0.069885
   3 C :    0.057304
   4 C :    0.067478
   5 C :   -0.218985
   6 C :   -0.212807
   7 N :    0.081835
   8 O :    0.196493
   9 H :    0.019915
  10 H :    0.020258
  11 H :    0.005311
  12 H :    0.012945
  13 H :   -0.032418

  Mayer bond orders larger than 0.100000
B(  0-C ,  1-C ) :  -0.1982 B(  0-C ,  2-C ) :  -0.1996 B(  0-C ,  5-C ) :  -0.6187
B(  0-C ,  6-C ) :   0.1708 B(  0-C ,  7-N ) :   2.4634 B(  1-C ,  2-C ) :  -0.6107
B(  1-C ,  3-C ) :   2.1381 B(  1-C ,  5-C ) :   1.4138 B(  1-C ,  9-H ) :   0.2452
B(  1-C , 11-H ) :   0.2165 B(  2-C ,  3-C ) :   0.1839 B(  2-C ,  4-C ) :   2.2008
B(  2-C ,  5-C ) :   1.5985 B(  2-C , 12-H ) :   0.2202 B(  3-C ,  5-C ) :  -0.3272
B(  3-C ,  6-C ) :   1.4015 B(  3-C ,  8-O ) :   0.1366 B(  3-C ,  9-H ) :   0.2194
B(  4-C ,  5-C ) :  -0.4332 B(  4-C ,  6-C ) :   1.4842 B(  4-C , 10-H ) :   0.3466
B(  4-C , 12-H ) :  -0.1997 B(  5-C ,  6-C ) :   0.1767 B(  5-C ,  7-N ) :  -0.1135
B(  5-C ,  9-H ) :   0.2715 B(  5-C , 10-H ) :   0.3315 B(  5-C , 12-H ) :  -0.1286
B(  6-C , 10-H ) :  -0.1293 B(  6-C , 11-H ) :   0.4432 B(  6-C , 12-H ) :   0.6687
B(  6-C , 13-H ) :  -0.1136 B(  8-O , 13-H ) :   1.0550

MP2 TOTAL ENERGY:     -398.629913647 Eh
FINAL SINGLE POINT ENERGY      -398.629913646568

DIPOLE MOMENT
-------------
                                X             Y             Z
Electronic contribution:      0.23606       2.64438      -0.00000
Nuclear contribution   :     -0.76833      -4.65526       0.00000
                        -----------------------------------------
Total Dipole Moment    :     -0.53228      -2.01088      -0.00000
                        -----------------------------------------
Magnitude (a.u.)       :      2.08013
Magnitude (Debye)      :      5.28728

Rotational constants in cm-1:     0.188638     0.033144     0.028191
Rotational constants in MHz :  5655.237441   993.626792   845.136138

                             ****ORCA TERMINATED NORMALLY****
TOTAL RUN TIME: 0 days 0 hours 1 minutes 0 seconds 767 msec
