                         Program Version 5.0.3 -  RELEASE  -
|  1> !ri-mp2 aug-cc-pvdz aug-cc-pvdz/c tightscf
|  2> %pal nprocs 16 end
|  3>
|  4> * xyz 0 1
|  5> H      1.956440   -1.637058    0.000000
|  6> C      0.000000    0.950174    0.000000
|  7> C      1.120691   -0.954132    0.000000
|  8> H      0.432261    2.850247    0.878324
|  9> H     -1.103247    2.790379    0.000000
| 10> H      0.432261    2.850247   -0.878324
| 11> C     -0.071430    2.443743    0.000000
| 12> S     -0.511579   -1.544954    0.000000
| 13> N      1.234040    0.335533    0.000000
| 14> H     -2.109532    0.327724    0.000000
| 15> C     -1.059462    0.091715    0.000000
| 16> *
| 17>
| 18>                          ****END OF INPUT****

CARTESIAN COORDINATES (ANGSTROEM)
---------------------------------
  H      1.956440   -1.637058    0.000000
  C      0.000000    0.950174    0.000000
  C      1.120691   -0.954132    0.000000
  H      0.432261    2.850247    0.878324
  H     -1.103247    2.790379    0.000000
  H      0.432261    2.850247   -0.878324
  C     -0.071430    2.443743    0.000000
  S     -0.511579   -1.544954    0.000000
  N      1.234040    0.335533    0.000000
  H     -2.109532    0.327724    0.000000
  C     -1.059462    0.091715    0.000000

 Total Charge           Charge          ....    0
 Multiplicity           Mult            ....    1
 Number of Electrons    NEL             ....   52
 Basis Dimension        Dim             ....  187

ORBITAL ENERGIES
----------------

  NO   OCC          E(Eh)            E(eV)
   0   2.0000     -91.995079     -2503.3134
   1   2.0000     -15.578550      -423.9139
   2   2.0000     -11.317224      -307.9573
   3   2.0000     -11.281230      -306.9779
   4   2.0000     -11.265489      -306.5495
   5   2.0000     -11.235592      -305.7360
   6   2.0000      -8.998005      -244.8482
   7   2.0000      -6.679527      -181.7592
   8   2.0000      -6.678703      -181.7368
   9   2.0000      -6.676870      -181.6869
  10   2.0000      -1.287765       -35.0419
  11   2.0000      -1.067114       -29.0376
  12   2.0000      -1.047934       -28.5157
  13   2.0000      -0.929783       -25.3007
  14   2.0000      -0.809846       -22.0370
  15   2.0000      -0.747495       -20.3404
  16   2.0000      -0.682893       -18.5825
  17   2.0000      -0.594669       -16.1818
  18   2.0000      -0.589792       -16.0491
  19   2.0000      -0.564387       -15.3578
  20   2.0000      -0.546914       -14.8823
  21   2.0000      -0.534322       -14.5396
  22   2.0000      -0.494456       -13.4548
  23   2.0000      -0.429476       -11.6866
  24   2.0000      -0.388813       -10.5801
  25   2.0000      -0.333382        -9.0718
  26   0.0000       0.036159         0.9839
  27   0.0000       0.041145         1.1196
  28   0.0000       0.045907         1.2492
  29   0.0000       0.062335         1.6962
  30   0.0000       0.066330         1.8049

MULLIKEN ATOMIC CHARGES
-----------------------
   0 H :   -0.235702
   1 C :    0.001877
   2 C :    0.297433
   3 H :    0.034439
   4 H :   -0.082686
   5 H :    0.034439
   6 C :    0.451066
   7 S :    0.458189
   8 N :   -0.757224
   9 H :   -0.419453
  10 C :    0.217624
Sum of atomic charges:    0.0000000

LOEWDIN ATOMIC CHARGES
----------------------
   0 H :   -0.047599
   1 C :   -0.386088
   2 C :   -0.306786
   3 H :   -0.008711
   4 H :   -0.014706
   5 H :   -0.008711
   6 C :    0.173142
   7 S :    0.937624
   8 N :   -0.026320
   9 H :   -0.054296
  10 C :   -0.257551

  Mayer bond orders larger than 0.100000
B(  0-H ,  1-C ) :   0.1451 B(  0-H ,  2-C ) :   1.0223 B(  1-C ,  2-C ) :  -0.1175
B(  1-C ,  3-H ) :   0.1392 B(  1-C ,  4-H ) :   0.3012 B(  1-C ,  5-H ) :   0.1392
B(  1-C ,  6-C ) :   1.2172 B(  1-C ,  7-S ) :   0.1547 B(  1-C ,  8-N ) :   0.8321
B(  1-C ,  9-H ) :   0.1737 B(  1-C , 10-C ) :   1.7107 B(  2-C ,  7-S ) :   1.0491
B(  2-C ,  8-N ) :   1.6910 B(  3-H ,  6-C ) :   0.8414 B(  4-H ,  6-C ) :   0.8166
B(  4-H , 10-C ) :  -0.1552 B(  5-H ,  6-C ) :   0.8414 B(  6-C ,  7-S ) :   0.1015
B(  6-C ,  9-H ) :   0.1004 B(  7-S ,  9-H ) :  -0.1142 B(  7-S , 10-C ) :   0.8963
B(  9-H , 10-C ) :   0.8042

MP2 TOTAL ENERGY:     -607.244368244 Eh
FINAL SINGLE POINT ENERGY      -607.244368243859

DIPOLE MOMENT
-------------
                                X             Y             Z
Electronic contribution:     -0.09593      -7.16060      -0.00000
Nuclear contribution   :     -0.36324       7.12242       0.00000
                        -----------------------------------------
Total Dipole Moment    :     -0.45917      -0.03817      -0.00000
                        -----------------------------------------
Magnitude (a.u.)       :      0.46075
Magnitude (Debye)      :      1.17114

Rotational constants in cm-1:     0.244294     0.084026     0.063251
Rotational constants in MHz :  7323.739584  2519.042445  1896.224457

                             ****ORCA TERMINATED NORMALLY****
TOTAL RUN TIME: 0 days 0 hours 0 minutes 42 seconds 556 msec
