                         Program Version 5.0.3 -  RELEASE  -
|  1> !ri-mp2 aug-cc-pvdz aug-cc-pvdz/c tightscf
|  2> %pal nprocs 16 end
|  3>
|  4> * xyz 0 1
|  5> Cl     2.873531    0.486714    0.000430
|  6> O     -2.513569    1.387263   -0.000565
|  7> O     -3.095526   -0.762540   -0.000395
|  8> C     -2.179793    0.237520   -0.000377
|  9> C     -0.799428   -0.203129   -0.000117
| 10> C      0.356403   -0.534339    0.000095
| 11> C      1.742195   -0.935325    0.000352
| 12> H     -2.655104   -1.621927   -0.000224
| 13> H      1.980933   -1.519238   -0.885367
| 14> H      1.980645   -1.519107    0.886235
| 15> *
| 16>
| 17>                          ****END OF INPUT****

CARTESIAN COORDINATES (ANGSTROEM)
---------------------------------
  Cl     2.873531    0.486714    0.000430
  O     -2.513569    1.387263   -0.000565
  O     -3.095526   -0.762540   -0.000395
  C     -2.179793    0.237520   -0.000377
  C     -0.799428   -0.203129   -0.000117
  C      0.356403   -0.534339    0.000095
  C      1.742195   -0.935325    0.000352
  H     -2.655104   -1.621927   -0.000224
  H      1.980933   -1.519238   -0.885367
  H      1.980645   -1.519107    0.886235

 Total Charge           Charge          ....    0
 Multiplicity           Mult            ....    1
 Number of Electrons    NEL             ....   60
 Basis Dimension        Dim             ....  192

ORBITAL ENERGIES
----------------

  NO   OCC          E(Eh)            E(eV)
   0   2.0000    -104.852218     -2853.1739
   1   2.0000     -20.642402      -561.7083
   2   2.0000     -20.580173      -560.0150
   3   2.0000     -11.435294      -311.1702
   4   2.0000     -11.358662      -309.0849
   5   2.0000     -11.305123      -307.6280
   6   2.0000     -11.286908      -307.1324
   7   2.0000     -10.577574      -287.8304
   8   2.0000      -8.045242      -218.9222
   9   2.0000      -8.041850      -218.8299
  10   2.0000      -8.041769      -218.8277
  11   2.0000      -1.486600       -40.4524
  12   2.0000      -1.392705       -37.8974
  13   2.0000      -1.175314       -31.9819
  14   2.0000      -1.092492       -29.7282
  15   2.0000      -0.987485       -26.8708
  16   2.0000      -0.901808       -24.5394
  17   2.0000      -0.823346       -22.4044
  18   2.0000      -0.710488       -19.3333
  19   2.0000      -0.684725       -18.6323
  20   2.0000      -0.676665       -18.4130
  21   2.0000      -0.651513       -17.7286
  22   2.0000      -0.622546       -16.9403
  23   2.0000      -0.593415       -16.1477
  24   2.0000      -0.507185       -13.8012
  25   2.0000      -0.492933       -13.4134
  26   2.0000      -0.471919       -12.8416
  27   2.0000      -0.468018       -12.7354
  28   2.0000      -0.433543       -11.7973
  29   2.0000      -0.432676       -11.7737
  30   0.0000       0.019740         0.5372
  31   0.0000       0.040990         1.1154
  32   0.0000       0.042982         1.1696
  33   0.0000       0.065781         1.7900
  34   0.0000       0.080463         2.1895

MULLIKEN ATOMIC CHARGES
-----------------------
   0 Cl:   -0.059342
   1 O :   -0.674994
   2 O :   -0.669451
   3 C :    0.983150
   4 C :    0.020158
   5 C :    0.158224
   6 C :   -0.353215
   7 H :    0.222489
   8 H :    0.186491
   9 H :    0.186489
Sum of atomic charges:   -0.0000000

LOEWDIN ATOMIC CHARGES
----------------------
   0 Cl:    0.475978
   1 O :    0.076131
   2 O :    0.210411
   3 C :   -0.386564
   4 C :    0.072386
   5 C :   -0.053529
   6 C :   -0.324762
   7 H :   -0.033484
   8 H :   -0.018284
   9 H :   -0.018284

  Mayer bond orders larger than 0.100000
B(  0-Cl,  4-C ) :   0.1864 B(  0-Cl,  5-C ) :  -0.5109 B(  0-Cl,  6-C ) :   1.3829
B(  1-O ,  3-C ) :   1.6244 B(  2-O ,  3-C ) :   0.4476 B(  2-O ,  4-C ) :   0.1271
B(  2-O ,  7-H ) :   0.9839 B(  3-C ,  4-C ) :   1.0767 B(  4-C ,  5-C ) :   2.7277
B(  5-C ,  6-C ) :   1.0587 B(  5-C ,  8-H ) :   0.2879 B(  5-C ,  9-H ) :   0.2879
B(  6-C ,  8-H ) :   0.7999 B(  6-C ,  9-H ) :   0.7999

MP2 TOTAL ENERGY:     -763.494360528 Eh
FINAL SINGLE POINT ENERGY      -763.494360527527

DIPOLE MOMENT
-------------
                                X             Y             Z
Electronic contribution:      3.65906       3.00299       0.00034
Nuclear contribution   :     -2.75056      -5.08353       0.00001
                        -----------------------------------------
Total Dipole Moment    :      0.90850      -2.08053       0.00036
                        -----------------------------------------
Magnitude (a.u.)       :      2.27024
Magnitude (Debye)      :      5.77050

Rotational constants in cm-1:     0.233395     0.025296     0.022921
Rotational constants in MHz :  6996.998808   758.362760   687.148949

                             ****ORCA TERMINATED NORMALLY****
TOTAL RUN TIME: 0 days 0 hours 0 minutes 33 seconds 735 msec
