                         Program Version 5.0.3 -  RELEASE  -
|  1> !ri-mp2 aug-cc-pvdz aug-cc-pvdz/c tightscf
|  2> %pal nprocs 16 end
|  3>
|  4> * xyz 0 1
|  5> C      0.232599    2.252569    0.000000
|  6> H      1.240702    2.639284    0.000000
|  7> H     -0.591492    2.949028    0.000000
|  8> O      0.964439   -0.073898    0.000000
|  9> C     -0.031516   -1.052379    0.000000
| 10> O      0.109849   -2.226036    0.000000
| 11> C     -1.150253   -0.013443    0.000000
| 12> H     -1.774247   -0.027961    0.891486
| 13> H     -1.774247   -0.027961   -0.891486
| 14> C      0.000000    0.957768    0.000000
| 15> *
| 16>
| 17>                          ****END OF INPUT****

CARTESIAN COORDINATES (ANGSTROEM)
---------------------------------
  C      0.232599    2.252569    0.000000
  H      1.240702    2.639284    0.000000
  H     -0.591492    2.949028    0.000000
  O      0.964439   -0.073898    0.000000
  C     -0.031516   -1.052379    0.000000
  O      0.109849   -2.226036    0.000000
  C     -1.150253   -0.013443    0.000000
  H     -1.774247   -0.027961    0.891486
  H     -1.774247   -0.027961   -0.891486
  C      0.000000    0.957768    0.000000

 Total Charge           Charge          ....    0
 Multiplicity           Mult            ....    1
 Number of Electrons    NEL             ....   44
 Basis Dimension        Dim             ....  174

ORBITAL ENERGIES
----------------

  NO   OCC          E(Eh)            E(eV)
   0   2.0000     -20.636036      -561.5351
   1   2.0000     -20.586719      -560.1931
   2   2.0000     -11.414789      -310.6122
   3   2.0000     -11.335769      -308.4619
   4   2.0000     -11.289529      -307.2037
   5   2.0000     -11.247835      -306.0691
   6   2.0000      -1.494377       -40.6641
   7   2.0000      -1.412322       -38.4312
   8   2.0000      -1.085698       -29.5433
   9   2.0000      -1.031722       -28.0746
  10   2.0000      -0.823803       -22.4168
  11   2.0000      -0.768888       -20.9225
  12   2.0000      -0.709085       -19.2952
  13   2.0000      -0.694907       -18.9094
  14   2.0000      -0.694387       -18.8952
  15   2.0000      -0.611932       -16.6515
  16   2.0000      -0.601770       -16.3750
  17   2.0000      -0.583213       -15.8700
  18   2.0000      -0.530235       -14.4284
  19   2.0000      -0.529062       -14.3965
  20   2.0000      -0.462110       -12.5747
  21   2.0000      -0.377961       -10.2848
  22   0.0000       0.028293         0.7699
  23   0.0000       0.042430         1.1546
  24   0.0000       0.047406         1.2900
  25   0.0000       0.051951         1.4137
  26   0.0000       0.080445         2.1890

MULLIKEN ATOMIC CHARGES
-----------------------
   0 C :    0.930439
   1 H :   -0.311190
   2 H :   -0.270172
   3 O :   -0.992831
   4 C :    0.903633
   5 O :   -0.647780
   6 C :    0.000181
   7 H :    0.004568
   8 H :    0.004568
   9 C :    0.378585
Sum of atomic charges:   -0.0000000

LOEWDIN ATOMIC CHARGES
----------------------
   0 C :    0.216412
   1 H :   -0.029984
   2 H :   -0.036426
   3 O :    0.107055
   4 C :   -0.264996
   5 O :    0.079187
   6 C :    0.128489
   7 H :    0.026298
   8 H :    0.026298
   9 C :   -0.252332

  Mayer bond orders larger than 0.100000
B(  0-C ,  1-H ) :   0.4575 B(  0-C ,  2-H ) :   0.6003 B(  0-C ,  6-C ) :   0.1408
B(  0-C ,  9-C ) :   1.9391 B(  1-H ,  2-H ) :  -0.1366 B(  1-H ,  9-C ) :   0.4037
B(  2-H ,  9-C ) :   0.2391 B(  3-O ,  4-C ) :   0.7721 B(  3-O ,  6-C ) :   0.2198
B(  3-O ,  9-C ) :   0.2697 B(  4-C ,  5-O ) :   1.6247 B(  4-C ,  6-C ) :   0.9983
B(  4-C ,  9-C ) :  -0.1850 B(  6-C ,  7-H ) :   0.8831 B(  6-C ,  8-H ) :   0.8831
B(  6-C ,  9-C ) :   0.9484 B(  7-H ,  8-H ) :  -0.1288

MP2 TOTAL ENERGY:     -304.449946678 Eh
FINAL SINGLE POINT ENERGY      -304.449946677889

DIPOLE MOMENT
-------------
                                X             Y             Z
Electronic contribution:      1.81402      -4.14930      -0.00000
Nuclear contribution   :     -2.83302       5.40208       0.00000
                        -----------------------------------------
Total Dipole Moment    :     -1.01900       1.25277      -0.00000
                        -----------------------------------------
Magnitude (a.u.)       :      1.61487
Magnitude (Debye)      :      4.10467

Rotational constants in cm-1:     0.408296     0.092744     0.076679
Rotational constants in MHz : 12240.400942  2780.400653  2298.763683

                             ****ORCA TERMINATED NORMALLY****
TOTAL RUN TIME: 0 days 0 hours 0 minutes 40 seconds 94 msec
