                         Program Version 5.0.3 -  RELEASE  -
|  1> !ri-mp2 aug-cc-pvdz aug-cc-pvdz/c tightscf
|  2> %pal nprocs 16 end
|  3>
|  4> * xyz 0 1
|  5> O    -1.905063    0.000000    0.000000
|  6> N     0.190297    1.107884    0.120754
|  7> N     0.190296   -1.107884   -0.120755
|  8> C    -0.714324    0.000000    0.000000
|  9> C     1.431605    0.685517   -0.183402
| 10> C     1.431604   -0.685518    0.183403
| 11> H    -0.158479    2.033494   -0.089560
| 12> H    -0.158482   -2.033493    0.089561
| 13> *
| 14>
| 15>                          ****END OF INPUT****

CARTESIAN COORDINATES (ANGSTROEM)
---------------------------------
  O     -1.905063    0.000000    0.000000
  N      0.190297    1.107884    0.120754
  N      0.190296   -1.107884   -0.120755
  C     -0.714324    0.000000    0.000000
  C      1.431605    0.685517   -0.183402
  C      1.431604   -0.685518    0.183403
  H     -0.158479    2.033494   -0.089560
  H     -0.158482   -2.033493    0.089561

 Total Charge           Charge          ....    0
 Multiplicity           Mult            ....    1
 Number of Electrons    NEL             ....   42
 Basis Dimension        Dim             ....  156

ORBITAL ENERGIES
----------------

  NO   OCC          E(Eh)            E(eV)
   0   2.0000     -20.608387      -560.7827
   1   2.0000     -15.665108      -426.2692
   2   2.0000     -15.665076      -426.2684
   3   2.0000     -11.451042      -311.5987
   4   2.0000     -11.306358      -307.6616
   5   2.0000     -11.305299      -307.6328
   6   2.0000      -1.476942       -40.1896
   7   2.0000      -1.374835       -37.4112
   8   2.0000      -1.252698       -34.0876
   9   2.0000      -1.005105       -27.3503
  10   2.0000      -0.892855       -24.2958
  11   2.0000      -0.837171       -22.7806
  12   2.0000      -0.725869       -19.7519
  13   2.0000      -0.718459       -19.5503
  14   2.0000      -0.671024       -18.2595
  15   2.0000      -0.662208       -18.0196
  16   2.0000      -0.544171       -14.8076
  17   2.0000      -0.510997       -13.9049
  18   2.0000      -0.508898       -13.8478
  19   2.0000      -0.412132       -11.2147
  20   2.0000      -0.377743       -10.2789
  21   0.0000       0.016234         0.4417
  22   0.0000       0.031263         0.8507
  23   0.0000       0.040554         1.1035
  24   0.0000       0.076690         2.0868
  25   0.0000       0.083098         2.2612

MULLIKEN ATOMIC CHARGES
-----------------------
   0 O :   -0.563960
   1 N :   -0.378281
   2 N :   -0.378281
   3 C :    1.146062
   4 C :    0.123490
   5 C :    0.123490
   6 H :   -0.036261
   7 H :   -0.036260
Sum of atomic charges:    0.0000000

LOEWDIN ATOMIC CHARGES
----------------------
   0 O :    0.089703
   1 N :    0.042938
   2 N :    0.042938
   3 C :   -0.291828
   4 C :    0.035586
   5 C :    0.035586
   6 H :    0.022539
   7 H :    0.022539

  Mayer bond orders larger than 0.100000
B(  0-O ,  3-C ) :   1.6440 B(  1-N ,  3-C ) :   0.8399 B(  1-N ,  4-C ) :   1.1512
B(  1-N ,  6-H ) :   1.1477 B(  2-N ,  3-C ) :   0.8399 B(  2-N ,  5-C ) :   1.1512
B(  2-N ,  7-H ) :   1.1477 B(  4-C ,  5-C ) :   0.6421 B(  4-C ,  6-H ) :  -0.1147
B(  5-C ,  7-H ) :  -0.1147

MP2 TOTAL ENERGY:     -299.305818029 Eh
FINAL SINGLE POINT ENERGY      -299.305818029360

DIPOLE MOMENT
-------------
                                X             Y             Z
Electronic contribution:     -0.18577      -0.00000      -0.00000
Nuclear contribution   :     -0.33139       0.00000       0.00000
                        -----------------------------------------
Total Dipole Moment    :     -0.51716       0.00000       0.00000
                        -----------------------------------------
Magnitude (a.u.)       :      0.51716
Magnitude (Debye)      :      1.31451

Rotational constants in cm-1:     0.305158     0.145676     0.100044
Rotational constants in MHz :  9148.403571  4367.257714  2999.248540

                             ****ORCA TERMINATED NORMALLY****
TOTAL RUN TIME: 0 days 0 hours 0 minutes 30 seconds 456 msec
