                         Program Version 5.0.3 -  RELEASE  -
|  1> !ri-mp2 aug-cc-pvdz aug-cc-pvdz/c tightscf
|  2> %pal nprocs 16 end
|  3> %maxcore 3800
|  4>
|  5> * xyz 0 1
|  6> C     -0.490195    1.181024    0.380923
|  7> C     -0.087273   -0.940362   -0.656437
|  8> C     -1.855971    0.926677    0.397595
|  9> C     -1.445482   -1.198966   -0.668128
| 10> C      0.414573    0.251972   -0.124372
| 11> C     -2.340707   -0.270667   -0.129777
| 12> C      1.862691    0.635548   -0.187993
| 13> C      4.207575    0.027914   -0.102161
| 14> C      2.582085   -1.485876    0.935530
| 15> C     -4.617266    0.290682    0.342564
| 16> N      2.808906   -0.316370    0.101874
| 17> O      2.178901    1.768129   -0.533865
| 18> O     -3.654834   -0.618058   -0.172296
| 19> H     -0.115377    2.122535    0.757231
| 20> H      0.588383   -1.664528   -1.090945
| 21> H     -2.526213    1.665397    0.809027
| 22> H     -1.837104   -2.111604   -1.095000
| 23> H      4.753810   -0.863416   -0.414276
| 24> H      4.664605    0.410445    0.816274
| 25> H      4.282830    0.793784   -0.866477
| 26> H      3.181135   -1.412773    1.848519
| 27> H      2.873534   -2.401982    0.415066
| 28> H      1.539541   -1.562042    1.221072
| 29> H     -4.602392    1.237341   -0.202758
| 30> H     -4.455250    0.481757    1.406130
| 31> H     -5.582559   -0.188564    0.205851
| 32> *
| 33>
| 34>                          ****END OF INPUT****

CARTESIAN COORDINATES (ANGSTROEM)
---------------------------------
  C     -0.490195    1.181024    0.380923
  C     -0.087273   -0.940362   -0.656437
  C     -1.855971    0.926677    0.397595
  C     -1.445482   -1.198966   -0.668128
  C      0.414573    0.251972   -0.124372
  C     -2.340707   -0.270667   -0.129777
  C      1.862691    0.635548   -0.187993
  C      4.207575    0.027914   -0.102161
  C      2.582085   -1.485876    0.935530
  C     -4.617266    0.290682    0.342564
  N      2.808906   -0.316370    0.101874
  O      2.178901    1.768129   -0.533865
  O     -3.654834   -0.618058   -0.172296
  H     -0.115377    2.122535    0.757231
  H      0.588383   -1.664528   -1.090945
  H     -2.526213    1.665397    0.809027
  H     -1.837104   -2.111604   -1.095000
  H      4.753810   -0.863416   -0.414276
  H      4.664605    0.410445    0.816274
  H      4.282830    0.793784   -0.866477
  H      3.181135   -1.412773    1.848519
  H      2.873534   -2.401982    0.415066
  H      1.539541   -1.562042    1.221072
  H     -4.602392    1.237341   -0.202758
  H     -4.455250    0.481757    1.406130
  H     -5.582559   -0.188564    0.205851

 Total Charge           Charge          ....    0
 Multiplicity           Mult            ....    1
 Number of Electrons    NEL             ....   96
 Basis Dimension        Dim             ....  416

ORBITAL ENERGIES
----------------

  NO   OCC          E(Eh)            E(eV)
   0   2.0000     -20.603075      -560.6382
   1   2.0000     -20.520164      -558.3821
   2   2.0000     -15.589609      -424.2148
   3   2.0000     -11.353341      -308.9401
   4   2.0000     -11.317579      -307.9670
   5   2.0000     -11.298154      -307.4384
   6   2.0000     -11.270957      -306.6983
   7   2.0000     -11.256630      -306.3085
   8   2.0000     -11.256514      -306.3053
   9   2.0000     -11.253169      -306.2143
  10   2.0000     -11.243843      -305.9605
  11   2.0000     -11.242111      -305.9134
  12   2.0000     -11.239835      -305.8515
  13   2.0000      -1.422756       -38.7151
  14   2.0000      -1.378148       -37.5013
  15   2.0000      -1.242226       -33.8027
  16   2.0000      -1.163639       -31.6642
  17   2.0000      -1.043947       -28.4072
  18   2.0000      -1.032373       -28.0923
  19   2.0000      -0.973554       -26.4917
  20   2.0000      -0.962849       -26.2005
  21   2.0000      -0.931405       -25.3448
  22   2.0000      -0.846321       -23.0296
  23   2.0000      -0.833137       -22.6708
  24   2.0000      -0.755881       -20.5686
  25   2.0000      -0.725923       -19.7534
  26   2.0000      -0.701276       -19.0827
  27   2.0000      -0.679094       -18.4791
  28   2.0000      -0.662147       -18.0179
  29   2.0000      -0.649611       -17.6768
  30   2.0000      -0.644523       -17.5384
  31   2.0000      -0.632384       -17.2080
  32   2.0000      -0.603857       -16.4318
  33   2.0000      -0.596453       -16.2303
  34   2.0000      -0.587036       -15.9741
  35   2.0000      -0.565171       -15.3791
  36   2.0000      -0.559180       -15.2161
  37   2.0000      -0.547651       -14.9023
  38   2.0000      -0.538917       -14.6647
  39   2.0000      -0.529353       -14.4044
  40   2.0000      -0.527120       -14.3437
  41   2.0000      -0.513931       -13.9848
  42   2.0000      -0.488265       -13.2864
  43   2.0000      -0.471500       -12.8302
  44   2.0000      -0.420737       -11.4488
  45   2.0000      -0.368957       -10.0398
  46   2.0000      -0.349701        -9.5158
  47   2.0000      -0.319337        -8.6896
  48   0.0000       0.030954         0.8423
  49   0.0000       0.035366         0.9624
  50   0.0000       0.041521         1.1298
  51   0.0000       0.047472         1.2918
  52   0.0000       0.049362         1.3432

MULLIKEN ATOMIC CHARGES
-----------------------
   0 C :   -0.292910
   1 C :    0.807695
   2 C :    0.750088
   3 C :    0.441769
   4 C :    1.681239
   5 C :    0.717032
   6 C :   -0.188030
   7 C :    0.794404
   8 C :    0.884328
   9 C :    0.886433
  10 N :   -0.571432
  11 O :   -0.829616
  12 O :   -1.074653
  13 H :   -0.648559
  14 H :   -0.661896
  15 H :   -0.733160
  16 H :   -0.605743
  17 H :   -0.121082
  18 H :   -0.072085
  19 H :   -0.199379
  20 H :   -0.130162
  21 H :   -0.137153
  22 H :   -0.228817
  23 H :   -0.068281
  24 H :   -0.073685
  25 H :   -0.326344
Sum of atomic charges:    0.0000000

LOEWDIN ATOMIC CHARGES
----------------------
   0 C :    0.070971
   1 C :    0.050025
   2 C :    0.054455
   3 C :    0.061508
   4 C :   -0.130833
   5 C :   -0.196601
   6 C :   -0.282520
   7 C :    0.184596
   8 C :    0.182878
   9 C :    0.158858
  10 N :   -0.132148
  11 O :    0.031678
  12 O :    0.036317
  13 H :    0.018160
  14 H :    0.017319
  15 H :   -0.011028
  16 H :    0.009391
  17 H :   -0.010665
  18 H :   -0.003255
  19 H :   -0.019782
  20 H :   -0.004929
  21 H :   -0.005829
  22 H :   -0.025581
  23 H :   -0.014925
  24 H :   -0.015872
  25 H :   -0.022186

  Mayer bond orders larger than 0.100000
B(  0-C ,  1-C ) :  -0.9837 B(  0-C ,  2-C ) :   2.3646 B(  0-C ,  4-C ) :   1.3902
B(  0-C , 13-H ) :  -0.3874 B(  0-C , 15-H ) :   0.6005 B(  1-C ,  3-C ) :   2.2766
B(  1-C ,  4-C ) :   1.8107 B(  1-C ,  6-C ) :  -0.6361 B(  1-C , 14-H ) :  -0.4297
B(  1-C , 16-H ) :   0.3950 B(  2-C ,  4-C ) :  -0.5139 B(  2-C ,  5-C ) :   1.0588
B(  2-C ,  6-C ) :   0.1640 B(  2-C , 12-O ) :   0.1350 B(  2-C , 13-H ) :   0.4095
B(  2-C , 15-H ) :  -0.4527 B(  3-C ,  4-C ) :  -1.0078 B(  3-C ,  5-C ) :   1.8138
B(  3-C ,  6-C ) :   0.3836 B(  3-C , 14-H ) :   0.5224 B(  3-C , 16-H ) :  -0.7042
B(  4-C ,  5-C ) :   0.4240 B(  4-C ,  6-C ) :   0.5195 B(  4-C , 13-H ) :   0.5992
B(  4-C , 14-H ) :   0.4145 B(  4-C , 16-H ) :  -0.2485 B(  5-C ,  9-C ) :  -0.1774
B(  5-C , 12-O ) :  -0.1371 B(  5-C , 13-H ) :  -0.1104 B(  5-C , 14-H ) :  -0.2230
B(  5-C , 15-H ) :   0.3246 B(  5-C , 16-H ) :   1.0364 B(  6-C , 10-N ) :   1.0722
B(  6-C , 11-O ) :   1.3997 B(  6-C , 14-H ) :   0.1329 B(  6-C , 19-H ) :   0.1482
B(  7-C , 10-N ) :   0.9413 B(  7-C , 17-H ) :   0.9217 B(  7-C , 18-H ) :   0.8789
B(  7-C , 19-H ) :   1.0312 B(  8-C , 10-N ) :   0.8128 B(  8-C , 20-H ) :   0.9336
B(  8-C , 21-H ) :   0.8904 B(  8-C , 22-H ) :   0.9990 B(  9-C , 12-O ) :   0.7212
B(  9-C , 23-H ) :   0.9736 B(  9-C , 24-H ) :   0.9731 B(  9-C , 25-H ) :   0.9978
B( 17-H , 19-H ) :  -0.1100 B( 20-H , 22-H ) :  -0.1167 B( 23-H , 25-H ) :  -0.1074
B( 24-H , 25-H ) :  -0.1079

MP2 TOTAL ENERGY:     -592.444148241 Eh
FINAL SINGLE POINT ENERGY      -592.444148241024

DIPOLE MOMENT
-------------
                                X             Y             Z
Electronic contribution:     -3.36259       2.52455      -3.04266
Nuclear contribution   :      2.77472      -3.49826       3.82199
                        -----------------------------------------
Total Dipole Moment    :     -0.58787      -0.97370       0.77932
                        -----------------------------------------
Magnitude (a.u.)       :      1.37878
Magnitude (Debye)      :      3.50458

Rotational constants in cm-1:     0.076998     0.012581     0.011470
Rotational constants in MHz :  2308.343669   377.164582   343.850742

                             ****ORCA TERMINATED NORMALLY****
TOTAL RUN TIME: 0 days 0 hours 3 minutes 1 seconds 746 msec
