                         Program Version 5.0.3 -  RELEASE  -
|  1> !ri-mp2 aug-cc-pvdz aug-cc-pvdz/c tightscf
|  2> %pal nprocs 16 end
|  3>
|  4> * xyz 0 1
|  5> Cl   -2.893971   -0.323448   -0.516915
|  6> S     1.947247    0.982404   -0.300395
|  7> F     2.454522   -1.612150   -0.075441
|  8> N     0.331438   -0.906310    0.410222
|  9> C    -0.387056    0.275290    0.443852
| 10> C     1.530280   -0.673246    0.042767
| 11> C     0.310052    1.391096    0.099770
| 12> C    -1.816007    0.247130    0.843769
| 13> H    -0.036503    2.408900    0.047814
| 14> H    -2.175019    1.233905    1.114544
| 15> H    -1.981283   -0.450741    1.657975
| 16> *
| 17>
| 18>                          ****END OF INPUT****

CARTESIAN COORDINATES (ANGSTROEM)
---------------------------------
  Cl    -2.893971   -0.323448   -0.516915
  S      1.947247    0.982404   -0.300395
  F      2.454522   -1.612150   -0.075441
  N      0.331438   -0.906310    0.410222
  C     -0.387056    0.275290    0.443852
  C      1.530280   -0.673246    0.042767
  C      0.310052    1.391096    0.099770
  C     -1.816007    0.247130    0.843769
  H     -0.036503    2.408900    0.047814
  H     -2.175019    1.233905    1.114544
  H     -1.981283   -0.450741    1.657975

 Total Charge           Charge          ....    0
 Multiplicity           Mult            ....    1
 Number of Electrons    NEL             ....   76
 Basis Dimension        Dim             ....  219

ORBITAL ENERGIES
----------------

  NO   OCC          E(Eh)            E(eV)
   0   2.0000    -104.828279     -2852.5225
   1   2.0000     -92.026854     -2504.1780
   2   2.0000     -26.369642      -717.5544
   3   2.0000     -15.601929      -424.5501
   4   2.0000     -11.424488      -310.8761
   5   2.0000     -11.321682      -308.0786
   6   2.0000     -11.312470      -307.8280
   7   2.0000     -11.296375      -307.3900
   8   2.0000     -10.553891      -287.1860
   9   2.0000      -9.029285      -245.6993
  10   2.0000      -8.021483      -218.2756
  11   2.0000      -8.018301      -218.1891
  12   2.0000      -8.018217      -218.1868
  13   2.0000      -6.710804      -182.6103
  14   2.0000      -6.709968      -182.5875
  15   2.0000      -6.707884      -182.5308
  16   2.0000      -1.686160       -45.8827
  17   2.0000      -1.323547       -36.0155
  18   2.0000      -1.143101       -31.1054
  19   2.0000      -1.103266       -30.0214
  20   2.0000      -1.040983       -28.3266
  21   2.0000      -0.926701       -25.2168
  22   2.0000      -0.862281       -23.4639
  23   2.0000      -0.814707       -22.1693
  24   2.0000      -0.742795       -20.2125
  25   2.0000      -0.742178       -20.1957
  26   2.0000      -0.711718       -19.3668
  27   2.0000      -0.658098       -17.9078
  28   2.0000      -0.621568       -16.9137
  29   2.0000      -0.596423       -16.2295
  30   2.0000      -0.581748       -15.8302
  31   2.0000      -0.546254       -14.8643
  32   2.0000      -0.529759       -14.4155
  33   2.0000      -0.470630       -12.8065
  34   2.0000      -0.445482       -12.1222
  35   2.0000      -0.441318       -12.0089
  36   2.0000      -0.419593       -11.4177
  37   2.0000      -0.357902        -9.7390
  38   0.0000       0.029929         0.8144
  39   0.0000       0.042833         1.1656
  40   0.0000       0.054879         1.4933
  41   0.0000       0.068792         1.8719
  42   0.0000       0.075187         2.0460

MULLIKEN ATOMIC CHARGES
-----------------------
   0 Cl:   -0.101501
   1 S :    0.485708
   2 F :   -0.663721
   3 N :   -0.697716
   4 C :    0.569104
   5 C :    0.547861
   6 C :    0.161550
   7 C :    0.080093
   8 H :   -0.402226
   9 H :   -0.000051
  10 H :    0.020898
Sum of atomic charges:   -0.0000000

LOEWDIN ATOMIC CHARGES
----------------------
   0 Cl:    0.447569
   1 S :    0.988851
   2 F :    0.060949
   3 N :    0.019130
   4 C :   -0.415671
   5 C :   -0.503449
   6 C :   -0.235812
   7 C :   -0.264582
   8 H :   -0.046315
   9 H :   -0.027274
  10 H :   -0.023396

  Mayer bond orders larger than 0.100000
B(  0-Cl,  4-C ) :  -0.1718 B(  0-Cl,  7-C ) :   1.1532 B(  1-S ,  4-C ) :   0.1106
B(  1-S ,  5-C ) :   1.1445 B(  1-S ,  6-C ) :   0.9234 B(  1-S ,  8-H ) :  -0.1325
B(  2-F ,  4-C ) :   0.1812 B(  2-F ,  5-C ) :   0.2706 B(  3-N ,  4-C ) :   0.7465
B(  3-N ,  5-C ) :   1.8503 B(  4-C ,  5-C ) :  -0.2108 B(  4-C ,  6-C ) :   1.6159
B(  4-C ,  7-C ) :   1.2116 B(  4-C ,  8-H ) :   0.1647 B(  4-C ,  9-H ) :   0.1359
B(  4-C , 10-H ) :   0.1356 B(  6-C ,  8-H ) :   0.8639 B(  7-C ,  9-H ) :   0.8718
B(  7-C , 10-H ) :   0.8810

MP2 TOTAL ENERGY:    -1165.359607447 Eh
FINAL SINGLE POINT ENERGY     -1165.359607447238

DIPOLE MOMENT
-------------
                                X             Y             Z
Electronic contribution:      2.71355      -3.62523      -2.93366
Nuclear contribution   :     -2.38671       4.90698       3.43312
                        -----------------------------------------
Total Dipole Moment    :      0.32684       1.28175       0.49946
                        -----------------------------------------
Magnitude (a.u.)       :      1.41392
Magnitude (Debye)      :      3.59391

Rotational constants in cm-1:     0.103419     0.026189     0.022560
Rotational constants in MHz :  3100.431744   785.135056   676.332078

                             ****ORCA TERMINATED NORMALLY****
TOTAL RUN TIME: 0 days 0 hours 0 minutes 45 seconds 788 msec
