                         Program Version 5.0.3 -  RELEASE  -
|  1> !ri-mp2 aug-cc-pvdz aug-cc-pvdz/c tightscf
|  2> %pal nprocs 16 end
|  3>
|  4> * xyz 0 1
|  5> N     -1.193024    0.354700    0.000000
|  6> C      0.000000    1.136486    0.000000
|  7> N      1.111424    0.505412    0.000000
|  8> C      0.730867   -0.899567    0.000000
|  9> C     -0.764372   -0.854862    0.000000
| 10> H     -0.075334    2.215149    0.000000
| 11> H      1.139796   -1.410552    0.877155
| 12> H      1.139796   -1.410552   -0.877155
| 13> H     -1.432029   -1.707173    0.000000
| 14> *
| 15>
| 16>                          ****END OF INPUT****

CARTESIAN COORDINATES (ANGSTROEM)
---------------------------------
  N     -1.193024    0.354700    0.000000
  C      0.000000    1.136486    0.000000
  N      1.111424    0.505412    0.000000
  C      0.730867   -0.899567    0.000000
  C     -0.764372   -0.854862    0.000000
  H     -0.075334    2.215149    0.000000
  H      1.139796   -1.410552    0.877155
  H      1.139796   -1.410552   -0.877155
  H     -1.432029   -1.707173    0.000000

 Total Charge           Charge          ....    0
 Multiplicity           Mult            ....    1
 Number of Electrons    NEL             ....   36
 Basis Dimension        Dim             ....  151

ORBITAL ENERGIES
----------------

  NO   OCC          E(Eh)            E(eV)
   0   2.0000     -15.586300      -424.1248
   1   2.0000     -15.572599      -423.7520
   2   2.0000     -11.313023      -307.8430
   3   2.0000     -11.309129      -307.7371
   4   2.0000     -11.281110      -306.9746
   5   2.0000      -1.332348       -36.2550
   6   2.0000      -1.169120       -31.8134
   7   2.0000      -1.013140       -27.5689
   8   2.0000      -0.829506       -22.5720
   9   2.0000      -0.786296       -21.3962
  10   2.0000      -0.700267       -19.0552
  11   2.0000      -0.643714       -17.5164
  12   2.0000      -0.607384       -16.5278
  13   2.0000      -0.567887       -15.4530
  14   2.0000      -0.488668       -13.2973
  15   2.0000      -0.466515       -12.6945
  16   2.0000      -0.437460       -11.9039
  17   2.0000      -0.396496       -10.7892
  18   0.0000       0.031146         0.8475
  19   0.0000       0.046801         1.2735
  20   0.0000       0.050889         1.3848
  21   0.0000       0.051084         1.3901
  22   0.0000       0.081027         2.2049

MULLIKEN ATOMIC CHARGES
-----------------------
   0 N :   -0.757016
   1 C :    0.813677
   2 N :   -0.659559
   3 C :    0.661476
   4 C :    0.358076
   5 H :   -0.099698
   6 H :   -0.077963
   7 H :   -0.077963
   8 H :   -0.161031
Sum of atomic charges:    0.0000000

LOEWDIN ATOMIC CHARGES
----------------------
   0 N :    0.026566
   1 C :   -0.071433
   2 N :    0.021269
   3 C :   -0.041776
   4 C :    0.008838
   5 H :    0.001435
   6 H :    0.023560
   7 H :    0.023560
   8 H :    0.007979

  Mayer bond orders larger than 0.100000
B(  0-N ,  1-C ) :   0.7871 B(  0-N ,  4-C ) :   1.7071 B(  1-C ,  2-N ) :   1.7472
B(  1-C ,  5-H ) :   1.0157 B(  2-N ,  3-C ) :   0.8955 B(  3-C ,  4-C ) :   0.9588
B(  3-C ,  6-H ) :   0.9095 B(  3-C ,  7-H ) :   0.9095 B(  4-C ,  8-H ) :   1.0124

MP2 TOTAL ENERGY:     -225.568473221 Eh
FINAL SINGLE POINT ENERGY      -225.568473220879

DIPOLE MOMENT
-------------
                                X             Y             Z
Electronic contribution:     -0.84891       1.42714       0.00000
Nuclear contribution   :      0.76644      -2.29220       0.00000
                        -----------------------------------------
Total Dipole Moment    :     -0.08247      -0.86506       0.00000
                        -----------------------------------------
Magnitude (a.u.)       :      0.86898
Magnitude (Debye)      :      2.20878

Rotational constants in cm-1:     0.321071     0.295119     0.158252
Rotational constants in MHz :  9625.462625  8847.441459  4744.289196

                             ****ORCA TERMINATED NORMALLY****
TOTAL RUN TIME: 0 days 0 hours 0 minutes 25 seconds 881 msec
