                         Program Version 5.0.3 -  RELEASE  -
|  1> !ri-mp2 aug-cc-pvdz aug-cc-pvdz/c tightscf
|  2> %pal nprocs 16 end
|  3>
|  4> * xyz 0 1
|  5> C      1.209009    0.686001        0.000000
|  6> C     -1.202025    0.675134        0.000000
|  7> C      1.216005   -0.701909        0.000000
|  8> C     -1.199895   -0.715998        0.000000
|  9> C      0.000000    1.377007        0.000000
| 10> C      0.010446   -1.381379        0.000000
| 11> O      0.057288    2.745374        0.000000
| 12> F      0.018013   -2.736527        0.000000
| 13> H      2.134342    1.243985        0.000000
| 14> H     -2.143868    1.210090        0.000000
| 15> H      2.143774   -1.255723        0.000000
| 16> H     -2.123419   -1.276673        0.000000
| 17> H     -0.832492    3.110943        0.000000
| 18> *
| 19>
| 20>                          ****END OF INPUT****

CARTESIAN COORDINATES (ANGSTROEM)
---------------------------------
  C      1.209009    0.686001    0.000000
  C     -1.202025    0.675134    0.000000
  C      1.216005   -0.701909    0.000000
  C     -1.199895   -0.715998    0.000000
  C      0.000000    1.377007    0.000000
  C      0.010446   -1.381379    0.000000
  O      0.057288    2.745374    0.000000
  F      0.018013   -2.736527    0.000000
  H      2.134342    1.243985    0.000000
  H     -2.143868    1.210090    0.000000
  H      2.143774   -1.255723    0.000000
  H     -2.123419   -1.276673    0.000000
  H     -0.832492    3.110943    0.000000

 Total Charge           Charge          ....    0
 Multiplicity           Mult            ....    1
 Number of Electrons    NEL             ....   58
 Basis Dimension        Dim             ....  229

ORBITAL ENERGIES
----------------

  NO   OCC          E(Eh)            E(eV)
   0   2.0000     -26.317504      -716.1357
   1   2.0000     -20.607339      -560.7542
   2   2.0000     -11.328488      -308.2638
   3   2.0000     -11.316544      -307.9388
   4   2.0000     -11.259099      -306.3757
   5   2.0000     -11.257571      -306.3341
   6   2.0000     -11.256337      -306.3005
   7   2.0000     -11.250942      -306.1537
   8   2.0000      -1.624637       -44.2086
   9   2.0000      -1.416090       -38.5338
  10   2.0000      -1.168994       -31.8099
  11   2.0000      -1.043380       -28.3918
  12   2.0000      -1.019273       -27.7358
  13   2.0000      -0.875959       -23.8361
  14   2.0000      -0.845242       -23.0002
  15   2.0000      -0.752839       -20.4858
  16   2.0000      -0.745103       -20.2753
  17   2.0000      -0.707696       -19.2574
  18   2.0000      -0.689078       -18.7508
  19   2.0000      -0.645068       -17.5532
  20   2.0000      -0.628026       -17.0895
  21   2.0000      -0.611344       -16.6355
  22   2.0000      -0.598214       -16.2782
  23   2.0000      -0.585024       -15.9193
  24   2.0000      -0.560509       -15.2522
  25   2.0000      -0.510535       -13.8924
  26   2.0000      -0.492769       -13.4089
  27   2.0000      -0.359244        -9.7755
  28   2.0000      -0.322080        -8.7642
  29   0.0000       0.029400         0.8000
  30   0.0000       0.041183         1.1207
  31   0.0000       0.043758         1.1907
  32   0.0000       0.058579         1.5940
  33   0.0000       0.065438         1.7806

MULLIKEN ATOMIC CHARGES
-----------------------
   0 C :    0.594503
   1 C :    0.453315
   2 C :    0.455667
   3 C :    0.235387
   4 C :    0.815745
   5 C :    0.787783
   6 O :   -0.895284
   7 F :   -0.805336
   8 H :   -0.449071
   9 H :   -0.575577
  10 H :   -0.396696
  11 H :   -0.390255
  12 H :    0.169821
Sum of atomic charges:   -0.0000000

LOEWDIN ATOMIC CHARGES
----------------------
   0 C :    0.058117
   1 C :    0.046423
   2 C :    0.053368
   3 C :    0.049378
   4 C :   -0.230574
   5 C :   -0.202292
   6 O :    0.180190
   7 F :    0.049066
   8 H :    0.010262
   9 H :    0.002516
  10 H :    0.012856
  11 H :    0.012004
  12 H :   -0.041313

  Mayer bond orders larger than 0.100000
B(  0-C ,  2-C ) :   1.8886 B(  0-C ,  3-C ) :   0.2009 B(  0-C ,  4-C ) :   1.7139
B(  0-C ,  8-H ) :   0.1621 B(  1-C ,  2-C ) :   0.4022 B(  1-C ,  3-C ) :   2.0167
B(  1-C ,  4-C ) :   1.5842 B(  1-C ,  6-O ) :   0.1524 B(  1-C ,  9-H ) :   0.1474
B(  2-C ,  4-C ) :  -0.1701 B(  2-C ,  5-C ) :   1.5122 B(  2-C ,  7-F ) :   0.2782
B(  2-C , 10-H ) :   0.3837 B(  3-C ,  4-C ) :  -0.2404 B(  3-C ,  5-C ) :   1.5420
B(  3-C ,  7-F ) :   0.3053 B(  3-C ,  9-H ) :   0.1353 B(  3-C , 11-H ) :   0.4104
B(  4-C ,  8-H ) :   0.4650 B(  4-C ,  9-H ) :   0.4065 B(  4-C , 12-H ) :  -0.1065
B(  5-C ,  7-F ) :  -0.4610 B(  5-C , 10-H ) :   0.2428 B(  5-C , 11-H ) :   0.2489
B(  6-O , 12-H ) :   1.0618

MP2 TOTAL ENERGY:     -405.665366617 Eh
FINAL SINGLE POINT ENERGY      -405.665366617096

DIPOLE MOMENT
-------------
                                X             Y             Z
Electronic contribution:      0.28204      -4.98691       0.00000
Nuclear contribution   :     -0.81480       5.61482       0.00000
                        -----------------------------------------
Total Dipole Moment    :     -0.53276       0.62791       0.00000
                        -----------------------------------------
Magnitude (a.u.)       :      0.82348
Magnitude (Debye)      :      2.09311

Rotational constants in cm-1:     0.189165     0.048514     0.038611
Rotational constants in MHz :  5671.024350  1454.405222  1157.539675

                             ****ORCA TERMINATED NORMALLY****
TOTAL RUN TIME: 0 days 0 hours 0 minutes 52 seconds 532 msec
