                         Program Version 5.0.3 -  RELEASE  -
|  1> !ri-mp2 aug-cc-pvdz aug-cc-pvdz/c tightscf
|  2> %pal nprocs 16 end
|  3>
|  4> * xyz 0 1
|  5> S     -1.557947   -0.547420   -0.078355
|  6> C      0.113521   -1.121692    0.074303
|  7> C      1.026808   -0.155065    0.016891
|  8> C      0.488759    1.236776   -0.190699
|  9> C     -0.987946    1.187007    0.215046
| 10> O      2.374694   -0.392412    0.019811
| 11> H      0.314952   -2.177612    0.152421
| 12> H      1.028571    1.980024    0.403180
| 13> H     -1.614058    1.868088   -0.353978
| 14> H      0.605870    1.517008   -1.244505
| 15> H     -1.102813    1.398424    1.277082
| 16> H      2.850231    0.429936    0.167745
| 17> *
| 18>
| 19>                          ****END OF INPUT****

CARTESIAN COORDINATES (ANGSTROEM)
---------------------------------
  S     -1.557947   -0.547420   -0.078355
  C      0.113521   -1.121692    0.074303
  C      1.026808   -0.155065    0.016891
  C      0.488759    1.236776   -0.190699
  C     -0.987946    1.187007    0.215046
  O      2.374694   -0.392412    0.019811
  H      0.314952   -2.177612    0.152421
  H      1.028571    1.980024    0.403180
  H     -1.614058    1.868088   -0.353978
  H      0.605870    1.517008   -1.244505
  H     -1.102813    1.398424    1.277082
  H      2.850231    0.429936    0.167745

 Total Charge           Charge          ....    0
 Multiplicity           Mult            ....    1
 Number of Electrons    NEL             ....   54
 Basis Dimension        Dim             ....  196

ORBITAL ENERGIES
----------------

  NO   OCC          E(Eh)            E(eV)
   0   2.0000     -91.952632     -2502.1583
   1   2.0000     -20.605494      -560.7040
   2   2.0000     -11.305935      -307.6501
   3   2.0000     -11.274271      -306.7885
   4   2.0000     -11.260842      -306.4231
   5   2.0000     -11.247783      -306.0677
   6   2.0000      -8.954193      -243.6560
   7   2.0000      -6.636064      -180.5765
   8   2.0000      -6.634952      -180.5462
   9   2.0000      -6.632613      -180.4826
  10   2.0000      -1.410879       -38.3920
  11   2.0000      -1.139966       -31.0201
  12   2.0000      -0.998538       -27.1716
  13   2.0000      -0.966486       -26.2994
  14   2.0000      -0.825289       -22.4573
  15   2.0000      -0.758201       -20.6317
  16   2.0000      -0.711947       -19.3731
  17   2.0000      -0.662038       -18.0150
  18   2.0000      -0.635395       -17.2900
  19   2.0000      -0.587558       -15.9883
  20   2.0000      -0.563693       -15.3389
  21   2.0000      -0.531635       -14.4665
  22   2.0000      -0.508738       -13.8435
  23   2.0000      -0.497845       -13.5471
  24   2.0000      -0.449368       -12.2279
  25   2.0000      -0.415493       -11.3061
  26   2.0000      -0.290613        -7.9080
  27   0.0000       0.029033         0.7900
  28   0.0000       0.043287         1.1779
  29   0.0000       0.048857         1.3295
  30   0.0000       0.049902         1.3579
  31   0.0000       0.066155         1.8002

MULLIKEN ATOMIC CHARGES
-----------------------
   0 S :    0.421166
   1 C :    0.216802
   2 C :    0.442784
   3 C :    0.087115
   4 C :    0.102296
   5 O :   -0.834984
   6 H :   -0.359782
   7 H :   -0.046253
   8 H :   -0.063469
   9 H :   -0.015325
  10 H :   -0.073808
  11 H :    0.123459
Sum of atomic charges:   -0.0000000

LOEWDIN ATOMIC CHARGES
----------------------
   0 S :    0.817770
   1 C :   -0.259284
   2 C :   -0.336849
   3 C :   -0.043888
   4 C :   -0.230113
   5 O :    0.175945
   6 H :   -0.049886
   7 H :    0.014907
   8 H :   -0.034560
   9 H :    0.023565
  10 H :   -0.031287
  11 H :   -0.046322

  Mayer bond orders larger than 0.100000
B(  0-S ,  1-C ) :   0.9390 B(  0-S ,  3-C ) :  -0.1092 B(  0-S ,  4-C ) :   1.0978
B(  0-S ,  6-H ) :  -0.1389 B(  1-C ,  2-C ) :   2.2132 B(  1-C ,  6-H ) :   0.5713
B(  2-C ,  3-C ) :   1.2309 B(  2-C ,  5-O ) :   0.1154 B(  2-C ,  6-H ) :   0.3373
B(  2-C ,  7-H ) :   0.1217 B(  2-C ,  9-H ) :   0.1567 B(  2-C , 11-H ) :  -0.1070
B(  3-C ,  4-C ) :   1.2619 B(  3-C ,  5-O ) :   0.1089 B(  3-C ,  7-H ) :   0.6957
B(  3-C ,  8-H ) :   0.1026 B(  3-C ,  9-H ) :   0.8167 B(  3-C , 10-H ) :   0.1220
B(  4-C ,  8-H ) :   0.8581 B(  4-C , 10-H ) :   0.8900 B(  5-O , 11-H ) :   1.1169

MP2 TOTAL ENERGY:     -628.261787122 Eh
FINAL SINGLE POINT ENERGY      -628.261787121770

DIPOLE MOMENT
-------------
                                X             Y             Z
Electronic contribution:     -1.61058      -3.81855      -0.25181
Nuclear contribution   :      2.15266       4.99040       0.40176
                        -----------------------------------------
Total Dipole Moment    :      0.54208       1.17185       0.14995
                        -----------------------------------------
Magnitude (a.u.)       :      1.29984
Magnitude (Debye)      :      3.30392

Rotational constants in cm-1:     0.200565     0.078849     0.058486
Rotational constants in MHz :  6012.773531  2363.825269  1753.376362

                             ****ORCA TERMINATED NORMALLY****
TOTAL RUN TIME: 0 days 0 hours 0 minutes 34 seconds 17 msec
