                         Program Version 5.0.3 -  RELEASE  -
|  1> !ri-mp2 aug-cc-pvdz aug-cc-pvdz/c tightscf
|  2> %pal nprocs 16 end
|  3>
|  4> * xyz 0 1
|  5> Cl     2.032090   -0.194629   -0.000258
|  6> O     -1.737574   -1.136233    0.004416
|  7> N     -1.857611    0.269811    0.007343
|  8> N     -0.338436    2.066229   -0.073485
|  9> C      0.315301   -0.344216   -0.003266
| 10> C     -0.628792    0.728757   -0.004720
| 11> C     -0.442310   -1.462994    0.002464
| 12> H      0.555469    2.341498    0.298227
| 13> H     -1.096227    2.686160    0.162543
| 14> H     -0.197051   -2.510661    0.004428
| 15> *
| 16>
| 17>                          ****END OF INPUT****

CARTESIAN COORDINATES (ANGSTROEM)
---------------------------------
  Cl     2.032090   -0.194629   -0.000258
  O     -1.737574   -1.136233    0.004416
  N     -1.857611    0.269811    0.007343
  N     -0.338436    2.066229   -0.073485
  C      0.315301   -0.344216   -0.003266
  C     -0.628792    0.728757   -0.004720
  C     -0.442310   -1.462994    0.002464
  H      0.555469    2.341498    0.298227
  H     -1.096227    2.686160    0.162543
  H     -0.197051   -2.510661    0.004428

 Total Charge           Charge          ....    0
 Multiplicity           Mult            ....    1
 Number of Electrons    NEL             ....   60
 Basis Dimension        Dim             ....  192

ORBITAL ENERGIES
----------------

  NO   OCC          E(Eh)            E(eV)
   0   2.0000    -104.867445     -2853.5882
   1   2.0000     -20.659007      -562.1602
   2   2.0000     -15.620638      -425.0592
   3   2.0000     -15.603231      -424.5855
   4   2.0000     -11.342517      -308.6456
   5   2.0000     -11.340632      -308.5943
   6   2.0000     -11.309284      -307.7413
   7   2.0000     -10.592834      -288.2457
   8   2.0000      -8.060794      -219.3453
   9   2.0000      -8.057343      -219.2515
  10   2.0000      -8.057084      -219.2444
  11   2.0000      -1.500888       -40.8412
  12   2.0000      -1.273179       -34.6450
  13   2.0000      -1.178944       -32.0807
  14   2.0000      -1.136714       -30.9316
  15   2.0000      -1.048030       -28.5184
  16   2.0000      -0.851071       -23.1588
  17   2.0000      -0.821791       -22.3621
  18   2.0000      -0.739129       -20.1127
  19   2.0000      -0.707095       -19.2410
  20   2.0000      -0.671550       -18.2738
  21   2.0000      -0.650152       -17.6915
  22   2.0000      -0.607042       -16.5185
  23   2.0000      -0.575344       -15.6559
  24   2.0000      -0.542667       -14.7667
  25   2.0000      -0.514358       -13.9964
  26   2.0000      -0.503468       -13.7001
  27   2.0000      -0.466116       -12.6837
  28   2.0000      -0.374771       -10.1980
  29   2.0000      -0.368709       -10.0331
  30   0.0000       0.031843         0.8665
  31   0.0000       0.038555         1.0491
  32   0.0000       0.059431         1.6172
  33   0.0000       0.081863         2.2276
  34   0.0000       0.084639         2.3032

MULLIKEN ATOMIC CHARGES
-----------------------
   0 Cl:   -0.255666
   1 O :   -0.852674
   2 N :   -0.339163
   3 N :   -0.325120
   4 C :    0.173469
   5 C :    0.764248
   6 C :    1.018056
   7 H :   -0.002516
   8 H :    0.005879
   9 H :   -0.186512
Sum of atomic charges:   -0.0000000

LOEWDIN ATOMIC CHARGES
----------------------
   0 Cl:    0.587485
   1 O :    0.027154
   2 N :    0.057979
   3 N :    0.262253
   4 C :   -0.548146
   5 C :   -0.363093
   6 C :    0.012058
   7 H :   -0.031665
   8 H :   -0.012938
   9 H :    0.008914

  Mayer bond orders larger than 0.100000
B(  0-Cl,  4-C ) :   0.9097 B(  1-O ,  2-N ) :   0.6015 B(  1-O ,  4-C ) :   0.2120
B(  1-O ,  5-C ) :  -0.1508 B(  1-O ,  6-C ) :   0.7196 B(  2-N ,  5-C ) :   1.1097
B(  3-N ,  4-C ) :  -0.1318 B(  3-N ,  5-C ) :   0.8689 B(  3-N ,  7-H ) :   1.1125
B(  3-N ,  8-H ) :   1.1285 B(  4-C ,  5-C ) :   1.1141 B(  4-C ,  6-C ) :   1.4581
B(  6-C ,  9-H ) :   0.8979

MP2 TOTAL ENERGY:     -759.675677106 Eh
FINAL SINGLE POINT ENERGY      -759.675677105869

DIPOLE MOMENT
-------------
                                X             Y             Z
Electronic contribution:      4.34177      -2.42353      -0.09463
Nuclear contribution   :     -3.50377       2.65374       0.44233
                        -----------------------------------------
Total Dipole Moment    :      0.83800       0.23021       0.34770
                        -----------------------------------------
Magnitude (a.u.)       :      0.93602
Magnitude (Debye)      :      2.37919

Rotational constants in cm-1:     0.124315     0.066221     0.043246
Rotational constants in MHz :  3726.865314  1985.241651  1296.482713

                             ****ORCA TERMINATED NORMALLY****
TOTAL RUN TIME: 0 days 0 hours 0 minutes 37 seconds 295 msec
