                         Program Version 5.0.3 -  RELEASE  -
|  1> !ri-mp2 aug-cc-pvdz aug-cc-pvdz/c tightscf
|  2> %pal nprocs 16 end
|  3>
|  4> * xyz 0 1
|  5> N    -0.276322   -1.723967    0.000021
|  6> N    -1.849466   -0.170596   -0.000023
|  7> N    -0.289475    2.979967   -0.000049
|  8> C     0.394581   -0.521917    0.000012
|  9> C    -0.614933    0.430613   -0.000017
| 10> C    -1.610732   -1.456201    0.000000
| 11> C     1.794759   -0.410634    0.000031
| 12> C    -0.446188    1.838684   -0.000036
| 13> C     2.991406   -0.303459    0.000049
| 14> H     0.162004   -2.629700    0.000046
| 15> H    -2.356541   -2.233190    0.000003
| 16> H     4.048019   -0.197456    0.000073
| 17> *
| 18>
| 19>                          ****END OF INPUT****

CARTESIAN COORDINATES (ANGSTROEM)
---------------------------------
  N     -0.276322   -1.723967    0.000021
  N     -1.849466   -0.170596   -0.000023
  N     -0.289475    2.979967   -0.000049
  C      0.394581   -0.521917    0.000012
  C     -0.614933    0.430613   -0.000017
  C     -1.610732   -1.456201    0.000000
  C      1.794759   -0.410634    0.000031
  C     -0.446188    1.838684   -0.000036
  C      2.991406   -0.303459    0.000049
  H      0.162004   -2.629700    0.000046
  H     -2.356541   -2.233190    0.000003
  H      4.048019   -0.197456    0.000073

 Total Charge           Charge          ....    0
 Multiplicity           Mult            ....    1
 Number of Electrons    NEL             ....   60
 Basis Dimension        Dim             ....  234

ORBITAL ENERGIES
----------------

  NO   OCC          E(Eh)            E(eV)
   0   2.0000     -15.671356      -426.4393
   1   2.0000     -15.597413      -424.4272
   2   2.0000     -15.584756      -424.0828
   3   2.0000     -11.344696      -308.7049
   4   2.0000     -11.338309      -308.5311
   5   2.0000     -11.319462      -308.0182
   6   2.0000     -11.285819      -307.1028
   7   2.0000     -11.280071      -306.9463
   8   2.0000     -11.275621      -306.8252
   9   2.0000      -1.394036       -37.9337
  10   2.0000      -1.232965       -33.5507
  11   2.0000      -1.213876       -33.0312
  12   2.0000      -1.110581       -30.2205
  13   2.0000      -1.041641       -28.3445
  14   2.0000      -0.917064       -24.9546
  15   2.0000      -0.872772       -23.7493
  16   2.0000      -0.846088       -23.0232
  17   2.0000      -0.744150       -20.2493
  18   2.0000      -0.700698       -19.0670
  19   2.0000      -0.683436       -18.5972
  20   2.0000      -0.652322       -17.7506
  21   2.0000      -0.649541       -17.6749
  22   2.0000      -0.559462       -15.2237
  23   2.0000      -0.508773       -13.8444
  24   2.0000      -0.492233       -13.3943
  25   2.0000      -0.474881       -12.9222
  26   2.0000      -0.469621       -12.7790
  27   2.0000      -0.431157       -11.7324
  28   2.0000      -0.424812       -11.5597
  29   2.0000      -0.336124        -9.1464
  30   0.0000       0.018067         0.4916
  31   0.0000       0.031402         0.8545
  32   0.0000       0.045374         1.2347
  33   0.0000       0.063635         1.7316
  34   0.0000       0.076993         2.0951

MULLIKEN ATOMIC CHARGES
-----------------------
   0 N :   -0.680962
   1 N :   -0.922450
   2 N :   -0.248142
   3 C :    0.338972
   4 C :    1.335977
   5 C :    0.898878
   6 C :    0.801808
   7 C :   -0.907593
   8 C :    0.188094
   9 H :   -0.084494
  10 H :   -0.169887
  11 H :   -0.550201
Sum of atomic charges:   -0.0000000

LOEWDIN ATOMIC CHARGES
----------------------
   0 N :    0.130831
   1 N :    0.074501
   2 N :    0.094768
   3 C :   -0.178817
   4 C :   -0.228865
   5 C :    0.011917
   6 C :   -0.039676
   7 C :   -0.097358
   8 C :    0.259764
   9 H :    0.047346
  10 H :    0.015158
  11 H :   -0.089569

  Mayer bond orders larger than 0.100000
B(  0-N ,  3-C ) :   0.7358 B(  0-N ,  5-C ) :   1.0774 B(  0-N ,  6-C ) :  -0.1209
B(  0-N ,  9-H ) :   1.2715 B(  0-N , 10-H ) :  -0.1229 B(  1-N ,  3-C ) :   0.1054
B(  1-N ,  4-C ) :   0.5654 B(  1-N ,  5-C ) :   1.5121 B(  1-N ,  7-C ) :   0.3238
B(  2-N ,  7-C ) :   2.4590 B(  3-C ,  4-C ) :   1.1986 B(  3-C ,  6-C ) :   1.3230
B(  3-C ,  7-C ) :   0.4263 B(  3-C ,  8-C ) :   0.4798 B(  3-C ,  9-H ) :  -0.1760
B(  4-C ,  6-C ) :  -0.3294 B(  4-C ,  7-C ) :  -0.5687 B(  4-C ,  8-C ) :  -0.1888
B(  4-C , 10-H ) :   0.1232 B(  5-C ,  9-H ) :  -0.1170 B(  5-C , 10-H ) :   0.9386
B(  6-C ,  8-C ) :   2.0779 B(  6-C , 11-H ) :   0.3642

MP2 TOTAL ENERGY:     -393.547695165 Eh
FINAL SINGLE POINT ENERGY      -393.547695164568

DIPOLE MOMENT
-------------
                                X             Y             Z
Electronic contribution:     -0.94415       1.99673      -0.00005
Nuclear contribution   :      1.76978      -4.86294       0.00012
                        -----------------------------------------
Total Dipole Moment    :      0.82563      -2.86621       0.00006
                        -----------------------------------------
Magnitude (a.u.)       :      2.98276
Magnitude (Debye)      :      7.58157

Rotational constants in cm-1:     0.067191     0.064722     0.032967
Rotational constants in MHz :  2014.343734  1940.316481   988.318625

                             ****ORCA TERMINATED NORMALLY****
TOTAL RUN TIME: 0 days 0 hours 0 minutes 49 seconds 956 msec
