                         Program Version 5.0.3 -  RELEASE  -
|  1> !ri-mp2 aug-cc-pvdz aug-cc-pvdz/c tightscf
|  2> %pal nprocs 16 end
|  3>
|  4> * xyz 0 1
|  5> O      2.917786   -1.157943   -0.000019
|  6> O      2.935541    1.069886   -0.000044
|  7> O     -4.203167    0.107734    0.000034
|  8> C      2.298217   -0.130187   -0.000019
|  9> C      0.859664   -0.051301    0.000006
| 10> C     -0.350583   -0.022132    0.000009
| 11> C     -1.705579    0.003733    0.000014
| 12> C     -2.911532    0.002168    0.000026
| 13> H      2.290340    1.788517   -0.000042
| 14> H     -4.632743   -0.759617    0.000060
| 15> *
| 16>
| 17>                          ****END OF INPUT****

CARTESIAN COORDINATES (ANGSTROEM)
---------------------------------
  O      2.917786   -1.157943   -0.000019
  O      2.935541    1.069886   -0.000044
  O     -4.203167    0.107734    0.000034
  C      2.298217   -0.130187   -0.000019
  C      0.859664   -0.051301    0.000006
  C     -0.350583   -0.022132    0.000009
  C     -1.705579    0.003733    0.000014
  C     -2.911532    0.002168    0.000026
  H      2.290340    1.788517   -0.000042
  H     -4.632743   -0.759617    0.000060

 Total Charge           Charge          ....    0
 Multiplicity           Mult            ....    1
 Number of Electrons    NEL             ....   56
 Basis Dimension        Dim             ....  202

ORBITAL ENERGIES
----------------

  NO   OCC          E(Eh)            E(eV)
   0   2.0000     -20.686462      -562.9073
   1   2.0000     -20.633891      -561.4767
   2   2.0000     -20.571585      -559.7813
   3   2.0000     -11.427329      -310.9534
   4   2.0000     -11.360706      -309.1405
   5   2.0000     -11.308835      -307.7290
   6   2.0000     -11.282241      -307.0054
   7   2.0000     -11.280609      -306.9610
   8   2.0000      -1.497890       -40.7597
   9   2.0000      -1.477073       -40.1932
  10   2.0000      -1.382883       -37.6301
  11   2.0000      -1.122438       -30.5431
  12   2.0000      -1.057087       -28.7648
  13   2.0000      -0.930564       -25.3219
  14   2.0000      -0.871964       -23.7273
  15   2.0000      -0.828757       -22.5516
  16   2.0000      -0.796657       -21.6781
  17   2.0000      -0.708051       -19.2671
  18   2.0000      -0.676400       -18.4058
  19   2.0000      -0.662822       -18.0363
  20   2.0000      -0.644650       -17.5418
  21   2.0000      -0.614101       -16.7105
  22   2.0000      -0.512670       -13.9505
  23   2.0000      -0.511094       -13.9076
  24   2.0000      -0.485824       -13.2200
  25   2.0000      -0.480167       -13.0660
  26   2.0000      -0.383567       -10.4374
  27   2.0000      -0.372687       -10.1413
  28   0.0000       0.015821         0.4305
  29   0.0000       0.036909         1.0044
  30   0.0000       0.067030         1.8240
  31   0.0000       0.070015         1.9052
  32   0.0000       0.078313         2.1310

MULLIKEN ATOMIC CHARGES
-----------------------
   0 O :   -0.684175
   1 O :   -0.662346
   2 O :   -0.529426
   3 C :    0.830860
   4 C :   -1.143590
   5 C :    1.543679
   6 C :    1.748980
   7 C :   -1.479964
   8 H :    0.217015
   9 H :    0.158968
Sum of atomic charges:    0.0000000

LOEWDIN ATOMIC CHARGES
----------------------
   0 O :    0.067781
   1 O :    0.207910
   2 O :    0.212729
   3 C :   -0.390157
   4 C :    0.089324
   5 C :   -0.045379
   6 C :   -0.045885
   7 C :   -0.062479
   8 H :   -0.033910
   9 H :    0.000064

  Mayer bond orders larger than 0.100000
B(  0-O ,  3-C ) :   1.7121 B(  0-O ,  4-C ) :  -0.1392 B(  0-O ,  5-C ) :   0.1023
B(  1-O ,  3-C ) :   0.4728 B(  1-O ,  4-C ) :   0.1315 B(  1-O ,  8-H ) :   0.9843
B(  2-O ,  6-C ) :  -0.3944 B(  2-O ,  7-C ) :   0.9444 B(  2-O ,  9-H ) :   1.0032
B(  3-C ,  4-C ) :   1.6300 B(  3-C ,  5-C ) :  -0.6075 B(  4-C ,  5-C ) :   1.2787
B(  4-C ,  6-C ) :  -1.5682 B(  4-C ,  7-C ) :   1.3706 B(  5-C ,  6-C ) :   1.7320
B(  5-C ,  7-C ) :  -1.3953 B(  6-C ,  7-C ) :   0.6298 B(  6-C ,  9-H ) :  -0.1220
B(  7-C ,  9-H ) :   0.1570

MP2 TOTAL ENERGY:     -416.232352567 Eh
FINAL SINGLE POINT ENERGY      -416.232352567035

DIPOLE MOMENT
-------------
                                X             Y             Z
Electronic contribution:     -0.15686      -0.47495       0.00001
Nuclear contribution   :     -2.21335       0.98343       0.00002
                        -----------------------------------------
Total Dipole Moment    :     -2.37022       0.50848       0.00003
                        -----------------------------------------
Magnitude (a.u.)       :      2.42414
Magnitude (Debye)      :      6.16168

Rotational constants in cm-1:     0.383886     0.021225     0.020113
Rotational constants in MHz : 11508.622701   636.318539   602.979450

                             ****ORCA TERMINATED NORMALLY****
TOTAL RUN TIME: 0 days 0 hours 0 minutes 35 seconds 6 msec
