                         Program Version 5.0.3 -  RELEASE  -
|  1> !ri-mp2 aug-cc-pvdz aug-cc-pvdz/c tightscf
|  2> %pal nprocs 16 end
|  3> %maxcore 3800
|  4>
|  5> * xyz 0 1
|  6> C      0.000000    0.000000   -0.758430
|  7> C     -0.754120    0.903797   -1.510292
|  8> C      0.754120   -0.903797   -1.510292
|  9> N     -0.757576    0.915186   -2.840582
| 10> C      0.000000    0.000000   -3.441454
| 11> N      0.757576   -0.915186   -2.840582
| 12> C      0.000000    0.000000    0.718089
| 13> C      0.000000    1.201904    1.434398
| 14> C     -0.000714    1.201397    2.822810
| 15> C      0.000000    0.000000    3.522386
| 16> C      0.000714   -1.201397    2.822810
| 17> C      0.000000   -1.201904    1.434398
| 18> H      0.000000    0.000000   -4.524887
| 19> H     -1.389638    1.632242   -1.018874
| 20> H      1.389638   -1.632242   -1.018874
| 21> H     -0.006602   -2.140956    3.358639
| 22> H      0.000000    0.000000    4.603795
| 23> H      0.006602    2.140956    3.358639
| 24> H      0.024377    2.142989    0.901579
| 25> H     -0.024377   -2.142989    0.901579
| 26> *
| 27>
| 28>                          ****END OF INPUT****

CARTESIAN COORDINATES (ANGSTROEM)
---------------------------------
  C      0.000000    0.000000   -0.758430
  C     -0.754120    0.903797   -1.510292
  C      0.754120   -0.903797   -1.510292
  N     -0.757576    0.915186   -2.840582
  C      0.000000    0.000000   -3.441454
  N      0.757576   -0.915186   -2.840582
  C      0.000000    0.000000    0.718089
  C      0.000000    1.201904    1.434398
  C     -0.000714    1.201397    2.822810
  C      0.000000    0.000000    3.522386
  C      0.000714   -1.201397    2.822810
  C      0.000000   -1.201904    1.434398
  H      0.000000    0.000000   -4.524887
  H     -1.389638    1.632242   -1.018874
  H      1.389638   -1.632242   -1.018874
  H     -0.006602   -2.140956    3.358639
  H      0.000000    0.000000    4.603795
  H      0.006602    2.140956    3.358639
  H      0.024377    2.142989    0.901579
  H     -0.024377   -2.142989    0.901579

 Total Charge           Charge          ....    0
 Multiplicity           Mult            ....    1
 Number of Electrons    NEL             ....   82
 Basis Dimension        Dim             ....  348

ORBITAL ENERGIES
----------------

  NO   OCC          E(Eh)            E(eV)
   0   2.0000     -15.583589      -424.0510
   1   2.0000     -15.583559      -424.0502
   2   2.0000     -11.319862      -308.0291
   3   2.0000     -11.304427      -307.6091
   4   2.0000     -11.304411      -307.6087
   5   2.0000     -11.266488      -306.5767
   6   2.0000     -11.264174      -306.5138
   7   2.0000     -11.253738      -306.2298
   8   2.0000     -11.253676      -306.2281
   9   2.0000     -11.252634      -306.1997
  10   2.0000     -11.252381      -306.1928
  11   2.0000     -11.250774      -306.1491
  12   2.0000      -1.320119       -35.9223
  13   2.0000      -1.201177       -32.6857
  14   2.0000      -1.177930       -32.0531
  15   2.0000      -1.102157       -29.9912
  16   2.0000      -1.032877       -28.1060
  17   2.0000      -1.017350       -27.6835
  18   2.0000      -0.903961       -24.5980
  19   2.0000      -0.902608       -24.5612
  20   2.0000      -0.839716       -22.8498
  21   2.0000      -0.824938       -22.4477
  22   2.0000      -0.743309       -20.2265
  23   2.0000      -0.714898       -19.4534
  24   2.0000      -0.711070       -19.3492
  25   2.0000      -0.665056       -18.0971
  26   2.0000      -0.636813       -17.3286
  27   2.0000      -0.611690       -16.6449
  28   2.0000      -0.603744       -16.4287
  29   2.0000      -0.591935       -16.1074
  30   2.0000      -0.587860       -15.9965
  31   2.0000      -0.579388       -15.7660
  32   2.0000      -0.526271       -14.3205
  33   2.0000      -0.519617       -14.1395
  34   2.0000      -0.507297       -13.8043
  35   2.0000      -0.471481       -12.8296
  36   2.0000      -0.424057       -11.5392
  37   2.0000      -0.415905       -11.3174
  38   2.0000      -0.399583       -10.8732
  39   2.0000      -0.351142        -9.5551
  40   2.0000      -0.322860        -8.7855
  41   0.0000       0.030041         0.8174
  42   0.0000       0.037452         1.0191
  43   0.0000       0.041353         1.1253
  44   0.0000       0.050329         1.3695
  45   0.0000       0.050957         1.3866

MULLIKEN ATOMIC CHARGES
-----------------------
   0 C :    0.052883
   1 C :    0.849485
   2 C :    0.849485
   3 N :   -0.822858
   4 C :    0.601893
   5 N :   -0.822858
   6 C :    1.501062
   7 C :    0.194192
   8 C :    0.257093
   9 C :    0.463487
  10 C :    0.257093
  11 C :    0.194192
  12 H :   -0.220140
  13 H :   -0.409557
  14 H :   -0.409557
  15 H :   -0.464287
  16 H :   -0.437403
  17 H :   -0.464287
  18 H :   -0.584961
  19 H :   -0.584961
Sum of atomic charges:    0.0000000

LOEWDIN ATOMIC CHARGES
----------------------
   0 C :   -0.131977
   1 C :    0.031815
   2 C :    0.031815
   3 N :    0.043193
   4 C :   -0.066442
   5 N :    0.043193
   6 C :   -0.154328
   7 C :    0.051758
   8 C :    0.016485
   9 C :    0.012919
  10 C :    0.016485
  11 C :    0.051758
  12 H :    0.003065
  13 H :    0.015750
  14 H :    0.015750
  15 H :    0.002758
  16 H :    0.000730
  17 H :    0.002758
  18 H :    0.006257
  19 H :    0.006257

  Mayer bond orders larger than 0.100000
B(  0-C ,  1-C ) :   0.9470 B(  0-C ,  2-C ) :   0.9470 B(  0-C ,  3-N ) :   0.1125
B(  0-C ,  4-C ) :   0.1577 B(  0-C ,  5-N ) :   0.1125 B(  0-C ,  6-C ) :   2.0882
B(  0-C ,  7-C ) :  -0.4889 B(  0-C ,  8-C ) :   0.3046 B(  0-C , 10-C ) :   0.3046
B(  0-C , 11-C ) :  -0.4889 B(  0-C , 13-H ) :   0.2316 B(  0-C , 14-H ) :   0.2316
B(  1-C ,  3-N ) :   1.1134 B(  1-C ,  4-C ) :  -0.1797 B(  1-C ,  6-C ) :  -0.1811
B(  1-C , 13-H ) :   0.5565 B(  2-C ,  4-C ) :  -0.1797 B(  2-C ,  5-N ) :   1.1134
B(  2-C ,  6-C ) :  -0.1811 B(  2-C , 14-H ) :   0.5565 B(  3-N ,  4-C ) :   1.3416
B(  4-C ,  5-N ) :   1.3416 B(  4-C , 12-H ) :   1.0665 B(  6-C ,  7-C ) :   1.4874
B(  6-C ,  8-C ) :  -0.5366 B(  6-C ,  9-C ) :   0.1369 B(  6-C , 10-C ) :  -0.5366
B(  6-C , 11-C ) :   1.4874 B(  6-C , 18-H ) :   0.4226 B(  6-C , 19-H ) :   0.4226
B(  7-C ,  8-C ) :   1.9781 B(  7-C , 10-C ) :   0.1845 B(  7-C , 11-C ) :  -0.9338
B(  7-C , 17-H ) :   0.4676 B(  7-C , 18-H ) :  -0.1022 B(  8-C ,  9-C ) :   1.7907
B(  8-C , 11-C ) :   0.1845 B(  8-C , 15-H ) :  -0.1334 B(  8-C , 16-H ) :   0.2037
B(  8-C , 17-H ) :   0.1482 B(  8-C , 18-H ) :   0.2689 B(  9-C , 10-C ) :   1.7907
B(  9-C , 15-H ) :   0.1364 B(  9-C , 16-H ) :   0.3262 B(  9-C , 17-H ) :   0.1364
B( 10-C , 11-C ) :   1.9781 B( 10-C , 15-H ) :   0.1482 B( 10-C , 16-H ) :   0.2037
B( 10-C , 17-H ) :  -0.1334 B( 10-C , 19-H ) :   0.2689 B( 11-C , 15-H ) :   0.4676
B( 11-C , 19-H ) :  -0.1022

MP2 TOTAL ENERGY:     -493.966944915 Eh
FINAL SINGLE POINT ENERGY      -493.966944914606

DIPOLE MOMENT
-------------
                                X             Y             Z
Electronic contribution:     -0.00000       0.00000      -5.32811
Nuclear contribution   :      0.00000      -0.00000       6.43688
                        -----------------------------------------
Total Dipole Moment    :     -0.00000       0.00000       1.10877
                        -----------------------------------------
Magnitude (a.u.)       :      1.10877
Magnitude (Debye)      :      2.81828

Rotational constants in cm-1:     0.099184     0.018444     0.016140
Rotational constants in MHz :  2973.463646   552.934571   483.853809

                             ****ORCA TERMINATED NORMALLY****
TOTAL RUN TIME: 0 days 0 hours 2 minutes 2 seconds 175 msec
