                         Program Version 5.0.3 -  RELEASE  -
|  1> !ri-mp2 aug-cc-pvdz aug-cc-pvdz/c tightscf
|  2> %pal nprocs 16 end
|  3>
|  4> * xyz 0 1
|  5> C     0.056743   -1.403063    1.105281
|  6> C     0.056743   -1.403063   -1.105281
|  7> C     0.056743   -0.108428    0.714480
|  8> C     0.056743   -0.108428   -0.714480
|  9> C     0.061614    1.293990    1.248837
| 10> C     0.061614    1.293990   -1.248837
| 11> C    -0.362168    2.121493    0.000000
| 12> O     0.055843   -2.213536    0.000000
| 13> H     0.050540   -1.910773    2.052548
| 14> H     0.050540   -1.910773   -2.052548
| 15> H    -0.610306    1.450561    2.092349
| 16> H     1.064430    1.578481    1.579793
| 17> H     1.064430    1.578481   -1.579793
| 18> H    -0.610306    1.450561   -2.092349
| 19> H    -1.447985    2.228635    0.000000
| 20> H     0.063723    3.124156    0.000000
| 21> *
| 22>
| 23>                          ****END OF INPUT****

CARTESIAN COORDINATES (ANGSTROEM)
---------------------------------
  C      0.056743   -1.403063    1.105281
  C      0.056743   -1.403063   -1.105281
  C      0.056743   -0.108428    0.714480
  C      0.056743   -0.108428   -0.714480
  C      0.061614    1.293990    1.248837
  C      0.061614    1.293990   -1.248837
  C     -0.362168    2.121493    0.000000
  O      0.055843   -2.213536    0.000000
  H      0.050540   -1.910773    2.052548
  H      0.050540   -1.910773   -2.052548
  H     -0.610306    1.450561    2.092349
  H      1.064430    1.578481    1.579793
  H      1.064430    1.578481   -1.579793
  H     -0.610306    1.450561   -2.092349
  H     -1.447985    2.228635    0.000000
  H      0.063723    3.124156    0.000000

 Total Charge           Charge          ....    0
 Multiplicity           Mult            ....    1
 Number of Electrons    NEL             ....   58
 Basis Dimension        Dim             ....  256

ORBITAL ENERGIES
----------------

  NO   OCC          E(Eh)            E(eV)
   0   2.0000     -20.618491      -561.0577
   1   2.0000     -11.283262      -307.0332
   2   2.0000     -11.283215      -307.0319
   3   2.0000     -11.239737      -305.8488
   4   2.0000     -11.239716      -305.8482
   5   2.0000     -11.235622      -305.7368
   6   2.0000     -11.226018      -305.4755
   7   2.0000     -11.225001      -305.4478
   8   2.0000      -1.444405       -39.3043
   9   2.0000      -1.144834       -31.1525
  10   2.0000      -1.017437       -27.6859
  11   2.0000      -1.012510       -27.5518
  12   2.0000      -0.941586       -25.6219
  13   2.0000      -0.827815       -22.5260
  14   2.0000      -0.773580       -21.0502
  15   2.0000      -0.753025       -20.4908
  16   2.0000      -0.701565       -19.0906
  17   2.0000      -0.648015       -17.6334
  18   2.0000      -0.612875       -16.6772
  19   2.0000      -0.596410       -16.2291
  20   2.0000      -0.582081       -15.8392
  21   2.0000      -0.565219       -15.3804
  22   2.0000      -0.547859       -14.9080
  23   2.0000      -0.495327       -13.4785
  24   2.0000      -0.490089       -13.3360
  25   2.0000      -0.486636       -13.2420
  26   2.0000      -0.485099       -13.2002
  27   2.0000      -0.366493        -9.9728
  28   2.0000      -0.308334        -8.3902
  29   0.0000       0.036097         0.9823
  30   0.0000       0.042272         1.1503
  31   0.0000       0.042450         1.1551
  32   0.0000       0.048207         1.3118
  33   0.0000       0.055133         1.5002

MULLIKEN ATOMIC CHARGES
-----------------------
   0 C :    1.162346
   1 C :    1.162346
   2 C :   -0.812642
   3 C :   -0.812642
   4 C :    0.309374
   5 C :    0.309374
   6 C :    0.601923
   7 O :   -0.959157
   8 H :   -0.348974
   9 H :   -0.348974
  10 H :   -0.013646
  11 H :    0.022384
  12 H :    0.022384
  13 H :   -0.013646
  14 H :   -0.158340
  15 H :   -0.122108
Sum of atomic charges:   -0.0000000

LOEWDIN ATOMIC CHARGES
----------------------
   0 C :    0.068812
   1 C :    0.068812
   2 C :   -0.178699
   3 C :   -0.178699
   4 C :    0.042804
   5 C :    0.042804
   6 C :    0.019977
   7 O :    0.057807
   8 H :   -0.011138
   9 H :   -0.011138
  10 H :    0.013160
  11 H :    0.016866
  12 H :    0.016866
  13 H :    0.013160
  14 H :    0.012040
  15 H :    0.006566

  Mayer bond orders larger than 0.100000
B(  0-C ,  1-C ) :   0.3367 B(  0-C ,  2-C ) :   1.5978 B(  0-C ,  3-C ) :   0.1120
B(  0-C ,  4-C ) :   0.2615 B(  0-C ,  7-O ) :   0.3664 B(  0-C ,  8-H ) :   0.3359
B(  1-C ,  2-C ) :   0.1120 B(  1-C ,  3-C ) :   1.5978 B(  1-C ,  5-C ) :   0.2615
B(  1-C ,  7-O ) :   0.3664 B(  1-C ,  9-H ) :   0.3359 B(  2-C ,  3-C ) :   1.5563
B(  2-C ,  4-C ) :   0.7976 B(  2-C ,  7-O ) :   0.2103 B(  2-C ,  8-H ) :   0.2453
B(  2-C , 10-H ) :   0.2658 B(  2-C , 11-H ) :   0.2002 B(  3-C ,  5-C ) :   0.7976
B(  3-C ,  7-O ) :   0.2103 B(  3-C ,  9-H ) :   0.2453 B(  3-C , 12-H ) :   0.2002
B(  3-C , 13-H ) :   0.2658 B(  4-C ,  6-C ) :   1.2180 B(  4-C ,  8-H ) :   0.2399
B(  4-C , 10-H ) :   0.5658 B(  4-C , 11-H ) :   0.7496 B(  5-C ,  6-C ) :   1.2180
B(  5-C ,  9-H ) :   0.2399 B(  5-C , 12-H ) :   0.7496 B(  5-C , 13-H ) :   0.5658
B(  6-C , 14-H ) :   0.7759 B(  6-C , 15-H ) :   0.7586 B( 10-H , 11-H ) :  -0.1384
B( 12-H , 13-H ) :  -0.1384 B( 14-H , 15-H ) :  -0.1202

MP2 TOTAL ENERGY:     -345.762088751 Eh
FINAL SINGLE POINT ENERGY      -345.762088750594

DIPOLE MOMENT
-------------
                                X             Y             Z
Electronic contribution:      0.37432      -6.94510      -0.00000
Nuclear contribution   :     -0.37678       7.60950       0.00000
                        -----------------------------------------
Total Dipole Moment    :     -0.00246       0.66440      -0.00000
                        -----------------------------------------
Magnitude (a.u.)       :      0.66440
Magnitude (Debye)      :      1.68878

Rotational constants in cm-1:     0.156430     0.065284     0.047714
Rotational constants in MHz :  4689.642616  1957.161458  1430.436633

                             ****ORCA TERMINATED NORMALLY****
TOTAL RUN TIME: 0 days 0 hours 0 minutes 55 seconds 827 msec
