                         Program Version 5.0.3 -  RELEASE  -
|  1> !ri-mp2 aug-cc-pvdz aug-cc-pvdz/c tightscf
|  2> %pal nprocs 16 end
|  3>
|  4> * xyz 0 1
|  5> Cl   -2.273721   -1.145016    0.000007
|  6> N    -0.545925    0.931210   -0.000361
|  7> N     0.780358    1.189764   -0.000206
|  8> N     0.415924   -1.046068    0.000109
|  9> C    -1.507346    2.016770    0.000250
| 10> C    -0.725032   -0.407416   -0.000057
| 11> C     1.323326   -0.022938    0.000027
| 12> C     2.726873   -0.228945    0.000057
| 13> C     3.911599   -0.413981    0.000075
| 14> H    -1.359292    2.633377   -0.883814
| 15> H    -2.508410    1.598147   -0.006840
| 16> H    -1.368588    2.625200    0.891548
| 17> H     4.960520   -0.576746    0.000087
| 18> *
| 19>
| 20>                          ****END OF INPUT****

CARTESIAN COORDINATES (ANGSTROEM)
---------------------------------
  Cl    -2.273721   -1.145016    0.000007
  N     -0.545925    0.931210   -0.000361
  N      0.780358    1.189764   -0.000206
  N      0.415924   -1.046068    0.000109
  C     -1.507346    2.016770    0.000250
  C     -0.725032   -0.407416   -0.000057
  C      1.323326   -0.022938    0.000027
  C      2.726873   -0.228945    0.000057
  C      3.911599   -0.413981    0.000075
  H     -1.359292    2.633377   -0.883814
  H     -2.508410    1.598147   -0.006840
  H     -1.368588    2.625200    0.891548
  H      4.960520   -0.576746    0.000087

 Total Charge           Charge          ....    0
 Multiplicity           Mult            ....    1
 Number of Electrons    NEL             ....   72
 Basis Dimension        Dim             ....  247

ORBITAL ENERGIES
----------------

  NO   OCC          E(Eh)            E(eV)
   0   2.0000    -104.882005     -2853.9844
   1   2.0000     -15.683686      -426.7748
   2   2.0000     -15.623820      -425.1458
   3   2.0000     -15.588536      -424.1856
   4   2.0000     -11.393645      -310.0368
   5   2.0000     -11.335790      -308.4625
   6   2.0000     -11.302651      -307.5608
   7   2.0000     -11.257108      -306.3215
   8   2.0000     -11.252970      -306.2089
   9   2.0000     -10.607808      -288.6531
  10   2.0000      -8.075747      -219.7523
  11   2.0000      -8.072061      -219.6520
  12   2.0000      -8.072003      -219.6504
  13   2.0000      -1.449260       -39.4364
  14   2.0000      -1.246141       -33.9092
  15   2.0000      -1.204251       -32.7693
  16   2.0000      -1.116563       -30.3832
  17   2.0000      -1.055180       -28.7129
  18   2.0000      -0.991612       -26.9831
  19   2.0000      -0.891365       -24.2553
  20   2.0000      -0.821005       -22.3407
  21   2.0000      -0.762672       -20.7534
  22   2.0000      -0.715739       -19.4763
  23   2.0000      -0.697486       -18.9796
  24   2.0000      -0.657877       -17.9017
  25   2.0000      -0.628998       -17.1159
  26   2.0000      -0.599937       -16.3251
  27   2.0000      -0.599534       -16.3141
  28   2.0000      -0.533150       -14.5078
  29   2.0000      -0.526147       -14.3172
  30   2.0000      -0.497710       -13.5434
  31   2.0000      -0.466104       -12.6833
  32   2.0000      -0.457296       -12.4436
  33   2.0000      -0.413656       -11.2562
  34   2.0000      -0.413232       -11.2446
  35   2.0000      -0.352155        -9.5826
  36   0.0000       0.031160         0.8479
  37   0.0000       0.038964         1.0603
  38   0.0000       0.053257         1.4492
  39   0.0000       0.054222         1.4755
  40   0.0000       0.073450         1.9987

MULLIKEN ATOMIC CHARGES
-----------------------
   0 Cl:   -0.031243
   1 N :   -0.385993
   2 N :   -0.560586
   3 N :   -0.707656
   4 C :    1.005145
   5 C :    0.248236
   6 C :    0.241358
   7 C :    0.306731
   8 C :    0.722559
   9 H :   -0.052696
  10 H :   -0.194797
  11 H :   -0.051435
  12 H :   -0.539623
Sum of atomic charges:   -0.0000000

LOEWDIN ATOMIC CHARGES
----------------------
   0 Cl:    0.654920
   1 N :   -0.206792
   2 N :    0.118106
   3 N :    0.052719
   4 C :    0.227125
   5 C :   -0.577674
   6 C :   -0.344193
   7 C :   -0.037294
   8 C :    0.243467
   9 H :   -0.001665
  10 H :   -0.031187
  11 H :   -0.001639
  12 H :   -0.095894

  Mayer bond orders larger than 0.100000
B(  0-Cl,  1-N ) :  -0.1161 B(  0-Cl,  5-C ) :   1.1582 B(  1-N ,  2-N ) :   0.9725
B(  1-N ,  4-C ) :   0.8441 B(  1-N ,  5-C ) :   1.4062 B(  1-N ,  6-C ) :  -0.2665
B(  2-N ,  5-C ) :  -0.1548 B(  2-N ,  6-C ) :   1.5017 B(  2-N ,  7-C ) :  -0.1213
B(  3-N ,  5-C ) :   1.3305 B(  3-N ,  6-C ) :   1.3637 B(  3-N ,  7-C ) :  -0.1196
B(  4-C ,  5-C ) :  -0.1272 B(  4-C ,  9-H ) :   0.9142 B(  4-C , 10-H ) :   0.9455
B(  4-C , 11-H ) :   0.9128 B(  6-C ,  7-C ) :   1.4591 B(  6-C ,  8-C ) :   0.2157
B(  7-C ,  8-C ) :   2.5285 B(  7-C , 12-H ) :   0.6010 B(  8-C , 12-H ) :  -0.1988

MP2 TOTAL ENERGY:     -815.794542484 Eh
FINAL SINGLE POINT ENERGY      -815.794542483509

DIPOLE MOMENT
-------------
                                X             Y             Z
Electronic contribution:     -3.62868      -6.78249      -0.00094
Nuclear contribution   :      2.84746       7.56952       0.00092
                        -----------------------------------------
Total Dipole Moment    :     -0.78122       0.78703      -0.00002
                        -----------------------------------------
Magnitude (a.u.)       :      1.10893
Magnitude (Debye)      :      2.81867

Rotational constants in cm-1:     0.102446     0.029925     0.023261
Rotational constants in MHz :  3071.253252   897.129563   697.360162

                             ****ORCA TERMINATED NORMALLY****
TOTAL RUN TIME: 0 days 0 hours 0 minutes 50 seconds 674 msec
