                         Program Version 5.0.3 -  RELEASE  -
|  1> !ri-mp2 aug-cc-pvdz aug-cc-pvdz/c tightscf
|  2> %pal nprocs 16 end
|  3>
|  4> * xyz 0 1
|  5> Cl    -1.769018   -1.402538    0.178117
|  6> Cl    -1.547273    1.487912   -0.423243
|  7> O      1.460798    0.667411    0.845353
|  8> N      2.756231    0.418539    0.391564
|  9> C      0.598785   -0.083649    0.134479
| 10> C     -0.831962    0.092960    0.483695
| 11> C      1.270958   -0.829507   -0.776098
| 12> C      2.623928   -0.463831   -0.561859
| 13> H     -0.948218    0.336127    1.532441
| 14> H      0.868419   -1.532812   -1.480568
| 15> H      3.506494   -0.819577   -1.069811
| 16> *
| 17>
| 18>                          ****END OF INPUT****

CARTESIAN COORDINATES (ANGSTROEM)
---------------------------------
  Cl    -1.769018   -1.402538    0.178117
  Cl    -1.547273    1.487912   -0.423243
  O      1.460798    0.667411    0.845353
  N      2.756231    0.418539    0.391564
  C      0.598785   -0.083649    0.134479
  C     -0.831962    0.092960    0.483695
  C      1.270958   -0.829507   -0.776098
  C      2.623928   -0.463831   -0.561859
  H     -0.948218    0.336127    1.532441
  H      0.868419   -1.532812   -1.480568
  H      3.506494   -0.819577   -1.069811

 Total Charge           Charge          ....    0
 Multiplicity           Mult            ....    1
 Number of Electrons    NEL             ....   76
 Basis Dimension        Dim             ....  219

ORBITAL ENERGIES
----------------

  NO   OCC          E(Eh)            E(eV)
   0   2.0000    -104.865362     -2853.5316
   1   2.0000    -104.859254     -2853.3654
   2   2.0000     -20.675266      -562.6026
   3   2.0000     -15.651827      -425.9079
   4   2.0000     -11.405012      -310.3462
   5   2.0000     -11.352707      -308.9229
   6   2.0000     -11.305154      -307.6289
   7   2.0000     -11.267417      -306.6020
   8   2.0000     -10.591211      -288.2015
   9   2.0000     -10.584817      -288.0275
  10   2.0000      -8.058902      -219.2939
  11   2.0000      -8.055411      -219.1989
  12   2.0000      -8.055358      -219.1974
  13   2.0000      -8.052454      -219.1184
  14   2.0000      -8.048978      -219.0238
  15   2.0000      -8.048902      -219.0218
  16   2.0000      -1.520744       -41.3815
  17   2.0000      -1.222999       -33.2795
  18   2.0000      -1.186437       -32.2846
  19   2.0000      -1.108803       -30.1721
  20   2.0000      -1.096739       -29.8438
  21   2.0000      -0.946818       -25.7642
  22   2.0000      -0.849031       -23.1033
  23   2.0000      -0.814964       -22.1763
  24   2.0000      -0.748347       -20.3635
  25   2.0000      -0.685359       -18.6496
  26   2.0000      -0.659657       -17.9502
  27   2.0000      -0.622327       -16.9344
  28   2.0000      -0.616193       -16.7675
  29   2.0000      -0.594664       -16.1816
  30   2.0000      -0.588093       -16.0028
  31   2.0000      -0.507065       -13.7980
  32   2.0000      -0.488401       -13.2901
  33   2.0000      -0.483636       -13.1604
  34   2.0000      -0.465659       -12.6712
  35   2.0000      -0.458656       -12.4807
  36   2.0000      -0.445300       -12.1172
  37   2.0000      -0.381690       -10.3863
  38   0.0000       0.032083         0.8730
  39   0.0000       0.042581         1.1587
  40   0.0000       0.049077         1.3355
  41   0.0000       0.067821         1.8455
  42   0.0000       0.081292         2.2121

MULLIKEN ATOMIC CHARGES
-----------------------
   0 Cl:    0.000090
   1 Cl:    0.010081
   2 O :   -0.942680
   3 N :   -0.213136
   4 C :    1.056779
   5 C :   -0.624522
   6 C :    0.738483
   7 C :    0.401180
   8 H :    0.046969
   9 H :   -0.305826
  10 H :   -0.167418
Sum of atomic charges:    0.0000000

LOEWDIN ATOMIC CHARGES
----------------------
   0 Cl:    0.522089
   1 Cl:    0.501017
   2 O :    0.056720
   3 N :    0.045618
   4 C :   -0.316238
   5 C :   -0.767015
   6 C :    0.039945
   7 C :   -0.042711
   8 H :   -0.042212
   9 H :   -0.004880
  10 H :    0.007667

  Mayer bond orders larger than 0.100000
B(  0-Cl,  4-C ) :  -0.3141 B(  0-Cl,  5-C ) :   1.3410 B(  1-Cl,  4-C ) :  -0.1699
B(  1-Cl,  5-C ) :   1.1992 B(  2-O ,  3-N ) :   0.6812 B(  2-O ,  4-C ) :   0.6635
B(  3-N ,  7-C ) :   1.3276 B(  4-C ,  5-C ) :   0.7569 B(  4-C ,  6-C ) :   1.5422
B(  4-C ,  7-C ) :   0.1201 B(  4-C ,  9-H ) :   0.2663 B(  5-C ,  6-C ) :  -0.1210
B(  5-C ,  7-C ) :   0.1535 B(  5-C ,  8-H ) :   1.0661 B(  6-C ,  7-C ) :   1.0447
B(  6-C ,  9-H ) :   0.5116 B(  7-C ,  9-H ) :   0.1222 B(  7-C , 10-H ) :   0.8814

MP2 TOTAL ENERGY:    -1202.707774850 Eh
FINAL SINGLE POINT ENERGY     -1202.707774849596

DIPOLE MOMENT
-------------
                                X             Y             Z
Electronic contribution:     -7.73608       1.20392       0.19191
Nuclear contribution   :      7.71085      -1.99611      -0.61198
                        -----------------------------------------
Total Dipole Moment    :     -0.02523      -0.79219      -0.42007
                        -----------------------------------------
Magnitude (a.u.)       :      0.89703
Magnitude (Debye)      :      2.28007

Rotational constants in cm-1:     0.079285     0.033353     0.026464
Rotational constants in MHz :  2376.909270   999.883461   793.382868

                             ****ORCA TERMINATED NORMALLY****
TOTAL RUN TIME: 0 days 0 hours 0 minutes 42 seconds 736 msec
