                         Program Version 5.0.3 -  RELEASE  -
|  1> !ri-mp2 aug-cc-pvdz aug-cc-pvdz/c tightscf
|  2> %pal nprocs 16 end
|  3>
|  4> * xyz 0 1
|  5> N     -1.139760   -0.058016    0.000000
|  6> C      0.000000    0.597494    0.000000
|  7> C      0.176443    2.072182    0.000000
|  8> H      0.723233    2.405707    0.882916
|  9> H      0.723233    2.405707   -0.882916
| 10> H     -0.803151    2.542233    0.000000
| 11> N      0.988808   -0.317104    0.000000
| 12> N      0.447343   -1.553756    0.000000
| 13> N     -0.823573   -1.381071    0.000000
| 14> H      1.988304   -0.202077    0.000000
| 15> *
| 16>
| 17>                          ****END OF INPUT****

CARTESIAN COORDINATES (ANGSTROEM)
---------------------------------
  N     -1.139760   -0.058016    0.000000
  C      0.000000    0.597494    0.000000
  C      0.176443    2.072182    0.000000
  H      0.723233    2.405707    0.882916
  H      0.723233    2.405707   -0.882916
  H     -0.803151    2.542233    0.000000
  N      0.988808   -0.317104    0.000000
  N      0.447343   -1.553756    0.000000
  N     -0.823573   -1.381071    0.000000
  H      1.988304   -0.202077    0.000000

 Total Charge           Charge          ....    0
 Multiplicity           Mult            ....    1
 Number of Electrons    NEL             ....   44
 Basis Dimension        Dim             ....  174

ORBITAL ENERGIES
----------------

  NO   OCC          E(Eh)            E(eV)
   0   2.0000     -15.676617      -426.5824
   1   2.0000     -15.663145      -426.2159
   2   2.0000     -15.648828      -425.8263
   3   2.0000     -15.600331      -424.5066
   4   2.0000     -11.343072      -308.6607
   5   2.0000     -11.273775      -306.7750
   6   2.0000      -1.491897       -40.5966
   7   2.0000      -1.250197       -34.0196
   8   2.0000      -1.203764       -32.7561
   9   2.0000      -1.023876       -27.8611
  10   2.0000      -0.898277       -24.4434
  11   2.0000      -0.864903       -23.5352
  12   2.0000      -0.763670       -20.7805
  13   2.0000      -0.680299       -18.5119
  14   2.0000      -0.637035       -17.3346
  15   2.0000      -0.600695       -16.3457
  16   2.0000      -0.598043       -16.2736
  17   2.0000      -0.556587       -15.1455
  18   2.0000      -0.469273       -12.7696
  19   2.0000      -0.464370       -12.6362
  20   2.0000      -0.448999       -12.2179
  21   2.0000      -0.403278       -10.9737
  22   0.0000       0.020684         0.5629
  23   0.0000       0.040466         1.1011
  24   0.0000       0.045866         1.2481
  25   0.0000       0.062303         1.6953
  26   0.0000       0.087796         2.3891

MULLIKEN ATOMIC CHARGES
-----------------------
   0 N :   -0.554903
   1 C :    0.758073
   2 C :    0.483142
   3 H :    0.034831
   4 H :    0.034831
   5 H :   -0.027061
   6 N :   -0.263372
   7 N :   -0.191346
   8 N :   -0.246235
   9 H :   -0.027958
Sum of atomic charges:    0.0000000

LOEWDIN ATOMIC CHARGES
----------------------
   0 N :    0.008514
   1 C :   -0.266955
   2 C :    0.210322
   3 H :   -0.003983
   4 H :   -0.003983
   5 H :   -0.000562
   6 N :    0.060715
   7 N :    0.005129
   8 N :   -0.047286
   9 H :    0.038088

  Mayer bond orders larger than 0.100000
B(  0-N ,  1-C ) :   1.2339 B(  0-N ,  7-N ) :   0.1189 B(  0-N ,  8-N ) :   0.9296
B(  1-C ,  2-C ) :   1.1234 B(  1-C ,  5-H ) :   0.1861 B(  1-C ,  6-N ) :   0.8337
B(  1-C ,  7-N ) :  -0.1661 B(  1-C ,  8-N ) :  -0.1224 B(  2-C ,  3-H ) :   0.8935
B(  2-C ,  4-H ) :   0.8935 B(  2-C ,  5-H ) :   0.8618 B(  6-N ,  7-N ) :   1.0674
B(  6-N ,  9-H ) :   1.1468 B(  7-N ,  8-N ) :   1.1972 B(  7-N ,  9-H ) :  -0.1132

MP2 TOTAL ENERGY:     -296.809822578 Eh
FINAL SINGLE POINT ENERGY      -296.809822577615

DIPOLE MOMENT
-------------
                                X             Y             Z
Electronic contribution:     -0.90394      -5.33559      -0.00000
Nuclear contribution   :      2.58330       7.00942       0.00000
                        -----------------------------------------
Total Dipole Moment    :      1.67935       1.67383      -0.00000
                        -----------------------------------------
Magnitude (a.u.)       :      2.37106
Magnitude (Debye)      :      6.02675

Rotational constants in cm-1:     0.330446     0.122351     0.090802
Rotational constants in MHz :  9906.535513  3667.999992  2722.182523

                             ****ORCA TERMINATED NORMALLY****
TOTAL RUN TIME: 0 days 0 hours 0 minutes 29 seconds 994 msec
