                         Program Version 5.0.3 -  RELEASE  -
|  1> !ri-mp2 aug-cc-pvdz aug-cc-pvdz/c tightscf
|  2> %pal nprocs 16 end
|  3>
|  4> * xyz 0 1
|  5> Cl   -2.933937   -0.850434   -0.000044
|  6> O    -0.346846   -0.549858   -0.000006
|  7> O     4.235353   -0.675671   -0.000125
|  8> N     3.080676   -0.335472   -0.000056
|  9> C     0.058308    1.657615    0.000110
| 10> C     0.637991    0.420462    0.000047
| 11> C    -1.349070    1.455584    0.000089
| 12> C    -1.524517    0.108140    0.000020
| 13> C     1.968174   -0.006252    0.000050
| 14> H     0.583129    2.596701    0.000164
| 15> H    -2.124310    2.199912    0.000120
| 16> *
| 17>
| 18>                          ****END OF INPUT****

CARTESIAN COORDINATES (ANGSTROEM)
---------------------------------
  Cl    -2.933937   -0.850434   -0.000044
  O     -0.346846   -0.549858   -0.000006
  O      4.235353   -0.675671   -0.000125
  N      3.080676   -0.335472   -0.000056
  C      0.058308    1.657615    0.000110
  C      0.637991    0.420462    0.000047
  C     -1.349070    1.455584    0.000089
  C     -1.524517    0.108140    0.000020
  C      1.968174   -0.006252    0.000050
  H      0.583129    2.596701    0.000164
  H     -2.124310    2.199912    0.000120

 Total Charge           Charge          ....    0
 Multiplicity           Mult            ....    1
 Number of Electrons    NEL             ....   72
 Basis Dimension        Dim             ....  229

ORBITAL ENERGIES
----------------

  NO   OCC          E(Eh)            E(eV)
   0   2.0000    -104.885667     -2854.0841
   1   2.0000     -20.685163      -562.8719
   2   2.0000     -20.593367      -560.3740
   3   2.0000     -15.764361      -428.9701
   4   2.0000     -11.397485      -310.1413
   5   2.0000     -11.365171      -309.2620
   6   2.0000     -11.333637      -308.4039
   7   2.0000     -11.297264      -307.4142
   8   2.0000     -11.280801      -306.9662
   9   2.0000     -10.611405      -288.7510
  10   2.0000      -8.079399      -219.8516
  11   2.0000      -8.075645      -219.7495
  12   2.0000      -8.075580      -219.7477
  13   2.0000      -1.520594       -41.3775
  14   2.0000      -1.512541       -41.1583
  15   2.0000      -1.238614       -33.7044
  16   2.0000      -1.193565       -32.4785
  17   2.0000      -1.143744       -31.1229
  18   2.0000      -1.051862       -28.6226
  19   2.0000      -0.889259       -24.1980
  20   2.0000      -0.840979       -22.8842
  21   2.0000      -0.801882       -21.8203
  22   2.0000      -0.737487       -20.0680
  23   2.0000      -0.704447       -19.1690
  24   2.0000      -0.680586       -18.5197
  25   2.0000      -0.675895       -18.3920
  26   2.0000      -0.675573       -18.3833
  27   2.0000      -0.631535       -17.1849
  28   2.0000      -0.617267       -16.7967
  29   2.0000      -0.599709       -16.3189
  30   2.0000      -0.531301       -14.4574
  31   2.0000      -0.500906       -13.6303
  32   2.0000      -0.462580       -12.5874
  33   2.0000      -0.425382       -11.5752
  34   2.0000      -0.405871       -11.0443
  35   2.0000      -0.331866        -9.0305
  36   0.0000       0.024378         0.6634
  37   0.0000       0.040425         1.1000
  38   0.0000       0.060593         1.6488
  39   0.0000       0.062570         1.7026
  40   0.0000       0.077935         2.1207

MULLIKEN ATOMIC CHARGES
-----------------------
   0 Cl:   -0.179278
   1 O :   -0.987315
   2 O :   -0.871314
   3 N :    0.543615
   4 C :    0.053854
   5 C :    1.974196
   6 C :    0.929375
   7 C :   -0.055098
   8 C :   -0.805228
   9 H :   -0.374510
  10 H :   -0.228297
Sum of atomic charges:   -0.0000000

LOEWDIN ATOMIC CHARGES
----------------------
   0 Cl:    0.634862
   1 O :    0.088885
   2 O :   -0.002012
   3 N :   -0.172564
   4 C :    0.074538
   5 C :   -0.212354
   6 C :    0.004861
   7 C :   -0.586382
   8 C :    0.157414
   9 H :    0.013929
  10 H :   -0.001176

  Mayer bond orders larger than 0.100000
B(  0-Cl,  6-C ) :  -0.2968 B(  0-Cl,  7-C ) :   1.2846 B(  1-O ,  3-N ) :  -0.1057
B(  1-O ,  5-C ) :   0.1622 B(  1-O ,  6-C ) :  -0.1273 B(  1-O ,  7-C ) :   0.9854
B(  1-O ,  8-C ) :   0.4804 B(  2-O ,  3-N ) :   1.0841 B(  2-O ,  8-C ) :   0.1248
B(  3-N ,  8-C ) :   2.2714 B(  4-C ,  5-C ) :   1.2619 B(  4-C ,  6-C ) :   1.4462
B(  4-C ,  9-H ) :   0.6117 B(  5-C ,  7-C ) :  -0.1893 B(  5-C ,  8-C ) :  -0.6009
B(  6-C ,  7-C ) :   0.9409 B(  6-C ,  8-C ) :  -0.1501 B(  6-C ,  9-H ) :   0.1493
B(  6-C , 10-H ) :   0.7127 B(  7-C ,  8-C ) :   0.2734

MP2 TOTAL ENERGY:     -855.458027847 Eh
FINAL SINGLE POINT ENERGY      -855.458027846983

DIPOLE MOMENT
-------------
                                X             Y             Z
Electronic contribution:     -4.30783      -4.38156      -0.00020
Nuclear contribution   :      2.57731       5.64517       0.00032
                        -----------------------------------------
Total Dipole Moment    :     -1.73052       1.26361       0.00012
                        -----------------------------------------
Magnitude (a.u.)       :      2.14276
Magnitude (Debye)      :      5.44647

Rotational constants in cm-1:     0.151270     0.020233     0.017846
Rotational constants in MHz :  4534.964825   606.578322   535.016682

                             ****ORCA TERMINATED NORMALLY****
TOTAL RUN TIME: 0 days 0 hours 0 minutes 51 seconds 117 msec
