                         Program Version 5.0.3 -  RELEASE  -
|  1> !ri-mp2 aug-cc-pvdz aug-cc-pvdz/c tightscf
|  2> %pal nprocs 16 end
|  3>
|  4> * xyz 0 1
|  5> S     1.303707    1.137937   -0.000005
|  6> F     2.339801   -1.305984    0.000004
|  7> N    -3.545099   -0.372952    0.000002
|  8> C    -0.996543   -0.005333    0.000000
|  9> C    -0.047454   -1.079338    0.000004
| 10> C    -0.415563    1.234811   -0.000005
| 11> C     1.215353   -0.596779    0.000002
| 12> C    -2.404958   -0.204569    0.000001
| 13> H    -0.299796   -2.127042    0.000008
| 14> H    -0.907038    2.191826   -0.000008
| 15> *
| 16>
| 17>                          ****END OF INPUT****

CARTESIAN COORDINATES (ANGSTROEM)
---------------------------------
  S      1.303707    1.137937   -0.000005
  F      2.339801   -1.305984    0.000004
  N     -3.545099   -0.372952    0.000002
  C     -0.996543   -0.005333    0.000000
  C     -0.047454   -1.079338    0.000004
  C     -0.415563    1.234811   -0.000005
  C      1.215353   -0.596779    0.000002
  C     -2.404958   -0.204569    0.000001
  H     -0.299796   -2.127042    0.000008
  H     -0.907038    2.191826   -0.000008

 Total Charge           Charge          ....    0
 Multiplicity           Mult            ....    1
 Number of Electrons    NEL             ....   64
 Basis Dimension        Dim             ....  206

ORBITAL ENERGIES
----------------

  NO   OCC          E(Eh)            E(eV)
   0   2.0000     -92.034166     -2504.3770
   1   2.0000     -26.369350      -717.5465
   2   2.0000     -15.596705      -424.4079
   3   2.0000     -11.393002      -310.0194
   4   2.0000     -11.319968      -308.0320
   5   2.0000     -11.313966      -307.8687
   6   2.0000     -11.299104      -307.4643
   7   2.0000     -11.284160      -307.0576
   8   2.0000      -9.036554      -245.8971
   9   2.0000      -6.718069      -182.8079
  10   2.0000      -6.717264      -182.7860
  11   2.0000      -6.715218      -182.7304
  12   2.0000      -1.681022       -45.7429
  13   2.0000      -1.247261       -33.9397
  14   2.0000      -1.218277       -33.1510
  15   2.0000      -1.055173       -28.7127
  16   2.0000      -1.040749       -28.3202
  17   2.0000      -0.867366       -23.6022
  18   2.0000      -0.848291       -23.0832
  19   2.0000      -0.774226       -21.0678
  20   2.0000      -0.739649       -20.1269
  21   2.0000      -0.731497       -19.9050
  22   2.0000      -0.693803       -18.8793
  23   2.0000      -0.620589       -16.8871
  24   2.0000      -0.587955       -15.9991
  25   2.0000      -0.578088       -15.7306
  26   2.0000      -0.563574       -15.3356
  27   2.0000      -0.529717       -14.4143
  28   2.0000      -0.499554       -13.5936
  29   2.0000      -0.479904       -13.0588
  30   2.0000      -0.389174       -10.5900
  31   2.0000      -0.359831        -9.7915
  32   0.0000       0.031938         0.8691
  33   0.0000       0.039639         1.0786
  34   0.0000       0.060603         1.6491
  35   0.0000       0.061018         1.6604
  36   0.0000       0.078484         2.1356

MULLIKEN ATOMIC CHARGES
-----------------------
   0 S :    0.679524
   1 F :   -0.720053
   2 N :   -0.264405
   3 C :    1.714245
   4 C :   -0.016310
   5 C :   -0.136317
   6 C :    0.344344
   7 C :   -0.760702
   8 H :   -0.394969
   9 H :   -0.445357
Sum of atomic charges:    0.0000000

LOEWDIN ATOMIC CHARGES
----------------------
   0 S :    1.019569
   1 F :    0.045213
   2 N :    0.092790
   3 C :   -0.328654
   4 C :    0.000650
   5 C :   -0.215353
   6 C :   -0.463466
   7 C :   -0.127227
   8 H :    0.012535
   9 H :   -0.036058

  Mayer bond orders larger than 0.100000
B(  0-S ,  3-C ) :  -0.1438 B(  0-S ,  4-C ) :   0.1533 B(  0-S ,  5-C ) :   1.1252
B(  0-S ,  6-C ) :   0.9479 B(  0-S ,  9-H ) :  -0.1512 B(  1-F ,  4-C ) :   0.3375
B(  2-N ,  7-C ) :   2.4771 B(  3-C ,  4-C ) :   1.2419 B(  3-C ,  5-C ) :   1.5412
B(  3-C ,  6-C ) :  -0.2116 B(  3-C ,  7-C ) :   0.2513 B(  3-C ,  9-H ) :   0.1368
B(  4-C ,  5-C ) :  -0.3386 B(  4-C ,  6-C ) :   1.8897 B(  4-C ,  7-C ) :  -0.2426
B(  4-C ,  8-H ) :   0.6643 B(  5-C ,  6-C ) :   0.1461 B(  5-C ,  7-C ) :  -0.2304
B(  5-C ,  9-H ) :   0.8399 B(  6-C ,  7-C ) :   0.1715

MP2 TOTAL ENERGY:     -743.081708226 Eh
FINAL SINGLE POINT ENERGY      -743.081708225708

DIPOLE MOMENT
-------------
                                X             Y             Z
Electronic contribution:      4.51219      -0.71889       0.00000
Nuclear contribution   :     -3.38331       1.24536      -0.00000
                        -----------------------------------------
Total Dipole Moment    :      1.12889       0.52647      -0.00000
                        -----------------------------------------
Magnitude (a.u.)       :      1.24562
Magnitude (Debye)      :      3.16610

Rotational constants in cm-1:     0.137800     0.038611     0.030160
Rotational constants in MHz :  4131.137092  1157.525771   904.178952

                             ****ORCA TERMINATED NORMALLY****
TOTAL RUN TIME: 0 days 0 hours 0 minutes 38 seconds 454 msec
