                         Program Version 5.0.3 -  RELEASE  -
|  1> !ri-mp2 aug-cc-pvdz aug-cc-pvdz/c tightscf
|  2> %pal nprocs 16 end
|  3>
|  4> * xyz 0 1
|  5> C     -0.346200    2.073702    0.000000
|  6> H     -0.936846    2.330581    0.880543
|  7> H      0.558932    2.676627    0.000000
|  8> H     -0.936846    2.330581   -0.880543
|  9> C      0.000000    0.630252    0.000000
| 10> O     -1.025177   -0.242897    0.000000
| 11> N     -0.522613   -1.551143    0.000000
| 12> C      0.774494   -1.414513    0.000000
| 13> H      1.390658   -2.299799    0.000000
| 14> C      1.173944   -0.053727    0.000000
| 15> H      2.170386    0.348899    0.000000
| 16> *
| 17>
| 18>                          ****END OF INPUT****

CARTESIAN COORDINATES (ANGSTROEM)
---------------------------------
  C     -0.346200    2.073702    0.000000
  H     -0.936846    2.330581    0.880543
  H      0.558932    2.676627    0.000000
  H     -0.936846    2.330581   -0.880543
  C      0.000000    0.630252    0.000000
  O     -1.025177   -0.242897    0.000000
  N     -0.522613   -1.551143    0.000000
  C      0.774494   -1.414513    0.000000
  H      1.390658   -2.299799    0.000000
  C      1.173944   -0.053727    0.000000
  H      2.170386    0.348899    0.000000

 Total Charge           Charge          ....    0
 Multiplicity           Mult            ....    1
 Number of Electrons    NEL             ....   44
 Basis Dimension        Dim             ....  183

ORBITAL ENERGIES
----------------

  NO   OCC          E(Eh)            E(eV)
   0   2.0000     -20.648343      -561.8700
   1   2.0000     -15.626564      -425.2204
   2   2.0000     -11.326926      -308.2213
   3   2.0000     -11.285442      -307.0925
   4   2.0000     -11.257393      -306.3292
   5   2.0000     -11.239305      -305.8370
   6   2.0000      -1.492381       -40.6098
   7   2.0000      -1.170688       -31.8560
   8   2.0000      -1.093052       -29.7434
   9   2.0000      -0.984388       -26.7865
  10   2.0000      -0.827293       -22.5118
  11   2.0000      -0.795714       -21.6525
  12   2.0000      -0.705367       -19.1940
  13   2.0000      -0.661668       -18.0049
  14   2.0000      -0.623167       -16.9572
  15   2.0000      -0.583940       -15.8898
  16   2.0000      -0.580083       -15.7849
  17   2.0000      -0.566525       -15.4159
  18   2.0000      -0.551628       -15.0106
  19   2.0000      -0.475394       -12.9361
  20   2.0000      -0.426272       -11.5994
  21   2.0000      -0.356699        -9.7063
  22   0.0000       0.030459         0.8288
  23   0.0000       0.037736         1.0268
  24   0.0000       0.049554         1.3484
  25   0.0000       0.057849         1.5741
  26   0.0000       0.066084         1.7982

MULLIKEN ATOMIC CHARGES
-----------------------
   0 C :    0.497349
   1 H :    0.047649
   2 H :   -0.038213
   3 H :    0.047649
   4 C :    0.049164
   5 O :   -0.941960
   6 N :   -0.317218
   7 C :    0.650503
   8 H :   -0.199845
   9 C :    0.564404
  10 H :   -0.359482
Sum of atomic charges:   -0.0000000

LOEWDIN ATOMIC CHARGES
----------------------
   0 C :    0.198921
   1 H :   -0.001295
   2 H :   -0.006368
   3 H :   -0.001295
   4 C :   -0.238005
   5 O :    0.053447
   6 N :    0.026532
   7 C :   -0.061397
   8 H :    0.003558
   9 C :    0.035555
  10 H :   -0.009654

  Mayer bond orders larger than 0.100000
B(  0-C ,  1-H ) :   0.8267 B(  0-C ,  2-H ) :   0.8183 B(  0-C ,  3-H ) :   0.8267
B(  0-C ,  4-C ) :   1.2282 B(  0-C ,  7-C ) :   0.1869 B(  1-H ,  4-C ) :   0.1629
B(  2-H ,  4-C ) :   0.2465 B(  2-H ,  9-C ) :  -0.1067 B(  3-H ,  4-C ) :   0.1629
B(  4-C ,  5-O ) :   0.6696 B(  4-C ,  9-C ) :   1.6503 B(  4-C , 10-H ) :   0.2424
B(  5-O ,  6-N ) :   0.6698 B(  6-N ,  7-C ) :   1.3249 B(  7-C ,  8-H ) :   0.7974
B(  7-C ,  9-C ) :   1.1599 B(  9-C , 10-H ) :   0.5064

MP2 TOTAL ENERGY:     -284.589488036 Eh
FINAL SINGLE POINT ENERGY      -284.589488035608

DIPOLE MOMENT
-------------
                                X             Y             Z
Electronic contribution:     -1.18649      -4.36718      -0.00000
Nuclear contribution   :      2.21487       5.34454       0.00000
                        -----------------------------------------
Total Dipole Moment    :      1.02838       0.97736      -0.00000
                        -----------------------------------------
Magnitude (a.u.)       :      1.41873
Magnitude (Debye)      :      3.60612

Rotational constants in cm-1:     0.310778     0.118834     0.087356
Rotational constants in MHz :  9316.879348  3562.539210  2618.864881

                             ****ORCA TERMINATED NORMALLY****
TOTAL RUN TIME: 0 days 0 hours 0 minutes 31 seconds 911 msec
