                         Program Version 5.0.3 -  RELEASE  -
|  1> !ri-mp2 aug-cc-pvdz aug-cc-pvdz/c tightscf
|  2> %pal nprocs 16 end
|  3>
|  4> * xyz 0 1
|  5> N     2.935965   -0.304877   -0.073828
|  6> C     1.606186    0.090118    0.012997
|  7> S     0.316726   -1.115816   -0.018860
|  8> C    -0.949684    0.127458   -0.004415
|  9> S    -2.581806   -0.148817    0.010440
| 10> C     1.075661    1.327803    0.016693
| 11> N    -0.317561    1.323933   -0.009342
| 12> H     3.193890   -1.060264    0.544728
| 13> H     3.594248    0.457458   -0.006269
| 14> H     1.603851    2.266439    0.028808
| 15> H    -0.872523    2.164827   -0.002006
| 16> *
| 17>
| 18>                          ****END OF INPUT****

CARTESIAN COORDINATES (ANGSTROEM)
---------------------------------
  N      2.935965   -0.304877   -0.073828
  C      1.606186    0.090118    0.012997
  S      0.316726   -1.115816   -0.018860
  C     -0.949684    0.127458   -0.004415
  S     -2.581806   -0.148817    0.010440
  C      1.075661    1.327803    0.016693
  N     -0.317561    1.323933   -0.009342
  H      3.193890   -1.060264    0.544728
  H      3.594248    0.457458   -0.006269
  H      1.603851    2.266439    0.028808
  H     -0.872523    2.164827   -0.002006

 Total Charge           Charge          ....    0
 Multiplicity           Mult            ....    1
 Number of Electrons    NEL             ....   68
 Basis Dimension        Dim             ....  205

ORBITAL ENERGIES
----------------

  NO   OCC          E(Eh)            E(eV)
   0   2.0000     -92.008470     -2503.6777
   1   2.0000     -91.904431     -2500.8467
   2   2.0000     -15.647940      -425.8021
   3   2.0000     -15.609193      -424.7477
   4   2.0000     -11.381824      -309.7152
   5   2.0000     -11.333901      -308.4111
   6   2.0000     -11.296779      -307.4010
   7   2.0000      -9.011053      -245.2032
   8   2.0000      -8.907602      -242.3882
   9   2.0000      -6.692479      -182.1116
  10   2.0000      -6.691493      -182.0848
  11   2.0000      -6.689361      -182.0268
  12   2.0000      -6.590114      -179.3261
  13   2.0000      -6.586935      -179.2396
  14   2.0000      -6.586138      -179.2179
  15   2.0000      -1.335749       -36.3476
  16   2.0000      -1.250751       -34.0347
  17   2.0000      -1.078410       -29.3450
  18   2.0000      -1.060501       -28.8577
  19   2.0000      -0.935396       -25.4534
  20   2.0000      -0.824360       -22.4320
  21   2.0000      -0.817540       -22.2464
  22   2.0000      -0.733049       -19.9473
  23   2.0000      -0.688736       -18.7415
  24   2.0000      -0.671053       -18.2603
  25   2.0000      -0.616066       -16.7640
  26   2.0000      -0.600470       -16.3396
  27   2.0000      -0.529341       -14.4041
  28   2.0000      -0.510693       -13.8967
  29   2.0000      -0.501183       -13.6379
  30   2.0000      -0.421410       -11.4671
  31   2.0000      -0.385557       -10.4915
  32   2.0000      -0.327965        -8.9244
  33   2.0000      -0.289195        -7.8694
  34   0.0000       0.019506         0.5308
  35   0.0000       0.033067         0.8998
  36   0.0000       0.047894         1.3033
  37   0.0000       0.066448         1.8081
  38   0.0000       0.078658         2.1404

MULLIKEN ATOMIC CHARGES
-----------------------
   0 N :   -0.470003
   1 C :    0.116928
   2 S :    0.522520
   3 C :   -0.224494
   4 S :   -0.024606
   5 C :    1.042961
   6 N :   -0.570937
   7 H :   -0.012330
   8 H :    0.012013
   9 H :   -0.307375
  10 H :   -0.084677
Sum of atomic charges:    0.0000000

LOEWDIN ATOMIC CHARGES
----------------------
   0 N :    0.189635
   1 C :   -0.521181
   2 S :    0.987569
   3 C :   -0.991206
   4 S :    0.433488
   5 C :   -0.022238
   6 N :   -0.038677
   7 H :   -0.033358
   8 H :   -0.025474
   9 H :   -0.000762
  10 H :    0.022203

  Mayer bond orders larger than 0.100000
B(  0-N ,  1-C ) :   0.8104 B(  0-N ,  7-H ) :   1.1313 B(  0-N ,  8-H ) :   1.1108
B(  1-C ,  2-S ) :   1.0372 B(  1-C ,  5-C ) :   2.1254 B(  2-S ,  3-C ) :   0.9920
B(  3-C ,  4-S ) :   1.7446 B(  3-C ,  5-C ) :   0.1491 B(  3-C ,  6-N ) :   1.1707
B(  3-C , 10-H ) :  -0.1363 B(  5-C ,  6-N ) :   0.6040 B(  5-C ,  9-H ) :   0.7044
B(  5-C , 10-H ) :  -0.1621 B(  6-N , 10-H ) :   1.2643

MP2 TOTAL ENERGY:    -1020.947039480 Eh
FINAL SINGLE POINT ENERGY     -1020.947039479796

DIPOLE MOMENT
-------------
                                X             Y             Z
Electronic contribution:     -4.90739      -2.63231      -0.16076
Nuclear contribution   :      7.34644       3.74190       0.54584
                        -----------------------------------------
Total Dipole Moment    :      2.43905       1.10959       0.38508
                        -----------------------------------------
Magnitude (a.u.)       :      2.70711
Magnitude (Debye)      :      6.88093

Rotational constants in cm-1:     0.169474     0.040003     0.032412
Rotational constants in MHz :  5080.717017  1199.250110   971.674519

                             ****ORCA TERMINATED NORMALLY****
TOTAL RUN TIME: 0 days 0 hours 0 minutes 42 seconds 357 msec
