                         Program Version 5.0.3 -  RELEASE  -
|  1> !ri-mp2 aug-cc-pvdz aug-cc-pvdz/c tightscf
|  2> %pal nprocs 16 end
|  3>
|  4> * xyz 0 1
|  5> S     -1.220858    0.001998    0.091689
|  6> O     -0.018734   -1.194169   -0.271412
|  7> N      1.276449   -0.701292    0.081978
|  8> C      0.008231    1.252585   -0.070218
|  9> C      1.225589    0.721438   -0.045189
| 10> H      1.431922   -0.961286    1.061342
| 11> H     -0.249835    2.295344   -0.144943
| 12> H      2.163454    1.252241   -0.093527
| 13> *
| 14>
| 15>                          ****END OF INPUT****

CARTESIAN COORDINATES (ANGSTROEM)
---------------------------------
  S     -1.220858    0.001998    0.091689
  O     -0.018734   -1.194169   -0.271412
  N      1.276449   -0.701292    0.081978
  C      0.008231    1.252585   -0.070218
  C      1.225589    0.721438   -0.045189
  H      1.431922   -0.961286    1.061342
  H     -0.249835    2.295344   -0.144943
  H      2.163454    1.252241   -0.093527

 Total Charge           Charge          ....    0
 Multiplicity           Mult            ....    1
 Number of Electrons    NEL             ....   46
 Basis Dimension        Dim             ....  146

ORBITAL ENERGIES
----------------

  NO   OCC          E(Eh)            E(eV)
   0   2.0000     -92.020839     -2504.0143
   1   2.0000     -20.633985      -561.4793
   2   2.0000     -15.646513      -425.7633
   3   2.0000     -11.293995      -307.3252
   4   2.0000     -11.283504      -307.0397
   5   2.0000      -9.017019      -245.3656
   6   2.0000      -6.698827      -182.2844
   7   2.0000      -6.697289      -182.2425
   8   2.0000      -6.694423      -182.1645
   9   2.0000      -1.433557       -39.0091
  10   2.0000      -1.156976       -31.4829
  11   2.0000      -1.084346       -29.5065
  12   2.0000      -0.892979       -24.2992
  13   2.0000      -0.804559       -21.8932
  14   2.0000      -0.728080       -19.8121
  15   2.0000      -0.682472       -18.5710
  16   2.0000      -0.611593       -16.6423
  17   2.0000      -0.577403       -15.7119
  18   2.0000      -0.536090       -14.5878
  19   2.0000      -0.517281       -14.0759
  20   2.0000      -0.465236       -12.6597
  21   2.0000      -0.427071       -11.6212
  22   2.0000      -0.316224        -8.6049
  23   0.0000       0.031921         0.8686
  24   0.0000       0.042519         1.1570
  25   0.0000       0.051316         1.3964
  26   0.0000       0.077086         2.0976
  27   0.0000       0.082705         2.2505

MULLIKEN ATOMIC CHARGES
-----------------------
   0 S :    0.644165
   1 O :   -0.967302
   2 N :   -0.104571
   3 C :    0.128622
   4 C :    0.685142
   5 H :    0.136100
   6 H :   -0.352620
   7 H :   -0.169536
Sum of atomic charges:   -0.0000000

LOEWDIN ATOMIC CHARGES
----------------------
   0 S :    0.820487
   1 O :   -0.285965
   2 N :   -0.010424
   3 C :   -0.316688
   4 C :   -0.122726
   5 H :   -0.024993
   6 H :   -0.053719
   7 H :   -0.005972

  Mayer bond orders larger than 0.100000
B(  0-S ,  1-O ) :   0.5926 B(  0-S ,  3-C ) :   0.8748 B(  1-O ,  2-N ) :   0.7399
B(  1-O ,  4-C ) :  -0.1324 B(  2-N ,  4-C ) :   0.7853 B(  2-N ,  5-H ) :   0.9749
B(  3-C ,  4-C ) :   2.0641 B(  3-C ,  6-H ) :   0.8805 B(  4-C ,  6-H ) :   0.1477
B(  4-C ,  7-H ) :   0.8742

MP2 TOTAL ENERGY:     -605.005199287 Eh
FINAL SINGLE POINT ENERGY      -605.005199287011

DIPOLE MOMENT
-------------
                                X             Y             Z
Electronic contribution:     -2.91361      -1.49434      -0.20453
Nuclear contribution   :      3.28690       2.48504       0.79132
                        -----------------------------------------
Total Dipole Moment    :      0.37329       0.99070       0.58679
                        -----------------------------------------
Magnitude (a.u.)       :      1.21043
Magnitude (Debye)      :      3.07667

Rotational constants in cm-1:     0.258192     0.171757     0.106707
Rotational constants in MHz :  7740.413509  5149.134641  3199.009830

                             ****ORCA TERMINATED NORMALLY****
TOTAL RUN TIME: 0 days 0 hours 0 minutes 27 seconds 177 msec
