                         Program Version 5.0.3 -  RELEASE  -
|  1> !ri-mp2 aug-cc-pvdz aug-cc-pvdz/c tightscf
|  2> %pal nprocs 16 end
|  3>
|  4> * xyz 0 1
|  5> C      0.151624    1.390687    0.000000
|  6> C      0.020289    0.194427    0.000000
|  7> C      0.300477    2.743694    0.000000
|  8> C     -0.137549   -1.254142    0.000000
|  9> C      0.432336    3.940048    0.000000
| 10> H      0.548834    4.995753    0.000000
| 11> F      0.432336   -1.811612    1.085585
| 12> F      0.432336   -1.811612   -1.085585
| 13> F     -1.437103   -1.608337    0.000000
| 14> *
| 15>
| 16>                          ****END OF INPUT****

CARTESIAN COORDINATES (ANGSTROEM)
---------------------------------
  C      0.151624    1.390687    0.000000
  C      0.020289    0.194427    0.000000
  C      0.300477    2.743694    0.000000
  C     -0.137549   -1.254142    0.000000
  C      0.432336    3.940048    0.000000
  H      0.548834    4.995753    0.000000
  F      0.432336   -1.811612    1.085585
  F      0.432336   -1.811612   -1.085585
  F     -1.437103   -1.608337    0.000000

 Total Charge           Charge          ....    0
 Multiplicity           Mult            ....    1
 Number of Electrons    NEL             ....   58
 Basis Dimension        Dim             ....  193

ORBITAL ENERGIES
----------------

  NO   OCC          E(Eh)            E(eV)
   0   2.0000     -26.366381      -717.4657
   1   2.0000     -26.366377      -717.4656
   2   2.0000     -26.366349      -717.4648
   3   2.0000     -11.560041      -314.5647
   4   2.0000     -11.315863      -307.9203
   5   2.0000     -11.296631      -307.3970
   6   2.0000     -11.296364      -307.3897
   7   2.0000     -11.292642      -307.2884
   8   2.0000      -1.748470       -47.5783
   9   2.0000      -1.652706       -44.9724
  10   2.0000      -1.652687       -44.9719
  11   2.0000      -1.136516       -30.9262
  12   2.0000      -1.078411       -29.3450
  13   2.0000      -1.006870       -27.3983
  14   2.0000      -0.896212       -24.3872
  15   2.0000      -0.843705       -22.9584
  16   2.0000      -0.838673       -22.8215
  17   2.0000      -0.838669       -22.8214
  18   2.0000      -0.741420       -20.1751
  19   2.0000      -0.723003       -19.6739
  20   2.0000      -0.722998       -19.6738
  21   2.0000      -0.675750       -18.3881
  22   2.0000      -0.675747       -18.3880
  23   2.0000      -0.661073       -17.9887
  24   2.0000      -0.647873       -17.6295
  25   2.0000      -0.522178       -14.2092
  26   2.0000      -0.522177       -14.2092
  27   2.0000      -0.400047       -10.8858
  28   2.0000      -0.400044       -10.8857
  29   0.0000       0.027563         0.7500
  30   0.0000       0.064829         1.7641
  31   0.0000       0.064961         1.7677
  32   0.0000       0.064963         1.7677
  33   0.0000       0.074736         2.0337

MULLIKEN ATOMIC CHARGES
-----------------------
   0 C :    1.701088
   1 C :   -1.849667
   2 C :    0.293591
   3 C :    2.280998
   4 C :   -0.007202
   5 H :   -0.625512
   6 F :   -0.597711
   7 F :   -0.597711
   8 F :   -0.597874
Sum of atomic charges:   -0.0000000

LOEWDIN ATOMIC CHARGES
----------------------
   0 C :   -0.041488
   1 C :    0.101200
   2 C :   -0.114813
   3 C :   -0.395777
   4 C :    0.271699
   5 H :   -0.085529
   6 F :    0.088264
   7 F :    0.088264
   8 F :    0.088181

  Mayer bond orders larger than 0.100000
B(  0-C ,  1-C ) :   0.9715 B(  0-C ,  2-C ) :   1.9014 B(  0-C ,  3-C ) :  -0.2532
B(  0-C ,  4-C ) :  -1.1267 B(  0-C ,  5-H ) :  -0.1863 B(  0-C ,  6-F ) :  -0.1059
B(  0-C ,  7-F ) :  -0.1059 B(  0-C ,  8-F ) :  -0.1052 B(  1-C ,  2-C ) :  -1.1973
B(  1-C ,  3-C ) :   1.3601 B(  1-C ,  4-C ) :   1.0964 B(  1-C ,  5-H ) :   0.2713
B(  1-C ,  6-F ) :   0.4783 B(  1-C ,  7-F ) :   0.4783 B(  1-C ,  8-F ) :   0.4763
B(  2-C ,  4-C ) :   2.0086 B(  2-C ,  5-H ) :   0.3153 B(  3-C ,  6-F ) :   0.1130
B(  3-C ,  7-F ) :   0.1130 B(  3-C ,  8-F ) :   0.1138

MP2 TOTAL ENERGY:     -489.405696117 Eh
FINAL SINGLE POINT ENERGY      -489.405696116524

DIPOLE MOMENT
-------------
                                X             Y             Z
Electronic contribution:     -0.88822      -8.10339      -0.00000
Nuclear contribution   :      1.02801       9.37658       0.00000
                        -----------------------------------------
Total Dipole Moment    :      0.13979       1.27319      -0.00000
                        -----------------------------------------
Magnitude (a.u.)       :      1.28084
Magnitude (Debye)      :      3.25564

Rotational constants in cm-1:     0.188218     0.029676     0.029676
Rotational constants in MHz :  5642.646667   889.676843   889.664180

                             ****ORCA TERMINATED NORMALLY****
TOTAL RUN TIME: 0 days 0 hours 0 minutes 32 seconds 851 msec
