                         Program Version 5.0.3 -  RELEASE  -
|  1> !ri-mp2 aug-cc-pvdz aug-cc-pvdz/c tightscf
|  2> %pal nprocs 16 end
|  3>
|  4> * xyz 0 1
|  5> Cl   -2.472282   -0.267612   -0.000030
|  6> S     0.639929   -1.110653    0.000024
|  7> N     1.179481    1.352505   -0.000015
|  8> N     2.252013   -0.695943   -0.000013
|  9> C     0.152322    0.548818    0.000016
| 10> C     2.324073    0.610198   -0.000029
| 11> C    -1.251803    1.057260    0.000047
| 12> H     3.286720    1.101720   -0.000055
| 13> H    -1.432399    1.662317   -0.884472
| 14> H    -1.432404    1.662208    0.884642
| 15> *
| 16>
| 17>                          ****END OF INPUT****

CARTESIAN COORDINATES (ANGSTROEM)
---------------------------------
  Cl    -2.472282   -0.267612   -0.000030
  S      0.639929   -1.110653    0.000024
  N      1.179481    1.352505   -0.000015
  N      2.252013   -0.695943   -0.000013
  C      0.152322    0.548818    0.000016
  C      2.324073    0.610198   -0.000029
  C     -1.251803    1.057260    0.000047
  H      3.286720    1.101720   -0.000055
  H     -1.432399    1.662317   -0.884472
  H     -1.432404    1.662208    0.884642

 Total Charge           Charge          ....    0
 Multiplicity           Mult            ....    1
 Number of Electrons    NEL             ....   68
 Basis Dimension        Dim             ....  196

ORBITAL ENERGIES
----------------

  NO   OCC          E(Eh)            E(eV)
   0   2.0000    -104.852474     -2853.1809
   1   2.0000     -92.034018     -2504.3730
   2   2.0000     -15.610393      -424.7804
   3   2.0000     -15.598540      -424.4578
   4   2.0000     -11.355763      -309.0060
   5   2.0000     -11.341707      -308.6235
   6   2.0000     -11.330886      -308.3291
   7   2.0000     -10.578361      -287.8518
   8   2.0000      -9.033493      -245.8138
   9   2.0000      -8.046027      -218.9435
  10   2.0000      -8.042824      -218.8564
  11   2.0000      -8.042632      -218.8511
  12   2.0000      -6.714905      -182.7219
  13   2.0000      -6.713659      -182.6879
  14   2.0000      -6.711837      -182.6384
  15   2.0000      -1.354261       -36.8513
  16   2.0000      -1.201410       -32.6920
  17   2.0000      -1.162818       -31.6419
  18   2.0000      -1.052554       -28.6415
  19   2.0000      -0.965182       -26.2639
  20   2.0000      -0.831855       -22.6359
  21   2.0000      -0.788218       -21.4485
  22   2.0000      -0.698995       -19.0206
  23   2.0000      -0.672676       -18.3044
  24   2.0000      -0.636965       -17.3327
  25   2.0000      -0.593607       -16.1529
  26   2.0000      -0.570202       -15.5160
  27   2.0000      -0.545533       -14.8447
  28   2.0000      -0.483259       -13.1502
  29   2.0000      -0.471101       -12.8193
  30   2.0000      -0.467108       -12.7107
  31   2.0000      -0.450026       -12.2458
  32   2.0000      -0.423037       -11.5114
  33   2.0000      -0.382820       -10.4171
  34   0.0000       0.034738         0.9453
  35   0.0000       0.043735         1.1901
  36   0.0000       0.048569         1.3216
  37   0.0000       0.067893         1.8475
  38   0.0000       0.078972         2.1489

MULLIKEN ATOMIC CHARGES
-----------------------
   0 Cl:   -0.008347
   1 S :    0.769015
   2 N :   -0.784795
   3 N :   -0.961957
   4 C :   -0.202649
   5 C :    1.076937
   6 C :   -0.081779
   7 H :   -0.143108
   8 H :    0.168338
   9 H :    0.168347
Sum of atomic charges:    0.0000000

LOEWDIN ATOMIC CHARGES
----------------------
   0 Cl:    0.471615
   1 S :    0.978230
   2 N :   -0.020864
   3 N :   -0.310553
   4 C :   -0.572753
   5 C :   -0.193076
   6 C :   -0.311664
   7 H :   -0.002586
   8 H :   -0.019175
   9 H :   -0.019174

  Mayer bond orders larger than 0.100000
B(  0-Cl,  4-C ) :  -0.2194 B(  0-Cl,  6-C ) :   1.2632 B(  1-S ,  3-N ) :   0.7801
B(  1-S ,  4-C ) :   1.1099 B(  1-S ,  6-C ) :   0.1296 B(  2-N ,  4-C ) :   1.3855
B(  2-N ,  5-C ) :   1.0267 B(  3-N ,  4-C ) :   0.2101 B(  3-N ,  5-C ) :   1.5112
B(  4-C ,  5-C ) :  -0.1688 B(  4-C ,  6-C ) :   1.2439 B(  4-C ,  8-H ) :   0.1819
B(  4-C ,  9-H ) :   0.1819 B(  5-C ,  7-H ) :   0.9070 B(  6-C ,  8-H ) :   0.7408
B(  6-C ,  9-H ) :   0.7408

MP2 TOTAL ENERGY:    -1082.335374921 Eh
FINAL SINGLE POINT ENERGY     -1082.335374921464

DIPOLE MOMENT
-------------
                                X             Y             Z
Electronic contribution:     -4.07094      -3.93286      -0.00010
Nuclear contribution   :      3.75704       4.59962       0.00015
                        -----------------------------------------
Total Dipole Moment    :     -0.31390       0.66675       0.00005
                        -----------------------------------------
Magnitude (a.u.)       :      0.73695
Magnitude (Debye)      :      1.87318

Rotational constants in cm-1:     0.161787     0.040059     0.032303
Rotational constants in MHz :  4850.255128  1200.934192   968.412916

                             ****ORCA TERMINATED NORMALLY****
TOTAL RUN TIME: 0 days 0 hours 0 minutes 36 seconds 106 msec
