                         Program Version 5.0.3 -  RELEASE  -
|  1> !ri-mp2 aug-cc-pvdz aug-cc-pvdz/c tightscf
|  2> %pal nprocs 16 end
|  3>
|  4> * xyz 0 1
|  5> S      0.063989   -1.268775   -0.106157
|  6> C     -0.855000    0.245265    0.022198
|  7> C     -0.124231    1.361916    0.026050
|  8> C      1.350842    1.127767   -0.161767
|  9> C      1.614187   -0.331940    0.244577
| 10> O     -2.200117    0.086742    0.072454
| 11> H     -0.557765    2.351675    0.076223
| 12> H      1.963154    1.798749    0.443646
| 13> H      1.811188   -0.410907    1.312550
| 14> H      1.639155    1.290531   -1.207061
| 15> H      2.432239   -0.791140   -0.303764
| 16> H     -2.625644    0.949515    0.010935
| 17> *
| 18>
| 19>                          ****END OF INPUT****

CARTESIAN COORDINATES (ANGSTROEM)
---------------------------------
  S      0.063989   -1.268775   -0.106157
  C     -0.855000    0.245265    0.022198
  C     -0.124231    1.361916    0.026050
  C      1.350842    1.127767   -0.161767
  C      1.614187   -0.331940    0.244577
  O     -2.200117    0.086742    0.072454
  H     -0.557765    2.351675    0.076223
  H      1.963154    1.798749    0.443646
  H      1.811188   -0.410907    1.312550
  H      1.639155    1.290531   -1.207061
  H      2.432239   -0.791140   -0.303764
  H     -2.625644    0.949515    0.010935

 Total Charge           Charge          ....    0
 Multiplicity           Mult            ....    1
 Number of Electrons    NEL             ....   54
 Basis Dimension        Dim             ....  196

ORBITAL ENERGIES
----------------

  NO   OCC          E(Eh)            E(eV)
   0   2.0000     -91.958641     -2502.3218
   1   2.0000     -20.612940      -560.9066
   2   2.0000     -11.331896      -308.3566
   3   2.0000     -11.270687      -306.6910
   4   2.0000     -11.247960      -306.0726
   5   2.0000     -11.226118      -305.4782
   6   2.0000      -8.960792      -243.8355
   7   2.0000      -6.642569      -180.7535
   8   2.0000      -6.641454      -180.7232
   9   2.0000      -6.639195      -180.6617
  10   2.0000      -1.422746       -38.7149
  11   2.0000      -1.137008       -30.9396
  12   2.0000      -0.984131       -26.7796
  13   2.0000      -0.975073       -26.5331
  14   2.0000      -0.817748       -22.2520
  15   2.0000      -0.789302       -21.4780
  16   2.0000      -0.686024       -18.6677
  17   2.0000      -0.653681       -17.7876
  18   2.0000      -0.629920       -17.1410
  19   2.0000      -0.593558       -16.1515
  20   2.0000      -0.563953       -15.3459
  21   2.0000      -0.531433       -14.4610
  22   2.0000      -0.510135       -13.8815
  23   2.0000      -0.496998       -13.5240
  24   2.0000      -0.449444       -12.2300
  25   2.0000      -0.400240       -10.8911
  26   2.0000      -0.303429        -8.2567
  27   0.0000       0.031585         0.8595
  28   0.0000       0.040563         1.1038
  29   0.0000       0.051066         1.3896
  30   0.0000       0.051911         1.4126
  31   0.0000       0.067532         1.8376

MULLIKEN ATOMIC CHARGES
-----------------------
   0 S :    0.395619
   1 C :    0.355123
   2 C :    0.271492
   3 C :    0.221776
   4 C :    0.073848
   5 O :   -0.835057
   6 H :   -0.411063
   7 H :   -0.033946
   8 H :   -0.082094
   9 H :   -0.059293
  10 H :   -0.060371
  11 H :    0.163965
Sum of atomic charges:   -0.0000000

LOEWDIN ATOMIC CHARGES
----------------------
   0 S :    0.879634
   1 C :   -0.547653
   2 C :   -0.053789
   3 C :   -0.086083
   4 C :   -0.228917
   5 O :    0.137736
   6 H :   -0.017559
   7 H :    0.007606
   8 H :   -0.031653
   9 H :    0.010150
  10 H :   -0.035107
  11 H :   -0.034365

  Mayer bond orders larger than 0.100000
B(  0-S ,  1-C ) :   0.8955 B(  0-S ,  2-C ) :   0.1612 B(  0-S ,  3-C ) :  -0.1339
B(  0-S ,  4-C ) :   1.0833 B(  1-C ,  2-C ) :   2.2846 B(  1-C ,  3-C ) :  -0.1073
B(  1-C ,  4-C ) :   0.1299 B(  1-C ,  5-O ) :   0.3524 B(  1-C ,  6-H ) :   0.1416
B(  1-C , 11-H ) :  -0.1116 B(  2-C ,  3-C ) :   1.2939 B(  2-C ,  6-H ) :   0.6442
B(  2-C ,  9-H ) :   0.1127 B(  3-C ,  4-C ) :   1.2396 B(  3-C ,  7-H ) :   0.7302
B(  3-C ,  9-H ) :   0.8141 B(  3-C , 10-H ) :   0.1112 B(  4-C ,  8-H ) :   0.8950
B(  4-C , 10-H ) :   0.8453 B(  5-O , 11-H ) :   1.1061

MP2 TOTAL ENERGY:     -628.263951814 Eh
FINAL SINGLE POINT ENERGY      -628.263951813741

DIPOLE MOMENT
-------------
                                X             Y             Z
Electronic contribution:     -4.19898      -4.16876      -0.29720
Nuclear contribution   :      4.59238       5.19131       0.33452
                        -----------------------------------------
Total Dipole Moment    :      0.39340       1.02256       0.03732
                        -----------------------------------------
Magnitude (a.u.)       :      1.09626
Magnitude (Debye)      :      2.78646

Rotational constants in cm-1:     0.155689     0.100544     0.063381
Rotational constants in MHz :  4667.448691  3014.232940  1900.121949

                             ****ORCA TERMINATED NORMALLY****
TOTAL RUN TIME: 0 days 0 hours 0 minutes 33 seconds 396 msec
