                         Program Version 5.0.3 -  RELEASE  -
|  1> !ri-mp2 aug-cc-pvdz aug-cc-pvdz/c tightscf
|  2> %pal nprocs 16 end
|  3>
|  4> * xyz 0 1
|  5> C      1.977238   -0.001331    0.000000
|  6> C      0.770993    0.001118    0.000000
|  7> C      3.336251   -0.004812    0.000000
|  8> C     -0.659885    0.001640    0.000000
|  9> C      4.540805   -0.008521    0.000000
| 10> H      5.602698   -0.011921    0.000000
| 11> Cl    -1.282257   -0.846315    1.468789
| 12> Cl    -1.282257   -0.846315   -1.468789
| 13> Cl    -1.282257    1.697533    0.000000
| 14> *
| 15>
| 16>                          ****END OF INPUT****

CARTESIAN COORDINATES (ANGSTROEM)
---------------------------------
  C      1.977238   -0.001331    0.000000
  C      0.770993    0.001118    0.000000
  C      3.336251   -0.004812    0.000000
  C     -0.659885    0.001640    0.000000
  C      4.540805   -0.008521    0.000000
  H      5.602698   -0.011921    0.000000
  Cl    -1.282257   -0.846315    1.468789
  Cl    -1.282257   -0.846315   -1.468789
  Cl    -1.282257    1.697533    0.000000

 Total Charge           Charge          ....    0
 Multiplicity           Mult            ....    1
 Number of Electrons    NEL             ....   82
 Basis Dimension        Dim             ....  205

ORBITAL ENERGIES
----------------

  NO   OCC          E(Eh)            E(eV)
   0   2.0000    -104.871036     -2853.6860
   1   2.0000    -104.871018     -2853.6855
   2   2.0000    -104.871017     -2853.6855
   3   2.0000     -11.476852      -312.3010
   4   2.0000     -11.305039      -307.6257
   5   2.0000     -11.295701      -307.3717
   6   2.0000     -11.290056      -307.2181
   7   2.0000     -11.285681      -307.0990
   8   2.0000     -10.596482      -288.3449
   9   2.0000     -10.596467      -288.3445
  10   2.0000     -10.596450      -288.3441
  11   2.0000      -8.064140      -219.4364
  12   2.0000      -8.064122      -219.4359
  13   2.0000      -8.064120      -219.4359
  14   2.0000      -8.060434      -219.3355
  15   2.0000      -8.060415      -219.3350
  16   2.0000      -8.060414      -219.3350
  17   2.0000      -8.060392      -219.3344
  18   2.0000      -8.060374      -219.3339
  19   2.0000      -8.060373      -219.3339
  20   2.0000      -1.256126       -34.1809
  21   2.0000      -1.120107       -30.4797
  22   2.0000      -1.117168       -30.3997
  23   2.0000      -1.117158       -30.3994
  24   2.0000      -1.054054       -28.6823
  25   2.0000      -0.939450       -25.5637
  26   2.0000      -0.846996       -23.0479
  27   2.0000      -0.736171       -20.0322
  28   2.0000      -0.705408       -19.1951
  29   2.0000      -0.641505       -17.4562
  30   2.0000      -0.641500       -17.4561
  31   2.0000      -0.524105       -14.2616
  32   2.0000      -0.524070       -14.2607
  33   2.0000      -0.499145       -13.5824
  34   2.0000      -0.499127       -13.5819
  35   2.0000      -0.491509       -13.3746
  36   2.0000      -0.468519       -12.7490
  37   2.0000      -0.468516       -12.7490
  38   2.0000      -0.454914       -12.3788
  39   2.0000      -0.385268       -10.4837
  40   2.0000      -0.385254       -10.4833
  41   0.0000       0.030644         0.8339
  42   0.0000       0.057875         1.5749
  43   0.0000       0.057876         1.5749
  44   0.0000       0.059551         1.6205
  45   0.0000       0.079638         2.1671

MULLIKEN ATOMIC CHARGES
-----------------------
   0 C :    1.173569
   1 C :    0.953781
   2 C :    0.701218
   3 C :   -2.474010
   4 C :   -0.163536
   5 H :   -0.593982
   6 Cl:    0.134100
   7 Cl:    0.134100
   8 Cl:    0.134761
Sum of atomic charges:   -0.0000000

LOEWDIN ATOMIC CHARGES
----------------------
   0 C :   -0.055730
   1 C :   -0.153972
   2 C :   -0.118398
   3 C :   -1.371636
   4 C :    0.266902
   5 H :   -0.088252
   6 Cl:    0.507033
   7 Cl:    0.507033
   8 Cl:    0.507020

  Mayer bond orders larger than 0.100000
B(  0-C ,  1-C ) :   1.9327 B(  0-C ,  2-C ) :   1.8741 B(  0-C ,  3-C ) :  -1.4983
B(  0-C ,  4-C ) :  -0.8774 B(  1-C ,  2-C ) :  -1.4955 B(  1-C ,  3-C ) :  -0.3930
B(  1-C ,  4-C ) :   0.8772 B(  1-C ,  5-H ) :   0.1122 B(  1-C ,  6-Cl) :  -0.5637
B(  1-C ,  7-Cl) :  -0.5637 B(  1-C ,  8-Cl) :  -0.5619 B(  2-C ,  3-C ) :   0.3321
B(  2-C ,  4-C ) :   1.8546 B(  2-C ,  5-H ) :   0.1599 B(  3-C ,  4-C ) :   0.1298
B(  3-C ,  6-Cl) :   1.5903 B(  3-C ,  7-Cl) :   1.5903 B(  3-C ,  8-Cl) :   1.5899
B(  4-C ,  5-H ) :   0.2420

MP2 TOTAL ENERGY:    -1569.393190968 Eh
FINAL SINGLE POINT ENERGY     -1569.393190968065

DIPOLE MOMENT
-------------
                                X             Y             Z
Electronic contribution:     -9.33068       0.01527       0.00000
Nuclear contribution   :     10.21587      -0.01742       0.00000
                        -----------------------------------------
Total Dipole Moment    :      0.88520      -0.00215       0.00000
                        -----------------------------------------
Magnitude (a.u.)       :      0.88520
Magnitude (Debye)      :      2.25000

Rotational constants in cm-1:     0.055105     0.021088     0.021087
Rotational constants in MHz :  1652.019284   632.193285   632.176956

                             ****ORCA TERMINATED NORMALLY****
TOTAL RUN TIME: 0 days 0 hours 0 minutes 39 seconds 335 msec
