                         Program Version 5.0.3 -  RELEASE  -
|  1> !ri-mp2 aug-cc-pvdz aug-cc-pvdz/c tightscf
|  2> %pal nprocs 16 end
|  3>
|  4> * xyz 0 1
|  5> Cl   -2.008972   -0.645633   -0.000016
|  6> S     0.916995   -1.382670    0.000044
|  7> N     1.562136    1.012518   -0.000064
|  8> N     2.104548   -0.138903    0.000000
|  9> C    -0.342527   -0.225321   -0.000029
| 10> C     0.192585    1.037355   -0.000081
| 11> C    -0.528302    2.343259    0.000042
| 12> H    -0.251761    2.929510   -0.876767
| 13> H    -1.605449    2.196556   -0.004895
| 14> H    -0.259520    2.925361    0.882074
| 15> *
| 16>
| 17>                          ****END OF INPUT****

CARTESIAN COORDINATES (ANGSTROEM)
---------------------------------
  Cl    -2.008972   -0.645633   -0.000016
  S      0.916995   -1.382670    0.000044
  N      1.562136    1.012518   -0.000064
  N      2.104548   -0.138903    0.000000
  C     -0.342527   -0.225321   -0.000029
  C      0.192585    1.037355   -0.000081
  C     -0.528302    2.343259    0.000042
  H     -0.251761    2.929510   -0.876767
  H     -1.605449    2.196556   -0.004895
  H     -0.259520    2.925361    0.882074

 Total Charge           Charge          ....    0
 Multiplicity           Mult            ....    1
 Number of Electrons    NEL             ....   68
 Basis Dimension        Dim             ....  196

ORBITAL ENERGIES
----------------

  NO   OCC          E(Eh)            E(eV)
   0   2.0000    -104.881531     -2853.9716
   1   2.0000     -92.038306     -2504.4896
   2   2.0000     -15.673721      -426.5036
   3   2.0000     -15.649399      -425.8418
   4   2.0000     -11.355577      -309.0010
   5   2.0000     -11.304458      -307.6099
   6   2.0000     -11.254656      -306.2548
   7   2.0000     -10.607104      -288.6340
   8   2.0000      -9.038685      -245.9551
   9   2.0000      -8.075074      -219.7339
  10   2.0000      -8.071383      -219.6335
  11   2.0000      -8.071265      -219.6303
  12   2.0000      -6.719967      -182.8596
  13   2.0000      -6.718824      -182.8285
  14   2.0000      -6.716840      -182.7745
  15   2.0000      -1.402868       -38.1740
  16   2.0000      -1.202555       -32.7232
  17   2.0000      -1.110860       -30.2280
  18   2.0000      -1.071990       -29.1703
  19   2.0000      -0.970145       -26.3990
  20   2.0000      -0.844717       -22.9859
  21   2.0000      -0.776469       -21.1288
  22   2.0000      -0.673144       -18.3172
  23   2.0000      -0.637588       -17.3497
  24   2.0000      -0.621203       -16.9038
  25   2.0000      -0.583683       -15.8828
  26   2.0000      -0.574221       -15.6253
  27   2.0000      -0.550261       -14.9734
  28   2.0000      -0.536933       -14.6107
  29   2.0000      -0.531721       -14.4689
  30   2.0000      -0.488129       -13.2827
  31   2.0000      -0.419160       -11.4059
  32   2.0000      -0.411880       -11.2078
  33   2.0000      -0.364537        -9.9196
  34   0.0000       0.035849         0.9755
  35   0.0000       0.056305         1.5321
  36   0.0000       0.057049         1.5524
  37   0.0000       0.062034         1.6880
  38   0.0000       0.063503         1.7280

MULLIKEN ATOMIC CHARGES
-----------------------
   0 Cl:   -0.288639
   1 S :    0.707722
   2 N :   -0.651437
   3 N :   -0.714954
   4 C :   -0.429002
   5 C :    0.726780
   6 C :    0.549656
   7 H :    0.055027
   8 H :   -0.011099
   9 H :    0.055946
Sum of atomic charges:   -0.0000000

LOEWDIN ATOMIC CHARGES
----------------------
   0 Cl:    0.576524
   1 S :    0.931075
   2 N :   -0.076280
   3 N :   -0.285964
   4 C :   -0.877573
   5 C :   -0.399785
   6 C :    0.171273
   7 H :   -0.005548
   8 H :   -0.028227
   9 H :   -0.005494

  Mayer bond orders larger than 0.100000
B(  0-Cl,  4-C ) :   0.9750 B(  0-Cl,  5-C ) :  -0.3100 B(  0-Cl,  6-C ) :   0.1330
B(  1-S ,  3-N ) :   0.9049 B(  1-S ,  4-C ) :   1.0185 B(  1-S ,  5-C ) :   0.1931
B(  2-N ,  3-N ) :   1.2600 B(  2-N ,  5-C ) :   0.6900 B(  3-N ,  4-C ) :   0.1947
B(  3-N ,  5-C ) :  -0.2311 B(  4-C ,  5-C ) :   1.1027 B(  4-C ,  8-H ) :  -0.1566
B(  5-C ,  6-C ) :   1.2310 B(  5-C ,  7-H ) :   0.1926 B(  5-C ,  8-H ) :   0.2431
B(  5-C ,  9-H ) :   0.1932 B(  6-C ,  7-H ) :   0.8147 B(  6-C ,  8-H ) :   0.8616
B(  6-C ,  9-H ) :   0.8141

MP2 TOTAL ENERGY:    -1082.303297156 Eh
FINAL SINGLE POINT ENERGY     -1082.303297155968

DIPOLE MOMENT
-------------
                                X             Y             Z
Electronic contribution:     -1.67747      -8.45000      -0.00030
Nuclear contribution   :      0.71230       8.56198       0.00041
                        -----------------------------------------
Total Dipole Moment    :     -0.96517       0.11197       0.00011
                        -----------------------------------------
Magnitude (a.u.)       :      0.97164
Magnitude (Debye)      :      2.46972

Rotational constants in cm-1:     0.087463     0.061011     0.036181
Rotational constants in MHz :  2622.073391  1829.067222  1084.676305

                             ****ORCA TERMINATED NORMALLY****
TOTAL RUN TIME: 0 days 0 hours 0 minutes 40 seconds 258 msec
