                         Program Version 5.0.3 -  RELEASE  -
|  1> !ri-mp2 aug-cc-pvdz aug-cc-pvdz/c tightscf
|  2> %pal nprocs 16 end
|  3>
|  4> * xyz 0 1
|  5> Cl     0.000000    0.000000    2.639630
|  6> F      0.000000    0.000000   -3.046511
|  7> N      0.000000    1.187688   -1.149552
|  8> N      0.000000   -1.187688   -1.149552
|  9> C      0.000000    0.000000   -1.718678
| 10> C      0.000000    0.000000    0.901715
| 11> C      0.000000    1.186904    0.181469
| 12> C      0.000000   -1.186904    0.181469
| 13> H      0.000000    2.147124    0.681378
| 14> H      0.000000   -2.147124    0.681378
| 15> *
| 16>
| 17>                          ****END OF INPUT****

CARTESIAN COORDINATES (ANGSTROEM)
---------------------------------
  Cl     0.000000    0.000000    2.639630
  F      0.000000    0.000000   -3.046511
  N      0.000000    1.187688   -1.149552
  N      0.000000   -1.187688   -1.149552
  C      0.000000    0.000000   -1.718678
  C      0.000000    0.000000    0.901715
  C      0.000000    1.186904    0.181469
  C      0.000000   -1.186904    0.181469
  H      0.000000    2.147124    0.681378
  H      0.000000   -2.147124    0.681378

 Total Charge           Charge          ....    0
 Multiplicity           Mult            ....    1
 Number of Electrons    NEL             ....   66
 Basis Dimension        Dim             ....  206

ORBITAL ENERGIES
----------------

  NO   OCC          E(Eh)            E(eV)
   0   2.0000    -104.869955     -2853.6566
   1   2.0000     -26.348844      -716.9885
   2   2.0000     -15.614968      -424.9049
   3   2.0000     -15.614937      -424.9040
   4   2.0000     -11.432053      -311.0820
   5   2.0000     -11.343197      -308.6641
   6   2.0000     -11.343131      -308.6623
   7   2.0000     -11.332576      -308.3751
   8   2.0000     -10.595806      -288.3265
   9   2.0000      -8.063684      -219.4240
  10   2.0000      -8.060234      -219.3301
  11   2.0000      -8.060043      -219.3249
  12   2.0000      -1.670590       -45.4591
  13   2.0000      -1.358627       -36.9701
  14   2.0000      -1.246552       -33.9204
  15   2.0000      -1.192211       -32.4417
  16   2.0000      -1.060269       -28.8514
  17   2.0000      -0.953987       -25.9593
  18   2.0000      -0.909327       -24.7440
  19   2.0000      -0.803469       -21.8635
  20   2.0000      -0.782789       -21.3008
  21   2.0000      -0.730357       -19.8740
  22   2.0000      -0.686072       -18.6690
  23   2.0000      -0.672187       -18.2911
  24   2.0000      -0.633685       -17.2434
  25   2.0000      -0.621988       -16.9251
  26   2.0000      -0.608949       -16.5703
  27   2.0000      -0.528854       -14.3908
  28   2.0000      -0.521184       -14.1821
  29   2.0000      -0.498101       -13.5540
  30   2.0000      -0.461364       -12.5544
  31   2.0000      -0.445285       -12.1168
  32   2.0000      -0.380857       -10.3637
  33   0.0000       0.033728         0.9178
  34   0.0000       0.040415         1.0997
  35   0.0000       0.052420         1.4264
  36   0.0000       0.069963         1.9038
  37   0.0000       0.073766         2.0073

MULLIKEN ATOMIC CHARGES
-----------------------
   0 Cl:   -0.280413
   1 F :   -0.651556
   2 N :   -0.772253
   3 N :   -0.772253
   4 C :    0.963469
   5 C :   -0.005853
   6 C :    0.989228
   7 C :    0.989228
   8 H :   -0.229799
   9 H :   -0.229799
Sum of atomic charges:    0.0000000

LOEWDIN ATOMIC CHARGES
----------------------
   0 Cl:    0.582371
   1 F :    0.100651
   2 N :    0.075741
   3 N :    0.075741
   4 C :   -0.280421
   5 C :   -0.544382
   6 C :   -0.017696
   7 C :   -0.017696
   8 H :    0.012845
   9 H :    0.012845

  Mayer bond orders larger than 0.100000
B(  0-Cl,  5-C ) :   1.3108 B(  0-Cl,  6-C ) :  -0.2937 B(  0-Cl,  7-C ) :  -0.2937
B(  1-F ,  4-C ) :   0.3117 B(  2-N ,  4-C ) :   1.4750 B(  2-N ,  6-C ) :   1.1245
B(  3-N ,  4-C ) :   1.4750 B(  3-N ,  7-C ) :   1.1245 B(  4-C ,  6-C ) :  -0.1690
B(  4-C ,  7-C ) :  -0.1690 B(  5-C ,  6-C ) :   1.1987 B(  5-C ,  7-C ) :   1.1987
B(  6-C ,  7-C ) :   0.2115 B(  6-C ,  8-H ) :   0.7569 B(  7-C ,  9-H ) :   0.7569

MP2 TOTAL ENERGY:     -821.718182748 Eh
FINAL SINGLE POINT ENERGY      -821.718182747935

DIPOLE MOMENT
-------------
                                X             Y             Z
Electronic contribution:      0.00000       0.00000       0.47444
Nuclear contribution   :      0.00000       0.00000       0.54395
                        -----------------------------------------
Total Dipole Moment    :      0.00000       0.00000       1.01839
                        -----------------------------------------
Magnitude (a.u.)       :      1.01839
Magnitude (Debye)      :      2.58854

Rotational constants in cm-1:     0.203961     0.033228     0.028573
Rotational constants in MHz :  6114.586941   996.140176   856.591121

                             ****ORCA TERMINATED NORMALLY****
TOTAL RUN TIME: 0 days 0 hours 0 minutes 40 seconds 528 msec
