                         Program Version 5.0.3 -  RELEASE  -
|  1> !ri-mp2 aug-cc-pvdz aug-cc-pvdz/c tightscf
|  2> %pal nprocs 16 end
|  3>
|  4> * xyz 0 1
|  5> F     2.375832    0.341649   -0.121397
|  6> O     1.124163   -2.287866    0.174880
|  7> O     0.695969    2.490935   -0.051098
|  8> O    -2.942224   -0.245940    0.022644
|  9> N    -0.875008   -1.207874    0.004582
| 10> N    -1.112015    1.111674   -0.020101
| 11> C     1.090406    0.142282    0.334810
| 12> C     0.527478   -1.113100   -0.322479
| 13> C     0.238552    1.381307    0.053108
| 14> C    -1.735828   -0.146180    0.002266
| 15> H     1.129546   -0.014071    1.416546
| 16> H     0.692280   -1.042947   -1.407061
| 17> H     2.004927   -2.374716   -0.205212
| 18> H    -1.307982   -2.113080   -0.090426
| 19> H    -1.739008    1.900491   -0.090282
| 20> *
| 21>
| 22>                          ****END OF INPUT****

CARTESIAN COORDINATES (ANGSTROEM)
---------------------------------
  F      2.375832    0.341649   -0.121397
  O      1.124163   -2.287866    0.174880
  O      0.695969    2.490935   -0.051098
  O     -2.942224   -0.245940    0.022644
  N     -0.875008   -1.207874    0.004582
  N     -1.112015    1.111674   -0.020101
  C      1.090406    0.142282    0.334810
  C      0.527478   -1.113100   -0.322479
  C      0.238552    1.381307    0.053108
  C     -1.735828   -0.146180    0.002266
  H      1.129546   -0.014071    1.416546
  H      0.692280   -1.042947   -1.407061
  H      2.004927   -2.374716   -0.205212
  H     -1.307982   -2.113080   -0.090426
  H     -1.739008    1.900491   -0.090282

 Total Charge           Charge          ....    0
 Multiplicity           Mult            ....    1
 Number of Electrons    NEL             ....   76
 Basis Dimension        Dim             ....  275

ORBITAL ENERGIES
----------------

  NO   OCC          E(Eh)            E(eV)
   0   2.0000     -26.336638      -716.6564
   1   2.0000     -20.622059      -561.1547
   2   2.0000     -20.581818      -560.0598
   3   2.0000     -20.561661      -559.5113
   4   2.0000     -15.644947      -425.7207
   5   2.0000     -15.629026      -425.2874
   6   2.0000     -11.431366      -311.0633
   7   2.0000     -11.408829      -310.4500
   8   2.0000     -11.384017      -309.7749
   9   2.0000     -11.370349      -309.4029
  10   2.0000      -1.641637       -44.6712
  11   2.0000      -1.452616       -39.5277
  12   2.0000      -1.433500       -39.0075
  13   2.0000      -1.425123       -38.7796
  14   2.0000      -1.300109       -35.3778
  15   2.0000      -1.246821       -33.9277
  16   2.0000      -1.078195       -29.3392
  17   2.0000      -0.944688       -25.7063
  18   2.0000      -0.909264       -24.7423
  19   2.0000      -0.837334       -22.7850
  20   2.0000      -0.797474       -21.7004
  21   2.0000      -0.779931       -21.2230
  22   2.0000      -0.732818       -19.9410
  23   2.0000      -0.716525       -19.4976
  24   2.0000      -0.706609       -19.2278
  25   2.0000      -0.699080       -19.0229
  26   2.0000      -0.680657       -18.5216
  27   2.0000      -0.655379       -17.8338
  28   2.0000      -0.645721       -17.5710
  29   2.0000      -0.625099       -17.0098
  30   2.0000      -0.599552       -16.3146
  31   2.0000      -0.576351       -15.6833
  32   2.0000      -0.567030       -15.4297
  33   2.0000      -0.512115       -13.9354
  34   2.0000      -0.491089       -13.3632
  35   2.0000      -0.459246       -12.4967
  36   2.0000      -0.449774       -12.2390
  37   2.0000      -0.435535       -11.8515
  38   0.0000       0.026196         0.7128
  39   0.0000       0.040841         1.1113
  40   0.0000       0.042884         1.1669
  41   0.0000       0.050185         1.3656
  42   0.0000       0.060621         1.6496

MULLIKEN ATOMIC CHARGES
-----------------------
   0 F :   -0.727481
   1 O :   -0.805537
   2 O :   -0.740120
   3 O :   -0.699738
   4 N :   -0.503429
   5 N :   -0.441820
   6 C :    0.916186
   7 C :    1.434021
   8 C :    0.702731
   9 C :    1.022450
  10 H :    0.004634
  11 H :   -0.137988
  12 H :    0.173116
  13 H :   -0.118073
  14 H :   -0.078953
Sum of atomic charges:   -0.0000000

LOEWDIN ATOMIC CHARGES
----------------------
   0 F :    0.053667
   1 O :    0.173906
   2 O :    0.076363
   3 O :    0.048451
   4 N :    0.156846
   5 N :    0.187368
   6 C :   -0.061874
   7 C :   -0.181742
   8 C :   -0.265167
   9 C :   -0.344513
  10 H :    0.059750
  11 H :    0.054196
  12 H :   -0.033775
  13 H :    0.032543
  14 H :    0.043980

  Mayer bond orders larger than 0.100000
B(  0-F ,  6-C ) :  -0.1736 B(  0-F ,  7-C ) :   0.2312 B(  0-F ,  8-C ) :   0.2511
B(  1-O ,  6-C ) :   0.1649 B(  1-O ,  7-C ) :   0.2677 B(  1-O , 12-H ) :   1.0637
B(  2-O ,  8-C ) :   1.4008 B(  3-O ,  9-C ) :   1.5195 B(  4-N ,  7-C ) :   0.6202
B(  4-N ,  9-C ) :   1.1229 B(  4-N , 13-H ) :   1.1589 B(  5-N ,  8-C ) :   0.9649
B(  5-N ,  9-C ) :   0.8982 B(  5-N , 14-H ) :   1.2000 B(  6-C ,  7-C ) :   1.2525
B(  6-C ,  8-C ) :   0.7762 B(  6-C , 10-H ) :   0.8000 B(  6-C , 11-H ) :   0.1731
B(  7-C , 11-H ) :   0.5913

MP2 TOTAL ENERGY:     -589.096821239 Eh
FINAL SINGLE POINT ENERGY      -589.096821239391

DIPOLE MOMENT
-------------
                                X             Y             Z
Electronic contribution:      2.08528       2.77334      -0.04016
Nuclear contribution   :     -1.53818      -3.83883      -0.24512
                        -----------------------------------------
Total Dipole Moment    :      0.54710      -1.06549      -0.28529
                        -----------------------------------------
Magnitude (a.u.)       :      1.23125
Magnitude (Debye)      :      3.12958

Rotational constants in cm-1:     0.059341     0.044972     0.026181
Rotational constants in MHz :  1778.985162  1348.237404   784.876455

                             ****ORCA TERMINATED NORMALLY****
TOTAL RUN TIME: 0 days 0 hours 1 minutes 0 seconds 482 msec
