                         Program Version 5.0.3 -  RELEASE  -
|  1> !ri-mp2 aug-cc-pvdz aug-cc-pvdz/c tightscf
|  2> %pal nprocs 16 end
|  3>
|  4> * xyz 0 1
|  5> O      0.546539   -0.953762        0.000000
|  6> O     -3.228086   -0.349170        0.000000
|  7> N     -1.101796    0.691502        0.000000
|  8> N      1.947764   -1.059792        0.000000
|  9> C      0.218242    0.351741        0.000000
| 10> C      1.335896    1.124727        0.000000
| 11> C      2.382875    0.171585        0.000000
| 12> C     -2.155264    0.095523        0.000000
| 13> H      1.392435    2.196850        0.000000
| 14> H      3.447671    0.343180        0.000001
| 15> *
| 16>
| 17>                          ****END OF INPUT****

CARTESIAN COORDINATES (ANGSTROEM)
---------------------------------
  O      0.546539   -0.953762    0.000000
  O     -3.228086   -0.349170    0.000000
  N     -1.101796    0.691502    0.000000
  N      1.947764   -1.059792    0.000000
  C      0.218242    0.351741    0.000000
  C      1.335896    1.124727    0.000000
  C      2.382875    0.171585    0.000000
  C     -2.155264    0.095523    0.000000
  H      1.392435    2.196850    0.000000
  H      3.447671    0.343180    0.000001

 Total Charge           Charge          ....    0
 Multiplicity           Mult            ....    1
 Number of Electrons    NEL             ....   56
 Basis Dimension        Dim             ....  202

ORBITAL ENERGIES
----------------

  NO   OCC          E(Eh)            E(eV)
   0   2.0000     -20.670541      -562.4740
   1   2.0000     -20.661177      -562.2192
   2   2.0000     -15.644359      -425.7047
   3   2.0000     -15.639836      -425.5816
   4   2.0000     -11.459836      -311.8380
   5   2.0000     -11.395166      -310.0782
   6   2.0000     -11.304424      -307.6090
   7   2.0000     -11.259466      -306.3856
   8   2.0000      -1.519441       -41.3461
   9   2.0000      -1.508589       -41.0508
  10   2.0000      -1.328453       -36.1490
  11   2.0000      -1.185255       -32.2524
  12   2.0000      -1.098621       -29.8950
  13   2.0000      -0.924029       -25.1441
  14   2.0000      -0.852182       -23.1890
  15   2.0000      -0.795008       -21.6333
  16   2.0000      -0.763507       -20.7761
  17   2.0000      -0.704274       -19.1643
  18   2.0000      -0.682265       -18.5654
  19   2.0000      -0.666126       -18.1262
  20   2.0000      -0.662634       -18.0312
  21   2.0000      -0.621635       -16.9156
  22   2.0000      -0.586881       -15.9698
  23   2.0000      -0.527748       -14.3607
  24   2.0000      -0.517305       -14.0766
  25   2.0000      -0.477423       -12.9913
  26   2.0000      -0.446766       -12.1571
  27   2.0000      -0.359223        -9.7749
  28   0.0000       0.027469         0.7475
  29   0.0000       0.044208         1.2030
  30   0.0000       0.057713         1.5705
  31   0.0000       0.076584         2.0840
  32   0.0000       0.087492         2.3808

MULLIKEN ATOMIC CHARGES
-----------------------
   0 O :   -0.861810
   1 O :   -0.360939
   2 N :   -0.396790
   3 N :   -0.188519
   4 C :    0.802132
   5 C :    0.953299
   6 C :    0.488550
   7 C :    0.056145
   8 H :   -0.321878
   9 H :   -0.170190
Sum of atomic charges:    0.0000000

LOEWDIN ATOMIC CHARGES
----------------------
   0 O :    0.066304
   1 O :    0.141279
   2 N :    0.101873
   3 N :    0.035019
   4 C :   -0.247900
   5 C :    0.059043
   6 C :   -0.052695
   7 C :   -0.107382
   8 H :   -0.003245
   9 H :    0.007704

  Mayer bond orders larger than 0.100000
B(  0-O ,  3-N ) :   0.6111 B(  0-O ,  4-C ) :   0.6886 B(  0-O ,  5-C ) :   0.1020
B(  1-O ,  7-C ) :   2.0209 B(  2-N ,  4-C ) :   0.5421 B(  2-N ,  5-C ) :  -0.1371
B(  2-N ,  7-C ) :   2.0824 B(  3-N ,  6-C ) :   1.3754 B(  4-C ,  5-C ) :   1.2367
B(  4-C ,  6-C ) :   0.3911 B(  4-C ,  7-C ) :  -0.3256 B(  4-C ,  8-H ) :   0.4555
B(  5-C ,  6-C ) :   0.9326 B(  5-C ,  8-H ) :   0.3807 B(  5-C ,  9-H ) :  -0.1292
B(  6-C ,  9-H ) :   0.9117

MP2 TOTAL ENERGY:     -412.490085377 Eh
FINAL SINGLE POINT ENERGY      -412.490085376848

DIPOLE MOMENT
-------------
                                X             Y             Z
Electronic contribution:     -4.12719      -1.23372      -0.00000
Nuclear contribution   :      4.58900       2.40527       0.00000
                        -----------------------------------------
Total Dipole Moment    :      0.46181       1.17154       0.00000
                        -----------------------------------------
Magnitude (a.u.)       :      1.25928
Magnitude (Debye)      :      3.20084

Rotational constants in cm-1:     0.276585     0.041995     0.036459
Rotational constants in MHz :  8291.801476  1258.966685  1093.011750

                             ****ORCA TERMINATED NORMALLY****
TOTAL RUN TIME: 0 days 0 hours 0 minutes 37 seconds 345 msec
