                         Program Version 5.0.3 -  RELEASE  -
|  1> !ri-mp2 aug-cc-pvdz aug-cc-pvdz/c tightscf
|  2> %pal nprocs 16 end
|  3>
|  4> * xyz 0 1
|  5> S     -1.381222    0.952356    0.131158
|  6> S     -1.060922   -1.105763   -0.180184
|  7> O      0.561045   -1.063545    0.339172
|  8> C      1.148044    0.146398   -0.006454
|  9> C      2.633844    0.082759   -0.038161
| 10> C      0.357752    1.202401   -0.188373
| 11> H      2.975948   -0.613159   -0.805738
| 12> H      3.010492   -0.275655    0.922250
| 13> H      3.055424    1.065713   -0.234875
| 14> H      0.706231    2.196611   -0.412681
| 15> *
| 16>
| 17>                          ****END OF INPUT****

CARTESIAN COORDINATES (ANGSTROEM)
---------------------------------
  S     -1.381222    0.952356    0.131158
  S     -1.060922   -1.105763   -0.180184
  O      0.561045   -1.063545    0.339172
  C      1.148044    0.146398   -0.006454
  C      2.633844    0.082759   -0.038161
  C      0.357752    1.202401   -0.188373
  H      2.975948   -0.613159   -0.805738
  H      3.010492   -0.275655    0.922250
  H      3.055424    1.065713   -0.234875
  H      0.706231    2.196611   -0.412681

 Total Charge           Charge          ....    0
 Multiplicity           Mult            ....    1
 Number of Electrons    NEL             ....   62
 Basis Dimension        Dim             ....  182

ORBITAL ENERGIES
----------------

  NO   OCC          E(Eh)            E(eV)
   0   2.0000     -92.039019     -2504.5090
   1   2.0000     -91.995428     -2503.3229
   2   2.0000     -20.630391      -561.3815
   3   2.0000     -11.329306      -308.2861
   4   2.0000     -11.272456      -306.7391
   5   2.0000     -11.254339      -306.2461
   6   2.0000      -9.033051      -245.8018
   7   2.0000      -8.996071      -244.7955
   8   2.0000      -6.714605      -182.7137
   9   2.0000      -6.713063      -182.6717
  10   2.0000      -6.709557      -182.5763
  11   2.0000      -6.677734      -181.7104
  12   2.0000      -6.676477      -181.6762
  13   2.0000      -6.673584      -181.5974
  14   2.0000      -1.426221       -38.8094
  15   2.0000      -1.100230       -29.9388
  16   2.0000      -1.062347       -28.9079
  17   2.0000      -0.953700       -25.9515
  18   2.0000      -0.854945       -23.2642
  19   2.0000      -0.776068       -21.1179
  20   2.0000      -0.672189       -18.2912
  21   2.0000      -0.647213       -17.6116
  22   2.0000      -0.621348       -16.9077
  23   2.0000      -0.573122       -15.5954
  24   2.0000      -0.572317       -15.5735
  25   2.0000      -0.539409       -14.6781
  26   2.0000      -0.511621       -13.9219
  27   2.0000      -0.481882       -13.1127
  28   2.0000      -0.444389       -12.0925
  29   2.0000      -0.386446       -10.5157
  30   2.0000      -0.305957        -8.3255
  31   0.0000       0.032960         0.8969
  32   0.0000       0.042820         1.1652
  33   0.0000       0.056394         1.5346
  34   0.0000       0.059528         1.6198
  35   0.0000       0.065355         1.7784

MULLIKEN ATOMIC CHARGES
-----------------------
   0 S :    0.021035
   1 S :    0.439743
   2 O :   -1.049586
   3 C :    0.438189
   4 C :    0.279465
   5 C :    0.272806
   6 H :    0.052030
   7 H :    0.037890
   8 H :   -0.072157
   9 H :   -0.419416
Sum of atomic charges:   -0.0000000

LOEWDIN ATOMIC CHARGES
----------------------
   0 S :    0.483210
   1 S :    0.505356
   2 O :   -0.292737
   3 C :   -0.443543
   4 C :    0.173066
   5 C :   -0.348740
   6 H :   -0.005184
   7 H :   -0.003015
   8 H :   -0.009614
   9 H :   -0.058799

  Mayer bond orders larger than 0.100000
B(  0-S ,  1-S ) :   1.0000 B(  0-S ,  3-C ) :   0.1080 B(  0-S ,  5-C ) :   0.7556
B(  0-S ,  9-H ) :  -0.1261 B(  1-S ,  2-O ) :   0.6366 B(  1-S ,  3-C ) :   0.1117
B(  1-S ,  5-C ) :  -0.1313 B(  2-O ,  3-C ) :   0.3567 B(  3-C ,  4-C ) :   1.2452
B(  3-C ,  5-C ) :   1.5866 B(  3-C ,  6-H ) :   0.1528 B(  3-C ,  7-H ) :   0.1279
B(  3-C ,  8-H ) :   0.1306 B(  4-C ,  6-H ) :   0.8290 B(  4-C ,  7-H ) :   0.8800
B(  4-C ,  8-H ) :   0.9052 B(  5-C ,  9-H ) :   0.8786

MP2 TOTAL ENERGY:     -986.711844457 Eh
FINAL SINGLE POINT ENERGY      -986.711844457359

DIPOLE MOMENT
-------------
                                X             Y             Z
Electronic contribution:     -8.76541      -1.81529       0.31576
Nuclear contribution   :      9.52604       2.28792      -0.50786
                        -----------------------------------------
Total Dipole Moment    :      0.76063       0.47264      -0.19210
                        -----------------------------------------
Magnitude (a.u.)       :      0.91588
Magnitude (Debye)      :      2.32799

Rotational constants in cm-1:     0.145243     0.071489     0.049485
Rotational constants in MHz :  4354.288704  2143.200720  1483.513064

                             ****ORCA TERMINATED NORMALLY****
TOTAL RUN TIME: 0 days 0 hours 0 minutes 36 seconds 979 msec
