                         Program Version 5.0.3 -  RELEASE  -
|  1> !ri-mp2 aug-cc-pvdz aug-cc-pvdz/c tightscf
|  2> %pal nprocs 16 end
|  3>
|  4> * xyz 0 1
|  5> Cl   -3.081143    0.085415    0.053858
|  6> O     3.477026    0.490747    0.348644
|  7> N     0.521246   -1.313680   -0.003582
|  8> N    -0.801147   -1.191495    0.027950
|  9> N     2.647107   -0.500843   -0.241609
| 10> C     1.286485   -0.231016   -0.098672
| 11> C    -1.337020    0.006725   -0.003734
| 12> C     0.766362    1.071813   -0.120508
| 13> C    -0.597170    1.192029   -0.066717
| 14> H     4.072324    0.747301   -0.364548
| 15> H     2.880061   -1.402555    0.159613
| 16> H     1.418677    1.929694   -0.168056
| 17> H    -1.090219    2.152346   -0.073288
| 18> *
| 19>
| 20>                          ****END OF INPUT****

CARTESIAN COORDINATES (ANGSTROEM)
---------------------------------
  Cl    -3.081143    0.085415    0.053858
  O      3.477026    0.490747    0.348644
  N      0.521246   -1.313680   -0.003582
  N     -0.801147   -1.191495    0.027950
  N      2.647107   -0.500843   -0.241609
  C      1.286485   -0.231016   -0.098672
  C     -1.337020    0.006725   -0.003734
  C      0.766362    1.071813   -0.120508
  C     -0.597170    1.192029   -0.066717
  H      4.072324    0.747301   -0.364548
  H      2.880061   -1.402555    0.159613
  H      1.418677    1.929694   -0.168056
  H     -1.090219    2.152346   -0.073288

 Total Charge           Charge          ....    0
 Multiplicity           Mult            ....    1
 Number of Electrons    NEL             ....   74
 Basis Dimension        Dim             ....  247

ORBITAL ENERGIES
----------------

  NO   OCC          E(Eh)            E(eV)
   0   2.0000    -104.849010     -2853.0866
   1   2.0000     -20.637174      -561.5660
   2   2.0000     -15.652951      -425.9385
   3   2.0000     -15.636221      -425.4832
   4   2.0000     -15.625238      -425.1844
   5   2.0000     -11.349400      -308.8329
   6   2.0000     -11.343409      -308.6699
   7   2.0000     -11.295169      -307.3572
   8   2.0000     -11.286313      -307.1162
   9   2.0000     -10.575063      -287.7621
  10   2.0000      -8.042896      -218.8583
  11   2.0000      -8.039416      -218.7636
  12   2.0000      -8.039353      -218.7619
  13   2.0000      -1.450626       -39.4735
  14   2.0000      -1.375961       -37.4418
  15   2.0000      -1.215041       -33.0630
  16   2.0000      -1.165410       -31.7124
  17   2.0000      -1.110554       -30.2197
  18   2.0000      -1.053570       -28.6691
  19   2.0000      -0.928046       -25.2534
  20   2.0000      -0.872756       -23.7489
  21   2.0000      -0.767578       -20.8869
  22   2.0000      -0.746169       -20.3043
  23   2.0000      -0.718654       -19.5556
  24   2.0000      -0.676013       -18.3952
  25   2.0000      -0.655308       -17.8318
  26   2.0000      -0.628191       -17.0939
  27   2.0000      -0.613783       -16.7019
  28   2.0000      -0.600560       -16.3421
  29   2.0000      -0.531406       -14.4603
  30   2.0000      -0.522593       -14.2205
  31   2.0000      -0.506386       -13.7795
  32   2.0000      -0.469400       -12.7730
  33   2.0000      -0.463453       -12.6112
  34   2.0000      -0.422700       -11.5022
  35   2.0000      -0.419383       -11.4120
  36   2.0000      -0.349297        -9.5049
  37   0.0000       0.025312         0.6888
  38   0.0000       0.037863         1.0303
  39   0.0000       0.049831         1.3560
  40   0.0000       0.061124         1.6633
  41   0.0000       0.063668         1.7325

MULLIKEN ATOMIC CHARGES
-----------------------
   0 Cl:   -0.242458
   1 O :   -0.626602
   2 N :   -0.455304
   3 N :   -0.707962
   4 N :   -0.173049
   5 C :    0.551295
   6 C :    0.012267
   7 C :    1.109820
   8 C :    1.004989
   9 H :    0.205580
  10 H :    0.090472
  11 H :   -0.452564
  12 H :   -0.316486
Sum of atomic charges:   -0.0000000

LOEWDIN ATOMIC CHARGES
----------------------
   0 Cl:    0.570664
   1 O :    0.139838
   2 N :    0.033664
   3 N :   -0.025535
   4 N :    0.078162
   5 C :   -0.254449
   6 C :   -0.596721
   7 C :    0.084195
   8 C :    0.016705
   9 H :   -0.054416
  10 H :   -0.009404
  11 H :    0.009102
  12 H :    0.008196

  Mayer bond orders larger than 0.100000
B(  0-Cl,  6-C ) :   1.0917 B(  0-Cl,  7-C ) :   0.1348 B(  0-Cl,  8-C ) :  -0.3530
B(  1-O ,  4-N ) :   0.8779 B(  1-O ,  5-C ) :  -0.2355 B(  1-O ,  9-H ) :   1.0336
B(  2-N ,  3-N ) :   0.8111 B(  2-N ,  5-C ) :   1.3074 B(  2-N ,  6-C ) :  -0.1617
B(  2-N ,  8-C ) :   0.1493 B(  3-N ,  6-C ) :   1.5440 B(  3-N ,  8-C ) :  -0.2639
B(  4-N ,  5-C ) :   0.6397 B(  4-N , 10-H ) :   1.0354 B(  5-C ,  7-C ) :   0.8357
B(  5-C ,  8-C ) :   0.3322 B(  5-C , 11-H ) :   0.4402 B(  6-C ,  8-C ) :   0.7425
B(  7-C ,  8-C ) :   1.7732 B(  7-C , 12-H ) :   0.2889 B(  8-C , 11-H ) :   0.3551
B(  8-C , 12-H ) :   0.4707

MP2 TOTAL ENERGY:     -852.856146016 Eh
FINAL SINGLE POINT ENERGY      -852.856146016230

DIPOLE MOMENT
-------------
                                X             Y             Z
Electronic contribution:    -10.00757      -1.73213       0.18382
Nuclear contribution   :     11.22674       3.14592      -0.49567
                        -----------------------------------------
Total Dipole Moment    :      1.21917       1.41379      -0.31186
                        -----------------------------------------
Magnitude (a.u.)       :      1.89273
Magnitude (Debye)      :      4.81094

Rotational constants in cm-1:     0.172905     0.023271     0.020682
Rotational constants in MHz :  5183.560150   697.656775   620.028887

                             ****ORCA TERMINATED NORMALLY****
TOTAL RUN TIME: 0 days 0 hours 0 minutes 47 seconds 446 msec
