                         Program Version 5.0.3 -  RELEASE  -
|  1> !ri-mp2 aug-cc-pvdz aug-cc-pvdz/c tightscf
|  2> %pal nprocs 16 end
|  3>
|  4> * xyz 0 1
|  5> Cl    2.930400   -0.091791    0.000009
|  6> N    -0.768407   -1.166317   -0.000008
|  7> N     0.553379   -1.155933   -0.000004
|  8> N    -4.016345   -0.114795   -0.000012
|  9> C    -0.799758    1.241089    0.000003
| 10> C     0.573371    1.246721    0.000007
| 11> C    -1.433356   -0.007434   -0.000005
| 12> C     1.197294   -0.000622    0.000004
| 13> C    -2.865884   -0.095394   -0.000009
| 14> H    -1.376813    2.154336    0.000005
| 15> H     1.149618    2.159260    0.000013
| 16> *
| 17>
| 18>                          ****END OF INPUT****

CARTESIAN COORDINATES (ANGSTROEM)
---------------------------------
  Cl     2.930400   -0.091791    0.000009
  N     -0.768407   -1.166317   -0.000008
  N      0.553379   -1.155933   -0.000004
  N     -4.016345   -0.114795   -0.000012
  C     -0.799758    1.241089    0.000003
  C      0.573371    1.246721    0.000007
  C     -1.433356   -0.007434   -0.000005
  C      1.197294   -0.000622    0.000004
  C     -2.865884   -0.095394   -0.000009
  H     -1.376813    2.154336    0.000005
  H      1.149618    2.159260    0.000013

 Total Charge           Charge          ....    0
 Multiplicity           Mult            ....    1
 Number of Electrons    NEL             ....   70
 Basis Dimension        Dim             ....  229

ORBITAL ENERGIES
----------------

  NO   OCC          E(Eh)            E(eV)
   0   2.0000    -104.876169     -2853.8256
   1   2.0000     -15.674275      -426.5187
   2   2.0000     -15.662656      -426.2025
   3   2.0000     -15.611282      -424.8046
   4   2.0000     -11.389158      -309.9147
   5   2.0000     -11.359576      -309.1098
   6   2.0000     -11.326017      -308.1966
   7   2.0000     -11.319550      -308.0206
   8   2.0000     -11.308037      -307.7073
   9   2.0000     -10.602310      -288.5035
  10   2.0000      -8.070161      -219.6003
  11   2.0000      -8.066539      -219.5017
  12   2.0000      -8.066524      -219.5013
  13   2.0000      -1.410395       -38.3788
  14   2.0000      -1.255458       -34.1628
  15   2.0000      -1.218117       -33.1466
  16   2.0000      -1.171828       -31.8871
  17   2.0000      -1.111914       -30.2567
  18   2.0000      -0.973367       -26.4867
  19   2.0000      -0.931689       -25.3526
  20   2.0000      -0.816567       -22.2199
  21   2.0000      -0.767017       -20.8716
  22   2.0000      -0.708791       -19.2872
  23   2.0000      -0.658990       -17.9320
  24   2.0000      -0.645791       -17.5729
  25   2.0000      -0.630949       -17.1690
  26   2.0000      -0.586555       -15.9610
  27   2.0000      -0.548510       -14.9257
  28   2.0000      -0.540632       -14.7114
  29   2.0000      -0.503024       -13.6880
  30   2.0000      -0.500769       -13.6266
  31   2.0000      -0.491322       -13.3695
  32   2.0000      -0.450762       -12.2659
  33   2.0000      -0.448300       -12.1989
  34   2.0000      -0.398465       -10.8428
  35   0.0000       0.020816         0.5664
  36   0.0000       0.032979         0.8974
  37   0.0000       0.040870         1.1121
  38   0.0000       0.042229         1.1491
  39   0.0000       0.069538         1.8922

MULLIKEN ATOMIC CHARGES
-----------------------
   0 Cl:   -0.203499
   1 N :   -0.772469
   2 N :   -0.487970
   3 N :   -0.191354
   4 C :    0.624534
   5 C :    1.326289
   6 C :    1.579703
   7 C :   -0.164979
   8 C :   -0.927959
   9 H :   -0.473831
  10 H :   -0.308464
Sum of atomic charges:    0.0000000

LOEWDIN ATOMIC CHARGES
----------------------
   0 Cl:    0.612539
   1 N :    0.062131
   2 N :   -0.013075
   3 N :    0.104818
   4 C :    0.089372
   5 C :    0.027583
   6 C :   -0.244504
   7 C :   -0.580597
   8 C :   -0.097400
   9 H :    0.027450
  10 H :    0.011681

  Mayer bond orders larger than 0.100000
B(  0-Cl,  4-C ) :   0.1670 B(  0-Cl,  5-C ) :  -0.4852 B(  0-Cl,  7-C ) :   1.2278
B(  1-N ,  2-N ) :   0.9484 B(  1-N ,  5-C ) :   0.1299 B(  1-N ,  6-C ) :   0.9679
B(  1-N ,  8-C ) :   0.4046 B(  2-N ,  4-C ) :   0.1005 B(  2-N ,  5-C ) :  -0.2961
B(  2-N ,  7-C ) :   1.3352 B(  3-N ,  8-C ) :   2.5432 B(  4-C ,  5-C ) :   1.8371
B(  4-C ,  6-C ) :   1.4588 B(  4-C ,  7-C ) :   0.1509 B(  4-C ,  9-H ) :   0.1762
B(  4-C , 10-H ) :   0.2752 B(  5-C ,  7-C ) :   0.3327 B(  5-C ,  9-H ) :   0.3666
B(  5-C , 10-H ) :   0.4182 B(  6-C ,  8-C ) :  -0.4687 B(  6-C ,  9-H ) :   0.2683
B(  7-C , 10-H ) :   0.1021

MP2 TOTAL ENERGY:     -814.631628369 Eh
FINAL SINGLE POINT ENERGY      -814.631628368783

DIPOLE MOMENT
-------------
                                X             Y             Z
Electronic contribution:      5.32625      -2.37607       0.00001
Nuclear contribution   :     -4.18708       4.17407       0.00000
                        -----------------------------------------
Total Dipole Moment    :      1.13916       1.79801       0.00001
                        -----------------------------------------
Magnitude (a.u.)       :      2.12850
Magnitude (Debye)      :      5.41022

Rotational constants in cm-1:     0.198861     0.024143     0.021530
Rotational constants in MHz :  5961.688820   723.801476   645.439448

                             ****ORCA TERMINATED NORMALLY****
TOTAL RUN TIME: 0 days 0 hours 0 minutes 43 seconds 794 msec
