                         Program Version 5.0.3 -  RELEASE  -
|  1> !ri-mp2 aug-cc-pvdz aug-cc-pvdz/c tightscf
|  2> %pal nprocs 16 end
|  3>
|  4> * xyz 0 1
|  5> C     -1.358848    0.996788        0.000000
|  6> C     -1.701599   -1.270252        0.000000
|  7> C      2.192531    0.578405        0.000000
|  8> C      0.000000    0.735121        0.000000
|  9> C      0.431371   -0.608939        0.000000
| 10> N     -2.209140   -0.025435        0.000000
| 11> N     -0.422841   -1.629439        0.000000
| 12> N      1.809446   -0.668802        0.000000
| 13> N      1.159397    1.480474        0.000000
| 14> H     -1.773845    1.998833        0.000000
| 15> H     -2.428333   -2.073138        0.000000
| 16> H      3.219520    0.908175        0.000000
| 17> H      1.243895    2.481808        0.000000
| 18> *
| 19>
| 20>                          ****END OF INPUT****

CARTESIAN COORDINATES (ANGSTROEM)
---------------------------------
  C     -1.358848    0.996788    0.000000
  C     -1.701599   -1.270252    0.000000
  C      2.192531    0.578405    0.000000
  C      0.000000    0.735121    0.000000
  C      0.431371   -0.608939    0.000000
  N     -2.209140   -0.025435    0.000000
  N     -0.422841   -1.629439    0.000000
  N      1.809446   -0.668802    0.000000
  N      1.159397    1.480474    0.000000
  H     -1.773845    1.998833    0.000000
  H     -2.428333   -2.073138    0.000000
  H      3.219520    0.908175    0.000000
  H      1.243895    2.481808    0.000000

 Total Charge           Charge          ....    0
 Multiplicity           Mult            ....    1
 Number of Electrons    NEL             ....   62
 Basis Dimension        Dim             ....  243

ORBITAL ENERGIES
----------------

  NO   OCC          E(Eh)            E(eV)
   0   2.0000     -15.652267      -425.9198
   1   2.0000     -15.578933      -423.9243
   2   2.0000     -15.577479      -423.8848
   3   2.0000     -15.577106      -423.8746
   4   2.0000     -11.351534      -308.8909
   5   2.0000     -11.318893      -308.0027
   6   2.0000     -11.313342      -307.8517
   7   2.0000     -11.311303      -307.7962
   8   2.0000     -11.293969      -307.3245
   9   2.0000      -1.382284       -37.6139
  10   2.0000      -1.303633       -35.4737
  11   2.0000      -1.224913       -33.3316
  12   2.0000      -1.175386       -31.9839
  13   2.0000      -1.062932       -28.9238
  14   2.0000      -0.920210       -25.0402
  15   2.0000      -0.888477       -24.1767
  16   2.0000      -0.855286       -23.2735
  17   2.0000      -0.782149       -21.2834
  18   2.0000      -0.724346       -19.7104
  19   2.0000      -0.704897       -19.1812
  20   2.0000      -0.653950       -17.7949
  21   2.0000      -0.644092       -17.5266
  22   2.0000      -0.621052       -16.8997
  23   2.0000      -0.589345       -16.0369
  24   2.0000      -0.546852       -14.8806
  25   2.0000      -0.491605       -13.3773
  26   2.0000      -0.470613       -12.8060
  27   2.0000      -0.458498       -12.4764
  28   2.0000      -0.411040       -11.1850
  29   2.0000      -0.377519       -10.2728
  30   2.0000      -0.344339        -9.3699
  31   0.0000       0.016856         0.4587
  32   0.0000       0.033951         0.9238
  33   0.0000       0.048736         1.3262
  34   0.0000       0.056628         1.5409
  35   0.0000       0.063302         1.7225

MULLIKEN ATOMIC CHARGES
-----------------------
   0 C :    1.230928
   1 C :    0.743880
   2 C :    1.034303
   3 C :    0.457888
   4 C :    0.425282
   5 N :   -0.817425
   6 N :   -0.706517
   7 N :   -0.818727
   8 N :   -0.724648
   9 H :   -0.299985
  10 H :   -0.242961
  11 H :   -0.150516
  12 H :   -0.131503
Sum of atomic charges:   -0.0000000

LOEWDIN ATOMIC CHARGES
----------------------
   0 C :    0.034551
   1 C :   -0.067802
   2 C :    0.018747
   3 C :   -0.128585
   4 C :   -0.248139
   5 N :    0.028278
   6 N :    0.087137
   7 N :    0.086934
   8 N :    0.125863
   9 H :    0.010099
  10 H :   -0.000874
  11 H :    0.020025
  12 H :    0.033768

  Mayer bond orders larger than 0.100000
B(  0-C ,  1-C ) :  -0.1567 B(  0-C ,  3-C ) :   1.2309 B(  0-C ,  4-C ) :   0.3116
B(  0-C ,  5-N ) :   1.1953 B(  0-C ,  8-N ) :  -0.1149 B(  0-C ,  9-H ) :   0.4178
B(  1-C ,  5-N ) :   1.2680 B(  1-C ,  6-N ) :   1.3885 B(  1-C , 10-H ) :   0.9533
B(  2-C ,  7-N ) :   1.6088 B(  2-C ,  8-N ) :   0.9885 B(  2-C , 11-H ) :   0.8357
B(  2-C , 12-H ) :  -0.1193 B(  3-C ,  4-C ) :   1.0426 B(  3-C ,  8-N ) :   0.7312
B(  3-C ,  9-H ) :   0.3238 B(  3-C , 12-H ) :  -0.1676 B(  4-C ,  6-N ) :   1.0729
B(  4-C ,  7-N ) :   0.8517 B(  4-C , 10-H ) :   0.1037 B(  8-N , 12-H ) :   1.2867

MP2 TOTAL ENERGY:     -410.846824029 Eh
FINAL SINGLE POINT ENERGY      -410.846824028973

DIPOLE MOMENT
-------------
                                X             Y             Z
Electronic contribution:      0.45032      -0.93314       0.00000
Nuclear contribution   :      0.25516       3.20945       0.00000
                        -----------------------------------------
Total Dipole Moment    :      0.70548       2.27631       0.00000
                        -----------------------------------------
Magnitude (a.u.)       :      2.38312
Magnitude (Debye)      :      6.05741

Rotational constants in cm-1:     0.138934     0.058530     0.041181
Rotational constants in MHz :  4165.149398  1754.672792  1234.576663

                             ****ORCA TERMINATED NORMALLY****
TOTAL RUN TIME: 0 days 0 hours 0 minutes 42 seconds 967 msec
