                         Program Version 5.0.3 -  RELEASE  -
|  1> !ri-mp2 aug-cc-pvdz aug-cc-pvdz/c tightscf
|  2> %pal nprocs 16 end
|  3> %maxcore 3800
|  4>
|  5> * xyz 0 1
|  6> C     -2.118438    0.068567        0.000000
|  7> N     -1.263191    1.092745        0.000000
|  8> C      0.000000    0.698379        0.000000
|  9> C      0.447803   -0.635313        0.000000
| 10> N      1.831505   -0.681693        0.000000
| 11> C      2.197462    0.568529        0.000000
| 12> N      1.143662    1.456527        0.000000
| 13> N     -1.827298   -1.239681        0.000000
| 14> C     -0.545581   -1.604990        0.000000
| 15> H     -3.170670    0.323513        0.000000
| 16> H      3.218998    0.914021        0.000000
| 17> H      1.191504    2.461120        0.000000
| 18> H     -0.320055   -2.664970        0.000000
| 19> *
| 20>
| 21>                          ****END OF INPUT****

CARTESIAN COORDINATES (ANGSTROEM)
---------------------------------
  C     -2.118438    0.068567    0.000000
  N     -1.263191    1.092745    0.000000
  C      0.000000    0.698379    0.000000
  C      0.447803   -0.635313    0.000000
  N      1.831505   -0.681693    0.000000
  C      2.197462    0.568529    0.000000
  N      1.143662    1.456527    0.000000
  N     -1.827298   -1.239681    0.000000
  C     -0.545581   -1.604990    0.000000
  H     -3.170670    0.323513    0.000000
  H      3.218998    0.914021    0.000000
  H      1.191504    2.461120    0.000000
  H     -0.320055   -2.664970    0.000000

 Total Charge           Charge          ....    0
 Multiplicity           Mult            ....    1
 Number of Electrons    NEL             ....   62
 Basis Dimension        Dim             ....  243

ORBITAL ENERGIES
----------------

  NO   OCC          E(Eh)            E(eV)
   0   2.0000     -15.646879      -425.7732
   1   2.0000     -15.587380      -424.1542
   2   2.0000     -15.583376      -424.0452
   3   2.0000     -15.576379      -423.8548
   4   2.0000     -11.343157      -308.6630
   5   2.0000     -11.335505      -308.4548
   6   2.0000     -11.321559      -308.0753
   7   2.0000     -11.304967      -307.6238
   8   2.0000     -11.274511      -306.7950
   9   2.0000      -1.383244       -37.6400
  10   2.0000      -1.305462       -35.5234
  11   2.0000      -1.223949       -33.3054
  12   2.0000      -1.180081       -32.1116
  13   2.0000      -1.058026       -28.7903
  14   2.0000      -0.920564       -25.0498
  15   2.0000      -0.884792       -24.0764
  16   2.0000      -0.858266       -23.3546
  17   2.0000      -0.783613       -21.3232
  18   2.0000      -0.727256       -19.7896
  19   2.0000      -0.695221       -18.9179
  20   2.0000      -0.645287       -17.5592
  21   2.0000      -0.641582       -17.4583
  22   2.0000      -0.619390       -16.8545
  23   2.0000      -0.593145       -16.1403
  24   2.0000      -0.545512       -14.8441
  25   2.0000      -0.506263       -13.7761
  26   2.0000      -0.470317       -12.7980
  27   2.0000      -0.459213       -12.4958
  28   2.0000      -0.412613       -11.2278
  29   2.0000      -0.389094       -10.5878
  30   2.0000      -0.336766        -9.1639
  31   0.0000       0.023734         0.6458
  32   0.0000       0.042018         1.1434
  33   0.0000       0.045950         1.2504
  34   0.0000       0.054272         1.4768
  35   0.0000       0.068780         1.8716

MULLIKEN ATOMIC CHARGES
-----------------------
   0 C :    0.731009
   1 N :   -0.693154
   2 C :    0.518597
   3 C :    0.334668
   4 N :   -0.986090
   5 C :    1.027204
   6 N :   -0.542225
   7 N :   -0.804909
   8 C :    1.203274
   9 H :   -0.244764
  10 H :   -0.153121
  11 H :   -0.121875
  12 H :   -0.268614
Sum of atomic charges:   -0.0000000

LOEWDIN ATOMIC CHARGES
----------------------
   0 C :   -0.065183
   1 N :    0.079841
   2 C :   -0.199162
   3 C :   -0.194730
   4 N :    0.069545
   5 C :    0.008500
   6 N :    0.148150
   7 N :    0.028837
   8 C :    0.051654
   9 H :    0.000225
  10 H :    0.015187
  11 H :    0.040298
  12 H :    0.016837

  Mayer bond orders larger than 0.100000
B(  0-C ,  1-N ) :   1.4084 B(  0-C ,  7-N ) :   1.3128 B(  0-C ,  8-C ) :  -0.1521
B(  0-C ,  9-H ) :   0.9431 B(  1-N ,  2-C ) :   1.0799 B(  1-N ,  6-N ) :  -0.1299
B(  2-C ,  3-C ) :   0.9772 B(  2-C ,  6-N ) :   0.9533 B(  2-C ,  8-C ) :   0.3547
B(  2-C ,  9-H ) :   0.1400 B(  2-C , 11-H ) :  -0.1128 B(  3-C ,  4-N ) :   0.7372
B(  3-C ,  8-C ) :   1.2902 B(  3-C , 10-H ) :   0.1521 B(  3-C , 12-H ) :   0.3559
B(  4-N ,  5-C ) :   1.6778 B(  5-C ,  6-N ) :   0.9010 B(  5-C ,  8-C ) :   0.1066
B(  5-C , 10-H ) :   0.8513 B(  5-C , 11-H ) :  -0.1326 B(  6-N , 11-H ) :   1.2554
B(  7-N ,  8-C ) :   1.1894 B(  8-C , 12-H ) :   0.3605

MP2 TOTAL ENERGY:     -410.852480877 Eh
FINAL SINGLE POINT ENERGY      -410.852480876874

DIPOLE MOMENT
-------------
                                X             Y             Z
Electronic contribution:      0.01117       0.14723      -0.00000
Nuclear contribution   :      0.89098       1.00563       0.00000
                        -----------------------------------------
Total Dipole Moment    :      0.90216       1.15286      -0.00000
                        -----------------------------------------
Magnitude (a.u.)       :      1.46389
Magnitude (Debye)      :      3.72092

Rotational constants in cm-1:     0.138844     0.058683     0.041249
Rotational constants in MHz :  4162.427354  1759.266677  1236.608933

                             ****ORCA TERMINATED NORMALLY****
TOTAL RUN TIME: 0 days 0 hours 0 minutes 44 seconds 778 msec
