                         Program Version 5.0.3 -  RELEASE  -
|  1> !ri-mp2 aug-cc-pvdz aug-cc-pvdz/c tightscf
|  2> %pal nprocs 16 end
|  3>
|  4> * xyz 0 1
|  5> C      0.000000    0.690260        0.000000
|  6> C      0.612433   -0.524322        0.000000
|  7> C     -1.421181    0.815858        0.000000
|  8> C      2.250868    1.064696        0.000000
|  9> C     -1.472895   -1.715075        0.000000
| 10> N      1.008530    1.656063        0.000000
| 11> N      1.963364   -0.327181        0.000000
| 12> N     -0.075505   -1.702376        0.000000
| 13> N     -2.045569   -0.457319        0.000000
| 14> O     -2.078366    1.839915        0.000000
| 15> O      3.351110    1.564725        0.000000
| 16> O     -2.104133   -2.748954        0.000000
| 17> H      0.868938    2.650817        0.000000
| 18> H      2.693788   -1.017316        0.000000
| 19> H      0.372696   -2.603452        0.000000
| 20> H     -3.055399   -0.448350        0.000000
| 21> *
| 22>
| 23>                          ****END OF INPUT****

CARTESIAN COORDINATES (ANGSTROEM)
---------------------------------
  C      0.000000    0.690260    0.000000
  C      0.612433   -0.524322    0.000000
  C     -1.421181    0.815858    0.000000
  C      2.250868    1.064696    0.000000
  C     -1.472895   -1.715075    0.000000
  N      1.008530    1.656063    0.000000
  N      1.963364   -0.327181    0.000000
  N     -0.075505   -1.702376    0.000000
  N     -2.045569   -0.457319    0.000000
  O     -2.078366    1.839915    0.000000
  O      3.351110    1.564725    0.000000
  O     -2.104133   -2.748954    0.000000
  H      0.868938    2.650817    0.000000
  H      2.693788   -1.017316    0.000000
  H      0.372696   -2.603452    0.000000
  H     -3.055399   -0.448350    0.000000

 Total Charge           Charge          ....    0
 Multiplicity           Mult            ....    1
 Number of Electrons    NEL             ....   86
 Basis Dimension        Dim             ....  312

ORBITAL ENERGIES
----------------

  NO   OCC          E(Eh)            E(eV)
   0   2.0000     -20.570349      -559.7476
   1   2.0000     -20.563790      -559.5692
   2   2.0000     -20.557310      -559.3929
   3   2.0000     -15.671871      -426.4533
   4   2.0000     -15.666996      -426.3206
   5   2.0000     -15.645811      -425.7442
   6   2.0000     -15.640336      -425.5952
   7   2.0000     -11.444146      -311.4111
   8   2.0000     -11.427450      -310.9567
   9   2.0000     -11.405760      -310.3665
  10   2.0000     -11.394203      -310.0520
  11   2.0000     -11.298576      -307.4499
  12   2.0000      -1.458777       -39.6953
  13   2.0000      -1.442568       -39.2543
  14   2.0000      -1.416987       -38.5582
  15   2.0000      -1.370085       -37.2819
  16   2.0000      -1.313899       -35.7530
  17   2.0000      -1.266293       -34.4576
  18   2.0000      -1.237489       -33.6738
  19   2.0000      -1.077570       -29.3222
  20   2.0000      -0.942505       -25.6469
  21   2.0000      -0.930179       -25.3115
  22   2.0000      -0.896118       -24.3846
  23   2.0000      -0.842253       -22.9189
  24   2.0000      -0.797707       -21.7067
  25   2.0000      -0.762426       -20.7467
  26   2.0000      -0.716718       -19.5029
  27   2.0000      -0.708716       -19.2851
  28   2.0000      -0.701760       -19.0959
  29   2.0000      -0.692542       -18.8450
  30   2.0000      -0.661199       -17.9921
  31   2.0000      -0.655643       -17.8409
  32   2.0000      -0.648386       -17.6435
  33   2.0000      -0.631061       -17.1720
  34   2.0000      -0.592178       -16.1140
  35   2.0000      -0.555237       -15.1088
  36   2.0000      -0.503412       -13.6986
  37   2.0000      -0.494974       -13.4689
  38   2.0000      -0.473561       -12.8863
  39   2.0000      -0.472963       -12.8700
  40   2.0000      -0.462304       -12.5799
  41   2.0000      -0.449316       -12.2265
  42   2.0000      -0.325967        -8.8700
  43   0.0000       0.014790         0.4025
  44   0.0000       0.042367         1.1529
  45   0.0000       0.046950         1.2776
  46   0.0000       0.055271         1.5040
  47   0.0000       0.063518         1.7284

MULLIKEN ATOMIC CHARGES
-----------------------
   0 C :    0.991117
   1 C :    0.783232
   2 C :    1.325820
   3 C :    1.074922
   4 C :    1.096698
   5 N :   -0.762160
   6 N :   -0.629160
   7 N :   -0.626997
   8 N :   -0.570983
   9 O :   -0.869942
  10 O :   -0.726159
  11 O :   -0.728226
  12 H :   -0.106719
  13 H :   -0.114659
  14 H :   -0.105184
  15 H :   -0.031602
Sum of atomic charges:   -0.0000000

LOEWDIN ATOMIC CHARGES
----------------------
   0 C :   -0.089634
   1 C :   -0.116825
   2 C :   -0.275156
   3 C :   -0.303957
   4 C :   -0.311099
   5 N :    0.186907
   6 N :    0.212209
   7 N :    0.201417
   8 N :    0.203094
   9 O :    0.038211
  10 O :    0.028673
  11 O :    0.045675
  12 H :    0.047837
  13 H :    0.044722
  14 H :    0.044918
  15 H :    0.043007

  Mayer bond orders larger than 0.100000
B(  0-C ,  1-C ) :   1.1937 B(  0-C ,  2-C ) :   0.6077 B(  0-C ,  5-N ) :   0.5697
B(  0-C ,  8-N ) :   0.1133 B(  0-C , 12-H ) :  -0.1290 B(  1-C ,  2-C ) :   0.1901
B(  1-C ,  3-C ) :  -0.1341 B(  1-C ,  6-N ) :   0.7261 B(  1-C ,  7-N ) :   0.7744
B(  1-C ,  9-O ) :   0.1015 B(  1-C , 13-H ) :  -0.1604 B(  1-C , 14-H ) :  -0.1732
B(  2-C ,  5-N ) :  -0.1872 B(  2-C ,  8-N ) :   0.6151 B(  2-C ,  9-O ) :   1.1070
B(  3-C ,  5-N ) :   1.2623 B(  3-C ,  6-N ) :   0.9759 B(  3-C , 10-O ) :   1.4044
B(  3-C , 12-H ) :  -0.1067 B(  3-C , 13-H ) :  -0.1043 B(  4-C ,  7-N ) :   1.0622
B(  4-C ,  8-N ) :   1.0422 B(  4-C , 11-O ) :   1.4157 B(  5-N , 12-H ) :   1.2705
B(  6-N , 13-H ) :   1.2697 B(  7-N , 14-H ) :   1.2326 B(  8-N , 15-H ) :   1.1669

MP2 TOTAL ENERGY:     -636.120938090 Eh
FINAL SINGLE POINT ENERGY      -636.120938090028

DIPOLE MOMENT
-------------
                                X             Y             Z
Electronic contribution:     -0.18855       0.18350      -0.00000
Nuclear contribution   :      0.83769      -1.35739       0.00000
                        -----------------------------------------
Total Dipole Moment    :      0.64914      -1.17389      -0.00000
                        -----------------------------------------
Magnitude (a.u.)       :      1.34142
Magnitude (Debye)      :      3.40963

Rotational constants in cm-1:     0.062901     0.024409     0.017585
Rotational constants in MHz :  1885.723002   731.777946   527.193889

                             ****ORCA TERMINATED NORMALLY****
TOTAL RUN TIME: 0 days 0 hours 1 minutes 25 seconds 796 msec
