                         Program Version 5.0.3 -  RELEASE  -
|  1> !ri-mp2 aug-cc-pvdz aug-cc-pvdz/c tightscf
|  2> %pal nprocs 16 end
|  3> %maxcore 3800
|  4>
|  5> * xyz 0 1
|  6> C     -0.379463   -0.952795    0.667838
|  7> C     -1.216504   -0.612725   -0.585325
|  8> C      0.778841    0.063866    0.600579
|  9> C     -0.988784    0.890637   -0.693430
| 10> C      2.095188   -0.498544    0.089983
| 11> O      0.349765    1.101351   -0.325741
| 12> O     -1.140863   -0.858323    1.860672
| 13> O     -0.699210   -1.200894   -1.771280
| 14> O     -1.886143    1.504898    0.226296
| 15> O      3.091379    0.506028   -0.023038
| 16> H     -0.014736   -1.978871    0.624883
| 17> H     -2.268903   -0.855465   -0.435326
| 18> H      0.930469    0.517790    1.580985
| 19> H     -1.123910    1.287185   -1.699521
| 20> H      1.930774   -0.998818   -0.869860
| 21> H      2.475020   -1.231156    0.803418
| 22> H     -1.576805    0.003890    1.866101
| 23> H     -0.895993   -2.142073   -1.764060
| 24> H     -1.658150    2.439069    0.286412
| 25> H      2.747131    1.191335   -0.606172
| 26> *
| 27>
| 28>                          ****END OF INPUT****

CARTESIAN COORDINATES (ANGSTROEM)
---------------------------------
  C     -0.379463   -0.952795    0.667838
  C     -1.216504   -0.612725   -0.585325
  C      0.778841    0.063866    0.600579
  C     -0.988784    0.890637   -0.693430
  C      2.095188   -0.498544    0.089983
  O      0.349765    1.101351   -0.325741
  O     -1.140863   -0.858323    1.860672
  O     -0.699210   -1.200894   -1.771280
  O     -1.886143    1.504898    0.226296
  O      3.091379    0.506028   -0.023038
  H     -0.014736   -1.978871    0.624883
  H     -2.268903   -0.855465   -0.435326
  H      0.930469    0.517790    1.580985
  H     -1.123910    1.287185   -1.699521
  H      1.930774   -0.998818   -0.869860
  H      2.475020   -1.231156    0.803418
  H     -1.576805    0.003890    1.866101
  H     -0.895993   -2.142073   -1.764060
  H     -1.658150    2.439069    0.286412
  H      2.747131    1.191335   -0.606172

 Total Charge           Charge          ....    0
 Multiplicity           Mult            ....    1
 Number of Electrons    NEL             ....   80
 Basis Dimension        Dim             ....  320

ORBITAL ENERGIES
----------------

  NO   OCC          E(Eh)            E(eV)
   0   2.0000     -20.597561      -560.4881
   1   2.0000     -20.593736      -560.3840
   2   2.0000     -20.587284      -560.2085
   3   2.0000     -20.576440      -559.9134
   4   2.0000     -20.565162      -559.6065
   5   2.0000     -11.356194      -309.0177
   6   2.0000     -11.305694      -307.6436
   7   2.0000     -11.303801      -307.5921
   8   2.0000     -11.294825      -307.3478
   9   2.0000     -11.284175      -307.0580
  10   2.0000      -1.443640       -39.2834
  11   2.0000      -1.389118       -37.7998
  12   2.0000      -1.373739       -37.3813
  13   2.0000      -1.369260       -37.2595
  14   2.0000      -1.351971       -36.7890
  15   2.0000      -1.055956       -28.7340
  16   2.0000      -1.028080       -27.9755
  17   2.0000      -0.913934       -24.8694
  18   2.0000      -0.838953       -22.8291
  19   2.0000      -0.820887       -22.3375
  20   2.0000      -0.757234       -20.6054
  21   2.0000      -0.739034       -20.1101
  22   2.0000      -0.711683       -19.3659
  23   2.0000      -0.690798       -18.7976
  24   2.0000      -0.656093       -17.8532
  25   2.0000      -0.646700       -17.5976
  26   2.0000      -0.624738       -17.0000
  27   2.0000      -0.618868       -16.8403
  28   2.0000      -0.610812       -16.6210
  29   2.0000      -0.585802       -15.9405
  30   2.0000      -0.570715       -15.5300
  31   2.0000      -0.560748       -15.2587
  32   2.0000      -0.532449       -14.4887
  33   2.0000      -0.520593       -14.1661
  34   2.0000      -0.513326       -13.9683
  35   2.0000      -0.484943       -13.1960
  36   2.0000      -0.474343       -12.9075
  37   2.0000      -0.469352       -12.7717
  38   2.0000      -0.435794       -11.8586
  39   2.0000      -0.423367       -11.5204
  40   0.0000       0.031935         0.8690
  41   0.0000       0.035329         0.9614
  42   0.0000       0.045858         1.2479
  43   0.0000       0.048466         1.3188
  44   0.0000       0.060440         1.6447

MULLIKEN ATOMIC CHARGES
-----------------------
   0 C :    0.559668
   1 C :    0.815543
   2 C :    0.724267
   3 C :    1.457757
   4 C :    1.140921
   5 O :   -1.170645
   6 O :   -0.803248
   7 O :   -0.833271
   8 O :   -0.740094
   9 O :   -0.736352
  10 H :   -0.255640
  11 H :   -0.110795
  12 H :   -0.276805
  13 H :   -0.203492
  14 H :   -0.071866
  15 H :   -0.083994
  16 H :    0.147845
  17 H :    0.151004
  18 H :    0.130567
  19 H :    0.158628
Sum of atomic charges:    0.0000000

LOEWDIN ATOMIC CHARGES
----------------------
   0 C :   -0.136963
   1 C :   -0.141925
   2 C :   -0.118207
   3 C :   -0.180995
   4 C :   -0.019226
   5 O :    0.049233
   6 O :    0.148835
   7 O :    0.156111
   8 O :    0.154759
   9 O :    0.121517
  10 H :    0.037802
  11 H :    0.045390
  12 H :    0.042884
  13 H :    0.038409
  14 H :    0.013558
  15 H :    0.014483
  16 H :   -0.075230
  17 H :   -0.044957
  18 H :   -0.038785
  19 H :   -0.066695

  Mayer bond orders larger than 0.100000
B(  0-C ,  1-C ) :   1.3134 B(  0-C ,  2-C ) :   1.1732 B(  0-C ,  5-O ) :   0.1121
B(  0-C ,  6-O ) :   0.1571 B(  0-C ,  7-O ) :   0.1380 B(  0-C , 10-H ) :   0.7211
B(  0-C , 11-H ) :   0.2068 B(  0-C , 12-H ) :   0.2564 B(  0-C , 14-H ) :  -0.1311
B(  1-C ,  2-C ) :  -0.1791 B(  1-C ,  3-C ) :   1.1730 B(  1-C ,  7-O ) :   0.3128
B(  1-C , 11-H ) :   0.5112 B(  1-C , 13-H ) :   0.1161 B(  2-C ,  4-C ) :   1.2093
B(  2-C ,  5-O ) :   0.2347 B(  2-C ,  9-O ) :   0.2058 B(  2-C , 12-H ) :   0.4357
B(  2-C , 14-H ) :   0.2468 B(  3-C ,  5-O ) :   0.6007 B(  3-C ,  8-O ) :   0.3287
B(  3-C , 13-H ) :   0.7870 B(  4-C ,  5-O ) :   0.1051 B(  4-C ,  9-O ) :   0.3988
B(  4-C , 14-H ) :   0.8395 B(  4-C , 15-H ) :   0.8386 B(  6-O , 16-H ) :   1.0973
B(  7-O , 17-H ) :   1.0948 B(  8-O , 18-H ) :   1.0947 B(  9-O , 19-H ) :   1.0573
B( 14-H , 15-H ) :  -0.1333

MP2 TOTAL ENERGY:     -571.259337520 Eh
FINAL SINGLE POINT ENERGY      -571.259337520409

DIPOLE MOMENT
-------------
                                X             Y             Z
Electronic contribution:     -1.34874       1.70022      -0.24303
Nuclear contribution   :      0.54082      -1.75186      -0.21383
                        -----------------------------------------
Total Dipole Moment    :     -0.80792      -0.05164      -0.45685
                        -----------------------------------------
Magnitude (a.u.)       :      0.92958
Magnitude (Debye)      :      2.36279

Rotational constants in cm-1:     0.058935     0.033439     0.033233
Rotational constants in MHz :  1766.831144  1002.476691   996.290951

                             ****ORCA TERMINATED NORMALLY****
TOTAL RUN TIME: 0 days 0 hours 1 minutes 33 seconds 552 msec
