                         Program Version 5.0.3 -  RELEASE  -
|  1> !ri-mp2 aug-cc-pvdz aug-cc-pvdz/c tightscf
|  2> %pal nprocs 16 end
|  3>
|  4> * xyz 0 1
|  5> C     -0.146975   -0.745307        0.000000
|  6> C      0.000000    0.717816        0.000000
|  7> C      1.203301    1.287661        0.000000
|  8> O     -1.208534   -1.324424        0.000000
|  9> H      0.808295   -1.308935        0.000000
| 10> H     -0.915368    1.296860        0.000000
| 11> H      1.332889    2.360924        0.000000
| 12> H      2.104499    0.685522        0.000000
| 13> *
| 14>
| 15>                          ****END OF INPUT****

CARTESIAN COORDINATES (ANGSTROEM)
---------------------------------
  C     -0.146975   -0.745307    0.000000
  C      0.000000    0.717816    0.000000
  C      1.203301    1.287661    0.000000
  O     -1.208534   -1.324424    0.000000
  H      0.808295   -1.308935    0.000000
  H     -0.915368    1.296860    0.000000
  H      1.332889    2.360924    0.000000
  H      2.104499    0.685522    0.000000

 Total Charge           Charge          ....    0
 Multiplicity           Mult            ....    1
 Number of Electrons    NEL             ....   30
 Basis Dimension        Dim             ....  128

ORBITAL ENERGIES
----------------

  NO   OCC          E(Eh)            E(eV)
   0   2.0000     -20.570045      -559.7394
   1   2.0000     -11.345088      -308.7155
   2   2.0000     -11.278283      -306.8977
   3   2.0000     -11.263055      -306.4833
   4   2.0000      -1.400109       -38.0989
   5   2.0000      -1.093771       -29.7630
   6   2.0000      -0.890175       -24.2229
   7   2.0000      -0.789463       -21.4824
   8   2.0000      -0.675892       -18.3920
   9   2.0000      -0.669757       -18.2250
  10   2.0000      -0.608317       -16.5531
  11   2.0000      -0.559705       -15.2303
  12   2.0000      -0.545876       -14.8540
  13   2.0000      -0.431578       -11.7438
  14   2.0000      -0.402538       -10.9536
  15   0.0000       0.030800         0.8381
  16   0.0000       0.042578         1.1586
  17   0.0000       0.050887         1.3847
  18   0.0000       0.066473         1.8088
  19   0.0000       0.067758         1.8438

MULLIKEN ATOMIC CHARGES
-----------------------
   0 C :    0.662517
   1 C :    0.549087
   2 C :    0.507819
   3 O :   -0.685882
   4 H :   -0.131909
   5 H :   -0.383139
   6 H :   -0.251377
   7 H :   -0.267115
Sum of atomic charges:    0.0000000

LOEWDIN ATOMIC CHARGES
----------------------
   0 C :   -0.118885
   1 C :   -0.044049
   2 C :    0.198657
   3 O :    0.015796
   4 H :    0.010332
   5 H :   -0.000933
   6 H :   -0.029868
   7 H :   -0.031050

  Mayer bond orders larger than 0.100000
B(  0-C ,  1-C ) :   1.0655 B(  0-C ,  3-O ) :   1.4656 B(  0-C ,  4-H ) :   0.9300
B(  1-C ,  2-C ) :   1.7951 B(  1-C ,  5-H ) :   0.8409 B(  2-C ,  6-H ) :   0.8607
B(  2-C ,  7-H ) :   0.9698 B(  6-H ,  7-H ) :  -0.1723

MP2 TOTAL ENERGY:     -191.388588590 Eh
FINAL SINGLE POINT ENERGY      -191.388588590292

DIPOLE MOMENT
-------------
                                X             Y             Z
Electronic contribution:     -2.14273      -2.10142       0.00000
Nuclear contribution   :      3.32769       3.02845       0.00000
                        -----------------------------------------
Total Dipole Moment    :      1.18496       0.92702       0.00000
                        -----------------------------------------
Magnitude (a.u.)       :      1.50450
Magnitude (Debye)      :      3.82413

Rotational constants in cm-1:     1.611785     0.155631     0.141926
Rotational constants in MHz : 48320.106780  4665.686629  4254.847604

                             ****ORCA TERMINATED NORMALLY****
TOTAL RUN TIME: 0 days 0 hours 0 minutes 27 seconds 963 msec
