                         Program Version 5.0.3 -  RELEASE  -
|  1> !ri-mp2 aug-cc-pvdz aug-cc-pvdz/c tightscf
|  2> %pal nprocs 16 end
|  3>
|  4> * xyz 0 1
|  5> C     -1.285321    1.316376    0.000000
|  6> C      0.000000    0.560718    0.000000
|  7> N     -0.003088   -0.706431    0.000000
|  8> O      1.307613   -1.225774    0.000000
|  9> H      1.160285   -2.176767    0.000000
| 10> H     -2.132483    0.633899    0.000000
| 11> H     -1.349609    1.963012    0.878124
| 12> H     -1.349609    1.963012   -0.878124
| 13> H      0.944054    1.105492    0.000000
| 14> *
| 15>
| 16>                          ****END OF INPUT****

CARTESIAN COORDINATES (ANGSTROEM)
---------------------------------
  C     -1.285321    1.316376    0.000000
  C      0.000000    0.560718    0.000000
  N     -0.003088   -0.706431    0.000000
  O      1.307613   -1.225774    0.000000
  H      1.160285   -2.176767    0.000000
  H     -2.132483    0.633899    0.000000
  H     -1.349609    1.963012    0.878124
  H     -1.349609    1.963012   -0.878124
  H      0.944054    1.105492    0.000000

 Total Charge           Charge          ....    0
 Multiplicity           Mult            ....    1
 Number of Electrons    NEL             ....   32
 Basis Dimension        Dim             ....  137

ORBITAL ENERGIES
----------------

  NO   OCC          E(Eh)            E(eV)
   0   2.0000     -20.602289      -560.6168
   1   2.0000     -15.628503      -425.2732
   2   2.0000     -11.284154      -307.0574
   3   2.0000     -11.242859      -305.9337
   4   2.0000      -1.420988       -38.6670
   5   2.0000      -1.169811       -31.8322
   6   2.0000      -0.986592       -26.8465
   7   2.0000      -0.779248       -21.2044
   8   2.0000      -0.716403       -19.4943
   9   2.0000      -0.652226       -17.7480
  10   2.0000      -0.603752       -16.4289
  11   2.0000      -0.566444       -15.4137
  12   2.0000      -0.564318       -15.3559
  13   2.0000      -0.546395       -14.8682
  14   2.0000      -0.440805       -11.9949
  15   2.0000      -0.390447       -10.6246
  16   0.0000       0.036822         1.0020
  17   0.0000       0.047798         1.3006
  18   0.0000       0.051787         1.4092
  19   0.0000       0.057108         1.5540
  20   0.0000       0.073530         2.0009

MULLIKEN ATOMIC CHARGES
-----------------------
   0 C :    0.151847
   1 C :    0.691152
   2 N :   -0.244409
   3 O :   -0.588682
   4 H :    0.177696
   5 H :   -0.051084
   6 H :    0.022526
   7 H :    0.022526
   8 H :   -0.181572
Sum of atomic charges:   -0.0000000

LOEWDIN ATOMIC CHARGES
----------------------
   0 C :    0.140481
   1 C :   -0.092311
   2 N :   -0.017543
   3 O :    0.086045
   4 H :   -0.076887
   5 H :   -0.015718
   6 H :   -0.016264
   7 H :   -0.016264
   8 H :    0.008459

  Mayer bond orders larger than 0.100000
B(  0-C ,  1-C ) :   1.1069 B(  0-C ,  5-H ) :   0.9909 B(  0-C ,  6-H ) :   0.9284
B(  0-C ,  7-H ) :   0.9284 B(  1-C ,  2-N ) :   1.7941 B(  1-C ,  3-O ) :  -0.1355
B(  1-C ,  8-H ) :   0.7987 B(  2-N ,  3-O ) :   0.7056 B(  3-O ,  4-H ) :   1.0441

MP2 TOTAL ENERGY:     -208.583478027 Eh
FINAL SINGLE POINT ENERGY      -208.583478026736

DIPOLE MOMENT
-------------
                                X             Y             Z
Electronic contribution:      2.52799      -3.10941      -0.00000
Nuclear contribution   :     -2.75398       3.52562       0.00000
                        -----------------------------------------
Total Dipole Moment    :     -0.22599       0.41622      -0.00000
                        -----------------------------------------
Magnitude (a.u.)       :      0.47361
Magnitude (Debye)      :      1.20383

Rotational constants in cm-1:     1.555300     0.141119     0.132542
Rotational constants in MHz : 46626.707400  4230.632197  3973.516474

                             ****ORCA TERMINATED NORMALLY****
TOTAL RUN TIME: 0 days 0 hours 0 minutes 27 seconds 710 msec
