                         Program Version 5.0.3 -  RELEASE  -
|  1> !ri-mp2 aug-cc-pvdz aug-cc-pvdz/c tightscf
|  2> %pal nprocs 16 end
|  3>
|  4> * xyz 0 1
|  5> S     -0.154598    0.797920   -0.000126
|  6> N     -2.619333   -0.626920    0.000187
|  7> N      2.422422   -0.270399    0.000050
|  8> C     -1.619108   -0.044584    0.000062
|  9> C      1.077109   -0.690019   -0.000032
| 10> H      2.715554    0.220385    0.831850
| 11> H      2.715654    0.220307   -0.831658
| 12> H      0.836423   -1.259219   -0.891167
| 13> H      0.836311   -1.259342    0.891152
| 14> *
| 15>
| 16>                          ****END OF INPUT****

CARTESIAN COORDINATES (ANGSTROEM)
---------------------------------
  S     -0.154598    0.797920   -0.000126
  N     -2.619333   -0.626920    0.000187
  N      2.422422   -0.270399    0.000050
  C     -1.619108   -0.044584    0.000062
  C      1.077109   -0.690019   -0.000032
  H      2.715554    0.220385    0.831850
  H      2.715654    0.220307   -0.831658
  H      0.836423   -1.259219   -0.891167
  H      0.836311   -1.259342    0.891152

 Total Charge           Charge          ....    0
 Multiplicity           Mult            ....    1
 Number of Electrons    NEL             ....   46
 Basis Dimension        Dim             ....  155

ORBITAL ENERGIES
----------------

  NO   OCC          E(Eh)            E(eV)
   0   2.0000     -92.006055     -2503.6120
   1   2.0000     -15.601297      -424.5329
   2   2.0000     -15.588326      -424.1799
   3   2.0000     -11.342426      -308.6431
   4   2.0000     -11.302517      -307.5571
   5   2.0000      -9.007680      -245.1114
   6   2.0000      -6.689931      -182.0423
   7   2.0000      -6.687661      -181.9805
   8   2.0000      -6.685827      -181.9306
   9   2.0000      -1.245188       -33.8833
  10   2.0000      -1.228264       -33.4228
  11   2.0000      -1.053623       -28.6706
  12   2.0000      -0.915446       -24.9106
  13   2.0000      -0.736561       -20.0428
  14   2.0000      -0.680547       -18.5186
  15   2.0000      -0.658050       -17.9065
  16   2.0000      -0.593957       -16.1624
  17   2.0000      -0.570436       -15.5223
  18   2.0000      -0.535506       -14.5719
  19   2.0000      -0.515084       -14.0161
  20   2.0000      -0.482446       -13.1280
  21   2.0000      -0.403401       -10.9771
  22   2.0000      -0.379629       -10.3302
  23   0.0000       0.025088         0.6827
  24   0.0000       0.043170         1.1747
  25   0.0000       0.046081         1.2539
  26   0.0000       0.070502         1.9185
  27   0.0000       0.073414         1.9977

MULLIKEN ATOMIC CHARGES
-----------------------
   0 S :    0.597382
   1 N :   -0.315739
   2 N :   -0.310603
   3 C :   -0.293889
   4 C :    0.476263
   5 H :    0.012783
   6 H :    0.012633
   7 H :   -0.089564
   8 H :   -0.089264
Sum of atomic charges:    0.0000000

LOEWDIN ATOMIC CHARGES
----------------------
   0 S :    0.814882
   1 N :   -0.022689
   2 N :    0.143081
   3 C :   -0.584884
   4 C :   -0.225382
   5 H :   -0.037313
   6 H :   -0.037404
   7 H :   -0.025198
   8 H :   -0.025093

  Mayer bond orders larger than 0.100000
B(  0-S ,  3-C ) :   0.9186 B(  0-S ,  4-C ) :   0.9875 B(  1-N ,  3-C ) :   2.4946
B(  2-N ,  4-C ) :   0.9720 B(  2-N ,  5-H ) :   1.0386 B(  2-N ,  6-H ) :   1.0386
B(  4-C ,  7-H ) :   0.9852 B(  4-C ,  8-H ) :   0.9853

MP2 TOTAL ENERGY:     -585.256289896 Eh
FINAL SINGLE POINT ENERGY      -585.256289895956

DIPOLE MOMENT
-------------
                                X             Y             Z
Electronic contribution:     -5.04255       2.39873      -0.00029
Nuclear contribution   :      6.96749      -2.06622       0.00018
                        -----------------------------------------
Total Dipole Moment    :      1.92495       0.33251      -0.00011
                        -----------------------------------------
Magnitude (a.u.)       :      1.95345
Magnitude (Debye)      :      4.96528

Rotational constants in cm-1:     0.433147     0.069317     0.061051
Rotational constants in MHz : 12985.417527  2078.076367  1830.267113

                             ****ORCA TERMINATED NORMALLY****
TOTAL RUN TIME: 0 days 0 hours 0 minutes 31 seconds 167 msec
