                         Program Version 5.0.3 -  RELEASE  -
|  1> !ri-mp2 aug-cc-pvdz aug-cc-pvdz/c tightscf
|  2> %pal nprocs 16 end
|  3>
|  4> * xyz 0 1
|  5> N     -0.559751    1.671657    0.045915
|  6> C     -0.532972    0.280240   -0.418930
|  7> C     -1.890012   -0.388824   -0.132659
|  8> O     -2.226830   -1.423048   -0.641390
|  9> O     -2.644131    0.266174    0.760645
| 10> H     -2.137138    1.070719    1.003194
| 11> C      0.538406   -0.536571    0.312301
| 12> C      1.953822   -0.103384    0.017412
| 13> O      2.287312    0.951709   -0.465001
| 14> O      2.843745   -1.045709    0.388575
| 15> H     -0.363243    0.188219   -1.494723
| 16> H      0.398061   -0.461864    1.395187
| 17> H      0.431236   -1.589892    0.058200
| 18> H      0.385487    2.025817    0.133560
| 19> H     -1.022701    2.261966   -0.635773
| 20> H      3.730329   -0.698333    0.207579
| 21> *
| 22>
| 23>                          ****END OF INPUT****

CARTESIAN COORDINATES (ANGSTROEM)
---------------------------------
  N     -0.559751    1.671657    0.045915
  C     -0.532972    0.280240   -0.418930
  C     -1.890012   -0.388824   -0.132659
  O     -2.226830   -1.423048   -0.641390
  O     -2.644131    0.266174    0.760645
  H     -2.137138    1.070719    1.003194
  C      0.538406   -0.536571    0.312301
  C      1.953822   -0.103384    0.017412
  O      2.287312    0.951709   -0.465001
  O      2.843745   -1.045709    0.388575
  H     -0.363243    0.188219   -1.494723
  H      0.398061   -0.461864    1.395187
  H      0.431236   -1.589892    0.058200
  H      0.385487    2.025817    0.133560
  H     -1.022701    2.261966   -0.635773
  H      3.730329   -0.698333    0.207579

 Total Charge           Charge          ....    0
 Multiplicity           Mult            ....    1
 Number of Electrons    NEL             ....   70
 Basis Dimension        Dim             ....  270

ORBITAL ENERGIES
----------------

  NO   OCC          E(Eh)            E(eV)
   0   2.0000     -20.644592      -561.7679
   1   2.0000     -20.615571      -560.9782
   2   2.0000     -20.587440      -560.2127
   3   2.0000     -20.556622      -559.3741
   4   2.0000     -15.590035      -424.2264
   5   2.0000     -11.423594      -310.8518
   6   2.0000     -11.393453      -310.0316
   7   2.0000     -11.310478      -307.7737
   8   2.0000     -11.283096      -307.0287
   9   2.0000      -1.495461       -40.6936
  10   2.0000      -1.465451       -39.8769
  11   2.0000      -1.392996       -37.9054
  12   2.0000      -1.370526       -37.2939
  13   2.0000      -1.230245       -33.4767
  14   2.0000      -1.077710       -29.3260
  15   2.0000      -0.954382       -25.9701
  16   2.0000      -0.842783       -22.9333
  17   2.0000      -0.814107       -22.1530
  18   2.0000      -0.749875       -20.4051
  19   2.0000      -0.731526       -19.9058
  20   2.0000      -0.710003       -19.3202
  21   2.0000      -0.703796       -19.1513
  22   2.0000      -0.679365       -18.4865
  23   2.0000      -0.665573       -18.1112
  24   2.0000      -0.632536       -17.2122
  25   2.0000      -0.626929       -17.0596
  26   2.0000      -0.604878       -16.4596
  27   2.0000      -0.573264       -15.5993
  28   2.0000      -0.556999       -15.1567
  29   2.0000      -0.550849       -14.9894
  30   2.0000      -0.509213       -13.8564
  31   2.0000      -0.486085       -13.2271
  32   2.0000      -0.474685       -12.9168
  33   2.0000      -0.460734       -12.5372
  34   2.0000      -0.430042       -11.7020
  35   0.0000       0.028007         0.7621
  36   0.0000       0.036119         0.9828
  37   0.0000       0.044343         1.2066
  38   0.0000       0.054686         1.4881
  39   0.0000       0.062564         1.7024

MULLIKEN ATOMIC CHARGES
-----------------------
   0 N :   -0.352444
   1 C :    0.372383
   2 C :    1.404432
   3 O :   -0.809292
   4 O :   -0.725210
   5 H :    0.279279
   6 C :    0.068725
   7 C :    1.094288
   8 O :   -0.746809
   9 O :   -0.698218
  10 H :   -0.154359
  11 H :    0.038971
  12 H :   -0.017734
  13 H :    0.030705
  14 H :    0.001205
  15 H :    0.214077
Sum of atomic charges:    0.0000000

LOEWDIN ATOMIC CHARGES
----------------------
   0 N :    0.228314
   1 C :   -0.159219
   2 C :   -0.318963
   3 O :    0.049599
   4 O :    0.218149
   5 H :   -0.084393
   6 C :    0.078053
   7 C :   -0.322097
   8 O :    0.052586
   9 O :    0.212234
  10 H :    0.051493
  11 H :    0.045391
  12 H :    0.036386
  13 H :   -0.057419
  14 H :   -0.018066
  15 H :   -0.012049

  Mayer bond orders larger than 0.100000
B(  0-N ,  1-C ) :   0.7973 B(  0-N , 13-H ) :   0.9829 B(  0-N , 14-H ) :   1.0559
B(  1-C ,  2-C ) :   0.9662 B(  1-C ,  4-O ) :   0.1482 B(  1-C ,  6-C ) :   1.2075
B(  1-C , 10-H ) :   0.6256 B(  2-C ,  3-O ) :   1.3908 B(  2-C ,  4-O ) :   0.3823
B(  4-O ,  5-H ) :   0.9068 B(  6-C ,  7-C ) :   0.9638 B(  6-C ,  9-O ) :   0.1087
B(  6-C , 10-H ) :   0.1072 B(  6-C , 11-H ) :   0.9092 B(  6-C , 12-H ) :   0.8296
B(  7-C ,  8-O ) :   1.4600 B(  7-C ,  9-O ) :   0.4760 B(  9-O , 15-H ) :   1.0106

MP2 TOTAL ENERGY:     -511.087763900 Eh
FINAL SINGLE POINT ENERGY      -511.087763900440

DIPOLE MOMENT
-------------
                                X             Y             Z
Electronic contribution:      0.00423      -1.83502      -0.44411
Nuclear contribution   :      1.40534       2.75243       0.65995
                        -----------------------------------------
Total Dipole Moment    :      1.40957       0.91741       0.21584
                        -----------------------------------------
Magnitude (a.u.)       :      1.69561
Magnitude (Debye)      :      4.30991

Rotational constants in cm-1:     0.108416     0.030338     0.025962
Rotational constants in MHz :  3250.216503   909.502705   778.320967

                             ****ORCA TERMINATED NORMALLY****
TOTAL RUN TIME: 0 days 0 hours 0 minutes 53 seconds 166 msec
