                         Program Version 5.0.3 -  RELEASE  -
|  1> !ri-mp2 aug-cc-pvdz aug-cc-pvdz/c tightscf
|  2> %pal nprocs 16 end
|  3> %maxcore 3800
|  4>
|  5> * xyz 0 1
|  6> N     -2.526983    1.644610    0.539401
|  7> C     -2.309574    0.430804   -0.263716
|  8> C     -3.543059   -0.493877   -0.155950
|  9> O     -3.559770   -1.614822   -0.589237
| 10> O     -4.602147    0.075386    0.430775
| 11> H     -4.303472    0.974710    0.689949
| 12> C     -1.025447   -0.342914    0.052142
| 13> C      0.250781    0.404006   -0.330854
| 14> C      1.510265   -0.390892    0.003386
| 15> N      2.702104    0.351444   -0.372440
| 16> C      3.997767    0.022671   -0.008400
| 17> N      4.099684   -0.984055    0.943541
| 18> N      5.063631    0.606486   -0.414314
| 19> H     -2.286412    0.732459   -1.314703
| 20> H     -1.014272   -0.576246    1.122559
| 21> H     -1.076507   -1.298385   -0.469583
| 22> H      0.232932    0.616099   -1.405631
| 23> H      0.304202    1.368500    0.179891
| 24> H      1.544459   -0.575336    1.078269
| 25> H      1.458323   -1.369138   -0.495193
| 26> H      2.638588    0.883680   -1.223524
| 27> H      3.488801   -1.778017    0.839937
| 28> H      5.061405   -1.240273    1.103040
| 29> H      4.860793    1.403058   -1.010069
| 30> H     -2.070153    1.586068    1.441314
| 31> H     -2.196817    2.480125    0.078473
| 32> *
| 33>
| 34>                          ****END OF INPUT****

CARTESIAN COORDINATES (ANGSTROEM)
---------------------------------
  N     -2.526983    1.644610    0.539401
  C     -2.309574    0.430804   -0.263716
  C     -3.543059   -0.493877   -0.155950
  O     -3.559770   -1.614822   -0.589237
  O     -4.602147    0.075386    0.430775
  H     -4.303472    0.974710    0.689949
  C     -1.025447   -0.342914    0.052142
  C      0.250781    0.404006   -0.330854
  C      1.510265   -0.390892    0.003386
  N      2.702104    0.351444   -0.372440
  C      3.997767    0.022671   -0.008400
  N      4.099684   -0.984055    0.943541
  N      5.063631    0.606486   -0.414314
  H     -2.286412    0.732459   -1.314703
  H     -1.014272   -0.576246    1.122559
  H     -1.076507   -1.298385   -0.469583
  H      0.232932    0.616099   -1.405631
  H      0.304202    1.368500    0.179891
  H      1.544459   -0.575336    1.078269
  H      1.458323   -1.369138   -0.495193
  H      2.638588    0.883680   -1.223524
  H      3.488801   -1.778017    0.839937
  H      5.061405   -1.240273    1.103040
  H      4.860793    1.403058   -1.010069
  H     -2.070153    1.586068    1.441314
  H     -2.196817    2.480125    0.078473

 Total Charge           Charge          ....    0
 Multiplicity           Mult            ....    1
 Number of Electrons    NEL             ....   94
 Basis Dimension        Dim             ....  402

ORBITAL ENERGIES
----------------

  NO   OCC          E(Eh)            E(eV)
   0   2.0000     -20.610909      -560.8514
   1   2.0000     -20.552455      -559.2607
   2   2.0000     -15.600044      -424.4988
   3   2.0000     -15.590859      -424.2488
   4   2.0000     -15.580727      -423.9731
   5   2.0000     -15.514649      -422.1751
   6   2.0000     -11.389910      -309.9352
   7   2.0000     -11.354119      -308.9613
   8   2.0000     -11.308600      -307.7227
   9   2.0000     -11.290101      -307.2193
  10   2.0000     -11.260106      -306.4031
  11   2.0000     -11.258601      -306.3621
  12   2.0000      -1.461930       -39.7811
  13   2.0000      -1.366575       -37.1864
  14   2.0000      -1.307060       -35.5669
  15   2.0000      -1.234341       -33.5881
  16   2.0000      -1.197106       -32.5749
  17   2.0000      -1.139575       -31.0094
  18   2.0000      -1.088161       -29.6104
  19   2.0000      -1.003246       -27.2997
  20   2.0000      -0.914618       -24.8880
  21   2.0000      -0.843530       -22.9536
  22   2.0000      -0.817473       -22.2446
  23   2.0000      -0.809913       -22.0388
  24   2.0000      -0.748916       -20.3790
  25   2.0000      -0.737615       -20.0715
  26   2.0000      -0.709692       -19.3117
  27   2.0000      -0.683850       -18.6085
  28   2.0000      -0.678192       -18.4545
  29   2.0000      -0.660696       -17.9784
  30   2.0000      -0.641372       -17.4526
  31   2.0000      -0.630495       -17.1566
  32   2.0000      -0.622966       -16.9518
  33   2.0000      -0.607929       -16.5426
  34   2.0000      -0.595905       -16.2154
  35   2.0000      -0.584316       -15.9000
  36   2.0000      -0.555153       -15.1065
  37   2.0000      -0.537462       -14.6251
  38   2.0000      -0.523900       -14.2560
  39   2.0000      -0.515220       -14.0199
  40   2.0000      -0.504794       -13.7361
  41   2.0000      -0.473662       -12.8890
  42   2.0000      -0.470945       -12.8151
  43   2.0000      -0.427960       -11.6454
  44   2.0000      -0.423195       -11.5157
  45   2.0000      -0.413547       -11.2532
  46   2.0000      -0.349206        -9.5024
  47   0.0000       0.020269         0.5516
  48   0.0000       0.030306         0.8247
  49   0.0000       0.032535         0.8853
  50   0.0000       0.042047         1.1441
  51   0.0000       0.049732         1.3533

MULLIKEN ATOMIC CHARGES
-----------------------
   0 N :   -0.651086
   1 C :    0.057149
   2 C :    1.396826
   3 O :   -0.768225
   4 O :   -0.714484
   5 H :    0.287609
   6 C :    0.523905
   7 C :    0.449766
   8 C :    1.017644
   9 N :   -0.346680
  10 C :    0.886768
  11 N :   -0.280425
  12 N :   -0.561377
  13 H :   -0.032089
  14 H :   -0.157818
  15 H :   -0.200777
  16 H :   -0.204571
  17 H :   -0.184600
  18 H :   -0.252969
  19 H :   -0.267975
  20 H :   -0.118882
  21 H :    0.011437
  22 H :   -0.005514
  23 H :   -0.028480
  24 H :    0.070734
  25 H :    0.074114
Sum of atomic charges:   -0.0000000

LOEWDIN ATOMIC CHARGES
----------------------
   0 N :    0.224494
   1 C :   -0.151306
   2 C :   -0.310907
   3 O :    0.047259
   4 O :    0.215502
   5 H :   -0.093385
   6 C :    0.012769
   7 C :   -0.011591
   8 C :   -0.013342
   9 N :    0.104415
  10 C :   -0.398828
  11 N :    0.270177
  12 N :    0.134227
  13 H :    0.053130
  14 H :    0.029405
  15 H :    0.020110
  16 H :    0.022542
  17 H :    0.018356
  18 H :    0.019578
  19 H :    0.022601
  20 H :    0.002486
  21 H :   -0.038872
  22 H :   -0.019566
  23 H :   -0.106603
  24 H :   -0.023314
  25 H :   -0.029338

  Mayer bond orders larger than 0.100000
B(  0-N ,  1-C ) :   0.6900 B(  0-N , 24-H ) :   1.0856 B(  0-N , 25-H ) :   1.0507
B(  1-C ,  2-C ) :   0.9196 B(  1-C ,  4-O ) :   0.1854 B(  1-C ,  6-C ) :   1.3169
B(  1-C , 13-H ) :   0.7578 B(  2-C ,  3-O ) :   1.4019 B(  2-C ,  4-O ) :   0.3700
B(  2-C ,  6-C ) :   0.1002 B(  4-O ,  5-H ) :   0.9254 B(  6-C ,  7-C ) :   1.2337
B(  6-C , 14-H ) :   0.8206 B(  6-C , 15-H ) :   0.7353 B(  7-C ,  8-C ) :   1.2863
B(  7-C , 16-H ) :   0.7677 B(  7-C , 17-H ) :   0.8346 B(  8-C ,  9-N ) :   0.7609
B(  8-C , 18-H ) :   0.8622 B(  8-C , 19-H ) :   0.7365 B(  9-N , 10-C ) :   0.9985
B(  9-N , 11-N ) :  -0.1347 B(  9-N , 19-H ) :   0.1045 B(  9-N , 20-H ) :   1.1088
B( 10-C , 11-N ) :   0.9420 B( 10-C , 12-N ) :   1.5481 B( 11-N , 21-H ) :   1.0789
B( 11-N , 22-H ) :   1.0702 B( 12-N , 23-H ) :   1.0034

MP2 TOTAL ENERGY:     -604.949632107 Eh
FINAL SINGLE POINT ENERGY      -604.949632106849

DIPOLE MOMENT
-------------
                                X             Y             Z
Electronic contribution:     -6.70115      -2.09187      -0.54437
Nuclear contribution   :      6.65605       3.23533       0.62458
                        -----------------------------------------
Total Dipole Moment    :     -0.04510       1.14346       0.08021
                        -----------------------------------------
Magnitude (a.u.)       :      1.14715
Magnitude (Debye)      :      2.91583

Rotational constants in cm-1:     0.093569     0.008735     0.008349
Rotational constants in MHz :  2805.131075   261.878884   250.305366

                             ****ORCA TERMINATED NORMALLY****
TOTAL RUN TIME: 0 days 0 hours 2 minutes 40 seconds 57 msec
