                         Program Version 5.0.3 -  RELEASE  -
|  1> !ri-mp2 aug-cc-pvdz aug-cc-pvdz/c tightscf
|  2> %pal nprocs 16 end
|  3>
|  4> * xyz 0 1
|  5> C      0.000000    0.000000    0.280675
|  6> C      0.000000    0.000000   -1.174129
|  7> N      0.000000    0.000000    1.430070
|  8> H      0.000000    1.022452   -1.549923
|  9> H     -0.885470   -0.511226   -1.549923
| 10> H      0.885470   -0.511226   -1.549923
| 11> *
| 12>
| 13>                          ****END OF INPUT****

CARTESIAN COORDINATES (ANGSTROEM)
---------------------------------
  C      0.000000    0.000000    0.280675
  C      0.000000    0.000000   -1.174129
  N      0.000000    0.000000    1.430070
  H      0.000000    1.022452   -1.549923
  H     -0.885470   -0.511226   -1.549923
  H      0.885470   -0.511226   -1.549923

 Total Charge           Charge          ....    0
 Multiplicity           Mult            ....    1
 Number of Electrons    NEL             ....   22
 Basis Dimension        Dim             ....   96

ORBITAL ENERGIES
----------------

  NO   OCC          E(Eh)            E(eV)
   0   2.0000     -15.580818      -423.9756
   1   2.0000     -11.292941      -307.2966
   2   2.0000     -11.286624      -307.1246
   3   2.0000      -1.228043       -33.4168
   4   2.0000      -1.043993       -28.4085
   5   2.0000      -0.700081       -19.0502
   6   2.0000      -0.630289       -17.1510
   7   2.0000      -0.630289       -17.1510
   8   2.0000      -0.556225       -15.1356
   9   2.0000      -0.463590       -12.6149
  10   2.0000      -0.463590       -12.6149
  11   0.0000       0.026850         0.7306
  12   0.0000       0.051679         1.4063
  13   0.0000       0.051679         1.4063
  14   0.0000       0.073731         2.0063
  15   0.0000       0.117336         3.1929

MULLIKEN ATOMIC CHARGES
-----------------------
   0 C :   -0.234420
   1 C :    0.444290
   2 N :   -0.342944
   3 H :    0.044357
   4 H :    0.044359
   5 H :    0.044359
Sum of atomic charges:    0.0000000

LOEWDIN ATOMIC CHARGES
----------------------
   0 C :   -0.190428
   1 C :    0.144379
   2 N :    0.055414
   3 H :   -0.003122
   4 H :   -0.003121
   5 H :   -0.003121

  Mayer bond orders larger than 0.100000
B(  0-C ,  1-C ) :   0.8975 B(  0-C ,  2-N ) :   2.7298 B(  1-C ,  3-H ) :   0.9162
B(  1-C ,  4-H ) :   0.9162 B(  1-C ,  5-H ) :   0.9162

MP2 TOTAL ENERGY:     -132.380643796 Eh
FINAL SINGLE POINT ENERGY      -132.380643795862

DIPOLE MOMENT
-------------
                                X             Y             Z
Electronic contribution:      0.00000       0.00000       2.99880
Nuclear contribution   :      0.00000       0.00000      -4.67129
                        -----------------------------------------
Total Dipole Moment    :      0.00000       0.00000      -1.67249
                        -----------------------------------------
Magnitude (a.u.)       :      1.67249
Magnitude (Debye)      :      4.25114

Rotational constants in cm-1:     5.332477     0.309446     0.309446
Rotational constants in MHz : 159863.629295  9276.960058  9276.959696

                             ****ORCA TERMINATED NORMALLY****
TOTAL RUN TIME: 0 days 0 hours 0 minutes 30 seconds 793 msec
