                         Program Version 5.0.3 -  RELEASE  -
|  1> !ri-mp2 aug-cc-pvdz aug-cc-pvdz/c tightscf
|  2> %pal nprocs 16 end
|  3> %maxcore 3800
|  4>
|  5> * xyz 0 1
|  6> C     -0.889735    0.889735    0.889735
|  7> C      0.000000    0.000000    1.775473
|  8> C      0.000000    1.775473    0.000000
|  9> C      0.889735   -0.889735    0.889735
| 10> C     -1.775473    0.000000    0.000000
| 11> C     -0.889735   -0.889735   -0.889735
| 12> C      0.000000   -1.775473    0.000000
| 13> C      0.889735    0.889735   -0.889735
| 14> C      0.000000    0.000000   -1.775473
| 15> C      1.775473    0.000000    0.000000
| 16> H      1.520690   -1.520690    1.520690
| 17> H     -1.520690   -1.520690   -1.520690
| 18> H     -1.520690    1.520690    1.520690
| 19> H      2.427208   -0.621055   -0.621055
| 20> H      1.520690    1.520690   -1.520690
| 21> H     -2.427208    0.621055   -0.621055
| 22> H      0.621055   -0.621055   -2.427208
| 23> H      2.427208    0.621055    0.621055
| 24> H      0.621055   -2.427208   -0.621055
| 25> H      0.621055    2.427208    0.621055
| 26> H     -0.621055   -2.427208    0.621055
| 27> H      0.621055    0.621055    2.427208
| 28> H     -0.621055    0.621055   -2.427208
| 29> H     -0.621055    2.427208   -0.621055
| 30> H     -2.427208   -0.621055    0.621055
| 31> H     -0.621055   -0.621055    2.427208
| 32> *
| 33>
| 34>                          ****END OF INPUT****

CARTESIAN COORDINATES (ANGSTROEM)
---------------------------------
  C     -0.889735    0.889735    0.889735
  C      0.000000    0.000000    1.775473
  C      0.000000    1.775473    0.000000
  C      0.889735   -0.889735    0.889735
  C     -1.775473    0.000000    0.000000
  C     -0.889735   -0.889735   -0.889735
  C      0.000000   -1.775473    0.000000
  C      0.889735    0.889735   -0.889735
  C      0.000000    0.000000   -1.775473
  C      1.775473    0.000000    0.000000
  H      1.520690   -1.520690    1.520690
  H     -1.520690   -1.520690   -1.520690
  H     -1.520690    1.520690    1.520690
  H      2.427208   -0.621055   -0.621055
  H      1.520690    1.520690   -1.520690
  H     -2.427208    0.621055   -0.621055
  H      0.621055   -0.621055   -2.427208
  H      2.427208    0.621055    0.621055
  H      0.621055   -2.427208   -0.621055
  H      0.621055    2.427208    0.621055
  H     -0.621055   -2.427208    0.621055
  H      0.621055    0.621055    2.427208
  H     -0.621055    0.621055   -2.427208
  H     -0.621055    2.427208   -0.621055
  H     -2.427208   -0.621055    0.621055
  H     -0.621055   -0.621055    2.427208

 Total Charge           Charge          ....    0
 Multiplicity           Mult            ....    1
 Number of Electrons    NEL             ....   76
 Basis Dimension        Dim             ....  374

ORBITAL ENERGIES
----------------

  NO   OCC          E(Eh)            E(eV)
   0   2.0000     -11.219983      -305.3112
   1   2.0000     -11.219957      -305.3105
   2   2.0000     -11.219957      -305.3105
   3   2.0000     -11.219957      -305.3105
   4   2.0000     -11.213148      -305.1253
   5   2.0000     -11.213148      -305.1253
   6   2.0000     -11.213111      -305.1242
   7   2.0000     -11.213111      -305.1242
   8   2.0000     -11.213111      -305.1242
   9   2.0000     -11.213038      -305.1223
  10   2.0000      -1.159854       -31.5612
  11   2.0000      -1.033126       -28.1128
  12   2.0000      -1.033126       -28.1128
  13   2.0000      -1.033126       -28.1128
  14   2.0000      -0.903527       -24.5862
  15   2.0000      -0.903527       -24.5862
  16   2.0000      -0.790833       -21.5197
  17   2.0000      -0.790833       -21.5197
  18   2.0000      -0.790833       -21.5197
  19   2.0000      -0.701286       -19.0830
  20   2.0000      -0.632201       -17.2031
  21   2.0000      -0.610001       -16.5990
  22   2.0000      -0.610001       -16.5990
  23   2.0000      -0.610001       -16.5990
  24   2.0000      -0.553380       -15.0582
  25   2.0000      -0.553380       -15.0582
  26   2.0000      -0.553380       -15.0582
  27   2.0000      -0.537328       -14.6214
  28   2.0000      -0.537328       -14.6214
  29   2.0000      -0.537328       -14.6214
  30   2.0000      -0.458116       -12.4660
  31   2.0000      -0.458116       -12.4660
  32   2.0000      -0.454533       -12.3685
  33   2.0000      -0.454533       -12.3685
  34   2.0000      -0.454533       -12.3685
  35   2.0000      -0.399476       -10.8703
  36   2.0000      -0.399476       -10.8703
  37   2.0000      -0.399476       -10.8703
  38   0.0000       0.033926         0.9232
  39   0.0000       0.042547         1.1578
  40   0.0000       0.042547         1.1578
  41   0.0000       0.042547         1.1578
  42   0.0000       0.058865         1.6018

MULLIKEN ATOMIC CHARGES
-----------------------
   0 C :   -0.307386
   1 C :    0.788524
   2 C :    0.788522
   3 C :   -0.307386
   4 C :    0.788522
   5 C :   -0.307386
   6 C :    0.788522
   7 C :   -0.307386
   8 C :    0.788523
   9 C :    0.788522
  10 H :   -0.263531
  11 H :   -0.263531
  12 H :   -0.263531
  13 H :   -0.203956
  14 H :   -0.263531
  15 H :   -0.203956
  16 H :   -0.203956
  17 H :   -0.203956
  18 H :   -0.203956
  19 H :   -0.203956
  20 H :   -0.203956
  21 H :   -0.203956
  22 H :   -0.203956
  23 H :   -0.203956
  24 H :   -0.203956
  25 H :   -0.203956
Sum of atomic charges:   -0.0000000

LOEWDIN ATOMIC CHARGES
----------------------
   0 C :   -0.172375
   1 C :    0.039780
   2 C :    0.039780
   3 C :   -0.172375
   4 C :    0.039780
   5 C :   -0.172375
   6 C :    0.039780
   7 C :   -0.172375
   8 C :    0.039780
   9 C :    0.039780
  10 H :    0.041756
  11 H :    0.041756
  12 H :    0.041756
  13 H :    0.023650
  14 H :    0.041756
  15 H :    0.023650
  16 H :    0.023650
  17 H :    0.023650
  18 H :    0.023650
  19 H :    0.023650
  20 H :    0.023650
  21 H :    0.023650
  22 H :    0.023650
  23 H :    0.023650
  24 H :    0.023650
  25 H :    0.023650

  Mayer bond orders larger than 0.100000
B(  0-C ,  1-C ) :   1.2520 B(  0-C ,  2-C ) :   1.2520 B(  0-C ,  3-C ) :  -0.1807
B(  0-C ,  4-C ) :   1.2520 B(  0-C ,  5-C ) :  -0.1807 B(  0-C ,  7-C ) :  -0.1807
B(  0-C , 12-H ) :   0.3612 B(  1-C ,  3-C ) :   1.2520 B(  1-C , 21-H ) :   0.6186
B(  1-C , 25-H ) :   0.6186 B(  2-C ,  7-C ) :   1.2520 B(  2-C , 19-H ) :   0.6186
B(  2-C , 23-H ) :   0.6186 B(  3-C ,  5-C ) :  -0.1807 B(  3-C ,  6-C ) :   1.2520
B(  3-C ,  7-C ) :  -0.1807 B(  3-C ,  9-C ) :   1.2520 B(  3-C , 10-H ) :   0.3612
B(  4-C ,  5-C ) :   1.2520 B(  4-C , 15-H ) :   0.6186 B(  4-C , 24-H ) :   0.6186
B(  5-C ,  6-C ) :   1.2520 B(  5-C ,  7-C ) :  -0.1807 B(  5-C ,  8-C ) :   1.2520
B(  5-C , 11-H ) :   0.3612 B(  6-C , 18-H ) :   0.6186 B(  6-C , 20-H ) :   0.6186
B(  7-C ,  8-C ) :   1.2520 B(  7-C ,  9-C ) :   1.2520 B(  7-C , 14-H ) :   0.3612
B(  8-C , 16-H ) :   0.6186 B(  8-C , 22-H ) :   0.6186 B(  9-C , 13-H ) :   0.6186
B(  9-C , 17-H ) :   0.6186 B( 13-H , 17-H ) :  -0.2411 B( 15-H , 24-H ) :  -0.2411
B( 16-H , 22-H ) :  -0.2411 B( 18-H , 20-H ) :  -0.2411 B( 19-H , 23-H ) :  -0.2411
B( 21-H , 25-H ) :  -0.2411

MP2 TOTAL ENERGY:     -389.521340375 Eh
FINAL SINGLE POINT ENERGY      -389.521340375431

DIPOLE MOMENT
-------------
                                X             Y             Z
Electronic contribution:      0.00000      -0.00000       0.00000
Nuclear contribution   :     -0.00000       0.00000       0.00000
                        -----------------------------------------
Total Dipole Moment    :      0.00000      -0.00000       0.00000
                        -----------------------------------------
Magnitude (a.u.)       :      0.00000
Magnitude (Debye)      :      0.00000

Rotational constants in cm-1:     0.056212     0.056212     0.056212
Rotational constants in MHz :  1685.206302  1685.206302  1685.206302

                             ****ORCA TERMINATED NORMALLY****
TOTAL RUN TIME: 0 days 0 hours 2 minutes 40 seconds 842 msec
