                         Program Version 5.0.3 -  RELEASE  -
|  1> !ri-mp2 aug-cc-pvdz aug-cc-pvdz/c tightscf
|  2> %pal nprocs 16 end
|  3>
|  4> * xyz 0 1
|  5> C      0.000000    0.188237    0.000000
|  6> C      1.066414   -0.856833    0.000000
|  7> O      0.099012    1.365638    0.000000
|  8> F     -1.237794   -0.393573    0.000000
|  9> H      2.044346   -0.386604    0.000000
| 10> H      0.952608   -1.492386    0.878134
| 11> H      0.952608   -1.492386   -0.878134
| 12> *
| 13>
| 14>                          ****END OF INPUT****

CARTESIAN COORDINATES (ANGSTROEM)
---------------------------------
  C      0.000000    0.188237    0.000000
  C      1.066414   -0.856833    0.000000
  O      0.099012    1.365638    0.000000
  F     -1.237794   -0.393573    0.000000
  H      2.044346   -0.386604    0.000000
  H      0.952608   -1.492386    0.878134
  H      0.952608   -1.492386   -0.878134

 Total Charge           Charge          ....    0
 Multiplicity           Mult            ....    1
 Number of Electrons    NEL             ....   32
 Basis Dimension        Dim             ....  119

ORBITAL ENERGIES
----------------

  NO   OCC          E(Eh)            E(eV)
   0   2.0000     -26.338176      -716.6982
   1   2.0000     -20.596207      -560.4513
   2   2.0000     -11.438557      -311.2590
   3   2.0000     -11.275567      -306.8238
   4   2.0000      -1.652387       -44.9637
   5   2.0000      -1.440873       -39.2081
   6   2.0000      -1.053657       -28.6715
   7   2.0000      -0.846530       -23.0352
   8   2.0000      -0.733578       -19.9617
   9   2.0000      -0.722798       -19.6683
  10   2.0000      -0.720369       -19.6022
  11   2.0000      -0.623916       -16.9776
  12   2.0000      -0.609435       -16.5836
  13   2.0000      -0.590107       -16.0576
  14   2.0000      -0.534664       -14.5490
  15   2.0000      -0.492668       -13.4062
  16   0.0000       0.030008         0.8166
  17   0.0000       0.052255         1.4219
  18   0.0000       0.055375         1.5068
  19   0.0000       0.078645         2.1401
  20   0.0000       0.115884         3.1534

MULLIKEN ATOMIC CHARGES
-----------------------
   0 C :    0.894727
   1 C :    0.232793
   2 O :   -0.578856
   3 F :   -0.627244
   4 H :   -0.012762
   5 H :    0.045671
   6 H :    0.045671
Sum of atomic charges:    0.0000000

LOEWDIN ATOMIC CHARGES
----------------------
   0 C :   -0.303976
   1 C :    0.199093
   2 O :    0.073827
   3 F :    0.038657
   4 H :   -0.003703
   5 H :   -0.001949
   6 H :   -0.001949

  Mayer bond orders larger than 0.100000
B(  0-C ,  1-C ) :   1.1181 B(  0-C ,  2-O ) :   1.7172 B(  0-C ,  3-F ) :   0.3583
B(  1-C ,  3-F ) :   0.1029 B(  1-C ,  4-H ) :   0.9327 B(  1-C ,  5-H ) :   0.9247
B(  1-C ,  6-H ) :   0.9247

MP2 TOTAL ENERGY:     -252.508157156 Eh
FINAL SINGLE POINT ENERGY      -252.508157156372

DIPOLE MOMENT
-------------
                                X             Y             Z
Electronic contribution:     -4.21929       1.81988       0.00000
Nuclear contribution   :      5.01140      -2.86834       0.00000
                        -----------------------------------------
Total Dipole Moment    :      0.79211      -1.04846       0.00000
                        -----------------------------------------
Magnitude (a.u.)       :      1.31405
Magnitude (Debye)      :      3.34004

Rotational constants in cm-1:     0.366903     0.322768     0.177328
Rotational constants in MHz : 10999.470111  9676.348627  5316.148081

                             ****ORCA TERMINATED NORMALLY****
TOTAL RUN TIME: 0 days 0 hours 0 minutes 28 seconds 443 msec
