                         Program Version 5.0.3 -  RELEASE  -
|  1> !ri-mp2 aug-cc-pvdz aug-cc-pvdz/c tightscf
|  2> %pal nprocs 16 end
|  3>
|  4> * xyz 0 1
|  5> C     -0.074379    0.144688   -0.000004
|  6> C      1.359129   -0.348132   -0.000001
|  7> N     -1.037040   -0.821835    0.000088
|  8> O     -0.350669    1.329673   -0.000014
|  9> H      1.862975    0.053389   -0.878184
| 10> H      1.862897    0.053119    0.878352
| 11> H      1.450574   -1.433310   -0.000159
| 12> H     -2.001439   -0.536727   -0.000165
| 13> H     -0.818878   -1.800341   -0.000316
| 14> *
| 15>
| 16>                          ****END OF INPUT****

CARTESIAN COORDINATES (ANGSTROEM)
---------------------------------
  C     -0.074379    0.144688   -0.000004
  C      1.359129   -0.348132   -0.000001
  N     -1.037040   -0.821835    0.000088
  O     -0.350669    1.329673   -0.000014
  H      1.862975    0.053389   -0.878184
  H      1.862897    0.053119    0.878352
  H      1.450574   -1.433310   -0.000159
  H     -2.001439   -0.536727   -0.000165
  H     -0.818878   -1.800341   -0.000316

 Total Charge           Charge          ....    0
 Multiplicity           Mult            ....    1
 Number of Electrons    NEL             ....   32
 Basis Dimension        Dim             ....  137

ORBITAL ENERGIES
----------------

  NO   OCC          E(Eh)            E(eV)
   0   2.0000     -20.526384      -558.5513
   1   2.0000     -15.595218      -424.3675
   2   2.0000     -11.362663      -309.1938
   3   2.0000     -11.246054      -306.0207
   4   2.0000      -1.385026       -37.6885
   5   2.0000      -1.215221       -33.0678
   6   2.0000      -1.006328       -27.3836
   7   2.0000      -0.802972       -21.8500
   8   2.0000      -0.728487       -19.8231
   9   2.0000      -0.666247       -18.1295
  10   2.0000      -0.614821       -16.7301
  11   2.0000      -0.587778       -15.9942
  12   2.0000      -0.562373       -15.3029
  13   2.0000      -0.524617       -14.2756
  14   2.0000      -0.423834       -11.5331
  15   2.0000      -0.414356       -11.2752
  16   0.0000       0.027543         0.7495
  17   0.0000       0.044234         1.2037
  18   0.0000       0.054192         1.4746
  19   0.0000       0.061362         1.6697
  20   0.0000       0.072754         1.9797

MULLIKEN ATOMIC CHARGES
-----------------------
   0 C :    0.747598
   1 C :    0.373111
   2 N :   -0.203709
   3 O :   -0.814004
   4 H :    0.034439
   5 H :    0.034473
   6 H :   -0.128506
   7 H :   -0.030276
   8 H :   -0.013126
Sum of atomic charges:    0.0000000

LOEWDIN ATOMIC CHARGES
----------------------
   0 C :   -0.405201
   1 C :    0.205041
   2 N :    0.262739
   3 O :    0.003858
   4 H :   -0.005261
   5 H :   -0.005258
   6 H :   -0.022350
   7 H :   -0.007653
   8 H :   -0.025915

  Mayer bond orders larger than 0.100000
B(  0-C ,  1-C ) :   1.0706 B(  0-C ,  2-N ) :   0.9327 B(  0-C ,  3-O ) :   1.3682
B(  1-C ,  4-H ) :   0.9079 B(  1-C ,  5-H ) :   0.9079 B(  1-C ,  6-H ) :   0.9447
B(  2-N ,  7-H ) :   1.1120 B(  2-N ,  8-H ) :   1.0795

MP2 TOTAL ENERGY:     -208.668769686 Eh
FINAL SINGLE POINT ENERGY      -208.668769685725

DIPOLE MOMENT
-------------
                                X             Y             Z
Electronic contribution:     -2.24252       2.05534       0.00009
Nuclear contribution   :      2.38541      -3.71136      -0.00048
                        -----------------------------------------
Total Dipole Moment    :      0.14289      -1.65603      -0.00039
                        -----------------------------------------
Magnitude (a.u.)       :      1.66218
Magnitude (Debye)      :      4.22492

Rotational constants in cm-1:     0.363404     0.308680     0.172210
Rotational constants in MHz : 10894.575161  9253.995035  5162.722721

                             ****ORCA TERMINATED NORMALLY****
TOTAL RUN TIME: 0 days 0 hours 0 minutes 29 seconds 267 msec
