                         Program Version 5.0.3 -  RELEASE  -
|  1> !ri-mp2 aug-cc-pvdz aug-cc-pvdz/c tightscf
|  2> %pal nprocs 16 end
|  3>
|  4> * xyz 0 1
|  5> C      0.000000    0.155267    0.000000
|  6> C      1.069204   -0.899341    0.000000
|  7> O      0.178356    1.345599    0.000000
|  8> O     -1.241854   -0.392584    0.000000
|  9> H      0.960614   -1.536194    0.877879
| 10> H      0.960614   -1.536194   -0.877879
| 11> H      2.046305   -0.427881    0.000000
| 12> H     -1.874777    0.340590    0.000000
| 13> *
| 14>
| 15>                          ****END OF INPUT****

CARTESIAN COORDINATES (ANGSTROEM)
---------------------------------
  C      0.000000    0.155267    0.000000
  C      1.069204   -0.899341    0.000000
  O      0.178356    1.345599    0.000000
  O     -1.241854   -0.392584    0.000000
  H      0.960614   -1.536194    0.877879
  H      0.960614   -1.536194   -0.877879
  H      2.046305   -0.427881    0.000000
  H     -1.874777    0.340590    0.000000

 Total Charge           Charge          ....    0
 Multiplicity           Mult            ....    1
 Number of Electrons    NEL             ....   32
 Basis Dimension        Dim             ....  128

ORBITAL ENERGIES
----------------

  NO   OCC          E(Eh)            E(eV)
   0   2.0000     -20.623023      -561.1810
   1   2.0000     -20.563150      -559.5518
   2   2.0000     -11.399717      -310.2021
   3   2.0000     -11.254470      -306.2497
   4   2.0000      -1.470983       -40.0275
   5   2.0000      -1.368628       -37.2423
   6   2.0000      -1.030603       -28.0441
   7   2.0000      -0.826894       -22.5009
   8   2.0000      -0.708992       -19.2926
   9   2.0000      -0.683324       -18.5942
  10   2.0000      -0.651479       -17.7276
  11   2.0000      -0.586542       -15.9606
  12   2.0000      -0.575260       -15.6536
  13   2.0000      -0.561767       -15.2865
  14   2.0000      -0.485740       -13.2177
  15   2.0000      -0.456272       -12.4158
  16   0.0000       0.033099         0.9007
  17   0.0000       0.047019         1.2795
  18   0.0000       0.055942         1.5222
  19   0.0000       0.062606         1.7036
  20   0.0000       0.098215         2.6726

MULLIKEN ATOMIC CHARGES
-----------------------
   0 C :    0.802609
   1 C :    0.299757
   2 O :   -0.698694
   3 O :   -0.647920
   4 H :    0.040991
   5 H :    0.040991
   6 H :   -0.014772
   7 H :    0.177040
Sum of atomic charges:   -0.0000000

LOEWDIN ATOMIC CHARGES
----------------------
   0 C :   -0.379733
   1 C :    0.202609
   2 O :    0.029578
   3 O :    0.186821
   4 H :   -0.005373
   5 H :   -0.005373
   6 H :   -0.006734
   7 H :   -0.021794

  Mayer bond orders larger than 0.100000
B(  0-C ,  1-C ) :   1.1021 B(  0-C ,  2-O ) :   1.5195 B(  0-C ,  3-O ) :   0.6275
B(  0-C ,  6-H ) :   0.1204 B(  1-C ,  4-H ) :   0.9413 B(  1-C ,  5-H ) :   0.9413
B(  1-C ,  6-H ) :   0.8592 B(  3-O ,  7-H ) :   1.0178

MP2 TOTAL ENERGY:     -228.523537384 Eh
FINAL SINGLE POINT ENERGY      -228.523537384059

DIPOLE MOMENT
-------------
                                X             Y             Z
Electronic contribution:     -2.15821       2.37035      -0.00000
Nuclear contribution   :      2.07759      -3.14708       0.00000
                        -----------------------------------------
Total Dipole Moment    :     -0.08061      -0.77673      -0.00000
                        -----------------------------------------
Magnitude (a.u.)       :      0.78091
Magnitude (Debye)      :      1.98491

Rotational constants in cm-1:     0.378647     0.315756     0.177820
Rotational constants in MHz : 11351.549955  9466.136063  5330.920137

                             ****ORCA TERMINATED NORMALLY****
TOTAL RUN TIME: 0 days 0 hours 0 minutes 28 seconds 10 msec
