                         Program Version 5.0.3 -  RELEASE  -
|  1> !ri-mp2 aug-cc-pvdz aug-cc-pvdz/c tightscf
|  2> %pal nprocs 16 end
|  3>
|  4> * xyz 0 1
|  5> C      0.082897    1.078427    0.000000
|  6> C      0.082897   -0.051210    1.054630
|  7> C      0.082897   -0.051210   -1.054630
|  8> N     -0.374490   -0.989590    0.000000
|  9> H     -0.845440    1.645623    0.000000
| 10> H      0.926741    1.763706    0.000000
| 11> H      1.090133   -0.261322    1.431487
| 12> H     -0.597396    0.043257    1.901760
| 13> H     -0.597396    0.043257   -1.901760
| 14> H      1.090133   -0.261322   -1.431487
| 15> H      0.062512   -1.902110    0.000000
| 16> *
| 17>
| 18>                          ****END OF INPUT****

CARTESIAN COORDINATES (ANGSTROEM)
---------------------------------
  C      0.082897    1.078427    0.000000
  C      0.082897   -0.051210    1.054630
  C      0.082897   -0.051210   -1.054630
  N     -0.374490   -0.989590    0.000000
  H     -0.845440    1.645623    0.000000
  H      0.926741    1.763706    0.000000
  H      1.090133   -0.261322    1.431487
  H     -0.597396    0.043257    1.901760
  H     -0.597396    0.043257   -1.901760
  H      1.090133   -0.261322   -1.431487
  H      0.062512   -1.902110    0.000000

 Total Charge           Charge          ....    0
 Multiplicity           Mult            ....    1
 Number of Electrons    NEL             ....   32
 Basis Dimension        Dim             ....  155

ORBITAL ENERGIES
----------------

  NO   OCC          E(Eh)            E(eV)
   0   2.0000     -15.544734      -422.9937
   1   2.0000     -11.252963      -306.2087
   2   2.0000     -11.252960      -306.2086
   3   2.0000     -11.226053      -305.4764
   4   2.0000      -1.227001       -33.3884
   5   2.0000      -0.970838       -26.4178
   6   2.0000      -0.910936       -24.7878
   7   2.0000      -0.765208       -20.8224
   8   2.0000      -0.687884       -18.7183
   9   2.0000      -0.651692       -17.7334
  10   2.0000      -0.550995       -14.9933
  11   2.0000      -0.528975       -14.3941
  12   2.0000      -0.516755       -14.0616
  13   2.0000      -0.468938       -12.7605
  14   2.0000      -0.453177       -12.3316
  15   2.0000      -0.368585       -10.0297
  16   0.0000       0.036721         0.9992
  17   0.0000       0.047533         1.2935
  18   0.0000       0.049190         1.3385
  19   0.0000       0.051307         1.3961
  20   0.0000       0.071160         1.9364

MULLIKEN ATOMIC CHARGES
-----------------------
   0 C :    0.405202
   1 C :    0.822666
   2 C :    0.822666
   3 N :   -0.653543
   4 H :   -0.201848
   5 H :   -0.195999
   6 H :   -0.263506
   7 H :   -0.217632
   8 H :   -0.217632
   9 H :   -0.263506
  10 H :   -0.036869
Sum of atomic charges:   -0.0000000

LOEWDIN ATOMIC CHARGES
----------------------
   0 C :    0.027879
   1 C :   -0.003359
   2 C :   -0.003359
   3 N :    0.038342
   4 H :    0.000815
   5 H :   -0.004997
   6 H :    0.000547
   7 H :   -0.006991
   8 H :   -0.006991
   9 H :    0.000547
  10 H :   -0.042433

  Mayer bond orders larger than 0.100000
B(  0-C ,  1-C ) :   1.1510 B(  0-C ,  2-C ) :   1.1510 B(  0-C ,  4-H ) :   0.7353
B(  0-C ,  5-H ) :   0.8323 B(  1-C ,  3-N ) :   0.8183 B(  1-C ,  6-H ) :   0.8049
B(  1-C ,  7-H ) :   0.9182 B(  2-C ,  3-N ) :   0.8183 B(  2-C ,  8-H ) :   0.9182
B(  2-C ,  9-H ) :   0.8049 B(  3-N , 10-H ) :   1.0580 B(  4-H ,  5-H ) :  -0.1176
B(  6-H ,  7-H ) :  -0.1189 B(  8-H ,  9-H ) :  -0.1189

MP2 TOTAL ENERGY:     -172.717918227 Eh
FINAL SINGLE POINT ENERGY      -172.717918227429

DIPOLE MOMENT
-------------
                                X             Y             Z
Electronic contribution:     -0.64518      -1.01001      -0.00000
Nuclear contribution   :      1.18635       1.12130       0.00000
                        -----------------------------------------
Total Dipole Moment    :      0.54118       0.11129      -0.00000
                        -----------------------------------------
Magnitude (a.u.)       :      0.55250
Magnitude (Debye)      :      1.40435

Rotational constants in cm-1:     0.382903     0.380721     0.220264
Rotational constants in MHz : 11479.134176 11413.721908  6603.360783

                             ****ORCA TERMINATED NORMALLY****
TOTAL RUN TIME: 0 days 0 hours 0 minutes 32 seconds 37 msec
