                         Program Version 5.0.3 -  RELEASE  -
|  1> !ri-mp2 aug-cc-pvdz aug-cc-pvdz/c tightscf
|  2> %pal nprocs 16 end
|  3>
|  4> * xyz 0 1
|  5> N      0.090626   -1.183995    0.000000
|  6> C      0.000000    0.161705    0.000000
|  7> C     -0.019053    1.362621    0.000000
|  8> H     -0.239895   -1.640016    0.837356
|  9> H     -0.239895   -1.640016   -0.837356
| 10> H     -0.040274    2.422038    0.000000
| 11> *
| 12>
| 13>                          ****END OF INPUT****

CARTESIAN COORDINATES (ANGSTROEM)
---------------------------------
  N      0.090626   -1.183995    0.000000
  C      0.000000    0.161705    0.000000
  C     -0.019053    1.362621    0.000000
  H     -0.239895   -1.640016    0.837356
  H     -0.239895   -1.640016   -0.837356
  H     -0.040274    2.422038    0.000000

 Total Charge           Charge          ....    0
 Multiplicity           Mult            ....    1
 Number of Electrons    NEL             ....   22
 Basis Dimension        Dim             ....   96

ORBITAL ENERGIES
----------------

  NO   OCC          E(Eh)            E(eV)
   0   2.0000     -15.602774      -424.5731
   1   2.0000     -11.272426      -306.7383
   2   2.0000     -11.219858      -305.3078
   3   2.0000      -1.234822       -33.6012
   4   2.0000      -1.003481       -27.3061
   5   2.0000      -0.759077       -20.6555
   6   2.0000      -0.707064       -19.2402
   7   2.0000      -0.680945       -18.5294
   8   2.0000      -0.526456       -14.3256
   9   2.0000      -0.391278       -10.6472
  10   2.0000      -0.345886        -9.4120
  11   0.0000       0.029398         0.8000
  12   0.0000       0.045214         1.2303
  13   0.0000       0.055125         1.5000
  14   0.0000       0.111305         3.0288
  15   0.0000       0.118179         3.2158

MULLIKEN ATOMIC CHARGES
-----------------------
   0 N :   -0.274467
   1 C :   -0.357258
   2 C :    0.902529
   3 H :    0.033151
   4 H :    0.033151
   5 H :   -0.337106
Sum of atomic charges:   -0.0000000

LOEWDIN ATOMIC CHARGES
----------------------
   0 N :    0.198998
   1 C :   -0.216524
   2 C :    0.184190
   3 H :   -0.024212
   4 H :   -0.024212
   5 H :   -0.118239

  Mayer bond orders larger than 0.100000
B(  0-N ,  1-C ) :   1.3041 B(  0-N ,  2-C ) :  -0.1022 B(  0-N ,  3-H ) :   1.0454
B(  0-N ,  4-H ) :   1.0454 B(  1-C ,  2-C ) :   2.9087 B(  1-C ,  5-H ) :   0.3034
B(  2-C ,  5-H ) :   0.2656

MP2 TOTAL ENERGY:     -132.307629101 Eh
FINAL SINGLE POINT ENERGY      -132.307629101042

DIPOLE MOMENT
-------------
                                X             Y             Z
Electronic contribution:      0.11949       0.33028       0.00000
Nuclear contribution   :     -0.52288      -0.87052       0.00000
                        -----------------------------------------
Total Dipole Moment    :     -0.40339      -0.54024       0.00000
                        -----------------------------------------
Magnitude (a.u.)       :      0.67423
Magnitude (Debye)      :      1.71375

Rotational constants in cm-1:    10.404997     0.313345     0.306469
Rotational constants in MHz : 311933.977015  9393.835266  9187.714551

                             ****ORCA TERMINATED NORMALLY****
TOTAL RUN TIME: 0 days 0 hours 0 minutes 30 seconds 818 msec
