                         Program Version 5.0.3 -  RELEASE  -
|  1> !ri-mp2 aug-cc-pvdz aug-cc-pvdz/c tightscf
|  2> %pal nprocs 16 end
|  3>
|  4> * xyz 0 1
|  5> C      0.000000    0.184262   -0.000004
|  6> C      1.287739   -0.611432   -0.001319
|  7> C     -1.287736   -0.611435    0.001318
|  8> O     -0.000003    1.394523    0.000000
|  9> H      1.360865   -1.200218    0.916077
| 10> H      1.300040   -1.319506   -0.832407
| 11> H      2.141095    0.057450   -0.072065
| 12> H     -2.141098    0.057436    0.072061
| 13> H     -1.300032   -1.319486    0.832420
| 14> H     -1.360868   -1.200234   -0.916065
| 15> *
| 16>
| 17>                          ****END OF INPUT****

CARTESIAN COORDINATES (ANGSTROEM)
---------------------------------
  C      0.000000    0.184262   -0.000004
  C      1.287739   -0.611432   -0.001319
  C     -1.287736   -0.611435    0.001318
  O     -0.000003    1.394523    0.000000
  H      1.360865   -1.200218    0.916077
  H      1.300040   -1.319506   -0.832407
  H      2.141095    0.057450   -0.072065
  H     -2.141098    0.057436    0.072061
  H     -1.300032   -1.319486    0.832420
  H     -1.360868   -1.200234   -0.916065

 Total Charge           Charge          ....    0
 Multiplicity           Mult            ....    1
 Number of Electrons    NEL             ....   32
 Basis Dimension        Dim             ....  146

ORBITAL ENERGIES
----------------

  NO   OCC          E(Eh)            E(eV)
   0   2.0000     -20.555685      -559.3486
   1   2.0000     -11.340223      -308.5832
   2   2.0000     -11.242237      -305.9168
   3   2.0000     -11.242211      -305.9161
   4   2.0000      -1.392308       -37.8866
   5   2.0000      -1.043527       -28.3958
   6   2.0000      -0.969379       -26.3782
   7   2.0000      -0.743504       -20.2318
   8   2.0000      -0.646220       -17.5846
   9   2.0000      -0.637918       -17.3586
  10   2.0000      -0.623352       -16.9623
  11   2.0000      -0.562612       -15.3094
  12   2.0000      -0.559345       -15.2206
  13   2.0000      -0.537792       -14.6341
  14   2.0000      -0.489359       -13.3161
  15   2.0000      -0.412915       -11.2360
  16   0.0000       0.031193         0.8488
  17   0.0000       0.045914         1.2494
  18   0.0000       0.048862         1.3296
  19   0.0000       0.060987         1.6595
  20   0.0000       0.073670         2.0047

MULLIKEN ATOMIC CHARGES
-----------------------
   0 C :    0.010874
   1 C :    0.405002
   2 C :    0.405033
   3 O :   -0.745535
   4 H :    0.037292
   5 H :    0.027042
   6 H :   -0.102009
   7 H :   -0.102019
   8 H :    0.027035
   9 H :    0.037285
Sum of atomic charges:    0.0000000

LOEWDIN ATOMIC CHARGES
----------------------
   0 C :   -0.347543
   1 C :    0.187013
   2 C :    0.187014
   3 O :    0.033341
   4 H :   -0.009308
   5 H :   -0.010697
   6 H :   -0.009905
   7 H :   -0.009906
   8 H :   -0.010699
   9 H :   -0.009309

  Mayer bond orders larger than 0.100000
B(  0-C ,  1-C ) :   1.1367 B(  0-C ,  2-C ) :   1.1367 B(  0-C ,  3-O ) :   1.4156
B(  0-C ,  6-H ) :   0.1419 B(  0-C ,  7-H ) :   0.1420 B(  1-C ,  4-H ) :   0.9481
B(  1-C ,  5-H ) :   0.9472 B(  1-C ,  6-H ) :   0.8434 B(  2-C ,  7-H ) :   0.8434
B(  2-C ,  8-H ) :   0.9472 B(  2-C ,  9-H ) :   0.9481

MP2 TOTAL ENERGY:     -192.614938760 Eh
FINAL SINGLE POINT ENERGY      -192.614938759764

DIPOLE MOMENT
-------------
                                X             Y             Z
Electronic contribution:     -0.00000       3.72998      -0.00002
Nuclear contribution   :      0.00000      -5.07294       0.00002
                        -----------------------------------------
Total Dipole Moment    :      0.00000      -1.34296       0.00000
                        -----------------------------------------
Magnitude (a.u.)       :      1.34296
Magnitude (Debye)      :      3.41354

Rotational constants in cm-1:     0.339784     0.284197     0.164095
Rotational constants in MHz : 10186.459018  8519.999419  4919.430938

                             ****ORCA TERMINATED NORMALLY****
TOTAL RUN TIME: 0 days 0 hours 0 minutes 31 seconds 317 msec
