                         Program Version 5.0.3 -  RELEASE  -
|  1> !ri-mp2 aug-cc-pvdz aug-cc-pvdz/c tightscf
|  2> %pal nprocs 16 end
|  3>
|  4> * xyz 0 1
|  5> C     -0.003357   -1.874982    0.000000
|  6> C     -0.003231   -1.167816    1.197776
|  7> C     -0.003231   -1.167816   -1.197776
|  8> C     -0.003231    0.219824    1.202965
|  9> C     -0.003231    0.219824   -1.202965
| 10> C     -0.002373    0.934694    0.000000
| 11> N     -0.059398    2.328540    0.000000
| 12> H     -0.002994   -2.955765    0.000000
| 13> H     -0.002518   -1.699840    2.140057
| 14> H     -0.002518   -1.699840   -2.140057
| 15> H     -0.008370    0.757854    2.143040
| 16> H     -0.008370    0.757854   -2.143040
| 17> H      0.276236    2.778796   -0.835682
| 18> H      0.276236    2.778796    0.835682
| 19> *
| 20>
| 21>                          ****END OF INPUT****

CARTESIAN COORDINATES (ANGSTROEM)
---------------------------------
  C     -0.003357   -1.874982    0.000000
  C     -0.003231   -1.167816    1.197776
  C     -0.003231   -1.167816   -1.197776
  C     -0.003231    0.219824    1.202965
  C     -0.003231    0.219824   -1.202965
  C     -0.002373    0.934694    0.000000
  N     -0.059398    2.328540    0.000000
  H     -0.002994   -2.955765    0.000000
  H     -0.002518   -1.699840    2.140057
  H     -0.002518   -1.699840   -2.140057
  H     -0.008370    0.757854    2.143040
  H     -0.008370    0.757854   -2.143040
  H      0.276236    2.778796   -0.835682
  H      0.276236    2.778796    0.835682

 Total Charge           Charge          ....    0
 Multiplicity           Mult            ....    1
 Number of Electrons    NEL             ....   50
 Basis Dimension        Dim             ....  224

ORBITAL ENERGIES
----------------

  NO   OCC          E(Eh)            E(eV)
   0   2.0000     -15.573383      -423.7733
   1   2.0000     -11.283470      -307.0388
   2   2.0000     -11.239458      -305.8412
   3   2.0000     -11.239426      -305.8403
   4   2.0000     -11.227891      -305.5264
   5   2.0000     -11.227873      -305.5260
   6   2.0000     -11.223164      -305.3978
   7   2.0000      -1.227883       -33.4124
   8   2.0000      -1.130292       -30.7568
   9   2.0000      -1.014935       -27.6178
  10   2.0000      -0.988787       -26.9063
  11   2.0000      -0.833524       -22.6813
  12   2.0000      -0.815359       -22.1870
  13   2.0000      -0.707658       -19.2563
  14   2.0000      -0.688018       -18.7219
  15   2.0000      -0.657126       -17.8813
  16   2.0000      -0.599367       -16.3096
  17   2.0000      -0.594506       -16.1773
  18   2.0000      -0.581996       -15.8369
  19   2.0000      -0.534307       -14.5392
  20   2.0000      -0.507456       -13.8086
  21   2.0000      -0.488063       -13.2809
  22   2.0000      -0.447733       -12.1834
  23   2.0000      -0.336427        -9.1546
  24   2.0000      -0.293601        -7.9893
  25   0.0000       0.032616         0.8875
  26   0.0000       0.041430         1.1274
  27   0.0000       0.041864         1.1392
  28   0.0000       0.056586         1.5398
  29   0.0000       0.057416         1.5624

MULLIKEN ATOMIC CHARGES
-----------------------
   0 C :    0.302226
   1 C :    0.619537
   2 C :    0.619537
   3 C :    0.509834
   4 C :    0.509834
   5 C :    0.413746
   6 N :   -0.408370
   7 H :   -0.448704
   8 H :   -0.448261
   9 H :   -0.448261
  10 H :   -0.563141
  11 H :   -0.563141
  12 H :   -0.047419
  13 H :   -0.047419
Sum of atomic charges:    0.0000000

LOEWDIN ATOMIC CHARGES
----------------------
   0 C :   -0.010251
   1 C :    0.000713
   2 C :    0.000713
   3 C :    0.041220
   4 C :    0.041220
   5 C :   -0.239267
   6 N :    0.238259
   7 H :   -0.009161
   8 H :    0.001261
   9 H :    0.001261
  10 H :   -0.001202
  11 H :   -0.001202
  12 H :   -0.031782
  13 H :   -0.031782

  Mayer bond orders larger than 0.100000
B(  0-C ,  1-C ) :   1.7048 B(  0-C ,  2-C ) :   1.7048 B(  0-C ,  3-C ) :   0.2315
B(  0-C ,  4-C ) :   0.2315 B(  0-C ,  7-H ) :   0.3234 B(  0-C ,  8-H ) :   0.2104
B(  0-C ,  9-H ) :   0.2104 B(  1-C ,  2-C ) :  -0.2365 B(  1-C ,  3-C ) :   1.7815
B(  1-C ,  4-C ) :   0.1615 B(  1-C ,  5-C ) :  -0.2713 B(  1-C ,  7-H ) :   0.2014
B(  1-C ,  8-H ) :   0.3018 B(  1-C , 10-H ) :   0.1552 B(  2-C ,  3-C ) :   0.1615
B(  2-C ,  4-C ) :   1.7815 B(  2-C ,  5-C ) :  -0.2713 B(  2-C ,  7-H ) :   0.2014
B(  2-C ,  9-H ) :   0.3018 B(  2-C , 11-H ) :   0.1552 B(  3-C ,  4-C ) :   0.2228
B(  3-C ,  5-C ) :   1.6408 B(  3-C ,  8-H ) :   0.3007 B(  4-C ,  5-C ) :   1.6408
B(  4-C ,  9-H ) :   0.3007 B(  5-C ,  6-N ) :   0.8722 B(  5-C , 10-H ) :   0.5317
B(  5-C , 11-H ) :   0.5317 B(  6-N , 12-H ) :   1.1140 B(  6-N , 13-H ) :   1.1140

MP2 TOTAL ENERGY:     -286.760997303 Eh
FINAL SINGLE POINT ENERGY      -286.760997303325

DIPOLE MOMENT
-------------
                                X             Y             Z
Electronic contribution:     -0.15277      -0.30503       0.00000
Nuclear contribution   :      0.53174       0.73761       0.00000
                        -----------------------------------------
Total Dipole Moment    :      0.37897       0.43257       0.00000
                        -----------------------------------------
Magnitude (a.u.)       :      0.57510
Magnitude (Debye)      :      1.46178

Rotational constants in cm-1:     0.188719     0.086832     0.059554
Rotational constants in MHz :  5657.646459  2603.171316  1785.382375

                             ****ORCA TERMINATED NORMALLY****
TOTAL RUN TIME: 0 days 0 hours 0 minutes 50 seconds 490 msec
