                         Program Version 5.0.3 -  RELEASE  -
|  1> !ri-mp2 aug-cc-pvdz aug-cc-pvdz/c tightscf
|  2> %pal nprocs 16 end
|  3>
|  4> * xyz 0 1
|  5> C     -0.574872   -0.536672        0.000000
|  6> N     -1.065007   -1.579735        0.000000
|  7> C      0.000000    0.768522        0.000000
|  8> H     -0.704356    1.590862        0.000000
|  9> C      1.313391    0.985354        0.000000
| 10> H      2.024361    0.171397        0.000000
| 11> H      1.703931    1.992659        0.000000
| 12> *
| 13>
| 14>                          ****END OF INPUT****

CARTESIAN COORDINATES (ANGSTROEM)
---------------------------------
  C     -0.574872   -0.536672    0.000000
  N     -1.065007   -1.579735    0.000000
  C      0.000000    0.768522    0.000000
  H     -0.704356    1.590862    0.000000
  C      1.313391    0.985354    0.000000
  H      2.024361    0.171397    0.000000
  H      1.703931    1.992659    0.000000

 Total Charge           Charge          ....    0
 Multiplicity           Mult            ....    1
 Number of Electrons    NEL             ....   28
 Basis Dimension        Dim             ....  119

ORBITAL ENERGIES
----------------

  NO   OCC          E(Eh)            E(eV)
   0   2.0000     -15.588386      -424.1815
   1   2.0000     -11.299481      -307.4745
   2   2.0000     -11.290178      -307.2214
   3   2.0000     -11.289894      -307.2136
   4   2.0000      -1.232391       -33.5351
   5   2.0000      -1.105246       -30.0753
   6   2.0000      -0.890295       -24.2261
   7   2.0000      -0.730543       -19.8791
   8   2.0000      -0.663834       -18.0638
   9   2.0000      -0.587316       -15.9817
  10   2.0000      -0.555395       -15.1131
  11   2.0000      -0.522040       -14.2054
  12   2.0000      -0.472986       -12.8706
  13   2.0000      -0.399350       -10.8669
  14   0.0000       0.027190         0.7399
  15   0.0000       0.043061         1.1718
  16   0.0000       0.051463         1.4004
  17   0.0000       0.063025         1.7150
  18   0.0000       0.094367         2.5678

MULLIKEN ATOMIC CHARGES
-----------------------
   0 C :   -0.467363
   1 N :   -0.288704
   2 C :    1.002244
   3 H :   -0.326715
   4 C :    0.540502
   5 H :   -0.242534
   6 H :   -0.217430
Sum of atomic charges:   -0.0000000

LOEWDIN ATOMIC CHARGES
----------------------
   0 C :   -0.168983
   1 N :    0.074232
   2 C :   -0.079072
   3 H :    0.000349
   4 C :    0.220223
   5 H :   -0.020616
   6 H :   -0.026133

  Mayer bond orders larger than 0.100000
B(  0-C ,  1-N ) :   2.6921 B(  0-C ,  2-C ) :   0.5347 B(  1-N ,  2-C ) :  -0.1375
B(  2-C ,  3-H ) :   0.8403 B(  2-C ,  4-C ) :   1.8159 B(  3-H ,  4-C ) :  -0.1211
B(  4-C ,  5-H ) :   0.9928 B(  4-C ,  6-H ) :   0.8438 B(  5-H ,  6-H ) :  -0.1599

MP2 TOTAL ENERGY:     -170.346461926 Eh
FINAL SINGLE POINT ENERGY      -170.346461925873

DIPOLE MOMENT
-------------
                                X             Y             Z
Electronic contribution:     -2.09268      -2.23514      -0.00000
Nuclear contribution   :      2.99050       3.71191       0.00000
                        -----------------------------------------
Total Dipole Moment    :      0.89783       1.47677      -0.00000
                        -----------------------------------------
Magnitude (a.u.)       :      1.72828
Magnitude (Debye)      :      4.39293

Rotational constants in cm-1:     1.716867     0.165861     0.151249
Rotational constants in MHz : 51470.366326  4972.384372  4534.336863

                             ****ORCA TERMINATED NORMALLY****
TOTAL RUN TIME: 0 days 0 hours 0 minutes 32 seconds 2 msec
