                         Program Version 5.0.3 -  RELEASE  -
|  1> !ri-mp2 aug-cc-pvdz aug-cc-pvdz/c tightscf
|  2> %pal nprocs 16 end
|  3>
|  4> * xyz 0 1
|  5> C      0.000000    0.000000   -2.493269
|  6> C      0.000000    1.260954   -1.903510
|  7> C      0.000000    0.747825    0.551519
|  8> C      0.000000    1.588911   -0.550232
|  9> C      0.000000    0.000000    2.698578
| 10> C      0.000000   -1.145715    1.894921
| 11> C      0.000000   -0.747825    0.551519
| 12> C      0.000000    1.145715    1.894921
| 13> C      0.000000   -1.588911   -0.550232
| 14> C      0.000000   -1.260954   -1.903510
| 15> H      0.000000    0.000000   -3.577631
| 16> H      0.000000    2.098972   -2.589739
| 17> H      0.000000    2.650420   -0.323058
| 18> H      0.000000    0.000000    3.778585
| 19> H      0.000000   -2.167642    2.240201
| 20> H      0.000000    2.167642    2.240201
| 21> H      0.000000   -2.650420   -0.323058
| 22> H      0.000000   -2.098972   -2.589739
| 23> *
| 24>
| 25>                          ****END OF INPUT****

CARTESIAN COORDINATES (ANGSTROEM)
---------------------------------
  C      0.000000    0.000000   -2.493269
  C      0.000000    1.260954   -1.903510
  C      0.000000    0.747825    0.551519
  C      0.000000    1.588911   -0.550232
  C      0.000000    0.000000    2.698578
  C      0.000000   -1.145715    1.894921
  C      0.000000   -0.747825    0.551519
  C      0.000000    1.145715    1.894921
  C      0.000000   -1.588911   -0.550232
  C      0.000000   -1.260954   -1.903510
  H      0.000000    0.000000   -3.577631
  H      0.000000    2.098972   -2.589739
  H      0.000000    2.650420   -0.323058
  H      0.000000    0.000000    3.778585
  H      0.000000   -2.167642    2.240201
  H      0.000000    2.167642    2.240201
  H      0.000000   -2.650420   -0.323058
  H      0.000000   -2.098972   -2.589739

 Total Charge           Charge          ....    0
 Multiplicity           Mult            ....    1
 Number of Electrons    NEL             ....   68
 Basis Dimension        Dim             ....  302

ORBITAL ENERGIES
----------------

  NO   OCC          E(Eh)            E(eV)
   0   2.0000     -11.269903      -306.6696
   1   2.0000     -11.269898      -306.6695
   2   2.0000     -11.267519      -306.6048
   3   2.0000     -11.249957      -306.1269
   4   2.0000     -11.249901      -306.1254
   5   2.0000     -11.247689      -306.0652
   6   2.0000     -11.246975      -306.0458
   7   2.0000     -11.235999      -305.7471
   8   2.0000     -11.219693      -305.3034
   9   2.0000     -11.219635      -305.3018
  10   2.0000      -1.180998       -32.1366
  11   2.0000      -1.118380       -30.4327
  12   2.0000      -1.074251       -29.2319
  13   2.0000      -1.007995       -27.4289
  14   2.0000      -0.965218       -26.2649
  15   2.0000      -0.886735       -24.1293
  16   2.0000      -0.851517       -23.1710
  17   2.0000      -0.754609       -20.5340
  18   2.0000      -0.748837       -20.3769
  19   2.0000      -0.712496       -19.3880
  20   2.0000      -0.682434       -18.5700
  21   2.0000      -0.632279       -17.2052
  22   2.0000      -0.628330       -17.0977
  23   2.0000      -0.576034       -15.6747
  24   2.0000      -0.557556       -15.1719
  25   2.0000      -0.532945       -14.5022
  26   2.0000      -0.532329       -14.4854
  27   2.0000      -0.530114       -14.4251
  28   2.0000      -0.514189       -13.9918
  29   2.0000      -0.479865       -13.0578
  30   2.0000      -0.451996       -12.2994
  31   2.0000      -0.407356       -11.0847
  32   2.0000      -0.301185        -8.1957
  33   2.0000      -0.261102        -7.1049
  34   0.0000       0.032355         0.8804
  35   0.0000       0.038466         1.0467
  36   0.0000       0.038657         1.0519
  37   0.0000       0.040254         1.0954
  38   0.0000       0.051255         1.3947

MULLIKEN ATOMIC CHARGES
-----------------------
   0 C :    0.589161
   1 C :    0.357716
   2 C :    0.640864
   3 C :    0.556923
   4 C :    0.173801
   5 C :    0.113413
   6 C :    0.640864
   7 C :    0.113413
   8 C :    0.556923
   9 C :    0.357716
  10 H :   -0.490224
  11 H :   -0.530526
  12 H :   -0.555242
  13 H :   -0.362364
  14 H :   -0.538336
  15 H :   -0.538336
  16 H :   -0.555242
  17 H :   -0.530526
Sum of atomic charges:   -0.0000000

LOEWDIN ATOMIC CHARGES
----------------------
   0 C :    0.021006
   1 C :    0.012796
   2 C :   -0.146692
   3 C :    0.071323
   4 C :    0.021524
   5 C :    0.033283
   6 C :   -0.146692
   7 C :    0.033283
   8 C :    0.071323
   9 C :    0.012796
  10 H :    0.006239
  11 H :   -0.003773
  12 H :    0.019084
  13 H :   -0.004391
  14 H :   -0.008211
  15 H :   -0.008211
  16 H :    0.019084
  17 H :   -0.003773

  Mayer bond orders larger than 0.100000
B(  0-C ,  1-C ) :   1.5940 B(  0-C ,  5-C ) :   0.1787 B(  0-C ,  7-C ) :   0.1787
B(  0-C ,  9-C ) :   1.5940 B(  0-C , 10-H ) :   0.3021 B(  0-C , 11-H ) :   0.1653
B(  0-C , 17-H ) :   0.1653 B(  1-C ,  3-C ) :   1.6478 B(  1-C ,  4-C ) :   0.1981
B(  1-C ,  7-C ) :   0.1093 B(  1-C ,  9-C ) :  -0.2061 B(  1-C , 10-H ) :   0.2208
B(  1-C , 12-H ) :   0.4174 B(  2-C ,  3-C ) :   1.7311 B(  2-C ,  4-C ) :  -0.2054
B(  2-C ,  5-C ) :  -0.6140 B(  2-C ,  6-C ) :   1.8707 B(  2-C ,  7-C ) :   1.7170
B(  2-C ,  8-C ) :  -0.7813 B(  2-C , 12-H ) :   0.6348 B(  2-C , 14-H ) :  -0.1479
B(  2-C , 15-H ) :   0.7304 B(  3-C ,  6-C ) :  -0.7813 B(  3-C ,  7-C ) :  -0.4770
B(  3-C ,  8-C ) :   0.3358 B(  3-C , 11-H ) :   0.4916 B(  3-C , 12-H ) :  -0.2421
B(  3-C , 15-H ) :   0.1342 B(  4-C ,  5-C ) :   1.6859 B(  4-C ,  6-C ) :  -0.2054
B(  4-C ,  7-C ) :   1.6859 B(  4-C ,  9-C ) :   0.1981 B(  4-C , 13-H ) :   0.6608
B(  4-C , 14-H ) :  -0.1171 B(  4-C , 15-H ) :  -0.1171 B(  5-C ,  6-C ) :   1.7170
B(  5-C ,  7-C ) :   0.5286 B(  5-C ,  8-C ) :  -0.4770 B(  5-C ,  9-C ) :   0.1093
B(  5-C , 14-H ) :   0.1018 B(  5-C , 16-H ) :  -0.1112 B(  6-C ,  7-C ) :  -0.6140
B(  6-C ,  8-C ) :   1.7311 B(  6-C , 14-H ) :   0.7304 B(  6-C , 15-H ) :  -0.1479
B(  6-C , 16-H ) :   0.6348 B(  7-C , 12-H ) :  -0.1112 B(  7-C , 15-H ) :   0.1018
B(  8-C ,  9-C ) :   1.6478 B(  8-C , 14-H ) :   0.1342 B(  8-C , 16-H ) :  -0.2421
B(  8-C , 17-H ) :   0.4916 B(  9-C , 10-H ) :   0.2208 B(  9-C , 16-H ) :   0.4174

MP2 TOTAL ENERGY:     -384.680930371 Eh
FINAL SINGLE POINT ENERGY      -384.680930371278

DIPOLE MOMENT
-------------
                                X             Y             Z
Electronic contribution:     -0.00000       0.00000       0.57490
Nuclear contribution   :      0.00000      -0.00000      -1.14009
                        -----------------------------------------
Total Dipole Moment    :     -0.00000       0.00000      -0.56519
                        -----------------------------------------
Magnitude (a.u.)       :      0.56519
Magnitude (Debye)      :      1.43659

Rotational constants in cm-1:     0.095605     0.042024     0.029192
Rotational constants in MHz :  2866.180184  1259.853720   875.166771

                             ****ORCA TERMINATED NORMALLY****
TOTAL RUN TIME: 0 days 0 hours 1 minutes 35 seconds 634 msec
