                         Program Version 5.0.3 -  RELEASE  -
|  1> !ri-mp2 aug-cc-pvdz aug-cc-pvdz/c tightscf
|  2> %pal nprocs 16 end
|  3>
|  4> * xyz 0 1
|  5> N     -0.037940    0.872541    0.000000
|  6> H      0.888780    1.282744    0.000000
|  7> C     -0.037940   -0.397603    0.739990
|  8> C     -0.037940   -0.397603   -0.739990
|  9> H     -0.952512   -0.607514    1.278587
| 10> H      0.868549   -0.702138    1.248293
| 11> H     -0.952512   -0.607514   -1.278587
| 12> H      0.868549   -0.702138   -1.248293
| 13> *
| 14>
| 15>                          ****END OF INPUT****

CARTESIAN COORDINATES (ANGSTROEM)
---------------------------------
  N     -0.037940    0.872541    0.000000
  H      0.888780    1.282744    0.000000
  C     -0.037940   -0.397603    0.739990
  C     -0.037940   -0.397603   -0.739990
  H     -0.952512   -0.607514    1.278587
  H      0.868549   -0.702138    1.248293
  H     -0.952512   -0.607514   -1.278587
  H      0.868549   -0.702138   -1.248293

 Total Charge           Charge          ....    0
 Multiplicity           Mult            ....    1
 Number of Electrons    NEL             ....   24
 Basis Dimension        Dim             ....  114

ORBITAL ENERGIES
----------------

  NO   OCC          E(Eh)            E(eV)
   0   2.0000     -15.566183      -423.5774
   1   2.0000     -11.261298      -306.4355
   2   2.0000     -11.260558      -306.4154
   3   2.0000      -1.259854       -34.2824
   4   2.0000      -0.897196       -24.4139
   5   2.0000      -0.840581       -22.8734
   6   2.0000      -0.698717       -19.0131
   7   2.0000      -0.639142       -17.3919
   8   2.0000      -0.527649       -14.3581
   9   2.0000      -0.479527       -13.0486
  10   2.0000      -0.477842       -13.0027
  11   2.0000      -0.393249       -10.7009
  12   0.0000       0.036276         0.9871
  13   0.0000       0.049082         1.3356
  14   0.0000       0.049448         1.3455
  15   0.0000       0.057425         1.5626
  16   0.0000       0.072155         1.9634

MULLIKEN ATOMIC CHARGES
-----------------------
   0 N :   -0.605205
   1 H :    0.012487
   2 C :    0.863466
   3 C :    0.863466
   4 H :   -0.281119
   5 H :   -0.285988
   6 H :   -0.281119
   7 H :   -0.285988
Sum of atomic charges:   -0.0000000

LOEWDIN ATOMIC CHARGES
----------------------
   0 N :    0.069678
   1 H :   -0.056717
   2 C :    0.015549
   3 C :    0.015549
   4 H :   -0.012557
   5 H :   -0.009472
   6 H :   -0.012557
   7 H :   -0.009472

  Mayer bond orders larger than 0.100000
B(  0-N ,  1-H ) :   1.0243 B(  0-N ,  2-C ) :   0.8167 B(  0-N ,  3-C ) :   0.8167
B(  2-C ,  3-C ) :   1.1463 B(  2-C ,  4-H ) :   0.8801 B(  2-C ,  5-H ) :   0.8441
B(  3-C ,  6-H ) :   0.8801 B(  3-C ,  7-H ) :   0.8441 B(  4-H ,  5-H ) :  -0.1243
B(  6-H ,  7-H ) :  -0.1243

MP2 TOTAL ENERGY:     -133.527237253 Eh
FINAL SINGLE POINT ENERGY      -133.527237252677

DIPOLE MOMENT
-------------
                                X             Y             Z
Electronic contribution:     -0.22200       0.90990       0.00000
Nuclear contribution   :      0.75418      -1.39341       0.00000
                        -----------------------------------------
Total Dipole Moment    :      0.53217      -0.48351       0.00000
                        -----------------------------------------
Magnitude (a.u.)       :      0.71902
Magnitude (Debye)      :      1.82760

Rotational constants in cm-1:     0.766035     0.711107     0.449746
Rotational constants in MHz : 22965.145799 21318.460589 13483.035166

                             ****ORCA TERMINATED NORMALLY****
TOTAL RUN TIME: 0 days 0 hours 0 minutes 14 seconds 282 msec
