                         Program Version 5.0.3 -  RELEASE  -
|  1> !ri-mp2 aug-cc-pvdz aug-cc-pvdz/c tightscf
|  2> %pal nprocs 16 end
|  3>
|  4> * xyz 0 1
|  5> C      0.893738   -2.119560    0.000000
|  6> C     -0.463564   -1.836161    0.000000
|  7> C      1.807314   -1.066569    0.000000
|  8> C     -0.921006   -0.519558    0.000000
|  9> C      1.369118    0.246605    0.000000
| 10> C      0.000000    0.526996    0.000000
| 11> C     -1.709890    2.199611    0.000000
| 12> O     -0.335558    1.848902    0.000000
| 13> H      1.239334   -3.143772    0.000000
| 14> H     -1.185110   -2.642410    0.000000
| 15> H      2.869659   -1.271259    0.000000
| 16> H     -1.982692   -0.326351    0.000000
| 17> H      2.067189    1.072124    0.000000
| 18> H     -2.218233    1.823281    0.891490
| 19> H     -2.218233    1.823281   -0.891490
| 20> H     -1.741707    3.285711    0.000000
| 21> *
| 22>
| 23>                          ****END OF INPUT****

CARTESIAN COORDINATES (ANGSTROEM)
---------------------------------
  C      0.893738   -2.119560    0.000000
  C     -0.463564   -1.836161    0.000000
  C      1.807314   -1.066569    0.000000
  C     -0.921006   -0.519558    0.000000
  C      1.369118    0.246605    0.000000
  C      0.000000    0.526996    0.000000
  C     -1.709890    2.199611    0.000000
  O     -0.335558    1.848902    0.000000
  H      1.239334   -3.143772    0.000000
  H     -1.185110   -2.642410    0.000000
  H      2.869659   -1.271259    0.000000
  H     -1.982692   -0.326351    0.000000
  H      2.067189    1.072124    0.000000
  H     -2.218233    1.823281    0.891490
  H     -2.218233    1.823281   -0.891490
  H     -1.741707    3.285711    0.000000

 Total Charge           Charge          ....    0
 Multiplicity           Mult            ....    1
 Number of Electrons    NEL             ....   58
 Basis Dimension        Dim             ....  256

ORBITAL ENERGIES
----------------

  NO   OCC          E(Eh)            E(eV)
   0   2.0000     -20.593745      -560.3843
   1   2.0000     -11.305311      -307.6331
   2   2.0000     -11.291889      -307.2679
   3   2.0000     -11.243872      -305.9613
   4   2.0000     -11.242483      -305.9235
   5   2.0000     -11.235180      -305.7248
   6   2.0000     -11.231062      -305.6127
   7   2.0000     -11.229970      -305.5830
   8   2.0000      -1.412931       -38.4478
   9   2.0000      -1.150812       -31.3152
  10   2.0000      -1.025368       -27.9017
  11   2.0000      -1.017443       -27.6860
  12   2.0000      -0.943751       -25.6808
  13   2.0000      -0.834951       -22.7202
  14   2.0000      -0.809423       -22.0255
  15   2.0000      -0.722760       -19.6673
  16   2.0000      -0.665680       -18.1141
  17   2.0000      -0.663081       -18.0433
  18   2.0000      -0.654528       -17.8106
  19   2.0000      -0.619982       -16.8706
  20   2.0000      -0.590393       -16.0654
  21   2.0000      -0.577565       -15.7163
  22   2.0000      -0.526317       -14.3218
  23   2.0000      -0.525519       -14.3001
  24   2.0000      -0.512690       -13.9510
  25   2.0000      -0.481173       -13.0934
  26   2.0000      -0.467471       -12.7205
  27   2.0000      -0.340074        -9.2539
  28   2.0000      -0.311471        -8.4756
  29   0.0000       0.034358         0.9349
  30   0.0000       0.040257         1.0955
  31   0.0000       0.042642         1.1603
  32   0.0000       0.055400         1.5075
  33   0.0000       0.058227         1.5844

MULLIKEN ATOMIC CHARGES
-----------------------
   0 C :    0.303599
   1 C :    0.679161
   2 C :    0.822828
   3 C :    0.171336
   4 C :    0.064848
   5 C :    1.265530
   6 C :    0.857988
   7 O :   -1.100325
   8 H :   -0.441338
   9 H :   -0.456531
  10 H :   -0.441501
  11 H :   -0.761888
  12 H :   -0.509764
  13 H :   -0.068507
  14 H :   -0.068507
  15 H :   -0.316931
Sum of atomic charges:   -0.0000000

LOEWDIN ATOMIC CHARGES
----------------------
   0 C :   -0.005670
   1 C :    0.005526
   2 C :    0.007025
   3 C :    0.035962
   4 C :    0.047156
   5 C :   -0.205667
   6 C :    0.152541
   7 O :    0.031141
   8 H :   -0.006432
   9 H :    0.001370
  10 H :    0.001972
  11 H :   -0.015124
  12 H :    0.006621
  13 H :   -0.016549
  14 H :   -0.016549
  15 H :   -0.023320

  Mayer bond orders larger than 0.100000
B(  0-C ,  1-C ) :   1.6273 B(  0-C ,  2-C ) :   1.5994 B(  0-C ,  3-C ) :   0.3125
B(  0-C ,  4-C ) :   0.3163 B(  0-C ,  8-H ) :   0.3573 B(  0-C ,  9-H ) :   0.1496
B(  0-C , 10-H ) :   0.1838 B(  1-C ,  2-C ) :  -0.1801 B(  1-C ,  3-C ) :   1.7613
B(  1-C ,  5-C ) :  -0.2058 B(  1-C ,  8-H ) :   0.2222 B(  1-C ,  9-H ) :   0.1313
B(  1-C , 11-H ) :   0.2650 B(  2-C ,  3-C ) :   0.2322 B(  2-C ,  4-C ) :   1.8033
B(  2-C ,  5-C ) :  -0.2184 B(  2-C ,  8-H ) :   0.1369 B(  2-C ,  9-H ) :  -0.1218
B(  2-C , 10-H ) :   0.3055 B(  3-C ,  4-C ) :   0.1740 B(  3-C ,  5-C ) :   1.3015
B(  3-C ,  7-O ) :   0.1624 B(  3-C ,  9-H ) :   0.5134 B(  4-C ,  5-C ) :   1.7534
B(  4-C ,  7-O ) :   0.1463 B(  4-C , 10-H ) :   0.2833 B(  4-C , 12-H ) :   0.1736
B(  5-C ,  7-O ) :  -0.1130 B(  5-C , 11-H ) :   0.2746 B(  5-C , 12-H ) :   0.4357
B(  6-C ,  7-O ) :   0.7180 B(  6-C , 13-H ) :   0.9729 B(  6-C , 14-H ) :   0.9729
B(  6-C , 15-H ) :   1.0150 B( 13-H , 15-H ) :  -0.1014 B( 14-H , 15-H ) :  -0.1014

MP2 TOTAL ENERGY:     -345.777225280 Eh
FINAL SINGLE POINT ENERGY      -345.777225280477

DIPOLE MOMENT
-------------
                                X             Y             Z
Electronic contribution:      2.66727      -0.66685      -0.00000
Nuclear contribution   :     -3.19823       0.65449       0.00000
                        -----------------------------------------
Total Dipole Moment    :     -0.53095      -0.01236      -0.00000
                        -----------------------------------------
Magnitude (a.u.)       :      0.53110
Magnitude (Debye)      :      1.34994

Rotational constants in cm-1:     0.169268     0.052228     0.040218
Rotational constants in MHz :  5074.533437  1565.762630  1205.708040

                             ****ORCA TERMINATED NORMALLY****
TOTAL RUN TIME: 0 days 0 hours 0 minutes 52 seconds 723 msec
