                         Program Version 5.0.3 -  RELEASE  -
|  1> !ri-mp2 aug-cc-pvdz aug-cc-pvdz/c tightscf
|  2> %pal nprocs 16 end
|  3>
|  4> * xyz 0 1
|  5> N     -0.537636    1.634468   -0.311017
|  6> C     -0.506076    0.174773   -0.439687
|  7> C     -1.882737   -0.418460   -0.080577
|  8> O     -2.175140   -1.564324   -0.298926
|  9> O     -2.703547    0.449095    0.519188
| 10> H     -2.201073    1.295665    0.555522
| 11> C      0.530887   -0.449933    0.513055
| 12> C      1.954459   -0.058137    0.153171
| 13> O      2.308657    1.111421    0.104908
| 14> N      2.806159   -1.080562   -0.108786
| 15> H     -0.288369   -0.160572   -1.457832
| 16> H      0.343314   -0.088713    1.526973
| 17> H      0.392111   -1.529176    0.509676
| 18> H      2.517736   -2.040866   -0.075861
| 19> H      3.761371   -0.865241   -0.340502
| 20> H      0.386763    1.982426   -0.073290
| 21> H     -0.810476    2.070141   -1.183197
| 22> *
| 23>
| 24>                          ****END OF INPUT****

CARTESIAN COORDINATES (ANGSTROEM)
---------------------------------
  N     -0.537636    1.634468   -0.311017
  C     -0.506076    0.174773   -0.439687
  C     -1.882737   -0.418460   -0.080577
  O     -2.175140   -1.564324   -0.298926
  O     -2.703547    0.449095    0.519188
  H     -2.201073    1.295665    0.555522
  C      0.530887   -0.449933    0.513055
  C      1.954459   -0.058137    0.153171
  O      2.308657    1.111421    0.104908
  N      2.806159   -1.080562   -0.108786
  H     -0.288369   -0.160572   -1.457832
  H      0.343314   -0.088713    1.526973
  H      0.392111   -1.529176    0.509676
  H      2.517736   -2.040866   -0.075861
  H      3.761371   -0.865241   -0.340502
  H      0.386763    1.982426   -0.073290
  H     -0.810476    2.070141   -1.183197

 Total Charge           Charge          ....    0
 Multiplicity           Mult            ....    1
 Number of Electrons    NEL             ....   70
 Basis Dimension        Dim             ....  279

ORBITAL ENERGIES
----------------

  NO   OCC          E(Eh)            E(eV)
   0   2.0000     -20.610022      -560.8272
   1   2.0000     -20.552979      -559.2750
   2   2.0000     -20.552346      -559.2578
   3   2.0000     -15.616788      -424.9544
   4   2.0000     -15.581075      -423.9826
   5   2.0000     -11.388784      -309.9046
   6   2.0000     -11.386488      -309.8421
   7   2.0000     -11.308194      -307.7116
   8   2.0000     -11.275059      -306.8100
   9   2.0000      -1.460932       -39.7540
  10   2.0000      -1.410670       -38.3863
  11   2.0000      -1.365765       -37.1644
  12   2.0000      -1.239268       -33.7222
  13   2.0000      -1.222672       -33.2706
  14   2.0000      -1.060599       -28.8604
  15   2.0000      -0.936271       -25.4772
  16   2.0000      -0.825598       -22.4657
  17   2.0000      -0.809673       -22.0323
  18   2.0000      -0.750250       -20.4153
  19   2.0000      -0.739408       -20.1203
  20   2.0000      -0.705923       -19.2091
  21   2.0000      -0.689594       -18.7648
  22   2.0000      -0.672827       -18.3085
  23   2.0000      -0.635718       -17.2988
  24   2.0000      -0.630406       -17.1542
  25   2.0000      -0.606578       -16.5058
  26   2.0000      -0.597921       -16.2703
  27   2.0000      -0.564702       -15.3663
  28   2.0000      -0.552399       -15.0315
  29   2.0000      -0.530946       -14.4478
  30   2.0000      -0.474907       -12.9229
  31   2.0000      -0.463859       -12.6222
  32   2.0000      -0.451907       -12.2970
  33   2.0000      -0.437236       -11.8978
  34   2.0000      -0.416537       -11.3346
  35   0.0000       0.023787         0.6473
  36   0.0000       0.037378         1.0171
  37   0.0000       0.045132         1.2281
  38   0.0000       0.049955         1.3593
  39   0.0000       0.060587         1.6487

MULLIKEN ATOMIC CHARGES
-----------------------
   0 N :   -0.454229
   1 C :    0.110372
   2 C :    1.387347
   3 O :   -0.816092
   4 O :   -0.722234
   5 H :    0.294827
   6 C :    0.331953
   7 C :    1.088326
   8 O :   -0.860857
   9 N :   -0.190530
  10 H :   -0.098702
  11 H :    0.043187
  12 H :   -0.170829
  13 H :   -0.017132
  14 H :   -0.039739
  15 H :    0.093191
  16 H :    0.021143
Sum of atomic charges:   -0.0000000

LOEWDIN ATOMIC CHARGES
----------------------
   0 N :    0.232966
   1 C :   -0.153984
   2 C :   -0.321238
   3 O :    0.041888
   4 O :    0.217816
   5 H :   -0.087716
   6 C :    0.084615
   7 C :   -0.341799
   8 O :    0.028572
   9 N :    0.286135
  10 H :    0.049965
  11 H :    0.043345
  12 H :    0.021229
  13 H :   -0.013877
  14 H :    0.000864
  15 H :   -0.069341
  16 H :   -0.019440

  Mayer bond orders larger than 0.100000
B(  0-N ,  1-C ) :   0.7894 B(  0-N , 15-H ) :   0.9836 B(  0-N , 16-H ) :   1.0603
B(  1-C ,  2-C ) :   0.9703 B(  1-C ,  4-O ) :   0.1752 B(  1-C ,  6-C ) :   1.2344
B(  1-C , 10-H ) :   0.6767 B(  1-C , 11-H ) :   0.1094 B(  1-C , 12-H ) :   0.1238
B(  2-C ,  3-O ) :   1.3616 B(  2-C ,  4-O ) :   0.3807 B(  4-O ,  5-H ) :   0.8926
B(  6-C ,  7-C ) :   0.9479 B(  6-C ,  8-O ) :   0.1164 B(  6-C , 11-H ) :   0.8324
B(  6-C , 12-H ) :   0.7340 B(  7-C ,  8-O ) :   1.2799 B(  7-C ,  9-N ) :   0.9425
B(  9-N , 13-H ) :   1.0716 B(  9-N , 14-H ) :   1.1279

MP2 TOTAL ENERGY:     -491.237123561 Eh
FINAL SINGLE POINT ENERGY      -491.237123560588

DIPOLE MOMENT
-------------
                                X             Y             Z
Electronic contribution:     -2.52001      -0.75035       0.17333
Nuclear contribution   :      4.05401       0.66355      -0.53320
                        -----------------------------------------
Total Dipole Moment    :      1.53401      -0.08679      -0.35986
                        -----------------------------------------
Magnitude (a.u.)       :      1.57804
Magnitude (Debye)      :      4.01107

Rotational constants in cm-1:     0.106942     0.031567     0.025857
Rotational constants in MHz :  3206.028901   946.361941   775.167348

                             ****ORCA TERMINATED NORMALLY****
TOTAL RUN TIME: 0 days 0 hours 1 minutes 11 seconds 512 msec
