                         Program Version 5.0.3 -  RELEASE  -
|  1> !ri-mp2 aug-cc-pvdz aug-cc-pvdz/c tightscf
|  2> %pal nprocs 16 end
|  3>
|  4> * xyz 0 1
|  5> O     -1.938443    0.000039   -0.123358
|  6> N      1.923699    0.000027    0.086116
|  7> C      0.571151   -0.000066   -0.003646
|  8> C     -0.628026   -0.000043    0.028755
|  9> H      2.378420    0.835039   -0.252203
| 10> H      2.378550   -0.834876   -0.252294
| 11> H     -2.374067   -0.000010    0.737900
| 12> *
| 13>
| 14>                          ****END OF INPUT****

CARTESIAN COORDINATES (ANGSTROEM)
---------------------------------
  O     -1.938443    0.000039   -0.123358
  N      1.923699    0.000027    0.086116
  C      0.571151   -0.000066   -0.003646
  C     -0.628026   -0.000043    0.028755
  H      2.378420    0.835039   -0.252203
  H      2.378550   -0.834876   -0.252294
  H     -2.374067   -0.000010    0.737900

 Total Charge           Charge          ....    0
 Multiplicity           Mult            ....    1
 Number of Electrons    NEL             ....   30
 Basis Dimension        Dim             ....  119

ORBITAL ENERGIES
----------------

  NO   OCC          E(Eh)            E(eV)
   0   2.0000     -20.629684      -561.3622
   1   2.0000     -15.592824      -424.3023
   2   2.0000     -11.278159      -306.8943
   3   2.0000     -11.255926      -306.2893
   4   2.0000      -1.431321       -38.9482
   5   2.0000      -1.219925       -33.1958
   6   2.0000      -0.998154       -27.1611
   7   2.0000      -0.800688       -21.7878
   8   2.0000      -0.719396       -19.5758
   9   2.0000      -0.695533       -18.9264
  10   2.0000      -0.652525       -17.7561
  11   2.0000      -0.600156       -16.3311
  12   2.0000      -0.512798       -13.9540
  13   2.0000      -0.362289        -9.8584
  14   2.0000      -0.335295        -9.1238
  15   0.0000       0.030266         0.8236
  16   0.0000       0.038489         1.0473
  17   0.0000       0.057587         1.5670
  18   0.0000       0.107500         2.9252
  19   0.0000       0.123710         3.3663

MULLIKEN ATOMIC CHARGES
-----------------------
   0 O :   -0.546904
   1 N :   -0.233455
   2 C :    0.160112
   3 C :    0.375974
   4 H :    0.033291
   5 H :    0.033329
   6 H :    0.177654
Sum of atomic charges:   -0.0000000

LOEWDIN ATOMIC CHARGES
----------------------
   0 O :    0.166695
   1 N :    0.194079
   2 C :   -0.142417
   3 C :   -0.126857
   4 H :   -0.030908
   5 H :   -0.030911
   6 H :   -0.029680

  Mayer bond orders larger than 0.100000
B(  0-O ,  3-C ) :   0.6698 B(  0-O ,  6-H ) :   1.0060 B(  1-N ,  2-C ) :   1.1973
B(  1-N ,  3-C ) :  -0.1401 B(  1-N ,  4-H ) :   1.0447 B(  1-N ,  5-H ) :   1.0446
B(  2-C ,  3-C ) :   2.5135

MP2 TOTAL ENERGY:     -207.357526238 Eh
FINAL SINGLE POINT ENERGY      -207.357526238095

DIPOLE MOMENT
-------------
                                X             Y             Z
Electronic contribution:     -2.04783      -0.00009      -0.06432
Nuclear contribution   :      2.33423       0.00015       0.22908
                        -----------------------------------------
Total Dipole Moment    :      0.28640       0.00006       0.16476
                        -----------------------------------------
Magnitude (a.u.)       :      0.33041
Magnitude (Debye)      :      0.83984

Rotational constants in cm-1:     7.092857     0.121601     0.121222
Rotational constants in MHz : 212638.513945  3645.518323  3634.135480

                             ****ORCA TERMINATED NORMALLY****
TOTAL RUN TIME: 0 days 0 hours 0 minutes 32 seconds 535 msec
