                         Program Version 5.0.3 -  RELEASE  -
|  1> !ri-mp2 aug-cc-pvdz aug-cc-pvdz/c tightscf
|  2> %pal nprocs 16 end
|  3>
|  4> * xyz 0 1
|  5> C      0.000000    2.369460    0.740351
|  6> C     -0.343853    1.165080   -0.083876
|  7> O     -0.878029    1.154247   -1.148636
|  8> H     -0.405130    3.260516    0.271345
|  9> H     -0.391201    2.260041    1.751197
| 10> H      1.085006    2.452696    0.818365
| 11> O      0.000000    0.000000    0.602333
| 12> C      0.343853   -1.165080   -0.083876
| 13> C      0.000000   -2.369460    0.740351
| 14> O      0.878029   -1.154247   -1.148636
| 15> H      0.391201   -2.260041    1.751197
| 16> H      0.405130   -3.260516    0.271345
| 17> H     -1.085006   -2.452696    0.818365
| 18> *
| 19>
| 20>                          ****END OF INPUT****

CARTESIAN COORDINATES (ANGSTROEM)
---------------------------------
  C      0.000000    2.369460    0.740351
  C     -0.343853    1.165080   -0.083876
  O     -0.878029    1.154247   -1.148636
  H     -0.405130    3.260516    0.271345
  H     -0.391201    2.260041    1.751197
  H      1.085006    2.452696    0.818365
  O      0.000000    0.000000    0.602333
  C      0.343853   -1.165080   -0.083876
  C      0.000000   -2.369460    0.740351
  O      0.878029   -1.154247   -1.148636
  H      0.391201   -2.260041    1.751197
  H      0.405130   -3.260516    0.271345
  H     -1.085006   -2.452696    0.818365

 Total Charge           Charge          ....    0
 Multiplicity           Mult            ....    1
 Number of Electrons    NEL             ....   54
 Basis Dimension        Dim             ....  215

ORBITAL ENERGIES
----------------

  NO   OCC          E(Eh)            E(eV)
   0   2.0000     -20.633326      -561.4613
   1   2.0000     -20.576193      -559.9067
   2   2.0000     -20.576192      -559.9066
   3   2.0000     -11.410271      -310.4893
   4   2.0000     -11.410250      -310.4887
   5   2.0000     -11.260748      -306.4205
   6   2.0000     -11.260748      -306.4205
   7   2.0000      -1.497206       -40.7410
   8   2.0000      -1.424609       -38.7656
   9   2.0000      -1.375949       -37.4415
  10   2.0000      -1.059012       -28.8172
  11   2.0000      -1.022165       -27.8145
  12   2.0000      -0.876804       -23.8590
  13   2.0000      -0.743000       -20.2181
  14   2.0000      -0.707050       -19.2398
  15   2.0000      -0.704565       -19.1722
  16   2.0000      -0.688560       -18.7367
  17   2.0000      -0.631751       -17.1908
  18   2.0000      -0.626372       -17.0444
  19   2.0000      -0.600370       -16.3369
  20   2.0000      -0.584868       -15.9151
  21   2.0000      -0.580333       -15.7917
  22   2.0000      -0.557260       -15.1638
  23   2.0000      -0.526204       -14.3187
  24   2.0000      -0.484652       -13.1880
  25   2.0000      -0.478462       -13.0196
  26   2.0000      -0.448789       -12.2122
  27   0.0000       0.029143         0.7930
  28   0.0000       0.040242         1.0950
  29   0.0000       0.050572         1.3761
  30   0.0000       0.054175         1.4742
  31   0.0000       0.064408         1.7526

MULLIKEN ATOMIC CHARGES
-----------------------
   0 C :    0.272615
   1 C :    0.787636
   2 O :   -0.647512
   3 H :   -0.012041
   4 H :    0.023408
   5 H :    0.041330
   6 O :   -0.930872
   7 C :    0.787636
   8 C :    0.272615
   9 O :   -0.647512
  10 H :    0.023408
  11 H :   -0.012041
  12 H :    0.041330
Sum of atomic charges:    0.0000000

LOEWDIN ATOMIC CHARGES
----------------------
   0 C :    0.207673
   1 C :   -0.320503
   2 O :    0.080268
   3 H :   -0.004030
   4 H :   -0.005153
   5 H :   -0.000479
   6 O :    0.084451
   7 C :   -0.320503
   8 C :    0.207673
   9 O :    0.080268
  10 H :   -0.005153
  11 H :   -0.004030
  12 H :   -0.000479

  Mayer bond orders larger than 0.100000
B(  0-C ,  1-C ) :   1.0922 B(  0-C ,  3-H ) :   0.8852 B(  0-C ,  4-H ) :   0.9592
B(  0-C ,  5-H ) :   0.9353 B(  1-C ,  2-O ) :   1.6126 B(  1-C ,  3-H ) :   0.1018
B(  1-C ,  6-O ) :   0.6044 B(  6-O ,  7-C ) :   0.6044 B(  7-C ,  8-C ) :   1.0922
B(  7-C ,  9-O ) :   1.6126 B(  7-C , 11-H ) :   0.1018 B(  8-C , 10-H ) :   0.9592
B(  8-C , 11-H ) :   0.8852 B(  8-C , 12-H ) :   0.9353

MP2 TOTAL ENERGY:     -380.768735901 Eh
FINAL SINGLE POINT ENERGY      -380.768735900774

DIPOLE MOMENT
-------------
                                X             Y             Z
Electronic contribution:     -0.00000       0.00000      -3.88400
Nuclear contribution   :      0.00000       0.00000       5.61781
                        -----------------------------------------
Total Dipole Moment    :     -0.00000       0.00000       1.73381
                        -----------------------------------------
Magnitude (a.u.)       :      1.73381
Magnitude (Debye)      :      4.40700

Rotational constants in cm-1:     0.183397     0.059257     0.051080
Rotational constants in MHz :  5498.097876  1776.476036  1531.343811

                             ****ORCA TERMINATED NORMALLY****
TOTAL RUN TIME: 0 days 0 hours 0 minutes 37 seconds 473 msec
