                         Program Version 5.0.3 -  RELEASE  -
|  1> !ri-mp2 aug-cc-pvdz aug-cc-pvdz/c tightscf
|  2> %pal nprocs 16 end
|  3>
|  4> * xyz 0 1
|  5> C     -0.802490   -0.641917   -0.000049
|  6> C      0.476208    0.129519   -0.000019
|  7> N      1.603597   -0.640957   -0.000091
|  8> O      0.524695    1.347317   -0.000004
|  9> C     -1.976832   -0.024715    0.000041
| 10> H     -0.744777   -1.724573   -0.000141
| 11> H      2.497946   -0.182204    0.000312
| 12> H      1.570738   -1.643448    0.000506
| 13> H     -2.020997    1.056447    0.000120
| 14> H     -2.906961   -0.575387    0.000032
| 15> *
| 16>
| 17>                          ****END OF INPUT****

CARTESIAN COORDINATES (ANGSTROEM)
---------------------------------
  C     -0.802490   -0.641917   -0.000049
  C      0.476208    0.129519   -0.000019
  N      1.603597   -0.640957   -0.000091
  O      0.524695    1.347317   -0.000004
  C     -1.976832   -0.024715    0.000041
  H     -0.744777   -1.724573   -0.000141
  H      2.497946   -0.182204    0.000312
  H      1.570738   -1.643448    0.000506
  H     -2.020997    1.056447    0.000120
  H     -2.906961   -0.575387    0.000032

 Total Charge           Charge          ....    0
 Multiplicity           Mult            ....    1
 Number of Electrons    NEL             ....   38
 Basis Dimension        Dim             ....  160

ORBITAL ENERGIES
----------------

  NO   OCC          E(Eh)            E(eV)
   0   2.0000     -20.527046      -558.5693
   1   2.0000     -15.595636      -424.3788
   2   2.0000     -11.364056      -309.2317
   3   2.0000     -11.260043      -306.4013
   4   2.0000     -11.253563      -306.2250
   5   2.0000      -1.384997       -37.6877
   6   2.0000      -1.216309       -33.0975
   7   2.0000      -1.071324       -29.1522
   8   2.0000      -0.880156       -23.9503
   9   2.0000      -0.773531       -21.0488
  10   2.0000      -0.720582       -19.6080
  11   2.0000      -0.695448       -18.9241
  12   2.0000      -0.617262       -16.7965
  13   2.0000      -0.600484       -16.3400
  14   2.0000      -0.577526       -15.7153
  15   2.0000      -0.540659       -14.7121
  16   2.0000      -0.429108       -11.6766
  17   2.0000      -0.416024       -11.3206
  18   2.0000      -0.390987       -10.6393
  19   0.0000       0.026856         0.7308
  20   0.0000       0.039380         1.0716
  21   0.0000       0.052017         1.4155
  22   0.0000       0.066837         1.8187
  23   0.0000       0.072180         1.9641

MULLIKEN ATOMIC CHARGES
-----------------------
   0 C :    0.856467
   1 C :    0.735967
   2 N :   -0.245683
   3 O :   -0.796831
   4 C :    0.479804
   5 H :   -0.546715
   6 H :   -0.001202
   7 H :   -0.025470
   8 H :   -0.216176
   9 H :   -0.240161
Sum of atomic charges:   -0.0000000

LOEWDIN ATOMIC CHARGES
----------------------
   0 C :   -0.009289
   1 C :   -0.387747
   2 N :    0.266826
   3 O :    0.010367
   4 C :    0.217115
   5 H :   -0.012957
   6 H :   -0.007017
   7 H :   -0.025258
   8 H :   -0.021722
   9 H :   -0.030319

  Mayer bond orders larger than 0.100000
B(  0-C ,  1-C ) :   0.6565 B(  0-C ,  4-C ) :   1.8136 B(  0-C ,  5-H ) :   0.7191
B(  1-C ,  2-N ) :   0.8745 B(  1-C ,  3-O ) :   1.3971 B(  1-C ,  7-H ) :  -0.1340
B(  2-N ,  6-H ) :   1.0959 B(  2-N ,  7-H ) :   1.1269 B(  4-C ,  8-H ) :   0.9366
B(  4-C ,  9-H ) :   0.8327 B(  8-H ,  9-H ) :  -0.1746

MP2 TOTAL ENERGY:     -246.637412670 Eh
FINAL SINGLE POINT ENERGY      -246.637412670052

DIPOLE MOMENT
-------------
                                X             Y             Z
Electronic contribution:      1.58666       1.53580      -0.00022
Nuclear contribution   :     -1.59279      -3.06404       0.00083
                        -----------------------------------------
Total Dipole Moment    :     -0.00613      -1.52824       0.00061
                        -----------------------------------------
Magnitude (a.u.)       :      1.52825
Magnitude (Debye)      :      3.88450

Rotational constants in cm-1:     0.358857     0.140694     0.101069
Rotational constants in MHz : 10758.275794  4217.885922  3029.960624

                             ****ORCA TERMINATED NORMALLY****
TOTAL RUN TIME: 0 days 0 hours 0 minutes 34 seconds 160 msec
