                         Program Version 5.0.3 -  RELEASE  -
|  1> !ri-mp2 aug-cc-pvdz aug-cc-pvdz/c tightscf
|  2> %pal nprocs 16 end
|  3>
|  4> * xyz 0 1
|  5> S      1.039913   -0.088153   -0.000004
|  6> C     -0.650468    0.025724    0.000041
|  7> C     -1.852794    0.003642   -0.000042
|  8> H      1.294484    1.236611   -0.000009
|  9> H     -2.913523   -0.002355    0.000079
| 10> *
| 11>
| 12>                          ****END OF INPUT****

CARTESIAN COORDINATES (ANGSTROEM)
---------------------------------
  S      1.039913   -0.088153   -0.000004
  C     -0.650468    0.025724    0.000041
  C     -1.852794    0.003642   -0.000042
  H      1.294484    1.236611   -0.000009
  H     -2.913523   -0.002355    0.000079

 Total Charge           Charge          ....    0
 Multiplicity           Mult            ....    1
 Number of Electrons    NEL             ....   30
 Basis Dimension        Dim             ....   91

ORBITAL ENERGIES
----------------

  NO   OCC          E(Eh)            E(eV)
   0   2.0000     -92.004537     -2503.5707
   1   2.0000     -11.273264      -306.7611
   2   2.0000     -11.250925      -306.1532
   3   2.0000      -9.005116      -245.0417
   4   2.0000      -6.687442      -181.9745
   5   2.0000      -6.685898      -181.9325
   6   2.0000      -6.683655      -181.8715
   7   2.0000      -1.086959       -29.5777
   8   2.0000      -0.984262       -26.7831
   9   2.0000      -0.735986       -20.0272
  10   2.0000      -0.646300       -17.5867
  11   2.0000      -0.543222       -14.7818
  12   2.0000      -0.481414       -13.1000
  13   2.0000      -0.405338       -11.0298
  14   2.0000      -0.352599        -9.5947
  15   0.0000       0.034943         0.9509
  16   0.0000       0.044164         1.2018
  17   0.0000       0.078236         2.1289
  18   0.0000       0.092954         2.5294
  19   0.0000       0.100423         2.7326

MULLIKEN ATOMIC CHARGES
-----------------------
   0 S :    0.188144
   1 C :   -0.318520
   2 C :    0.400816
   3 H :    0.106614
   4 H :   -0.377053
Sum of atomic charges:   -0.0000000

LOEWDIN ATOMIC CHARGES
----------------------
   0 S :    0.761018
   1 C :   -0.551815
   2 C :    0.103694
   3 H :   -0.197181
   4 H :   -0.115717

  Mayer bond orders larger than 0.100000
B(  0-S ,  1-C ) :   1.1415 B(  0-S ,  3-H ) :   0.9956 B(  1-C ,  2-C ) :   2.4959
B(  2-C ,  4-H ) :   0.5499

MP2 TOTAL ENERGY:     -474.763034534 Eh
FINAL SINGLE POINT ENERGY      -474.763034533704

DIPOLE MOMENT
-------------
                                X             Y             Z
Electronic contribution:      1.51990      -0.85029      -0.00002
Nuclear contribution   :     -1.60123       1.19959       0.00007
                        -----------------------------------------
Total Dipole Moment    :     -0.08133       0.34930       0.00005
                        -----------------------------------------
Magnitude (a.u.)       :      0.35865
Magnitude (Debye)      :      0.91161

Rotational constants in cm-1:     9.659074     0.184821     0.181351
Rotational constants in MHz : 289571.747643  5540.782751  5436.753716

                             ****ORCA TERMINATED NORMALLY****
TOTAL RUN TIME: 0 days 0 hours 0 minutes 27 seconds 993 msec
