                         Program Version 5.0.3 -  RELEASE  -
|  1> !ri-mp2 aug-cc-pvdz aug-cc-pvdz/c tightscf
|  2> %pal nprocs 16 end
|  3>
|  4> * xyz 0 1
|  5> C      0.434679   -1.920126        0.000000
|  6> C     -0.444755   -0.925478        0.000000
|  7> C      0.000000    0.486809        0.000000
|  8> O      1.141969    0.875860        0.000000
|  9> O     -1.059533    1.335003        0.000000
| 10> H      1.497057   -1.715390        0.000000
| 11> H      0.116437   -2.953067        0.000000
| 12> H     -1.511645   -1.100215        0.000000
| 13> H     -0.700884    2.234531        0.000000
| 14> *
| 15>
| 16>                          ****END OF INPUT****

CARTESIAN COORDINATES (ANGSTROEM)
---------------------------------
  C      0.434679   -1.920126    0.000000
  C     -0.444755   -0.925478    0.000000
  C      0.000000    0.486809    0.000000
  O      1.141969    0.875860    0.000000
  O     -1.059533    1.335003    0.000000
  H      1.497057   -1.715390    0.000000
  H      0.116437   -2.953067    0.000000
  H     -1.511645   -1.100215    0.000000
  H     -0.700884    2.234531    0.000000

 Total Charge           Charge          ....    0
 Multiplicity           Mult            ....    1
 Number of Electrons    NEL             ....   38
 Basis Dimension        Dim             ....  151

ORBITAL ENERGIES
----------------

  NO   OCC          E(Eh)            E(eV)
   0   2.0000     -20.624227      -561.2137
   1   2.0000     -20.560134      -559.4697
   2   2.0000     -11.400256      -310.2167
   3   2.0000     -11.271883      -306.7235
   4   2.0000     -11.261512      -306.4413
   5   2.0000      -1.470326       -40.0096
   6   2.0000      -1.367322       -37.2067
   7   2.0000      -1.087357       -29.5885
   8   2.0000      -0.910709       -24.7817
   9   2.0000      -0.776204       -21.1216
  10   2.0000      -0.718639       -19.5552
  11   2.0000      -0.702001       -19.1024
  12   2.0000      -0.633453       -17.2371
  13   2.0000      -0.626558       -17.0495
  14   2.0000      -0.601352       -16.3636
  15   2.0000      -0.550904       -14.9909
  16   2.0000      -0.492025       -13.3887
  17   2.0000      -0.458623       -12.4798
  18   2.0000      -0.402036       -10.9400
  19   0.0000       0.033725         0.9177
  20   0.0000       0.041234         1.1220
  21   0.0000       0.052740         1.4351
  22   0.0000       0.064962         1.7677
  23   0.0000       0.070858         1.9281

MULLIKEN ATOMIC CHARGES
-----------------------
   0 C :    0.491080
   1 C :    0.719332
   2 C :    0.856432
   3 O :   -0.746030
   4 O :   -0.715624
   5 H :   -0.224141
   6 H :   -0.243204
   7 H :   -0.378145
   8 H :    0.240300
Sum of atomic charges:   -0.0000000

LOEWDIN ATOMIC CHARGES
----------------------
   0 C :    0.226368
   1 C :   -0.010494
   2 C :   -0.365559
   3 O :    0.032448
   4 O :    0.192345
   5 H :   -0.020280
   6 H :   -0.027247
   7 H :   -0.006541
   8 H :   -0.021040

  Mayer bond orders larger than 0.100000
B(  0-C ,  1-C ) :   1.7659 B(  0-C ,  5-H ) :   0.9695 B(  0-C ,  6-H ) :   0.8638
B(  1-C ,  2-C ) :   0.7092 B(  1-C ,  4-O ) :   0.1244 B(  1-C ,  7-H ) :   0.8343
B(  2-C ,  3-O ) :   1.4632 B(  2-C ,  4-O ) :   0.4572 B(  3-O ,  4-O ) :   0.1077
B(  4-O ,  8-H ) :   0.9716 B(  5-H ,  6-H ) :  -0.1677

MP2 TOTAL ENERGY:     -266.491216436 Eh
FINAL SINGLE POINT ENERGY      -266.491216435680

DIPOLE MOMENT
-------------
                                X             Y             Z
Electronic contribution:      0.05335       2.97875       0.00000
Nuclear contribution   :     -0.59196      -3.46548       0.00000
                        -----------------------------------------
Total Dipole Moment    :     -0.53861      -0.48673       0.00000
                        -----------------------------------------
Magnitude (a.u.)       :      0.72596
Magnitude (Debye)      :      1.84523

Rotational constants in cm-1:     0.370300     0.141591     0.102427
Rotational constants in MHz : 11101.328629  4244.798798  3070.670868

                             ****ORCA TERMINATED NORMALLY****
TOTAL RUN TIME: 0 days 0 hours 0 minutes 29 seconds 441 msec
