                         Program Version 5.0.3 -  RELEASE  -
|  1> !ri-mp2 aug-cc-pvdz aug-cc-pvdz/c tightscf
|  2> %pal nprocs 16 end
|  3> %maxcore 3800
|  4>
|  5> * xyz 0 1
|  6> C     0.000000     2.417403    1.181934
|  7> C     0.000000    -2.417403    1.181934
|  8> C     0.000000     1.271044    1.944423
|  9> C     0.000000    -1.271044    1.944423
| 10> C     0.000000     2.386884   -0.235954
| 11> C     0.000000    -2.386884   -0.235954
| 12> C     0.000000     0.000000    1.317592
| 13> C     0.000000     0.000000   -0.091156
| 14> C     0.000000     1.171139   -0.870305
| 15> C     0.000000    -1.171139   -0.870305
| 16> C     0.000000     0.782271   -2.334961
| 17> C     0.000000    -0.782271   -2.334961
| 18> H     0.000000     3.379258    1.678463
| 19> H     0.000000    -3.379258    1.678463
| 20> H     0.000000     1.338083    3.024941
| 21> H     0.000000    -1.338083    3.024941
| 22> H     0.000000     3.317350   -0.789309
| 23> H     0.000000    -3.317350   -0.789309
| 24> H    -0.874591     1.180702   -2.852112
| 25> H     0.874591     1.180702   -2.852112
| 26> H     0.874591    -1.180702   -2.852112
| 27> H    -0.874591    -1.180702   -2.852112
| 28> *
| 29>
| 30>                          ****END OF INPUT****

CARTESIAN COORDINATES (ANGSTROEM)
---------------------------------
  C      0.000000    2.417403    1.181934
  C      0.000000   -2.417403    1.181934
  C      0.000000    1.271044    1.944423
  C      0.000000   -1.271044    1.944423
  C      0.000000    2.386884   -0.235954
  C      0.000000   -2.386884   -0.235954
  C      0.000000    0.000000    1.317592
  C      0.000000    0.000000   -0.091156
  C      0.000000    1.171139   -0.870305
  C      0.000000   -1.171139   -0.870305
  C      0.000000    0.782271   -2.334961
  C      0.000000   -0.782271   -2.334961
  H      0.000000    3.379258    1.678463
  H      0.000000   -3.379258    1.678463
  H      0.000000    1.338083    3.024941
  H      0.000000   -1.338083    3.024941
  H      0.000000    3.317350   -0.789309
  H      0.000000   -3.317350   -0.789309
  H     -0.874591    1.180702   -2.852112
  H      0.874591    1.180702   -2.852112
  H      0.874591   -1.180702   -2.852112
  H     -0.874591   -1.180702   -2.852112

 Total Charge           Charge          ....    0
 Multiplicity           Mult            ....    1
 Number of Electrons    NEL             ....   82
 Basis Dimension        Dim             ....  366

ORBITAL ENERGIES
----------------

  NO   OCC          E(Eh)            E(eV)
   0   2.0000     -11.244146      -305.9688
   1   2.0000     -11.243729      -305.9574
   2   2.0000     -11.243699      -305.9566
   3   2.0000     -11.241908      -305.9079
   4   2.0000     -11.241587      -305.8991
   5   2.0000     -11.241583      -305.8990
   6   2.0000     -11.241393      -305.8939
   7   2.0000     -11.234655      -305.7105
   8   2.0000     -11.234581      -305.7085
   9   2.0000     -11.233720      -305.6851
  10   2.0000     -11.233720      -305.6851
  11   2.0000     -11.227019      -305.5027
  12   2.0000      -1.194723       -32.5101
  13   2.0000      -1.110434       -30.2164
  14   2.0000      -1.102677       -30.0054
  15   2.0000      -1.009801       -27.4781
  16   2.0000      -0.994218       -27.0540
  17   2.0000      -0.979640       -26.6574
  18   2.0000      -0.885349       -24.0916
  19   2.0000      -0.841368       -22.8948
  20   2.0000      -0.812505       -22.1094
  21   2.0000      -0.784669       -21.3519
  22   2.0000      -0.703764       -19.1504
  23   2.0000      -0.682929       -18.5834
  24   2.0000      -0.662263       -18.0211
  25   2.0000      -0.633000       -17.2248
  26   2.0000      -0.618587       -16.8326
  27   2.0000      -0.598931       -16.2977
  28   2.0000      -0.579338       -15.7646
  29   2.0000      -0.569228       -15.4895
  30   2.0000      -0.552467       -15.0334
  31   2.0000      -0.523866       -14.2551
  32   2.0000      -0.522308       -14.2127
  33   2.0000      -0.500968       -13.6320
  34   2.0000      -0.500549       -13.6206
  35   2.0000      -0.475165       -12.9299
  36   2.0000      -0.470458       -12.8018
  37   2.0000      -0.435865       -11.8605
  38   2.0000      -0.374941       -10.2027
  39   2.0000      -0.316824        -8.6212
  40   2.0000      -0.276453        -7.5227
  41   0.0000       0.035628         0.9695
  42   0.0000       0.037848         1.0299
  43   0.0000       0.039185         1.0663
  44   0.0000       0.049546         1.3482
  45   0.0000       0.050908         1.3853

MULLIKEN ATOMIC CHARGES
-----------------------
   0 C :    0.114916
   1 C :    0.114916
   2 C :    1.172186
   3 C :    1.172186
   4 C :    0.874791
   5 C :    0.874791
   6 C :    0.934330
   7 C :    0.182607
   8 C :   -2.102103
   9 C :   -2.102103
  10 C :    0.761019
  11 C :    0.761019
  12 H :   -0.513455
  13 H :   -0.513455
  14 H :   -0.554885
  15 H :   -0.554885
  16 H :   -0.521607
  17 H :   -0.521607
  18 H :    0.105335
  19 H :    0.105335
  20 H :    0.105335
  21 H :    0.105335
Sum of atomic charges:   -0.0000000

LOEWDIN ATOMIC CHARGES
----------------------
   0 C :    0.016648
   1 C :    0.016648
   2 C :    0.055611
   3 C :    0.055611
   4 C :    0.058346
   5 C :    0.058346
   6 C :   -0.133906
   7 C :   -0.093771
   8 C :   -0.125882
   9 C :   -0.125882
  10 C :    0.069607
  11 C :    0.069607
  12 H :   -0.000978
  13 H :   -0.000978
  14 H :    0.003086
  15 H :    0.003086
  16 H :    0.001874
  17 H :    0.001874
  18 H :    0.017764
  19 H :    0.017764
  20 H :    0.017764
  21 H :    0.017764

  Mayer bond orders larger than 0.100000
B(  0-C ,  1-C ) :   0.2361 B(  0-C ,  2-C ) :   1.7316 B(  0-C ,  3-C ) :   0.2593
B(  0-C ,  4-C ) :   1.4001 B(  0-C ,  5-C ) :   0.1556 B(  0-C ,  7-C ) :  -0.1988
B(  0-C ,  9-C ) :  -0.1340 B(  0-C , 10-C ) :   0.3746 B(  0-C , 11-C ) :  -0.1189
B(  0-C , 12-H ) :   0.1440 B(  0-C , 14-H ) :   0.2052 B(  1-C ,  2-C ) :   0.2593
B(  1-C ,  3-C ) :   1.7316 B(  1-C ,  4-C ) :   0.1556 B(  1-C ,  5-C ) :   1.4001
B(  1-C ,  7-C ) :  -0.1988 B(  1-C ,  8-C ) :  -0.1340 B(  1-C , 10-C ) :  -0.1189
B(  1-C , 11-C ) :   0.3746 B(  1-C , 13-H ) :   0.1440 B(  1-C , 15-H ) :   0.2052
B(  2-C ,  3-C ) :  -0.4721 B(  2-C ,  4-C ) :   0.3378 B(  2-C ,  5-C ) :  -0.1586
B(  2-C ,  6-C ) :   1.3422 B(  2-C ,  7-C ) :  -0.1541 B(  2-C ,  8-C ) :  -0.4648
B(  2-C ,  9-C ) :   0.3597 B(  2-C , 12-H ) :   0.3669 B(  2-C , 14-H ) :  -0.3957
B(  2-C , 16-H ) :  -0.1019 B(  3-C ,  4-C ) :  -0.1586 B(  3-C ,  5-C ) :   0.3378
B(  3-C ,  6-C ) :   1.3422 B(  3-C ,  7-C ) :  -0.1541 B(  3-C ,  8-C ) :   0.3597
B(  3-C ,  9-C ) :  -0.4648 B(  3-C , 13-H ) :   0.3669 B(  3-C , 15-H ) :  -0.3957
B(  3-C , 17-H ) :  -0.1019 B(  4-C ,  5-C ) :   0.4421 B(  4-C ,  7-C ) :  -0.1033
B(  4-C ,  8-C ) :   1.2796 B(  4-C ,  9-C ) :   0.7070 B(  4-C , 12-H ) :   0.1626
B(  4-C , 16-H ) :  -0.6362 B(  5-C ,  7-C ) :  -0.1033 B(  5-C ,  8-C ) :   0.7070
B(  5-C ,  9-C ) :   1.2796 B(  5-C , 13-H ) :   0.1626 B(  5-C , 17-H ) :  -0.6362
B(  6-C ,  7-C ) :   4.1133 B(  6-C ,  8-C ) :  -2.0515 B(  6-C ,  9-C ) :  -2.0515
B(  6-C , 10-C ) :   0.1747 B(  6-C , 11-C ) :   0.1747 B(  6-C , 12-H ) :   0.1097
B(  6-C , 13-H ) :   0.1097 B(  6-C , 14-H ) :   0.8496 B(  6-C , 15-H ) :   0.8496
B(  7-C ,  8-C ) :   2.2500 B(  7-C ,  9-C ) :   2.2500 B(  7-C , 10-C ) :   0.1512
B(  7-C , 11-C ) :   0.1512 B(  7-C , 14-H ) :   0.1265 B(  7-C , 15-H ) :   0.1265
B(  7-C , 16-H ) :   0.1926 B(  7-C , 17-H ) :   0.1926 B(  7-C , 18-H ) :   0.2104
B(  7-C , 19-H ) :   0.2104 B(  7-C , 20-H ) :   0.2104 B(  7-C , 21-H ) :   0.2104
B(  8-C ,  9-C ) :  -2.2176 B(  8-C , 10-C ) :   0.1733 B(  8-C , 11-C ) :  -0.2085
B(  8-C , 16-H ) :   1.1213 B(  8-C , 18-H ) :   0.3467 B(  8-C , 19-H ) :   0.3467
B(  9-C , 10-C ) :  -0.2085 B(  9-C , 11-C ) :   0.1733 B(  9-C , 17-H ) :   1.1213
B(  9-C , 20-H ) :   0.3467 B(  9-C , 21-H ) :   0.3467 B( 10-C , 11-C ) :   1.1160
B( 10-C , 16-H ) :   0.1418 B( 10-C , 18-H ) :   0.5139 B( 10-C , 19-H ) :   0.5139
B( 11-C , 17-H ) :   0.1418 B( 11-C , 20-H ) :   0.5139 B( 11-C , 21-H ) :   0.5139
B( 18-H , 19-H ) :  -0.1704 B( 20-H , 21-H ) :  -0.1704

MP2 TOTAL ENERGY:     -461.929109431 Eh
FINAL SINGLE POINT ENERGY      -461.929109431420

DIPOLE MOMENT
-------------
                                X             Y             Z
Electronic contribution:     -0.00000       0.00000       3.17636
Nuclear contribution   :      0.00000       0.00000      -3.57538
                        -----------------------------------------
Total Dipole Moment    :     -0.00000       0.00000      -0.39903
                        -----------------------------------------
Magnitude (a.u.)       :      0.39903
Magnitude (Debye)      :      1.01424

Rotational constants in cm-1:     0.047218     0.040021     0.021834
Rotational constants in MHz :  1415.566459  1199.805981   654.581381

                             ****ORCA TERMINATED NORMALLY****
TOTAL RUN TIME: 0 days 0 hours 2 minutes 38 seconds 403 msec
