                         Program Version 5.0.3 -  RELEASE  -
|  1> !ri-mp2 aug-cc-pvdz aug-cc-pvdz/c tightscf
|  2> %pal nprocs 16 end
|  3> %maxcore 3800
|  4>
|  5> * xyz 0 1
|  6> C      0.000000    0.719869    1.218890
|  7> C      0.000000   -0.719869    1.218890
|  8> C      0.000000    1.398321    0.000000
|  9> C      0.000000    1.401530    2.470807
| 10> C      0.000000   -1.398321    0.000000
| 11> C      0.000000   -1.401530    2.470807
| 12> C      0.000000    0.719869   -1.218890
| 13> C      0.000000    0.710698    3.646151
| 14> C      0.000000   -0.719869   -1.218890
| 15> C      0.000000   -0.710698    3.646151
| 16> C      0.000000    1.401530   -2.470807
| 17> C      0.000000   -1.401530   -2.470807
| 18> C      0.000000    0.710698   -3.646151
| 19> C      0.000000   -0.710698   -3.646151
| 20> H      0.000000    2.481982    0.000000
| 21> H      0.000000    2.484308    2.470066
| 22> H      0.000000   -2.481982    0.000000
| 23> H      0.000000   -2.484308    2.470066
| 24> H      0.000000    1.241764    4.588686
| 25> H      0.000000   -1.241764    4.588686
| 26> H      0.000000    2.484308   -2.470066
| 27> H      0.000000   -2.484308   -2.470066
| 28> H      0.000000    1.241764   -4.588686
| 29> H      0.000000   -1.241764   -4.588686
| 30> *
| 31>
| 32>                          ****END OF INPUT****

CARTESIAN COORDINATES (ANGSTROEM)
---------------------------------
  C      0.000000    0.719869    1.218890
  C      0.000000   -0.719869    1.218890
  C      0.000000    1.398321    0.000000
  C      0.000000    1.401530    2.470807
  C      0.000000   -1.398321    0.000000
  C      0.000000   -1.401530    2.470807
  C      0.000000    0.719869   -1.218890
  C      0.000000    0.710698    3.646151
  C      0.000000   -0.719869   -1.218890
  C      0.000000   -0.710698    3.646151
  C      0.000000    1.401530   -2.470807
  C      0.000000   -1.401530   -2.470807
  C      0.000000    0.710698   -3.646151
  C      0.000000   -0.710698   -3.646151
  H      0.000000    2.481982    0.000000
  H      0.000000    2.484308    2.470066
  H      0.000000   -2.481982    0.000000
  H      0.000000   -2.484308    2.470066
  H      0.000000    1.241764    4.588686
  H      0.000000   -1.241764    4.588686
  H      0.000000    2.484308   -2.470066
  H      0.000000   -2.484308   -2.470066
  H      0.000000    1.241764   -4.588686
  H      0.000000   -1.241764   -4.588686

 Total Charge           Charge          ....    0
 Multiplicity           Mult            ....    1
 Number of Electrons    NEL             ....   94
 Basis Dimension        Dim             ....  412

ORBITAL ENERGIES
----------------

  NO   OCC          E(Eh)            E(eV)
   0   2.0000     -11.251087      -306.1576
   1   2.0000     -11.251018      -306.1558
   2   2.0000     -11.250166      -306.1326
   3   2.0000     -11.250044      -306.1293
   4   2.0000     -11.244026      -305.9655
   5   2.0000     -11.244007      -305.9650
   6   2.0000     -11.243941      -305.9632
   7   2.0000     -11.243895      -305.9619
   8   2.0000     -11.243700      -305.9566
   9   2.0000     -11.243679      -305.9560
  10   2.0000     -11.242590      -305.9264
  11   2.0000     -11.242588      -305.9264
  12   2.0000     -11.241895      -305.9075
  13   2.0000     -11.241894      -305.9075
  14   2.0000      -1.192055       -32.4375
  15   2.0000      -1.152396       -31.3583
  16   2.0000      -1.090183       -29.6654
  17   2.0000      -1.069677       -29.1074
  18   2.0000      -1.028116       -27.9765
  19   2.0000      -1.010643       -27.5010
  20   2.0000      -0.966370       -26.2963
  21   2.0000      -0.883436       -24.0395
  22   2.0000      -0.847403       -23.0590
  23   2.0000      -0.819301       -22.2943
  24   2.0000      -0.813588       -22.1389
  25   2.0000      -0.748464       -20.3667
  26   2.0000      -0.713532       -19.4162
  27   2.0000      -0.691071       -18.8050
  28   2.0000      -0.651696       -17.7335
  29   2.0000      -0.644482       -17.5372
  30   2.0000      -0.629353       -17.1256
  31   2.0000      -0.620250       -16.8779
  32   2.0000      -0.594272       -16.1710
  33   2.0000      -0.582353       -15.8466
  34   2.0000      -0.576410       -15.6849
  35   2.0000      -0.550089       -14.9687
  36   2.0000      -0.547909       -14.9094
  37   2.0000      -0.539931       -14.6923
  38   2.0000      -0.498027       -13.5520
  39   2.0000      -0.495732       -13.4896
  40   2.0000      -0.488393       -13.2898
  41   2.0000      -0.472287       -12.8516
  42   2.0000      -0.415307       -11.3011
  43   2.0000      -0.408007       -11.1024
  44   2.0000      -0.348702        -9.4887
  45   2.0000      -0.311101        -8.4655
  46   2.0000      -0.259680        -7.0662
  47   0.0000       0.034627         0.9423
  48   0.0000       0.034961         0.9513
  49   0.0000       0.035310         0.9608
  50   0.0000       0.045776         1.2456
  51   0.0000       0.047329         1.2879

MULLIKEN ATOMIC CHARGES
-----------------------
   0 C :    0.505805
   1 C :    0.505806
   2 C :    1.117850
   3 C :    0.602196
   4 C :    1.117849
   5 C :    0.602196
   6 C :    0.505847
   7 C :   -0.212987
   8 C :    0.505847
   9 C :   -0.212987
  10 C :    0.602218
  11 C :    0.602218
  12 C :   -0.213003
  13 C :   -0.213003
  14 H :   -0.674896
  15 H :   -0.611428
  16 H :   -0.674896
  17 H :   -0.611428
  18 H :   -0.505087
  19 H :   -0.505087
  20 H :   -0.611429
  21 H :   -0.611429
  22 H :   -0.505087
  23 H :   -0.505087
Sum of atomic charges:   -0.0000000

LOEWDIN ATOMIC CHARGES
----------------------
   0 C :   -0.130155
   1 C :   -0.130155
   2 C :    0.101385
   3 C :    0.051769
   4 C :    0.101385
   5 C :    0.051769
   6 C :   -0.130155
   7 C :    0.012653
   8 C :   -0.130155
   9 C :    0.012653
  10 C :    0.051769
  11 C :    0.051769
  12 C :    0.012653
  13 C :    0.012653
  14 H :    0.014362
  15 H :    0.007991
  16 H :    0.014362
  17 H :    0.007991
  18 H :   -0.000132
  19 H :   -0.000132
  20 H :    0.007991
  21 H :    0.007991
  22 H :   -0.000132
  23 H :   -0.000132

  Mayer bond orders larger than 0.100000
B(  0-C ,  1-C ) :   4.2259 B(  0-C ,  2-C ) :   3.7625 B(  0-C ,  3-C ) :   1.2592
B(  0-C ,  4-C ) :  -1.1110 B(  0-C ,  5-C ) :  -1.8912 B(  0-C ,  6-C ) :  -1.8264
B(  0-C ,  7-C ) :  -0.9241 B(  0-C ,  8-C ) :   0.1175 B(  0-C ,  9-C ) :  -0.2969
B(  0-C , 10-C ) :   0.3304 B(  0-C , 11-C ) :   0.1320 B(  0-C , 12-C ) :   0.1347
B(  0-C , 13-C ) :   0.1743 B(  0-C , 14-H ) :   0.9347 B(  0-C , 15-H ) :   1.4030
B(  0-C , 16-H ) :  -0.1357 B(  0-C , 18-H ) :   0.4437 B(  0-C , 19-H ) :  -0.3059
B(  1-C ,  2-C ) :  -1.1110 B(  1-C ,  3-C ) :  -1.8912 B(  1-C ,  4-C ) :   3.7625
B(  1-C ,  5-C ) :   1.2592 B(  1-C ,  6-C ) :   0.1175 B(  1-C ,  7-C ) :  -0.2969
B(  1-C ,  8-C ) :  -1.8264 B(  1-C ,  9-C ) :  -0.9241 B(  1-C , 10-C ) :   0.1320
B(  1-C , 11-C ) :   0.3304 B(  1-C , 12-C ) :   0.1743 B(  1-C , 13-C ) :   0.1347
B(  1-C , 14-H ) :  -0.1357 B(  1-C , 16-H ) :   0.9347 B(  1-C , 17-H ) :   1.4030
B(  1-C , 18-H ) :  -0.3059 B(  1-C , 19-H ) :   0.4437 B(  2-C ,  3-C ) :  -2.1919
B(  2-C ,  4-C ) :   0.7122 B(  2-C ,  5-C ) :  -0.1239 B(  2-C ,  6-C ) :   3.7626
B(  2-C ,  7-C ) :   0.8368 B(  2-C ,  8-C ) :  -1.1110 B(  2-C ,  9-C ) :  -0.2760
B(  2-C , 10-C ) :  -2.1919 B(  2-C , 11-C ) :  -0.1239 B(  2-C , 12-C ) :   0.8368
B(  2-C , 13-C ) :  -0.2760 B(  2-C , 14-H ) :  -1.0828 B(  2-C , 15-H ) :  -0.5431
B(  2-C , 16-H ) :   0.1349 B(  2-C , 20-H ) :  -0.5431 B(  3-C ,  4-C ) :  -0.1239
B(  3-C ,  5-C ) :   0.8151 B(  3-C ,  6-C ) :   0.3305 B(  3-C ,  7-C ) :   1.4444
B(  3-C ,  8-C ) :   0.1320 B(  3-C ,  9-C ) :   0.2516 B(  3-C , 10-C ) :   0.1420
B(  3-C , 11-C ) :   0.1101 B(  3-C , 15-H ) :  -0.8374 B(  3-C , 18-H ) :   0.4847
B(  4-C ,  5-C ) :  -2.1919 B(  4-C ,  6-C ) :  -1.1110 B(  4-C ,  7-C ) :  -0.2760
B(  4-C ,  8-C ) :   3.7626 B(  4-C ,  9-C ) :   0.8368 B(  4-C , 10-C ) :  -0.1239
B(  4-C , 11-C ) :  -2.1919 B(  4-C , 12-C ) :  -0.2760 B(  4-C , 13-C ) :   0.8368
B(  4-C , 14-H ) :   0.1349 B(  4-C , 16-H ) :  -1.0828 B(  4-C , 17-H ) :  -0.5431
B(  4-C , 21-H ) :  -0.5431 B(  5-C ,  6-C ) :   0.1320 B(  5-C ,  7-C ) :   0.2516
B(  5-C ,  8-C ) :   0.3305 B(  5-C ,  9-C ) :   1.4444 B(  5-C , 10-C ) :   0.1101
B(  5-C , 11-C ) :   0.1420 B(  5-C , 17-H ) :  -0.8374 B(  5-C , 19-H ) :   0.4847
B(  6-C ,  7-C ) :   0.1347 B(  6-C ,  8-C ) :   4.2259 B(  6-C ,  9-C ) :   0.1743
B(  6-C , 10-C ) :   1.2592 B(  6-C , 11-C ) :  -1.8912 B(  6-C , 12-C ) :  -0.9241
B(  6-C , 13-C ) :  -0.2969 B(  6-C , 14-H ) :   0.9347 B(  6-C , 16-H ) :  -0.1357
B(  6-C , 20-H ) :   1.4030 B(  6-C , 22-H ) :   0.4437 B(  6-C , 23-H ) :  -0.3059
B(  7-C ,  8-C ) :   0.1743 B(  7-C ,  9-C ) :   2.0397 B(  7-C , 13-C ) :   0.1052
B(  7-C , 15-H ) :   0.6024 B(  7-C , 19-H ) :   0.1159 B(  8-C ,  9-C ) :   0.1347
B(  8-C , 10-C ) :  -1.8912 B(  8-C , 11-C ) :   1.2592 B(  8-C , 12-C ) :  -0.2969
B(  8-C , 13-C ) :  -0.9241 B(  8-C , 14-H ) :  -0.1357 B(  8-C , 16-H ) :   0.9347
B(  8-C , 21-H ) :   1.4030 B(  8-C , 22-H ) :  -0.3059 B(  8-C , 23-H ) :   0.4437
B(  9-C , 12-C ) :   0.1052 B(  9-C , 17-H ) :   0.6024 B(  9-C , 18-H ) :   0.1159
B( 10-C , 11-C ) :   0.8151 B( 10-C , 12-C ) :   1.4444 B( 10-C , 13-C ) :   0.2516
B( 10-C , 20-H ) :  -0.8374 B( 10-C , 22-H ) :   0.4847 B( 11-C , 12-C ) :   0.2516
B( 11-C , 13-C ) :   1.4444 B( 11-C , 21-H ) :  -0.8374 B( 11-C , 23-H ) :   0.4847
B( 12-C , 13-C ) :   2.0397 B( 12-C , 20-H ) :   0.6024 B( 12-C , 23-H ) :   0.1159
B( 13-C , 21-H ) :   0.6024 B( 13-C , 22-H ) :   0.1159

MP2 TOTAL ENERGY:     -537.927509539 Eh
FINAL SINGLE POINT ENERGY      -537.927509539171

DIPOLE MOMENT
-------------
                                X             Y             Z
Electronic contribution:      0.00000       0.00000       0.00000
Nuclear contribution   :      0.00000      -0.00000      -0.00000
                        -----------------------------------------
Total Dipole Moment    :      0.00000       0.00000       0.00000
                        -----------------------------------------
Magnitude (a.u.)       :      0.00000
Magnitude (Debye)      :      0.00000

Rotational constants in cm-1:     0.072033     0.015148     0.012516
Rotational constants in MHz :  2159.492852   454.111680   375.210142

                             ****ORCA TERMINATED NORMALLY****
TOTAL RUN TIME: 0 days 0 hours 3 minutes 34 seconds 427 msec
