                         Program Version 5.0.3 -  RELEASE  -
|  1> !ri-mp2 aug-cc-pvdz aug-cc-pvdz/c tightscf
|  2> %pal nprocs 16 end
|  3>
|  4> * xyz 0 1
|  5> C     -0.078977    0.122141    0.000466
|  6> C      1.411558   -0.089220    0.001120
|  7> N     -0.551941    1.306983    0.008721
|  8> N     -0.819020   -1.045938   -0.060148
|  9> H      1.910931    0.874016    0.006173
| 10> H      1.722528   -0.656817    0.881242
| 11> H      1.720667   -0.651513   -0.881909
| 12> H     -1.571784    1.312848    0.003132
| 13> H     -1.803738   -0.993258    0.139354
| 14> H     -0.377366   -1.910114    0.202483
| 15> *
| 16>
| 17>                          ****END OF INPUT****

CARTESIAN COORDINATES (ANGSTROEM)
---------------------------------
  C     -0.078977    0.122141    0.000466
  C      1.411558   -0.089220    0.001120
  N     -0.551941    1.306983    0.008721
  N     -0.819020   -1.045938   -0.060148
  H      1.910931    0.874016    0.006173
  H      1.722528   -0.656817    0.881242
  H      1.720667   -0.651513   -0.881909
  H     -1.571784    1.312848    0.003132
  H     -1.803738   -0.993258    0.139354
  H     -0.377366   -1.910114    0.202483

 Total Charge           Charge          ....    0
 Multiplicity           Mult            ....    1
 Number of Electrons    NEL             ....   32
 Basis Dimension        Dim             ....  146

ORBITAL ENERGIES
----------------

  NO   OCC          E(Eh)            E(eV)
   0   2.0000     -15.585238      -424.0959
   1   2.0000     -15.527221      -422.5172
   2   2.0000     -11.322170      -308.0919
   3   2.0000     -11.234650      -305.7104
   4   2.0000      -1.263034       -34.3689
   5   2.0000      -1.140437       -31.0329
   6   2.0000      -0.990347       -26.9487
   7   2.0000      -0.781332       -21.2611
   8   2.0000      -0.705405       -19.1951
   9   2.0000      -0.691961       -18.8292
  10   2.0000      -0.596138       -16.2217
  11   2.0000      -0.551870       -15.0171
  12   2.0000      -0.547670       -14.9029
  13   2.0000      -0.496231       -13.5031
  14   2.0000      -0.418634       -11.3916
  15   2.0000      -0.367533       -10.0011
  16   0.0000       0.027925         0.7599
  17   0.0000       0.045831         1.2471
  18   0.0000       0.051803         1.4096
  19   0.0000       0.057188         1.5562
  20   0.0000       0.073050         1.9878

MULLIKEN ATOMIC CHARGES
-----------------------
   0 C :    0.557053
   1 C :    0.487313
   2 N :   -0.544491
   3 N :   -0.333233
   4 H :   -0.059835
   5 H :   -0.009303
   6 H :    0.031676
   7 H :   -0.042112
   8 H :   -0.056213
   9 H :   -0.030856
Sum of atomic charges:    0.0000000

LOEWDIN ATOMIC CHARGES
----------------------
   0 C :   -0.400999
   1 C :    0.189598
   2 N :    0.142302
   3 N :    0.246402
   4 H :   -0.010892
   5 H :   -0.010721
   6 H :   -0.007804
   7 H :   -0.097068
   8 H :   -0.022637
   9 H :   -0.028180

  Mayer bond orders larger than 0.100000
B(  0-C ,  1-C ) :   1.1799 B(  0-C ,  2-N ) :   1.5948 B(  0-C ,  3-N ) :   0.8349
B(  0-C ,  4-H ) :   0.1619 B(  1-C ,  4-H ) :   0.8577 B(  1-C ,  5-H ) :   0.9033
B(  1-C ,  6-H ) :   0.9074 B(  2-N ,  7-H ) :   1.0345 B(  3-N ,  8-H ) :   1.1532
B(  3-N ,  9-H ) :   1.1098

MP2 TOTAL ENERGY:     -188.795290767 Eh
FINAL SINGLE POINT ENERGY      -188.795290766800

DIPOLE MOMENT
-------------
                                X             Y             Z
Electronic contribution:     -1.82109       0.76387      -0.09529
Nuclear contribution   :      1.64844      -2.09347       0.36232
                        -----------------------------------------
Total Dipole Moment    :     -0.17264      -1.32960       0.26703
                        -----------------------------------------
Magnitude (a.u.)       :      1.36709
Magnitude (Debye)      :      3.47488

Rotational constants in cm-1:     0.342865     0.307209     0.167402
Rotational constants in MHz : 10278.836911  9209.889222  5018.585921

                             ****ORCA TERMINATED NORMALLY****
TOTAL RUN TIME: 0 days 0 hours 0 minutes 32 seconds 339 msec
