                         Program Version 5.0.3 -  RELEASE  -
|  1> !ri-mp2 aug-cc-pvdz aug-cc-pvdz/c tightscf
|  2> %pal nprocs 16 end
|  3>
|  4> * xyz 0 1
|  5> C     0.000000     0.000000    0.000000
|  6> C     0.000000     0.000000    1.299944
|  7> C     0.000000     0.000000   -1.299944
|  8> H     0.000000     0.925401    1.862995
|  9> H     0.000000    -0.925401    1.862995
| 10> H     0.925401     0.000000   -1.862995
| 11> H    -0.925401     0.000000   -1.862995
| 12> *
| 13>
| 14>                          ****END OF INPUT****

CARTESIAN COORDINATES (ANGSTROEM)
---------------------------------
  C      0.000000    0.000000    0.000000
  C      0.000000    0.000000    1.299944
  C      0.000000    0.000000   -1.299944
  H      0.000000    0.925401    1.862995
  H      0.000000   -0.925401    1.862995
  H      0.925401    0.000000   -1.862995
  H     -0.925401    0.000000   -1.862995

 Total Charge           Charge          ....    0
 Multiplicity           Mult            ....    1
 Number of Electrons    NEL             ....   22
 Basis Dimension        Dim             ....  105

ORBITAL ENERGIES
----------------

  NO   OCC          E(Eh)            E(eV)
   0   2.0000     -11.269253      -306.6520
   1   2.0000     -11.244167      -305.9693
   2   2.0000     -11.244060      -305.9664
   3   2.0000      -1.079683       -29.3797
   4   2.0000      -0.962499       -26.1909
   5   2.0000      -0.716983       -19.5101
   6   2.0000      -0.630759       -17.1638
   7   2.0000      -0.608237       -16.5510
   8   2.0000      -0.608237       -16.5510
   9   2.0000      -0.379128       -10.3166
  10   2.0000      -0.379128       -10.3166
  11   0.0000       0.037344         1.0162
  12   0.0000       0.047557         1.2941
  13   0.0000       0.054428         1.4811
  14   0.0000       0.054428         1.4811
  15   0.0000       0.094838         2.5807

MULLIKEN ATOMIC CHARGES
-----------------------
   0 C :   -0.558159
   1 C :    0.676169
   2 C :    0.676169
   3 H :   -0.198545
   4 H :   -0.198545
   5 H :   -0.198545
   6 H :   -0.198545
Sum of atomic charges:   -0.0000000

LOEWDIN ATOMIC CHARGES
----------------------
   0 C :   -0.137398
   1 C :    0.152346
   2 C :    0.152346
   3 H :   -0.041824
   4 H :   -0.041824
   5 H :   -0.041824
   6 H :   -0.041824

  Mayer bond orders larger than 0.100000
B(  0-C ,  1-C ) :   2.0491 B(  0-C ,  2-C ) :   2.0491 B(  0-C ,  3-H ) :   0.1448
B(  0-C ,  4-H ) :   0.1448 B(  0-C ,  5-H ) :   0.1448 B(  0-C ,  6-H ) :   0.1448
B(  1-C ,  2-C ) :   0.2444 B(  1-C ,  3-H ) :   0.7411 B(  1-C ,  4-H ) :   0.7411
B(  2-C ,  5-H ) :   0.7411 B(  2-C ,  6-H ) :   0.7411 B(  3-H ,  4-H ) :  -0.1414
B(  5-H ,  6-H ) :  -0.1414

MP2 TOTAL ENERGY:     -116.280855518 Eh
FINAL SINGLE POINT ENERGY      -116.280855517738

DIPOLE MOMENT
-------------
                                X             Y             Z
Electronic contribution:      0.00000      -0.00000      -0.00000
Nuclear contribution   :      0.00000       0.00000       0.00000
                        -----------------------------------------
Total Dipole Moment    :      0.00000      -0.00000      -0.00000
                        -----------------------------------------
Magnitude (a.u.)       :      0.00000
Magnitude (Debye)      :      0.00000

Rotational constants in cm-1:     4.882210     0.299350     0.299350
Rotational constants in MHz : 146364.971185  8974.284009  8974.284009

                             ****ORCA TERMINATED NORMALLY****
TOTAL RUN TIME: 0 days 0 hours 0 minutes 34 seconds 356 msec
