                         Program Version 5.0.3 -  RELEASE  -
|  1> !ri-mp2 aug-cc-pvdz aug-cc-pvdz/c tightscf
|  2> %pal nprocs 16 end
|  3>
|  4> * xyz 0 1
|  5> H     -2.372022    1.258779   -0.041328
|  6> O      1.579853    0.982519    0.090040
|  7> H      1.029092    1.754950    0.261797
|  8> C      0.826544   -0.141556    0.027243
|  9> O      1.341664   -1.193160   -0.229770
| 10> C     -0.660281    0.015379    0.360045
| 11> H     -0.675584    0.146310    1.454547
| 12> C     -1.307277    1.254476   -0.272188
| 13> H     -0.900542    2.193255    0.114105
| 14> H     -1.199468    1.234270   -1.355735
| 15> H     -2.167312   -1.374487    0.506707
| 16> H     -0.734896   -1.985047   -0.035084
| 17> N     -1.357902   -1.187528   -0.068252
| 18> *
| 19>
| 20>                          ****END OF INPUT****

CARTESIAN COORDINATES (ANGSTROEM)
---------------------------------
  H     -2.372022    1.258779   -0.041328
  O      1.579853    0.982519    0.090040
  H      1.029092    1.754950    0.261797
  C      0.826544   -0.141556    0.027243
  O      1.341664   -1.193160   -0.229770
  C     -0.660281    0.015379    0.360045
  H     -0.675584    0.146310    1.454547
  C     -1.307277    1.254476   -0.272188
  H     -0.900542    2.193255    0.114105
  H     -1.199468    1.234270   -1.355735
  H     -2.167312   -1.374487    0.506707
  H     -0.734896   -1.985047   -0.035084
  N     -1.357902   -1.187528   -0.068252

 Total Charge           Charge          ....    0
 Multiplicity           Mult            ....    1
 Number of Electrons    NEL             ....   48
 Basis Dimension        Dim             ....  201

ORBITAL ENERGIES
----------------

  NO   OCC          E(Eh)            E(eV)
   0   2.0000     -20.627007      -561.2894
   1   2.0000     -20.561057      -559.4948
   2   2.0000     -15.560080      -423.4113
   3   2.0000     -11.397435      -310.1400
   4   2.0000     -11.300739      -307.5087
   5   2.0000     -11.252953      -306.2084
   6   2.0000      -1.470823       -40.0231
   7   2.0000      -1.375807       -37.4376
   8   2.0000      -1.206053       -32.8184
   9   2.0000      -1.030757       -28.0483
  10   2.0000      -0.909268       -24.7424
  11   2.0000      -0.826332       -22.4856
  12   2.0000      -0.738537       -20.0966
  13   2.0000      -0.687260       -18.7013
  14   2.0000      -0.665691       -18.1144
  15   2.0000      -0.651850       -17.7377
  16   2.0000      -0.615068       -16.7369
  17   2.0000      -0.580309       -15.7910
  18   2.0000      -0.564095       -15.3498
  19   2.0000      -0.550045       -14.9675
  20   2.0000      -0.539795       -14.6886
  21   2.0000      -0.483811       -13.1652
  22   2.0000      -0.450682       -12.2637
  23   2.0000      -0.405792       -11.0422
  24   0.0000       0.025929         0.7056
  25   0.0000       0.039969         1.0876
  26   0.0000       0.045016         1.2249
  27   0.0000       0.053735         1.4622
  28   0.0000       0.066922         1.8210

MULLIKEN ATOMIC CHARGES
-----------------------
   0 H :   -0.072117
   1 O :   -0.716007
   2 H :    0.197800
   3 C :    1.268754
   4 O :   -0.712669
   5 C :   -0.288383
   6 H :    0.048128
   7 C :    0.677606
   8 H :   -0.070128
   9 H :   -0.028104
  10 H :   -0.009017
  11 H :    0.032417
  12 N :   -0.328280
Sum of atomic charges:   -0.0000000

LOEWDIN ATOMIC CHARGES
----------------------
   0 H :   -0.009157
   1 O :    0.217589
   2 H :   -0.062191
   3 C :   -0.294602
   4 O :    0.064518
   5 C :   -0.230185
   6 H :    0.044863
   7 C :    0.174946
   8 H :   -0.021439
   9 H :   -0.000112
  10 H :   -0.042458
  11 H :   -0.060809
  12 N :    0.219039

  Mayer bond orders larger than 0.100000
B(  0-H ,  5-C ) :   0.1061 B(  0-H ,  7-C ) :   0.8970 B(  1-O ,  2-H ) :   1.0081
B(  1-O ,  3-C ) :   0.3644 B(  1-O ,  5-C ) :   0.1891 B(  3-C ,  4-O ) :   1.5914
B(  3-C ,  5-C ) :   0.9503 B(  5-C ,  6-H ) :   0.8591 B(  5-C ,  7-C ) :   1.2565
B(  5-C ,  9-H ) :   0.1390 B(  5-C , 12-N ) :   0.8394 B(  7-C ,  8-H ) :   0.8714
B(  7-C ,  9-H ) :   0.8918 B( 10-H , 12-N ) :   1.0526 B( 11-H , 12-N ) :   1.0365

MP2 TOTAL ENERGY:     -322.916628943 Eh
FINAL SINGLE POINT ENERGY      -322.916628942770

DIPOLE MOMENT
-------------
                                X             Y             Z
Electronic contribution:      5.79486      -2.15247      -0.08019
Nuclear contribution   :     -7.06522       3.25579       0.91308
                        -----------------------------------------
Total Dipole Moment    :     -1.27035       1.10332       0.83288
                        -----------------------------------------
Magnitude (a.u.)       :      1.87744
Magnitude (Debye)      :      4.77208

Rotational constants in cm-1:     0.165599     0.111987     0.071206
Rotational constants in MHz :  4964.527382  3357.275717  2134.704812

                             ****ORCA TERMINATED NORMALLY****
TOTAL RUN TIME: 0 days 0 hours 0 minutes 42 seconds 59 msec
