                         Program Version 5.0.3 -  RELEASE  -
|  1> !ri-mp2 aug-cc-pvdz aug-cc-pvdz/c tightscf
|  2> %pal nprocs 16 end
|  3>
|  4> * xyz 0 1
|  5> N     -0.091593   -0.542859   -0.000002
|  6> N     -1.235025   -0.089021    0.000000
|  7> N     -2.326717    0.196979    0.000000
|  8> C      0.978435    0.373808    0.000000
|  9> C      2.241526   -0.037019    0.000000
| 10> H      0.716580    1.426207    0.000003
| 11> H      2.493945   -1.087536   -0.000002
| 12> H      3.043059    0.684904    0.000002
| 13> *
| 14>
| 15>                          ****END OF INPUT****

CARTESIAN COORDINATES (ANGSTROEM)
---------------------------------
  N     -0.091593   -0.542859   -0.000002
  N     -1.235025   -0.089021    0.000000
  N     -2.326717    0.196979    0.000000
  C      0.978435    0.373808    0.000000
  C      2.241526   -0.037019    0.000000
  H      0.716580    1.426207    0.000003
  H      2.493945   -1.087536   -0.000002
  H      3.043059    0.684904    0.000002

 Total Charge           Charge          ....    0
 Multiplicity           Mult            ....    1
 Number of Electrons    NEL             ....   36
 Basis Dimension        Dim             ....  142

ORBITAL ENERGIES
----------------

  NO   OCC          E(Eh)            E(eV)
   0   2.0000     -15.805454      -430.0883
   1   2.0000     -15.693000      -427.0282
   2   2.0000     -15.632112      -425.3714
   3   2.0000     -11.299988      -307.4883
   4   2.0000     -11.240113      -305.8590
   5   2.0000      -1.527458       -41.5642
   6   2.0000      -1.319361       -35.9016
   7   2.0000      -1.071376       -29.1536
   8   2.0000      -0.873492       -23.7689
   9   2.0000      -0.759467       -20.6662
  10   2.0000      -0.717527       -19.5249
  11   2.0000      -0.702872       -19.1261
  12   2.0000      -0.687728       -18.7140
  13   2.0000      -0.610490       -16.6123
  14   2.0000      -0.564477       -15.3602
  15   2.0000      -0.479650       -13.0519
  16   2.0000      -0.457167       -12.4402
  17   2.0000      -0.334871        -9.1123
  18   0.0000       0.037130         1.0104
  19   0.0000       0.047814         1.3011
  20   0.0000       0.055641         1.5141
  21   0.0000       0.087815         2.3896
  22   0.0000       0.090558         2.4642

MULLIKEN ATOMIC CHARGES
-----------------------
   0 N :   -0.691325
   1 N :    0.402809
   2 N :   -0.296278
   3 C :    0.933734
   4 C :    0.442985
   5 H :   -0.292711
   6 H :   -0.241475
   7 H :   -0.257739
Sum of atomic charges:    0.0000000

LOEWDIN ATOMIC CHARGES
----------------------
   0 N :    0.044980
   1 N :   -0.268508
   2 N :    0.264636
   3 C :   -0.112459
   4 C :    0.163023
   5 H :   -0.007138
   6 H :   -0.038290
   7 H :   -0.046245

  Mayer bond orders larger than 0.100000
B(  0-N ,  1-N ) :   1.0604 B(  0-N ,  2-N ) :   0.2076 B(  0-N ,  3-C ) :   0.8186
B(  0-N ,  5-H ) :   0.1199 B(  1-N ,  2-N ) :   1.8249 B(  3-C ,  4-C ) :   2.1074
B(  3-C ,  5-H ) :   0.6014 B(  3-C ,  6-H ) :   0.1244 B(  4-C ,  6-H ) :   0.8604
B(  4-C ,  7-H ) :   0.8556 B(  6-H ,  7-H ) :  -0.1634

MP2 TOTAL ENERGY:     -241.542408357 Eh
FINAL SINGLE POINT ENERGY      -241.542408357112

DIPOLE MOMENT
-------------
                                X             Y             Z
Electronic contribution:     -5.77480      -0.56620      -0.00000
Nuclear contribution   :      6.10073       0.99949       0.00000
                        -----------------------------------------
Total Dipole Moment    :      0.32593       0.43329       0.00000
                        -----------------------------------------
Magnitude (a.u.)       :      0.54219
Magnitude (Debye)      :      1.37814

Rotational constants in cm-1:     1.656572     0.091258     0.086493
Rotational constants in MHz : 49662.769202  2735.847072  2593.002475

                             ****ORCA TERMINATED NORMALLY****
TOTAL RUN TIME: 0 days 0 hours 0 minutes 17 seconds 16 msec
