                         Program Version 5.0.3 -  RELEASE  -
|  1> !ri-mp2 aug-cc-pvdz aug-cc-pvdz/c tightscf
|  2> %pal nprocs 16 end
|  3>
|  4> * xyz 0 1
|  5> C    -0.418466     0.644989    0.791107
|  6> C    -0.418466     0.644989   -0.791107
|  7> C     0.418466    -0.644989    0.791107
|  8> C     0.418466     1.946235    0.777144
|  9> C     0.418466    -0.644989   -0.791107
| 10> C     0.418466     1.946235   -0.777144
| 11> C    -0.418466    -1.946235   -0.777144
| 12> C    -0.418466    -1.946235    0.777144
| 13> H    -1.320254     0.645883    1.403108
| 14> H    -1.320254     0.645883   -1.403108
| 15> H     1.320254    -0.645883    1.403108
| 16> H    -0.103896     2.800429    1.206129
| 17> H     1.394828     1.871332    1.257928
| 18> H     1.320254    -0.645883   -1.403108
| 19> H     1.394828     1.871332   -1.257928
| 20> H    -0.103896     2.800429   -1.206129
| 21> H    -1.394828    -1.871332   -1.257928
| 22> H     0.103896    -2.800429   -1.206129
| 23> H     0.103896    -2.800429    1.206129
| 24> H    -1.394828    -1.871332    1.257928
| 25> *
| 26>
| 27>                          ****END OF INPUT****

CARTESIAN COORDINATES (ANGSTROEM)
---------------------------------
  C     -0.418466    0.644989    0.791107
  C     -0.418466    0.644989   -0.791107
  C      0.418466   -0.644989    0.791107
  C      0.418466    1.946235    0.777144
  C      0.418466   -0.644989   -0.791107
  C      0.418466    1.946235   -0.777144
  C     -0.418466   -1.946235   -0.777144
  C     -0.418466   -1.946235    0.777144
  H     -1.320254    0.645883    1.403108
  H     -1.320254    0.645883   -1.403108
  H      1.320254   -0.645883    1.403108
  H     -0.103896    2.800429    1.206129
  H      1.394828    1.871332    1.257928
  H      1.320254   -0.645883   -1.403108
  H      1.394828    1.871332   -1.257928
  H     -0.103896    2.800429   -1.206129
  H     -1.394828   -1.871332   -1.257928
  H      0.103896   -2.800429   -1.206129
  H      0.103896   -2.800429    1.206129
  H     -1.394828   -1.871332    1.257928

 Total Charge           Charge          ....    0
 Multiplicity           Mult            ....    1
 Number of Electrons    NEL             ....   60
 Basis Dimension        Dim             ....  292

ORBITAL ENERGIES
----------------

  NO   OCC          E(Eh)            E(eV)
   0   2.0000     -11.222649      -305.3838
   1   2.0000     -11.222181      -305.3711
   2   2.0000     -11.222085      -305.3685
   3   2.0000     -11.221609      -305.3555
   4   2.0000     -11.219042      -305.2856
   5   2.0000     -11.219034      -305.2854
   6   2.0000     -11.218512      -305.2712
   7   2.0000     -11.218504      -305.2710
   8   2.0000      -1.177234       -32.0342
   9   2.0000      -1.076415       -29.2908
  10   2.0000      -0.936184       -25.4749
  11   2.0000      -0.932850       -25.3841
  12   2.0000      -0.860223       -23.4079
  13   2.0000      -0.821865       -22.3641
  14   2.0000      -0.751662       -20.4538
  15   2.0000      -0.681105       -18.5338
  16   2.0000      -0.659635       -17.9496
  17   2.0000      -0.654125       -17.7997
  18   2.0000      -0.634726       -17.2718
  19   2.0000      -0.577735       -15.7210
  20   2.0000      -0.546917       -14.8824
  21   2.0000      -0.521378       -14.1874
  22   2.0000      -0.505210       -13.7475
  23   2.0000      -0.492934       -13.4134
  24   2.0000      -0.457918       -12.4606
  25   2.0000      -0.457826       -12.4581
  26   2.0000      -0.429860       -11.6971
  27   2.0000      -0.416177       -11.3248
  28   2.0000      -0.384110       -10.4522
  29   2.0000      -0.376095       -10.2341
  30   0.0000       0.036829         1.0022
  31   0.0000       0.041943         1.1413
  32   0.0000       0.043936         1.1955
  33   0.0000       0.046973         1.2782
  34   0.0000       0.056421         1.5353

MULLIKEN ATOMIC CHARGES
-----------------------
   0 C :    0.256556
   1 C :    0.256556
   2 C :    0.256556
   3 C :    0.727436
   4 C :    0.256556
   5 C :    0.727436
   6 C :    0.727436
   7 C :    0.727436
   8 H :   -0.469297
   9 H :   -0.469297
  10 H :   -0.469297
  11 H :   -0.232826
  12 H :   -0.281869
  13 H :   -0.469297
  14 H :   -0.281869
  15 H :   -0.232826
  16 H :   -0.281869
  17 H :   -0.232826
  18 H :   -0.232826
  19 H :   -0.281869
Sum of atomic charges:   -0.0000000

LOEWDIN ATOMIC CHARGES
----------------------
   0 C :   -0.078132
   1 C :   -0.078132
   2 C :   -0.078132
   3 C :    0.052454
   4 C :   -0.078132
   5 C :    0.052454
   6 C :    0.052454
   7 C :    0.052454
   8 H :    0.021943
   9 H :    0.021943
  10 H :    0.021943
  11 H :    0.001667
  12 H :    0.002067
  13 H :    0.021943
  14 H :    0.002067
  15 H :    0.001667
  16 H :    0.002067
  17 H :    0.001667
  18 H :    0.001667
  19 H :    0.002067

  Mayer bond orders larger than 0.100000
B(  0-C ,  1-C ) :   1.1194 B(  0-C ,  2-C ) :   1.2529 B(  0-C ,  3-C ) :   1.0970
B(  0-C ,  5-C ) :  -0.1035 B(  0-C ,  9-H ) :   0.2588 B(  0-C , 10-H ) :   0.3284
B(  0-C , 11-H ) :   0.1038 B(  0-C , 12-H ) :   0.1477 B(  1-C ,  3-C ) :  -0.1035
B(  1-C ,  4-C ) :   1.2529 B(  1-C ,  5-C ) :   1.0970 B(  1-C ,  8-H ) :   0.2588
B(  1-C , 13-H ) :   0.3284 B(  1-C , 14-H ) :   0.1477 B(  1-C , 15-H ) :   0.1038
B(  2-C ,  4-C ) :   1.1194 B(  2-C ,  6-C ) :  -0.1035 B(  2-C ,  7-C ) :   1.0970
B(  2-C ,  8-H ) :   0.3284 B(  2-C , 13-H ) :   0.2588 B(  2-C , 18-H ) :   0.1038
B(  2-C , 19-H ) :   0.1477 B(  3-C ,  5-C ) :   1.2475 B(  3-C ,  8-H ) :   0.1438
B(  3-C , 11-H ) :   0.7316 B(  3-C , 12-H ) :   0.6292 B(  4-C ,  6-C ) :   1.0970
B(  4-C ,  7-C ) :  -0.1035 B(  4-C ,  9-H ) :   0.3284 B(  4-C , 10-H ) :   0.2588
B(  4-C , 16-H ) :   0.1477 B(  4-C , 17-H ) :   0.1038 B(  5-C ,  9-H ) :   0.1438
B(  5-C , 14-H ) :   0.6292 B(  5-C , 15-H ) :   0.7316 B(  6-C ,  7-C ) :   1.2475
B(  6-C , 13-H ) :   0.1438 B(  6-C , 16-H ) :   0.6292 B(  6-C , 17-H ) :   0.7316
B(  7-C , 10-H ) :   0.1438 B(  7-C , 18-H ) :   0.7316 B(  7-C , 19-H ) :   0.6292
B( 11-H , 12-H ) :  -0.1907 B( 14-H , 15-H ) :  -0.1907 B( 16-H , 17-H ) :  -0.1907
B( 18-H , 19-H ) :  -0.1907

MP2 TOTAL ENERGY:     -311.014894407 Eh
FINAL SINGLE POINT ENERGY      -311.014894407075

DIPOLE MOMENT
-------------
                                X             Y             Z
Electronic contribution:     -0.00000       0.00000       0.00000
Nuclear contribution   :      0.00000       0.00000      -0.00000
                        -----------------------------------------
Total Dipole Moment    :     -0.00000       0.00000       0.00000
                        -----------------------------------------
Magnitude (a.u.)       :      0.00000
Magnitude (Debye)      :      0.00000

Rotational constants in cm-1:     0.158463     0.059963     0.050580
Rotational constants in MHz :  4750.596354  1797.646974  1516.344701

                             ****ORCA TERMINATED NORMALLY****
TOTAL RUN TIME: 0 days 0 hours 1 minutes 22 seconds 476 msec
