                         Program Version 5.0.3 -  RELEASE  -
|  1> !ri-mp2 aug-cc-pvdz aug-cc-pvdz/c tightscf
|  2> %pal nprocs 16 end
|  3>
|  4> * xyz 0 1
|  5> C      0.000000    0.543632    0.000000
|  6> C      1.484355    0.734756    0.000000
|  7> O     -0.843840    1.368109    0.000000
|  8> Cl    -0.452456   -1.230552    0.000000
|  9> H      1.710473    1.798078    0.000000
| 10> H      1.912935    0.253054    0.877971
| 11> H      1.912935    0.253054   -0.877971
| 12> *
| 13>
| 14>                          ****END OF INPUT****

CARTESIAN COORDINATES (ANGSTROEM)
---------------------------------
  C      0.000000    0.543632    0.000000
  C      1.484355    0.734756    0.000000
  O     -0.843840    1.368109    0.000000
  Cl    -0.452456   -1.230552    0.000000
  H      1.710473    1.798078    0.000000
  H      1.912935    0.253054    0.877971
  H      1.912935    0.253054   -0.877971

 Total Charge           Charge          ....    0
 Multiplicity           Mult            ....    1
 Number of Electrons    NEL             ....   40
 Basis Dimension        Dim             ....  123

ORBITAL ENERGIES
----------------

  NO   OCC          E(Eh)            E(eV)
   0   2.0000    -104.842821     -2852.9182
   1   2.0000     -20.611986      -560.8807
   2   2.0000     -11.425235      -310.8964
   3   2.0000     -11.278293      -306.8980
   4   2.0000     -10.569419      -287.6085
   5   2.0000      -8.036823      -218.6931
   6   2.0000      -8.033795      -218.6107
   7   2.0000      -8.033633      -218.6063
   8   2.0000      -1.463517       -39.8243
   9   2.0000      -1.130737       -30.7689
  10   2.0000      -1.036161       -28.1954
  11   2.0000      -0.781366       -21.2621
  12   2.0000      -0.683377       -18.5956
  13   2.0000      -0.675775       -18.3888
  14   2.0000      -0.647010       -17.6060
  15   2.0000      -0.587819       -15.9954
  16   2.0000      -0.556730       -15.1494
  17   2.0000      -0.467057       -12.7093
  18   2.0000      -0.466421       -12.6920
  19   2.0000      -0.453361       -12.3366
  20   0.0000       0.031128         0.8470
  21   0.0000       0.052925         1.4402
  22   0.0000       0.055497         1.5101
  23   0.0000       0.078614         2.1392
  24   0.0000       0.098277         2.6742

MULLIKEN ATOMIC CHARGES
-----------------------
   0 C :    0.075401
   1 C :    0.506600
   2 O :   -0.553352
   3 Cl:   -0.155645
   4 H :   -0.025889
   5 H :    0.076443
   6 H :    0.076443
Sum of atomic charges:    0.0000000

LOEWDIN ATOMIC CHARGES
----------------------
   0 C :   -0.590477
   1 C :    0.135345
   2 O :    0.037734
   3 Cl:    0.440143
   4 H :   -0.005533
   5 H :   -0.008606
   6 H :   -0.008606

  Mayer bond orders larger than 0.100000
B(  0-C ,  1-C ) :   0.9565 B(  0-C ,  2-O ) :   1.6844 B(  0-C ,  3-Cl) :   1.0650
B(  0-C ,  4-H ) :   0.1005 B(  1-C ,  4-H ) :   0.8750 B(  1-C ,  5-H ) :   0.9430
B(  1-C ,  6-H ) :   0.9430

MP2 TOTAL ENERGY:     -612.502163961 Eh
FINAL SINGLE POINT ENERGY      -612.502163960809

DIPOLE MOMENT
-------------
                                X             Y             Z
Electronic contribution:     -4.66243      -3.83138      -0.00000
Nuclear contribution   :      5.90505       3.91056       0.00000
                        -----------------------------------------
Total Dipole Moment    :      1.24262       0.07917      -0.00000
                        -----------------------------------------
Magnitude (a.u.)       :      1.24514
Magnitude (Debye)      :      3.16488

Rotational constants in cm-1:     0.338784     0.160316     0.111049
Rotational constants in MHz : 10156.500819  4806.143941  3329.157627

                             ****ORCA TERMINATED NORMALLY****
TOTAL RUN TIME: 0 days 0 hours 0 minutes 31 seconds 686 msec
