                         Program Version 5.0.3 -  RELEASE  -
|  1> !ri-mp2 aug-cc-pvdz aug-cc-pvdz/c tightscf
|  2> %pal nprocs 16 end
|  3> %maxcore 3800
|  4>
|  5> * xyz 0 1
|  6> C      0.000000    0.000000   -0.139949
|  7> C      0.000000    0.000000    1.250982
|  8> C      0.000000    1.278325    1.873143
|  9> C      0.000000   -1.278325    1.873143
| 10> C      0.000000    1.157671   -0.947530
| 11> C      0.000000   -1.157671   -0.947530
| 12> C      0.000000    2.419948    1.100100
| 13> C      0.000000   -2.419948    1.100100
| 14> C      0.000000    2.381426   -0.319988
| 15> C      0.000000   -2.381426   -0.319988
| 16> C      0.000000    0.679125   -2.336932
| 17> C      0.000000   -0.679125   -2.336932
| 18> H      0.000000    3.385258    1.589050
| 19> H      0.000000   -3.385258    1.589050
| 20> H      0.000000    1.356296    2.952947
| 21> H      0.000000   -1.356296    2.952947
| 22> H      0.000000    3.310213   -0.876427
| 23> H      0.000000   -3.310213   -0.876427
| 24> H      0.000000    1.311632   -3.211425
| 25> H      0.000000   -1.311632   -3.211425
| 26> *
| 27>
| 28>                          ****END OF INPUT****

CARTESIAN COORDINATES (ANGSTROEM)
---------------------------------
  C      0.000000    0.000000   -0.139949
  C      0.000000    0.000000    1.250982
  C      0.000000    1.278325    1.873143
  C      0.000000   -1.278325    1.873143
  C      0.000000    1.157671   -0.947530
  C      0.000000   -1.157671   -0.947530
  C      0.000000    2.419948    1.100100
  C      0.000000   -2.419948    1.100100
  C      0.000000    2.381426   -0.319988
  C      0.000000   -2.381426   -0.319988
  C      0.000000    0.679125   -2.336932
  C      0.000000   -0.679125   -2.336932
  H      0.000000    3.385258    1.589050
  H      0.000000   -3.385258    1.589050
  H      0.000000    1.356296    2.952947
  H      0.000000   -1.356296    2.952947
  H      0.000000    3.310213   -0.876427
  H      0.000000   -3.310213   -0.876427
  H      0.000000    1.311632   -3.211425
  H      0.000000   -1.311632   -3.211425

 Total Charge           Charge          ....    0
 Multiplicity           Mult            ....    1
 Number of Electrons    NEL             ....   80
 Basis Dimension        Dim             ....  348

ORBITAL ENERGIES
----------------

  NO   OCC          E(Eh)            E(eV)
   0   2.0000     -11.253503      -306.2234
   1   2.0000     -11.253502      -306.2234
   2   2.0000     -11.249881      -306.1248
   3   2.0000     -11.249767      -306.1217
   4   2.0000     -11.245774      -306.0131
   5   2.0000     -11.245764      -306.0128
   6   2.0000     -11.245350      -306.0015
   7   2.0000     -11.245317      -306.0006
   8   2.0000     -11.244307      -305.9731
   9   2.0000     -11.241828      -305.9057
  10   2.0000     -11.241791      -305.9047
  11   2.0000     -11.219313      -305.2930
  12   2.0000      -1.205482       -32.8028
  13   2.0000      -1.117878       -30.4190
  14   2.0000      -1.116374       -30.3781
  15   2.0000      -1.018531       -27.7156
  16   2.0000      -0.995499       -27.0889
  17   2.0000      -0.980127       -26.6706
  18   2.0000      -0.876969       -23.8635
  19   2.0000      -0.845305       -23.0019
  20   2.0000      -0.795049       -21.6344
  21   2.0000      -0.785444       -21.3730
  22   2.0000      -0.710960       -19.3462
  23   2.0000      -0.696345       -18.9485
  24   2.0000      -0.660930       -17.9848
  25   2.0000      -0.634972       -17.2785
  26   2.0000      -0.616290       -16.7701
  27   2.0000      -0.589487       -16.0407
  28   2.0000      -0.585430       -15.9304
  29   2.0000      -0.561347       -15.2750
  30   2.0000      -0.553887       -15.0720
  31   2.0000      -0.549421       -14.9505
  32   2.0000      -0.515299       -14.0220
  33   2.0000      -0.485116       -13.2007
  34   2.0000      -0.476098       -12.9553
  35   2.0000      -0.452850       -12.3227
  36   2.0000      -0.446491       -12.1496
  37   2.0000      -0.323056        -8.7908
  38   2.0000      -0.303092        -8.2475
  39   2.0000      -0.302106        -8.2207
  40   0.0000       0.034985         0.9520
  41   0.0000       0.036512         0.9935
  42   0.0000       0.037990         1.0338
  43   0.0000       0.040485         1.1017
  44   0.0000       0.048657         1.3240

MULLIKEN ATOMIC CHARGES
-----------------------
   0 C :    0.101400
   1 C :    1.354930
   2 C :    0.890090
   3 C :    0.890090
   4 C :   -1.698588
   5 C :   -1.698588
   6 C :    0.394541
   7 C :    0.394541
   8 C :    0.745003
   9 C :    0.745003
  10 C :    1.014451
  11 C :    1.014451
  12 H :   -0.510351
  13 H :   -0.510351
  14 H :   -0.555318
  15 H :   -0.555318
  16 H :   -0.484376
  17 H :   -0.484376
  18 H :   -0.523618
  19 H :   -0.523618
Sum of atomic charges:   -0.0000000

LOEWDIN ATOMIC CHARGES
----------------------
   0 C :   -0.107988
   1 C :   -0.137751
   2 C :    0.071758
   3 C :    0.071758
   4 C :   -0.140094
   5 C :   -0.140094
   6 C :    0.021205
   7 C :    0.021205
   8 C :    0.081798
   9 C :    0.081798
  10 C :    0.082066
  11 C :    0.082066
  12 H :   -0.002938
  13 H :   -0.002938
  14 H :    0.005724
  15 H :    0.005724
  16 H :    0.005889
  17 H :    0.005889
  18 H :   -0.002538
  19 H :   -0.002538

  Mayer bond orders larger than 0.100000
B(  0-C ,  1-C ) :   4.4078 B(  0-C ,  2-C ) :   0.2470 B(  0-C ,  3-C ) :   0.2470
B(  0-C ,  4-C ) :   1.4928 B(  0-C ,  5-C ) :   1.4928 B(  0-C ,  6-C ) :   0.1355
B(  0-C ,  7-C ) :   0.1355 B(  0-C ,  8-C ) :   0.1032 B(  0-C ,  9-C ) :   0.1032
B(  0-C , 10-C ) :   1.1220 B(  0-C , 11-C ) :   1.1220 B(  0-C , 14-H ) :   0.1714
B(  0-C , 15-H ) :   0.1714 B(  0-C , 16-H ) :   0.1389 B(  0-C , 17-H ) :   0.1389
B(  0-C , 18-H ) :   0.1043 B(  0-C , 19-H ) :   0.1043 B(  1-C ,  2-C ) :   0.5510
B(  1-C ,  3-C ) :   0.5510 B(  1-C ,  4-C ) :  -2.0775 B(  1-C ,  5-C ) :  -2.0775
B(  1-C ,  6-C ) :  -0.2814 B(  1-C ,  7-C ) :  -0.2814 B(  1-C ,  8-C ) :  -0.3622
B(  1-C ,  9-C ) :  -0.3622 B(  1-C , 14-H ) :   0.7392 B(  1-C , 15-H ) :   0.7392
B(  2-C ,  3-C ) :  -0.2665 B(  2-C ,  4-C ) :  -0.6636 B(  2-C ,  5-C ) :   0.3432
B(  2-C ,  6-C ) :   1.8144 B(  2-C ,  7-C ) :   0.2691 B(  2-C ,  8-C ) :   0.4904
B(  2-C ,  9-C ) :   0.1044 B(  2-C , 11-C ) :   0.4433 B(  2-C , 12-H ) :   0.3605
B(  2-C , 14-H ) :  -0.2722 B(  3-C ,  4-C ) :   0.3432 B(  3-C ,  5-C ) :  -0.6636
B(  3-C ,  6-C ) :   0.2691 B(  3-C ,  7-C ) :   1.8144 B(  3-C ,  8-C ) :   0.1044
B(  3-C ,  9-C ) :   0.4904 B(  3-C , 10-C ) :   0.4433 B(  3-C , 13-H ) :   0.3605
B(  3-C , 15-H ) :  -0.2722 B(  4-C ,  5-C ) :  -0.3777 B(  4-C ,  6-C ) :  -0.5399
B(  4-C ,  7-C ) :  -0.3557 B(  4-C ,  8-C ) :   1.8450 B(  4-C ,  9-C ) :   0.1406
B(  4-C , 10-C ) :   0.5142 B(  4-C , 11-C ) :  -1.2145 B(  4-C , 16-H ) :   0.9814
B(  4-C , 18-H ) :   1.3585 B(  4-C , 19-H ) :  -0.1538 B(  5-C ,  6-C ) :  -0.3557
B(  5-C ,  7-C ) :  -0.5399 B(  5-C ,  8-C ) :   0.1406 B(  5-C ,  9-C ) :   1.8450
B(  5-C , 10-C ) :  -1.2145 B(  5-C , 11-C ) :   0.5142 B(  5-C , 17-H ) :   0.9814
B(  5-C , 18-H ) :  -0.1538 B(  5-C , 19-H ) :   1.3585 B(  6-C ,  7-C ) :   0.3571
B(  6-C ,  8-C ) :   1.4355 B(  6-C , 10-C ) :   0.2342 B(  6-C , 11-C ) :   0.2485
B(  6-C , 12-H ) :   0.1408 B(  6-C , 14-H ) :   0.1472 B(  6-C , 16-H ) :  -0.1611
B(  7-C ,  9-C ) :   1.4355 B(  7-C , 10-C ) :   0.2485 B(  7-C , 11-C ) :   0.2342
B(  7-C , 13-H ) :   0.1408 B(  7-C , 15-H ) :   0.1472 B(  7-C , 17-H ) :  -0.1611
B(  8-C ,  9-C ) :   0.4849 B(  8-C , 10-C ) :  -0.2663 B(  8-C , 11-C ) :   0.2025
B(  8-C , 12-H ) :   0.1639 B(  8-C , 16-H ) :  -0.2014 B(  9-C , 10-C ) :   0.2025
B(  9-C , 11-C ) :  -0.2663 B(  9-C , 13-H ) :   0.1639 B(  9-C , 17-H ) :  -0.2014
B( 10-C , 11-C ) :   2.5461 B( 10-C , 18-H ) :  -0.4990 B( 10-C , 19-H ) :  -0.1365
B( 11-C , 18-H ) :  -0.1365 B( 11-C , 19-H ) :  -0.4990

MP2 TOTAL ENERGY:     -460.720657272 Eh
FINAL SINGLE POINT ENERGY      -460.720657272181

DIPOLE MOMENT
-------------
                                X             Y             Z
Electronic contribution:     -0.00000      -0.00000      -0.82501
Nuclear contribution   :      0.00000       0.00000       0.89665
                        -----------------------------------------
Total Dipole Moment    :     -0.00000      -0.00000       0.07164
                        -----------------------------------------
Magnitude (a.u.)       :      0.07164
Magnitude (Debye)      :      0.18209

Rotational constants in cm-1:     0.050683     0.040936     0.022645
Rotational constants in MHz :  1519.432608  1227.219940   678.891109

                             ****ORCA TERMINATED NORMALLY****
TOTAL RUN TIME: 0 days 0 hours 2 minutes 35 seconds 315 msec
