                         Program Version 5.0.3 -  RELEASE  -
|  1> !ri-mp2 aug-cc-pvdz aug-cc-pvdz/c tightscf
|  2> %pal nprocs 16 end
|  3>
|  4> * xyz 0 1
|  5> C      0.000000    0.459417    0.000000
|  6> C      0.930231   -0.717880    0.000000
|  7> O     -1.202256    0.385590    0.000000
|  8> H      0.496537    1.452118    0.000000
|  9> H      1.581867   -0.666234    0.876217
| 10> H      0.376396   -1.653588    0.000000
| 11> H      1.581867   -0.666234   -0.876217
| 12> *
| 13>
| 14>                          ****END OF INPUT****

CARTESIAN COORDINATES (ANGSTROEM)
---------------------------------
  C      0.000000    0.459417    0.000000
  C      0.930231   -0.717880    0.000000
  O     -1.202256    0.385590    0.000000
  H      0.496537    1.452118    0.000000
  H      1.581867   -0.666234    0.876217
  H      0.376396   -1.653588    0.000000
  H      1.581867   -0.666234   -0.876217

 Total Charge           Charge          ....    0
 Multiplicity           Mult            ....    1
 Number of Electrons    NEL             ....   24
 Basis Dimension        Dim             ....  105

ORBITAL ENERGIES
----------------

  NO   OCC          E(Eh)            E(eV)
   0   2.0000     -20.570552      -559.7532
   1   2.0000     -11.345128      -308.7166
   2   2.0000     -11.249677      -306.1193
   3   2.0000      -1.402869       -38.1740
   4   2.0000      -1.024205       -27.8700
   5   2.0000      -0.802837       -21.8463
   6   2.0000      -0.677285       -18.4299
   7   2.0000      -0.627588       -17.0775
   8   2.0000      -0.605386       -16.4734
   9   2.0000      -0.562423       -15.3043
  10   2.0000      -0.506537       -13.7836
  11   2.0000      -0.425581       -11.5807
  12   0.0000       0.032248         0.8775
  13   0.0000       0.046866         1.2753
  14   0.0000       0.052979         1.4416
  15   0.0000       0.065692         1.7876
  16   0.0000       0.104110         2.8330

MULLIKEN ATOMIC CHARGES
-----------------------
   0 C :    0.638136
   1 C :    0.118503
   2 O :   -0.646147
   3 H :   -0.073134
   4 H :    0.007430
   5 H :   -0.052217
   6 H :    0.007430
Sum of atomic charges:   -0.0000000

LOEWDIN ATOMIC CHARGES
----------------------
   0 C :   -0.133909
   1 C :    0.153736
   2 O :    0.013946
   3 H :    0.007768
   4 H :   -0.014408
   5 H :   -0.012725
   6 H :   -0.014408

  Mayer bond orders larger than 0.100000
B(  0-C ,  1-C ) :   1.2046 B(  0-C ,  2-O ) :   1.5813 B(  0-C ,  3-H ) :   0.8783
B(  1-C ,  4-H ) :   0.9412 B(  1-C ,  5-H ) :   0.9298 B(  1-C ,  6-H ) :   0.9412

MP2 TOTAL ENERGY:     -153.417334604 Eh
FINAL SINGLE POINT ENERGY      -153.417334603966

DIPOLE MOMENT
-------------
                                X             Y             Z
Electronic contribution:     -2.83635       1.45654       0.00000
Nuclear contribution   :      4.11081      -1.56326       0.00000
                        -----------------------------------------
Total Dipole Moment    :      1.27446      -0.10672       0.00000
                        -----------------------------------------
Magnitude (a.u.)       :      1.27892
Magnitude (Debye)      :      3.25076

Rotational constants in cm-1:     1.915935     0.339067     0.304176
Rotational constants in MHz : 57438.296166 10164.983630  9118.958665

                             ****ORCA TERMINATED NORMALLY****
TOTAL RUN TIME: 0 days 0 hours 0 minutes 27 seconds 374 msec
