                         Program Version 5.0.3 -  RELEASE  -
|  1> !ri-mp2 aug-cc-pvdz aug-cc-pvdz/c tightscf
|  2> %pal nprocs 16 end
|  3>
|  4> * xyz 0 1
|  5> C      0.597274   -2.517032    0.000000
|  6> C     -0.727051   -2.095954    0.000000
|  7> C      1.625447   -1.577546    0.000000
|  8> C     -1.024386   -0.738517    0.000000
|  9> C      1.328876   -0.224101    0.000000
| 10> C      0.000000    0.211798    0.000000
| 11> C     -0.267977    1.685966    0.000000
| 12> C     -1.703331    2.168928    0.000000
| 13> O      0.649584    2.482840    0.000000
| 14> H      0.828858   -3.573768    0.000000
| 15> H     -1.527758   -2.822994    0.000000
| 16> H      2.656502   -1.904437    0.000000
| 17> H     -2.058803   -0.426120    0.000000
| 18> H      2.113187    0.519223    0.000000
| 19> H     -2.237541    1.804546    0.879154
| 20> H     -2.237541    1.804546   -0.879154
| 21> H     -1.706692    3.255037    0.000000
| 22> *
| 23>
| 24>                          ****END OF INPUT****

CARTESIAN COORDINATES (ANGSTROEM)
---------------------------------
  C      0.597274   -2.517032    0.000000
  C     -0.727051   -2.095954    0.000000
  C      1.625447   -1.577546    0.000000
  C     -1.024386   -0.738517    0.000000
  C      1.328876   -0.224101    0.000000
  C      0.000000    0.211798    0.000000
  C     -0.267977    1.685966    0.000000
  C     -1.703331    2.168928    0.000000
  O      0.649584    2.482840    0.000000
  H      0.828858   -3.573768    0.000000
  H     -1.527758   -2.822994    0.000000
  H      2.656502   -1.904437    0.000000
  H     -2.058803   -0.426120    0.000000
  H      2.113187    0.519223    0.000000
  H     -2.237541    1.804546    0.879154
  H     -2.237541    1.804546   -0.879154
  H     -1.706692    3.255037    0.000000

 Total Charge           Charge          ....    0
 Multiplicity           Mult            ....    1
 Number of Electrons    NEL             ....   64
 Basis Dimension        Dim             ....  279

ORBITAL ENERGIES
----------------

  NO   OCC          E(Eh)            E(eV)
   0   2.0000     -20.554603      -559.3192
   1   2.0000     -11.342802      -308.6533
   2   2.0000     -11.260155      -306.4044
   3   2.0000     -11.257939      -306.3441
   4   2.0000     -11.253807      -306.2316
   5   2.0000     -11.251628      -306.1724
   6   2.0000     -11.251603      -306.1717
   7   2.0000     -11.249152      -306.1050
   8   2.0000     -11.241805      -305.9051
   9   2.0000      -1.391527       -37.8654
  10   2.0000      -1.171773       -31.8856
  11   2.0000      -1.056474       -28.7481
  12   2.0000      -1.032769       -28.1031
  13   2.0000      -0.999905       -27.2088
  14   2.0000      -0.867945       -23.6180
  15   2.0000      -0.840165       -22.8621
  16   2.0000      -0.765080       -20.8189
  17   2.0000      -0.713132       -19.4053
  18   2.0000      -0.657617       -17.8947
  19   2.0000      -0.651968       -17.7410
  20   2.0000      -0.628735       -17.1088
  21   2.0000      -0.605739       -16.4830
  22   2.0000      -0.602106       -16.3841
  23   2.0000      -0.599765       -16.3204
  24   2.0000      -0.554386       -15.0856
  25   2.0000      -0.526096       -14.3158
  26   2.0000      -0.523363       -14.2414
  27   2.0000      -0.503947       -13.7131
  28   2.0000      -0.492667       -13.4062
  29   2.0000      -0.418430       -11.3861
  30   2.0000      -0.351635        -9.5685
  31   2.0000      -0.347291        -9.4503
  32   0.0000       0.030367         0.8263
  33   0.0000       0.036696         0.9985
  34   0.0000       0.043130         1.1736
  35   0.0000       0.053314         1.4508
  36   0.0000       0.053458         1.4547

MULLIKEN ATOMIC CHARGES
-----------------------
   0 C :    0.426330
   1 C :    0.316178
   2 C :    0.492080
   3 C :    0.472970
   4 C :   -0.173000
   5 C :    1.616608
   6 C :   -0.158797
   7 C :    0.420659
   8 O :   -0.833558
   9 H :   -0.444659
  10 H :   -0.448179
  11 H :   -0.438306
  12 H :   -0.699816
  13 H :   -0.616400
  14 H :    0.121758
  15 H :    0.121758
  16 H :   -0.175628
Sum of atomic charges:    0.0000000

LOEWDIN ATOMIC CHARGES
----------------------
   0 C :    0.020840
   1 C :    0.015145
   2 C :    0.021262
   3 C :    0.048856
   4 C :    0.067771
   5 C :   -0.135502
   6 C :   -0.270946
   7 C :    0.193082
   8 O :    0.046333
   9 H :    0.003923
  10 H :    0.000908
  11 H :    0.002040
  12 H :   -0.001981
  13 H :    0.009122
  14 H :   -0.005792
  15 H :   -0.005792
  16 H :   -0.009267

  Mayer bond orders larger than 0.100000
B(  0-C ,  1-C ) :   1.7986 B(  0-C ,  2-C ) :   1.7440 B(  0-C ,  9-H ) :   0.3407
B(  0-C , 10-H ) :   0.1361 B(  0-C , 13-H ) :  -0.1015 B(  1-C ,  3-C ) :   1.7502
B(  1-C ,  4-C ) :   0.1472 B(  1-C ,  5-C ) :  -0.5939 B(  1-C ,  6-C ) :   0.3063
B(  1-C ,  7-C ) :   0.1381 B(  1-C ,  9-H ) :   0.1909 B(  1-C , 10-H ) :   0.1187
B(  1-C , 11-H ) :  -0.1146 B(  1-C , 12-H ) :   0.3603 B(  2-C ,  4-C ) :   2.1364
B(  2-C ,  5-C ) :  -0.7900 B(  2-C ,  6-C ) :   0.2474 B(  2-C ,  7-C ) :   0.1134
B(  2-C ,  9-H ) :   0.2069 B(  2-C , 10-H ) :  -0.1090 B(  2-C , 11-H ) :   0.1647
B(  2-C , 13-H ) :   0.1516 B(  3-C ,  4-C ) :  -0.8883 B(  3-C ,  5-C ) :   2.1433
B(  3-C ,  6-C ) :  -0.5315 B(  3-C ,  7-C ) :  -0.2481 B(  3-C , 10-H ) :   0.5312
B(  3-C , 12-H ) :  -0.2485 B(  4-C ,  5-C ) :   1.1662 B(  4-C ,  6-C ) :  -0.8933
B(  4-C , 11-H ) :   0.5016 B(  5-C ,  6-C ) :   1.2275 B(  5-C ,  8-O ) :  -0.1328
B(  5-C , 12-H ) :   0.3784 B(  5-C , 13-H ) :   0.5299 B(  6-C ,  7-C ) :   1.1306
B(  6-C ,  8-O ) :   1.4780 B(  6-C , 16-H ) :   0.1490 B(  7-C , 12-H ) :   0.1024
B(  7-C , 14-H ) :   0.8826 B(  7-C , 15-H ) :   0.8826 B(  7-C , 16-H ) :   0.7972

MP2 TOTAL ENERGY:     -383.797569864 Eh
FINAL SINGLE POINT ENERGY      -383.797569864356

DIPOLE MOMENT
-------------
                                X             Y             Z
Electronic contribution:      3.31973       0.24102      -0.00000
Nuclear contribution   :     -4.16113      -1.30532       0.00000
                        -----------------------------------------
Total Dipole Moment    :     -0.84140      -1.06431      -0.00000
                        -----------------------------------------
Magnitude (a.u.)       :      1.35672
Magnitude (Debye)      :      3.44852

Rotational constants in cm-1:     0.123782     0.040586     0.030738
Rotational constants in MHz :  3710.901541  1216.744773   921.510418

                             ****ORCA TERMINATED NORMALLY****
TOTAL RUN TIME: 0 days 0 hours 1 minutes 20 seconds 485 msec
