                         Program Version 5.0.3 -  RELEASE  -
|  1> !ri-mp2 aug-cc-pvdz aug-cc-pvdz/c tightscf
|  2> %pal nprocs 16 end
|  3>
|  4> * xyz 0 1
|  5> C     -1.498796    0.606364    0.000000
|  6> C      2.286416   -0.364870    0.000000
|  7> C      0.000000    0.740162    0.000000
|  8> C      0.773358   -0.572830    0.000000
|  9> O     -2.103883   -0.435720    0.000000
| 10> H     -2.049279    1.570818    0.000000
| 11> H      2.612258    0.192076    0.881024
| 12> H      2.813086   -1.319587    0.000000
| 13> H      2.612258    0.192076   -0.881024
| 14> H      0.262254    1.359651    0.867455
| 15> H      0.262254    1.359651   -0.867455
| 16> H      0.476183   -1.160935    0.870082
| 17> H      0.476183   -1.160935   -0.870082
| 18> *
| 19>
| 20>                          ****END OF INPUT****

CARTESIAN COORDINATES (ANGSTROEM)
---------------------------------
  C     -1.498796    0.606364    0.000000
  C      2.286416   -0.364870    0.000000
  C      0.000000    0.740162    0.000000
  C      0.773358   -0.572830    0.000000
  O     -2.103883   -0.435720    0.000000
  H     -2.049279    1.570818    0.000000
  H      2.612258    0.192076    0.881024
  H      2.813086   -1.319587    0.000000
  H      2.612258    0.192076   -0.881024
  H      0.262254    1.359651    0.867455
  H      0.262254    1.359651   -0.867455
  H      0.476183   -1.160935    0.870082
  H      0.476183   -1.160935   -0.870082

 Total Charge           Charge          ....    0
 Multiplicity           Mult            ....    1
 Number of Electrons    NEL             ....   40
 Basis Dimension        Dim             ....  187

ORBITAL ENERGIES
----------------

  NO   OCC          E(Eh)            E(eV)
   0   2.0000     -20.567664      -559.6746
   1   2.0000     -11.340197      -308.5825
   2   2.0000     -11.248523      -306.0879
   3   2.0000     -11.233189      -305.6706
   4   2.0000     -11.226862      -305.4984
   5   2.0000      -1.400234       -38.1023
   6   2.0000      -1.082468       -29.4555
   7   2.0000      -0.978743       -26.6329
   8   2.0000      -0.849646       -23.1200
   9   2.0000      -0.770486       -20.9660
  10   2.0000      -0.675195       -18.3730
  11   2.0000      -0.648295       -17.6410
  12   2.0000      -0.635928       -17.3045
  13   2.0000      -0.569705       -15.5025
  14   2.0000      -0.569017       -15.4837
  15   2.0000      -0.514631       -14.0038
  16   2.0000      -0.505872       -13.7655
  17   2.0000      -0.490623       -13.3505
  18   2.0000      -0.478855       -13.0303
  19   2.0000      -0.417934       -11.3726
  20   0.0000       0.032877         0.8946
  21   0.0000       0.041230         1.1219
  22   0.0000       0.047160         1.2833
  23   0.0000       0.052282         1.4227
  24   0.0000       0.065061         1.7704

MULLIKEN ATOMIC CHARGES
-----------------------
   0 C :    0.794872
   1 C :    0.465074
   2 C :   -0.095482
   3 C :    0.286664
   4 O :   -0.681053
   5 H :   -0.113196
   6 H :   -0.079433
   7 H :   -0.067519
   8 H :   -0.079433
   9 H :   -0.067585
  10 H :   -0.067585
  11 H :   -0.147663
  12 H :   -0.147663
Sum of atomic charges:   -0.0000000

LOEWDIN ATOMIC CHARGES
----------------------
   0 C :   -0.089512
   1 C :    0.132942
   2 C :   -0.031334
   3 C :   -0.067624
   4 O :    0.026149
   5 H :    0.013652
   6 H :   -0.020157
   7 H :   -0.019825
   8 H :   -0.020157
   9 H :    0.022385
  10 H :    0.022385
  11 H :    0.015548
  12 H :    0.015548

  Mayer bond orders larger than 0.100000
B(  0-C ,  2-C ) :   1.1880 B(  0-C ,  4-O ) :   1.6231 B(  0-C ,  5-H ) :   0.8256
B(  1-C ,  3-C ) :   1.2075 B(  1-C ,  6-H ) :   0.9461 B(  1-C ,  7-H ) :   0.9090
B(  1-C ,  8-H ) :   0.9461 B(  2-C ,  3-C ) :   1.1884 B(  2-C ,  5-H ) :   0.1175
B(  2-C ,  9-H ) :   0.8829 B(  2-C , 10-H ) :   0.8829 B(  3-C , 11-H ) :   0.8069
B(  3-C , 12-H ) :   0.8069

MP2 TOTAL ENERGY:     -231.792234662 Eh
FINAL SINGLE POINT ENERGY      -231.792234662457

DIPOLE MOMENT
-------------
                                X             Y             Z
Electronic contribution:     -6.92492      -0.18616      -0.00000
Nuclear contribution   :      7.74288       1.06885       0.00000
                        -----------------------------------------
Total Dipole Moment    :      0.81796       0.88269      -0.00000
                        -----------------------------------------
Magnitude (a.u.)       :      1.20341
Magnitude (Debye)      :      3.05883

Rotational constants in cm-1:     0.511563     0.084220     0.075292
Rotational constants in MHz : 15336.287146  2524.866719  2257.186240

                             ****ORCA TERMINATED NORMALLY****
TOTAL RUN TIME: 0 days 0 hours 0 minutes 29 seconds 354 msec
