                         Program Version 5.0.3 -  RELEASE  -
|  1> !ri-mp2 aug-cc-pvdz aug-cc-pvdz/c tightscf
|  2> %pal nprocs 16 end
|  3>
|  4> * xyz 0 1
|  5> C      2.202488    0.116111   -0.000012
|  6> C      3.288179   -0.927156    0.000005
|  7> C     -3.962455   -0.357641   -0.000017
|  8> C     -2.678902    0.470725    0.000022
|  9> C     -1.415543   -0.392205   -0.000009
| 10> C     -0.151969    0.444179    0.000021
| 11> O      2.380920    1.308789   -0.000020
| 12> O      0.980632   -0.454908    0.000000
| 13> H      3.191841   -1.565826   -0.877925
| 14> H      3.192067   -1.565518    0.878188
| 15> H      4.258416   -0.440768   -0.000192
| 16> H     -4.016737   -1.000104   -0.880951
| 17> H     -4.016742   -1.000179    0.880862
| 18> H     -4.846288    0.281106    0.000008
| 19> H     -2.669921    1.127959   -0.874214
| 20> H     -2.669927    1.127886    0.874314
| 21> H     -1.412843   -1.045046    0.876714
| 22> H     -1.412842   -1.044982   -0.876781
| 23> H     -0.090109    1.085203   -0.880362
| 24> H     -0.090117    1.085149    0.880444
| 25> *
| 26>
| 27>                          ****END OF INPUT****

CARTESIAN COORDINATES (ANGSTROEM)
---------------------------------
  C      2.202488    0.116111   -0.000012
  C      3.288179   -0.927156    0.000005
  C     -3.962455   -0.357641   -0.000017
  C     -2.678902    0.470725    0.000022
  C     -1.415543   -0.392205   -0.000009
  C     -0.151969    0.444179    0.000021
  O      2.380920    1.308789   -0.000020
  O      0.980632   -0.454908    0.000000
  H      3.191841   -1.565826   -0.877925
  H      3.192067   -1.565518    0.878188
  H      4.258416   -0.440768   -0.000192
  H     -4.016737   -1.000104   -0.880951
  H     -4.016742   -1.000179    0.880862
  H     -4.846288    0.281106    0.000008
  H     -2.669921    1.127959   -0.874214
  H     -2.669927    1.127886    0.874314
  H     -1.412843   -1.045046    0.876714
  H     -1.412842   -1.044982   -0.876781
  H     -0.090109    1.085203   -0.880362
  H     -0.090117    1.085149    0.880444

 Total Charge           Charge          ....    0
 Multiplicity           Mult            ....    1
 Number of Electrons    NEL             ....   64
 Basis Dimension        Dim             ....  292

ORBITAL ENERGIES
----------------

  NO   OCC          E(Eh)            E(eV)
   0   2.0000     -20.606543      -560.7325
   1   2.0000     -20.551409      -559.2323
   2   2.0000     -11.386045      -309.8300
   3   2.0000     -11.290630      -307.2337
   4   2.0000     -11.245370      -306.0021
   5   2.0000     -11.233169      -305.6701
   6   2.0000     -11.231783      -305.6323
   7   2.0000     -11.224326      -305.4294
   8   2.0000      -1.458905       -39.6988
   9   2.0000      -1.359460       -36.9928
  10   2.0000      -1.087895       -29.6031
  11   2.0000      -1.029650       -28.0182
  12   2.0000      -0.981190       -26.6995
  13   2.0000      -0.878226       -23.8977
  14   2.0000      -0.806335       -21.9415
  15   2.0000      -0.775890       -21.1131
  16   2.0000      -0.687913       -18.7191
  17   2.0000      -0.686772       -18.6880
  18   2.0000      -0.667032       -18.1509
  19   2.0000      -0.635360       -17.2890
  20   2.0000      -0.593775       -16.1574
  21   2.0000      -0.591908       -16.1066
  22   2.0000      -0.569649       -15.5009
  23   2.0000      -0.561278       -15.2732
  24   2.0000      -0.542723       -14.7682
  25   2.0000      -0.520824       -14.1723
  26   2.0000      -0.504351       -13.7241
  27   2.0000      -0.484538       -13.1850
  28   2.0000      -0.482543       -13.1307
  29   2.0000      -0.474716       -12.9177
  30   2.0000      -0.455596       -12.3974
  31   2.0000      -0.442835       -12.0501
  32   0.0000       0.034769         0.9461
  33   0.0000       0.038647         1.0516
  34   0.0000       0.046062         1.2534
  35   0.0000       0.047545         1.2938
  36   0.0000       0.056414         1.5351

MULLIKEN ATOMIC CHARGES
-----------------------
   0 C :    0.598816
   1 C :    0.265755
   2 C :    0.418877
   3 C :    0.368598
   4 C :    0.240201
   5 C :    0.957799
   6 O :   -0.707199
   7 O :   -0.817918
   8 H :    0.027800
   9 H :    0.027848
  10 H :   -0.028471
  11 H :   -0.080171
  12 H :   -0.080170
  13 H :   -0.070364
  14 H :   -0.171107
  15 H :   -0.171106
  16 H :   -0.193670
  17 H :   -0.193663
  18 H :   -0.195927
  19 H :   -0.195927
Sum of atomic charges:    0.0000000

LOEWDIN ATOMIC CHARGES
----------------------
   0 C :   -0.369575
   1 C :    0.206111
   2 C :    0.133055
   3 C :   -0.068254
   4 C :   -0.034565
   5 C :    0.007502
   6 O :    0.040826
   7 O :    0.070264
   8 H :   -0.006592
   9 H :   -0.006587
  10 H :   -0.008292
  11 H :   -0.019008
  12 H :   -0.019008
  13 H :   -0.020577
  14 H :    0.011957
  15 H :    0.011958
  16 H :    0.019543
  17 H :    0.019543
  18 H :    0.015849
  19 H :    0.015850

  Mayer bond orders larger than 0.100000
B(  0-C ,  1-C ) :   1.0335 B(  0-C ,  6-O ) :   1.5023 B(  0-C ,  7-O ) :   0.8840
B(  0-C , 10-H ) :   0.1027 B(  1-C ,  8-H ) :   0.9443 B(  1-C ,  9-H ) :   0.9443
B(  1-C , 10-H ) :   0.8843 B(  2-C ,  3-C ) :   1.2106 B(  2-C , 11-H ) :   0.9281
B(  2-C , 12-H ) :   0.9281 B(  2-C , 13-H ) :   0.9207 B(  3-C ,  4-C ) :   1.2172
B(  3-C ,  5-C ) :  -0.1171 B(  3-C , 14-H ) :   0.7731 B(  3-C , 15-H ) :   0.7731
B(  4-C ,  5-C ) :   1.2601 B(  4-C ,  7-O ) :  -0.1103 B(  4-C , 16-H ) :   0.8057
B(  4-C , 17-H ) :   0.8057 B(  5-C ,  7-O ) :   0.5469 B(  5-C , 18-H ) :   0.8488
B(  5-C , 19-H ) :   0.8488

MP2 TOTAL ENERGY:     -385.258232029 Eh
FINAL SINGLE POINT ENERGY      -385.258232029178

DIPOLE MOMENT
-------------
                                X             Y             Z
Electronic contribution:     10.43255       2.27137      -0.00008
Nuclear contribution   :    -10.89615      -3.04389       0.00011
                        -----------------------------------------
Total Dipole Moment    :     -0.46360      -0.77252       0.00003
                        -----------------------------------------
Magnitude (a.u.)       :      0.90095
Magnitude (Debye)      :      2.29003

Rotational constants in cm-1:     0.235481     0.023620     0.021900
Rotational constants in MHz :  7059.546847   708.112316   656.555372

                             ****ORCA TERMINATED NORMALLY****
TOTAL RUN TIME: 0 days 0 hours 1 minutes 20 seconds 897 msec
