                         Program Version 5.0.3 -  RELEASE  -
|  1> !ri-mp2 aug-cc-pvdz aug-cc-pvdz/c tightscf
|  2> %pal nprocs 16 end
|  3>
|  4> * xyz 0 1
|  5> C     -0.275084   -0.023840    0.000001
|  6> C     -1.476686    0.011199   -0.000006
|  7> C      1.173929   -0.141273    0.000002
|  8> C     -2.928915    0.034761    0.000001
|  9> N      1.835717    1.050955    0.000032
| 10> O      1.744529   -1.217101   -0.000005
| 11> H     -3.308404    0.552873    0.882157
| 12> H     -3.334521   -0.977755   -0.000225
| 13> H     -3.308412    0.553273   -0.881917
| 14> H      2.841046    1.040814   -0.000076
| 15> H      1.344570    1.925831   -0.000104
| 16> *
| 17>
| 18>                          ****END OF INPUT****

CARTESIAN COORDINATES (ANGSTROEM)
---------------------------------
  C     -0.275084   -0.023840    0.000001
  C     -1.476686    0.011199   -0.000006
  C      1.173929   -0.141273    0.000002
  C     -2.928915    0.034761    0.000001
  N      1.835717    1.050955    0.000032
  O      1.744529   -1.217101   -0.000005
  H     -3.308404    0.552873    0.882157
  H     -3.334521   -0.977755   -0.000225
  H     -3.308412    0.553273   -0.881917
  H      2.841046    1.040814   -0.000076
  H      1.344570    1.925831   -0.000104

 Total Charge           Charge          ....    0
 Multiplicity           Mult            ....    1
 Number of Electrons    NEL             ....   44
 Basis Dimension        Dim             ....  183

ORBITAL ENERGIES
----------------

  NO   OCC          E(Eh)            E(eV)
   0   2.0000     -20.538345      -558.8768
   1   2.0000     -15.599862      -424.4938
   2   2.0000     -11.386731      -309.8487
   3   2.0000     -11.271366      -306.7095
   4   2.0000     -11.268882      -306.6419
   5   2.0000     -11.244953      -305.9907
   6   2.0000      -1.394698       -37.9517
   7   2.0000      -1.223018       -33.2800
   8   2.0000      -1.084715       -29.5166
   9   2.0000      -0.992825       -27.0161
  10   2.0000      -0.874801       -23.8046
  11   2.0000      -0.760687       -20.6993
  12   2.0000      -0.698320       -19.0023
  13   2.0000      -0.651941       -17.7402
  14   2.0000      -0.618202       -16.8221
  15   2.0000      -0.608596       -16.5608
  16   2.0000      -0.606254       -16.4970
  17   2.0000      -0.583665       -15.8823
  18   2.0000      -0.452717       -12.3190
  19   2.0000      -0.419422       -11.4131
  20   2.0000      -0.399738       -10.8774
  21   2.0000      -0.399484       -10.8705
  22   0.0000       0.027010         0.7350
  23   0.0000       0.036346         0.9890
  24   0.0000       0.053555         1.4573
  25   0.0000       0.054233         1.4758
  26   0.0000       0.065275         1.7762

MULLIKEN ATOMIC CHARGES
-----------------------
   0 C :    0.121436
   1 C :   -0.589561
   2 C :    0.795725
   3 C :    0.340714
   4 N :   -0.281790
   5 O :   -0.799360
   6 H :    0.120526
   7 H :    0.141127
   8 H :    0.120512
   9 H :    0.031463
  10 H :   -0.000792
Sum of atomic charges:    0.0000000

LOEWDIN ATOMIC CHARGES
----------------------
   0 C :    0.064086
   1 C :   -0.037034
   2 C :   -0.420260
   3 C :    0.132826
   4 N :    0.270225
   5 O :    0.024762
   6 H :   -0.004800
   7 H :   -0.003508
   8 H :   -0.004801
   9 H :   -0.004695
  10 H :   -0.016801

  Mayer bond orders larger than 0.100000
B(  0-C ,  1-C ) :   2.6686 B(  0-C ,  2-C ) :   1.0760 B(  0-C ,  3-C ) :   0.2474
B(  1-C ,  2-C ) :   0.1287 B(  1-C ,  3-C ) :   1.2902 B(  1-C ,  6-H ) :   0.2782
B(  1-C ,  7-H ) :   0.3592 B(  1-C ,  8-H ) :   0.2782 B(  2-C ,  4-N ) :   0.9169
B(  2-C ,  5-O ) :   1.2782 B(  2-C , 10-H ) :  -0.1430 B(  3-C ,  6-H ) :   0.7730
B(  3-C ,  7-H ) :   0.7530 B(  3-C ,  8-H ) :   0.7729 B(  4-N ,  9-H ) :   1.0373
B(  4-N , 10-H ) :   1.1133

MP2 TOTAL ENERGY:     -284.593766556 Eh
FINAL SINGLE POINT ENERGY      -284.593766556398

DIPOLE MOMENT
-------------
                                X             Y             Z
Electronic contribution:      4.71787      -1.50881       0.00003
Nuclear contribution   :     -5.69610       3.06515      -0.00016
                        -----------------------------------------
Total Dipole Moment    :     -0.97823       1.55634      -0.00014
                        -----------------------------------------
Magnitude (a.u.)       :      1.83824
Magnitude (Debye)      :      4.67243

Rotational constants in cm-1:     0.357153     0.058718     0.050905
Rotational constants in MHz : 10707.170596  1760.335423  1526.107154

                             ****ORCA TERMINATED NORMALLY****
TOTAL RUN TIME: 0 days 0 hours 0 minutes 28 seconds 564 msec
