                         Program Version 5.0.3 -  RELEASE  -
|  1> !ri-mp2 aug-cc-pvdz aug-cc-pvdz/c tightscf
|  2> %pal nprocs 16 end
|  3>
|  4> * xyz 0 1
|  5> F     3.940309   -0.700508    0.000001
|  6> O     0.078593   -0.377057    0.000001
|  7> O     2.113751    0.544697    0.000000
|  8> O     0.337726    1.902359   -0.000003
|  9> C     0.818126    0.821984    0.000000
| 10> C    -1.226279   -0.291508    0.000001
| 11> C     2.589453   -0.807507    0.000001
| 12> C    -2.427483   -0.308785    0.000000
| 13> C    -3.790073   -0.312892    0.000000
| 14> C    -4.994397   -0.317938    0.000000
| 15> H     2.268129   -1.318104    0.905799
| 16> H     2.268129   -1.318107   -0.905795
| 17> H    -6.055687   -0.319329    0.000000
| 18> *
| 19>
| 20>                          ****END OF INPUT****

CARTESIAN COORDINATES (ANGSTROEM)
---------------------------------
  F      3.940309   -0.700508    0.000001
  O      0.078593   -0.377057    0.000001
  O      2.113751    0.544697    0.000000
  O      0.337726    1.902359   -0.000003
  C      0.818126    0.821984    0.000000
  C     -1.226279   -0.291508    0.000001
  C      2.589453   -0.807507    0.000001
  C     -2.427483   -0.308785    0.000000
  C     -3.790073   -0.312892    0.000000
  C     -4.994397   -0.317938    0.000000
  H      2.268129   -1.318104    0.905799
  H      2.268129   -1.318107   -0.905795
  H     -6.055687   -0.319329    0.000000

 Total Charge           Charge          ....    0
 Multiplicity           Mult            ....    1
 Number of Electrons    NEL             ....   72
 Basis Dimension        Dim             ....  257

ORBITAL ENERGIES
----------------

  NO   OCC          E(Eh)            E(eV)
   0   2.0000     -26.345022      -716.8845
   1   2.0000     -20.705669      -563.4299
   2   2.0000     -20.670924      -562.4844
   3   2.0000     -20.604379      -560.6737
   4   2.0000     -11.498547      -312.8914
   5   2.0000     -11.427347      -310.9539
   6   2.0000     -11.343814      -308.6809
   7   2.0000     -11.281193      -306.9769
   8   2.0000     -11.276603      -306.8520
   9   2.0000     -11.265684      -306.5549
  10   2.0000      -1.661700       -45.2172
  11   2.0000      -1.569436       -42.7065
  12   2.0000      -1.474492       -40.1230
  13   2.0000      -1.434073       -39.0231
  14   2.0000      -1.105920       -30.0936
  15   2.0000      -1.041337       -28.3362
  16   2.0000      -1.020227       -27.7618
  17   2.0000      -0.942311       -25.6416
  18   2.0000      -0.843955       -22.9652
  19   2.0000      -0.827326       -22.5127
  20   2.0000      -0.789589       -21.4858
  21   2.0000      -0.777943       -21.1689
  22   2.0000      -0.737860       -20.0782
  23   2.0000      -0.727973       -19.8091
  24   2.0000      -0.717531       -19.5250
  25   2.0000      -0.696596       -18.9553
  26   2.0000      -0.662507       -18.0277
  27   2.0000      -0.643760       -17.5176
  28   2.0000      -0.606819       -16.5124
  29   2.0000      -0.583884       -15.8883
  30   2.0000      -0.525818       -14.3082
  31   2.0000      -0.508685       -13.8420
  32   2.0000      -0.495351       -13.4792
  33   2.0000      -0.490450       -13.3458
  34   2.0000      -0.374474       -10.1899
  35   2.0000      -0.365586        -9.9481
  36   0.0000       0.028771         0.7829
  37   0.0000       0.034401         0.9361
  38   0.0000       0.046326         1.2606
  39   0.0000       0.069978         1.9042
  40   0.0000       0.071500         1.9456

MULLIKEN ATOMIC CHARGES
-----------------------
   0 F :   -0.559525
   1 O :   -0.736971
   2 O :   -0.853515
   3 O :   -0.565815
   4 C :    1.213379
   5 C :   -1.007770
   6 C :    1.358062
   7 C :    1.614868
   8 C :    0.098950
   9 C :    0.407290
  10 H :   -0.130571
  11 H :   -0.130572
  12 H :   -0.707809
Sum of atomic charges:    0.0000000

LOEWDIN ATOMIC CHARGES
----------------------
   0 F :    0.037393
   1 O :    0.099835
   2 O :    0.105899
   3 O :    0.108579
   4 C :   -0.323907
   5 C :   -0.042748
   6 C :    0.041326
   7 C :   -0.051359
   8 C :   -0.136911
   9 C :    0.246060
  10 H :    0.005613
  11 H :    0.005613
  12 H :   -0.095392

  Mayer bond orders larger than 0.100000
B(  0-F ,  6-C ) :   0.4523 B(  1-O ,  4-C ) :   0.9088 B(  1-O ,  7-C ) :  -0.2935
B(  1-O ,  9-C ) :   0.1088 B(  2-O ,  4-C ) :   0.6926 B(  2-O ,  6-C ) :   0.5933
B(  3-O ,  4-C ) :   1.7140 B(  4-C ,  7-C ) :  -0.1189 B(  5-C ,  7-C ) :   1.5524
B(  5-C ,  8-C ) :  -1.0858 B(  5-C ,  9-C ) :   1.0288 B(  6-C , 10-H ) :   1.0146
B(  6-C , 11-H ) :   1.0146 B(  7-C ,  8-C ) :   2.3377 B(  7-C ,  9-C ) :  -1.2865
B(  8-C ,  9-C ) :   1.9210 B(  8-C , 12-H ) :   0.8311 B(  9-C , 12-H ) :  -0.4671

MP2 TOTAL ENERGY:     -554.451592506 Eh
FINAL SINGLE POINT ENERGY      -554.451592506437

DIPOLE MOMENT
-------------
                                X             Y             Z
Electronic contribution:      4.88553       0.86890       0.00000
Nuclear contribution   :     -5.11150      -2.12332       0.00000
                        -----------------------------------------
Total Dipole Moment    :     -0.22597      -1.25441       0.00000
                        -----------------------------------------
Magnitude (a.u.)       :      1.27460
Magnitude (Debye)      :      3.23978

Rotational constants in cm-1:     0.168626     0.015803     0.014490
Rotational constants in MHz :  5055.289341   473.773188   434.408372

                             ****ORCA TERMINATED NORMALLY****
TOTAL RUN TIME: 0 days 0 hours 0 minutes 46 seconds 489 msec
