                         Program Version 5.0.3 -  RELEASE  -
|  1> !ri-mp2 aug-cc-pvdz aug-cc-pvdz/c tightscf
|  2> %pal nprocs 16 end
|  3> %maxcore 3800
|  4>
|  5> * xyz 0 1
|  6> C      0.680345   -3.295333    0.000000
|  7> C      0.681769   -2.594527    1.200390
|  8> C      0.681769   -2.594527   -1.200390
|  9> C      0.681769   -1.204878    1.197095
| 10> C      0.681769   -1.204878   -1.197095
| 11> C      0.679166   -0.487390    0.000000
| 12> C     -2.241322    3.689088    0.000000
| 13> C      0.640208    1.021053    0.000000
| 14> C     -0.822953    3.121120    0.000000
| 15> C     -0.786838    1.592902    0.000000
| 16> H      0.683708   -4.377103    0.000000
| 17> H      0.687861   -3.130232    2.140693
| 18> H      0.687861   -3.130232   -2.140693
| 19> H      0.689431   -0.667833    2.138051
| 20> H      0.689431   -0.667833   -2.138051
| 21> H     -2.797599    3.361340    0.880573
| 22> H     -2.797599    3.361340   -0.880573
| 23> H     -2.234070    4.779958    0.000000
| 24> H      1.173513    1.399551    0.875815
| 25> H      1.173513    1.399551   -0.875815
| 26> H     -0.280474    3.494116    0.873994
| 27> H     -0.280474    3.494116   -0.873994
| 28> H     -1.324598    1.213739    0.873915
| 29> H     -1.324598    1.213739   -0.873915
| 30> *
| 31>
| 32>                          ****END OF INPUT****

CARTESIAN COORDINATES (ANGSTROEM)
---------------------------------
  C      0.680345   -3.295333    0.000000
  C      0.681769   -2.594527    1.200390
  C      0.681769   -2.594527   -1.200390
  C      0.681769   -1.204878    1.197095
  C      0.681769   -1.204878   -1.197095
  C      0.679166   -0.487390    0.000000
  C     -2.241322    3.689088    0.000000
  C      0.640208    1.021053    0.000000
  C     -0.822953    3.121120    0.000000
  C     -0.786838    1.592902    0.000000
  H      0.683708   -4.377103    0.000000
  H      0.687861   -3.130232    2.140693
  H      0.687861   -3.130232   -2.140693
  H      0.689431   -0.667833    2.138051
  H      0.689431   -0.667833   -2.138051
  H     -2.797599    3.361340    0.880573
  H     -2.797599    3.361340   -0.880573
  H     -2.234070    4.779958    0.000000
  H      1.173513    1.399551    0.875815
  H      1.173513    1.399551   -0.875815
  H     -0.280474    3.494116    0.873994
  H     -0.280474    3.494116   -0.873994
  H     -1.324598    1.213739    0.873915
  H     -1.324598    1.213739   -0.873915

 Total Charge           Charge          ....    0
 Multiplicity           Mult            ....    1
 Number of Electrons    NEL             ....   74
 Basis Dimension        Dim             ....  356

ORBITAL ENERGIES
----------------

  NO   OCC          E(Eh)            E(eV)
   0   2.0000     -11.241271      -305.8905
   1   2.0000     -11.236957      -305.7731
   2   2.0000     -11.236778      -305.7683
   3   2.0000     -11.233084      -305.6677
   4   2.0000     -11.232306      -305.6466
   5   2.0000     -11.232209      -305.6439
   6   2.0000     -11.230052      -305.5852
   7   2.0000     -11.224345      -305.4300
   8   2.0000     -11.223726      -305.4131
   9   2.0000     -11.218248      -305.2640
  10   2.0000      -1.156702       -31.4755
  11   2.0000      -1.083365       -29.4799
  12   2.0000      -1.034517       -28.1506
  13   2.0000      -1.013626       -27.5822
  14   2.0000      -0.965432       -26.2707
  15   2.0000      -0.875222       -23.8160
  16   2.0000      -0.826004       -22.4767
  17   2.0000      -0.802558       -21.8387
  18   2.0000      -0.785940       -21.3865
  19   2.0000      -0.693180       -18.8624
  20   2.0000      -0.651612       -17.7313
  21   2.0000      -0.632373       -17.2077
  22   2.0000      -0.620173       -16.8758
  23   2.0000      -0.589600       -16.0438
  24   2.0000      -0.583052       -15.8657
  25   2.0000      -0.577138       -15.7047
  26   2.0000      -0.560456       -15.2508
  27   2.0000      -0.531710       -14.4686
  28   2.0000      -0.512680       -13.9507
  29   2.0000      -0.501469       -13.6457
  30   2.0000      -0.487874       -13.2757
  31   2.0000      -0.481188       -13.0938
  32   2.0000      -0.469835       -12.7849
  33   2.0000      -0.463618       -12.6157
  34   2.0000      -0.456088       -12.4108
  35   2.0000      -0.333491        -9.0748
  36   2.0000      -0.322715        -8.7815
  37   0.0000       0.035173         0.9571
  38   0.0000       0.039287         1.0691
  39   0.0000       0.040685         1.1071
  40   0.0000       0.047122         1.2822
  41   0.0000       0.050886         1.3847

MULLIKEN ATOMIC CHARGES
-----------------------
   0 C :    0.550622
   1 C :    0.142678
   2 C :    0.142678
   3 C :    0.359304
   4 C :    0.359304
   5 C :    1.216573
   6 C :    0.512281
   7 C :    0.558720
   8 C :    0.307888
   9 C :    0.080752
  10 H :   -0.446636
  11 H :   -0.456490
  12 H :   -0.456490
  13 H :   -0.666289
  14 H :   -0.666289
  15 H :   -0.084961
  16 H :   -0.084961
  17 H :   -0.073040
  18 H :   -0.241519
  19 H :   -0.241519
  20 H :   -0.163201
  21 H :   -0.163201
  22 H :   -0.243102
  23 H :   -0.243102
Sum of atomic charges:   -0.0000000

LOEWDIN ATOMIC CHARGES
----------------------
   0 C :    0.001312
   1 C :    0.007121
   2 C :    0.007121
   3 C :    0.042077
   4 C :    0.042077
   5 C :   -0.178417
   6 C :    0.132092
   7 C :    0.002654
   8 C :   -0.072023
   9 C :   -0.029080
  10 H :   -0.003107
  11 H :   -0.000666
  12 H :   -0.000666
  13 H :    0.006593
  14 H :    0.006593
  15 H :   -0.019739
  16 H :   -0.019739
  17 H :   -0.021984
  18 H :    0.019283
  19 H :    0.019283
  20 H :    0.011279
  21 H :    0.011279
  22 H :    0.018328
  23 H :    0.018328

  Mayer bond orders larger than 0.100000
B(  0-C ,  1-C ) :   1.8153 B(  0-C ,  2-C ) :   1.8153 B(  0-C ,  3-C ) :  -0.1046
B(  0-C ,  4-C ) :  -0.1046 B(  0-C ,  5-C ) :   0.2588 B(  0-C , 10-H ) :   0.2519
B(  0-C , 11-H ) :   0.1519 B(  0-C , 12-H ) :   0.1519 B(  1-C ,  3-C ) :   1.9583
B(  1-C ,  5-C ) :  -0.4403 B(  1-C ,  7-C ) :   0.1754 B(  1-C , 10-H ) :   0.2468
B(  1-C , 11-H ) :   0.2157 B(  1-C , 13-H ) :   0.3340 B(  2-C ,  4-C ) :   1.9583
B(  2-C ,  5-C ) :  -0.4403 B(  2-C ,  7-C ) :   0.1754 B(  2-C , 10-H ) :   0.2468
B(  2-C , 12-H ) :   0.2157 B(  2-C , 14-H ) :   0.3340 B(  3-C ,  4-C ) :  -0.7652
B(  3-C ,  5-C ) :   1.6665 B(  3-C ,  7-C ) :  -0.3348 B(  3-C , 11-H ) :   0.3822
B(  3-C , 13-H ) :  -0.2272 B(  4-C ,  5-C ) :   1.6665 B(  4-C ,  7-C ) :  -0.3348
B(  4-C , 12-H ) :   0.3822 B(  4-C , 14-H ) :  -0.2272 B(  5-C ,  7-C ) :   1.5282
B(  5-C ,  9-C ) :  -0.1367 B(  5-C , 13-H ) :   0.5560 B(  5-C , 14-H ) :   0.5560
B(  5-C , 18-H ) :   0.1003 B(  5-C , 19-H ) :   0.1003 B(  6-C ,  8-C ) :   1.1574
B(  6-C , 15-H ) :   0.9295 B(  6-C , 16-H ) :   0.9295 B(  6-C , 17-H ) :   0.8891
B(  7-C ,  9-C ) :   1.1801 B(  7-C , 18-H ) :   0.6252 B(  7-C , 19-H ) :   0.6252
B(  8-C ,  9-C ) :   1.1841 B(  8-C , 20-H ) :   0.7682 B(  8-C , 21-H ) :   0.7682
B(  9-C , 18-H ) :   0.1245 B(  9-C , 19-H ) :   0.1245 B(  9-C , 22-H ) :   0.7522
B(  9-C , 23-H ) :   0.7522

MP2 TOTAL ENERGY:     -388.295396070 Eh
FINAL SINGLE POINT ENERGY      -388.295396069782

DIPOLE MOMENT
-------------
                                X             Y             Z
Electronic contribution:      5.40215     -11.97344       0.00000
Nuclear contribution   :     -5.44024      12.16031       0.00000
                        -----------------------------------------
Total Dipole Moment    :     -0.03810       0.18686       0.00000
                        -----------------------------------------
Magnitude (a.u.)       :      0.19071
Magnitude (Debye)      :      0.48474

Rotational constants in cm-1:     0.122995     0.018457     0.017494
Rotational constants in MHz :  3687.284163   553.330675   524.445951

                             ****ORCA TERMINATED NORMALLY****
TOTAL RUN TIME: 0 days 0 hours 2 minutes 25 seconds 291 msec
