                         Program Version 5.0.3 -  RELEASE  -
|  1> !ri-mp2 aug-cc-pvdz aug-cc-pvdz/c tightscf
|  2> %pal nprocs 16 end
|  3> %maxcore 3800
|  4>
|  5> * xyz 0 1
|  6> C      0.000000    0.000000    1.295208
|  7> C     -0.017844    1.447195    0.777177
|  8> C     -1.244385   -0.739051    0.777177
|  9> C      0.017844    1.447195   -0.777177
| 10> C      0.000000    0.000000   -1.295208
| 11> C     -1.262230   -0.708144   -0.777177
| 12> C      1.262230   -0.708144    0.777177
| 13> C      1.244385   -0.739051   -0.777177
| 14> H      1.308838   -1.720784    1.182692
| 15> H      0.000000    0.000000   -2.387174
| 16> H     -2.149499   -0.186632   -1.142178
| 17> H      2.149499   -0.186632    1.142178
| 18> H     -1.308838   -1.720784   -1.182692
| 19> H      0.000000    0.000000    2.387174
| 20> H     -2.144662   -0.273094    1.182692
| 21> H      1.236378   -1.768205   -1.142178
| 22> H      0.835824    1.993879    1.182692
| 23> H     -0.835824    1.993879   -1.182692
| 24> H      2.144662   -0.273094   -1.182692
| 25> H     -0.913121    1.954837    1.142178
| 26> H     -1.236378   -1.768205    1.142178
| 27> H      0.913121    1.954837   -1.142178
| 28> *
| 29>
| 30>                          ****END OF INPUT****

CARTESIAN COORDINATES (ANGSTROEM)
---------------------------------
  C      0.000000    0.000000    1.295208
  C     -0.017844    1.447195    0.777177
  C     -1.244385   -0.739051    0.777177
  C      0.017844    1.447195   -0.777177
  C      0.000000    0.000000   -1.295208
  C     -1.262230   -0.708144   -0.777177
  C      1.262230   -0.708144    0.777177
  C      1.244385   -0.739051   -0.777177
  H      1.308838   -1.720784    1.182692
  H      0.000000    0.000000   -2.387174
  H     -2.149499   -0.186632   -1.142178
  H      2.149499   -0.186632    1.142178
  H     -1.308838   -1.720784   -1.182692
  H      0.000000    0.000000    2.387174
  H     -2.144662   -0.273094    1.182692
  H      1.236378   -1.768205   -1.142178
  H      0.835824    1.993879    1.182692
  H     -0.835824    1.993879   -1.182692
  H      2.144662   -0.273094   -1.182692
  H     -0.913121    1.954837    1.142178
  H     -1.236378   -1.768205    1.142178
  H      0.913121    1.954837   -1.142178

 Total Charge           Charge          ....    0
 Multiplicity           Mult            ....    1
 Number of Electrons    NEL             ....   62
 Basis Dimension        Dim             ....  310

ORBITAL ENERGIES
----------------

  NO   OCC          E(Eh)            E(eV)
   0   2.0000     -11.219834      -305.3072
   1   2.0000     -11.219817      -305.3067
   2   2.0000     -11.215211      -305.1814
   3   2.0000     -11.215211      -305.1814
   4   2.0000     -11.215130      -305.1792
   5   2.0000     -11.214670      -305.1667
   6   2.0000     -11.214670      -305.1667
   7   2.0000     -11.214607      -305.1650
   8   2.0000      -1.142239       -31.0819
   9   2.0000      -1.015352       -27.6291
  10   2.0000      -0.993905       -27.0455
  11   2.0000      -0.993905       -27.0455
  12   2.0000      -0.828286       -22.5388
  13   2.0000      -0.828286       -22.5388
  14   2.0000      -0.798510       -21.7286
  15   2.0000      -0.671735       -18.2788
  16   2.0000      -0.671094       -18.2614
  17   2.0000      -0.637510       -17.3475
  18   2.0000      -0.637510       -17.3475
  19   2.0000      -0.555814       -15.1245
  20   2.0000      -0.526191       -14.3184
  21   2.0000      -0.526191       -14.3184
  22   2.0000      -0.519507       -14.1365
  23   2.0000      -0.512042       -13.9334
  24   2.0000      -0.512042       -13.9334
  25   2.0000      -0.488406       -13.2902
  26   2.0000      -0.488406       -13.2902
  27   2.0000      -0.452687       -12.3182
  28   2.0000      -0.408414       -11.1135
  29   2.0000      -0.404979       -11.0200
  30   2.0000      -0.404978       -11.0200
  31   0.0000       0.035552         0.9674
  32   0.0000       0.042040         1.1440
  33   0.0000       0.046664         1.2698
  34   0.0000       0.046664         1.2698
  35   0.0000       0.061006         1.6601

MULLIKEN ATOMIC CHARGES
-----------------------
   0 C :   -0.509484
   1 C :    0.583309
   2 C :    0.583303
   3 C :    0.583309
   4 C :   -0.509484
   5 C :    0.583312
   6 C :    0.583312
   7 C :    0.583303
   8 H :   -0.181114
   9 H :   -0.167102
  10 H :   -0.176667
  11 H :   -0.176667
  12 H :   -0.181114
  13 H :   -0.167102
  14 H :   -0.181111
  15 H :   -0.176666
  16 H :   -0.181114
  17 H :   -0.181114
  18 H :   -0.181111
  19 H :   -0.176666
  20 H :   -0.176666
  21 H :   -0.176666
Sum of atomic charges:    0.0000000

LOEWDIN ATOMIC CHARGES
----------------------
   0 C :   -0.210726
   1 C :    0.029382
   2 C :    0.029381
   3 C :    0.029382
   4 C :   -0.210726
   5 C :    0.029382
   6 C :    0.029382
   7 C :    0.029381
   8 H :    0.013584
   9 H :    0.040026
  10 H :    0.013934
  11 H :    0.013934
  12 H :    0.013584
  13 H :    0.040026
  14 H :    0.013585
  15 H :    0.013934
  16 H :    0.013584
  17 H :    0.013584
  18 H :    0.013585
  19 H :    0.013934
  20 H :    0.013934
  21 H :    0.013934

  Mayer bond orders larger than 0.100000
B(  0-C ,  1-C ) :   1.0869 B(  0-C ,  2-C ) :   1.0869 B(  0-C ,  4-C ) :  -0.5870
B(  0-C ,  6-C ) :   1.0869 B(  0-C ,  8-H ) :   0.1276 B(  0-C , 11-H ) :   0.1186
B(  0-C , 13-H ) :   0.5785 B(  0-C , 14-H ) :   0.1276 B(  0-C , 16-H ) :   0.1276
B(  0-C , 19-H ) :   0.1186 B(  0-C , 20-H ) :   0.1186 B(  1-C ,  3-C ) :   1.3148
B(  1-C , 16-H ) :   0.6762 B(  1-C , 19-H ) :   0.6851 B(  2-C ,  5-C ) :   1.3148
B(  2-C , 14-H ) :   0.6762 B(  2-C , 20-H ) :   0.6851 B(  3-C ,  4-C ) :   1.0869
B(  3-C , 17-H ) :   0.6762 B(  3-C , 21-H ) :   0.6851 B(  4-C ,  5-C ) :   1.0869
B(  4-C ,  7-C ) :   1.0869 B(  4-C ,  9-H ) :   0.5785 B(  4-C , 10-H ) :   0.1186
B(  4-C , 12-H ) :   0.1276 B(  4-C , 15-H ) :   0.1186 B(  4-C , 17-H ) :   0.1276
B(  4-C , 18-H ) :   0.1276 B(  4-C , 21-H ) :   0.1186 B(  5-C , 10-H ) :   0.6851
B(  5-C , 12-H ) :   0.6762 B(  6-C ,  7-C ) :   1.3148 B(  6-C ,  8-H ) :   0.6762
B(  6-C , 11-H ) :   0.6851 B(  7-C , 15-H ) :   0.6851 B(  7-C , 18-H ) :   0.6762
B(  8-H , 11-H ) :  -0.2252 B( 10-H , 12-H ) :  -0.2252 B( 14-H , 20-H ) :  -0.2252
B( 15-H , 18-H ) :  -0.2252 B( 16-H , 19-H ) :  -0.2252 B( 17-H , 21-H ) :  -0.2252

MP2 TOTAL ENERGY:     -312.306251493 Eh
FINAL SINGLE POINT ENERGY      -312.306251493234

DIPOLE MOMENT
-------------
                                X             Y             Z
Electronic contribution:      0.00000      -0.00000       0.00000
Nuclear contribution   :      0.00000       0.00000      -0.00000
                        -----------------------------------------
Total Dipole Moment    :      0.00000       0.00000       0.00000
                        -----------------------------------------
Magnitude (a.u.)       :      0.00000
Magnitude (Debye)      :      0.00000

Rotational constants in cm-1:     0.081289     0.078279     0.078279
Rotational constants in MHz :  2436.974860  2346.731374  2346.731216

                             ****ORCA TERMINATED NORMALLY****
TOTAL RUN TIME: 0 days 0 hours 1 minutes 28 seconds 258 msec
