                         Program Version 5.0.3 -  RELEASE  -
|  1> !ri-mp2 aug-cc-pvdz aug-cc-pvdz/c tightscf
|  2> %pal nprocs 16 end
|  3>
|  4> * xyz 0 1
|  5> C      0.000000    1.439760   -0.621675
|  6> C      0.000000    0.686345   -1.839508
|  7> C      0.000000   -0.686345   -1.839508
|  8> C      0.000000   -1.439760   -0.621675
|  9> C      0.000000   -0.673165    2.041672
| 10> C      0.000000    0.673165    2.041672
| 11> C      0.000000    0.709390    0.520531
| 12> C      0.000000   -0.709390    0.520531
| 13> H      0.000000    2.521064   -0.642939
| 14> H      0.000000    1.216563   -2.782280
| 15> H      0.000000   -1.216563   -2.782280
| 16> H      0.000000   -2.521064   -0.642939
| 17> H      0.000000   -1.421348    2.819103
| 18> H      0.000000    1.421348    2.819103
| 19> *
| 20>
| 21>                          ****END OF INPUT****

CARTESIAN COORDINATES (ANGSTROEM)
---------------------------------
  C      0.000000    1.439760   -0.621675
  C      0.000000    0.686345   -1.839508
  C      0.000000   -0.686345   -1.839508
  C      0.000000   -1.439760   -0.621675
  C      0.000000   -0.673165    2.041672
  C      0.000000    0.673165    2.041672
  C      0.000000    0.709390    0.520531
  C      0.000000   -0.709390    0.520531
  H      0.000000    2.521064   -0.642939
  H      0.000000    1.216563   -2.782280
  H      0.000000   -1.216563   -2.782280
  H      0.000000   -2.521064   -0.642939
  H      0.000000   -1.421348    2.819103
  H      0.000000    1.421348    2.819103

 Total Charge           Charge          ....    0
 Multiplicity           Mult            ....    1
 Number of Electrons    NEL             ....   54
 Basis Dimension        Dim             ....  238

ORBITAL ENERGIES
----------------

  NO   OCC          E(Eh)            E(eV)
   0   2.0000     -11.266368      -306.5735
   1   2.0000     -11.264798      -306.5307
   2   2.0000     -11.248888      -306.0978
   3   2.0000     -11.247839      -306.0693
   4   2.0000     -11.238650      -305.8192
   5   2.0000     -11.238624      -305.8185
   6   2.0000     -11.236313      -305.7556
   7   2.0000     -11.234992      -305.7197
   8   2.0000      -1.201678       -32.6993
   9   2.0000      -1.102258       -29.9940
  10   2.0000      -1.018323       -27.7100
  11   2.0000      -0.952827       -25.9278
  12   2.0000      -0.840797       -22.8793
  13   2.0000      -0.819742       -22.3063
  14   2.0000      -0.755937       -20.5701
  15   2.0000      -0.704034       -19.1577
  16   2.0000      -0.651764       -17.7354
  17   2.0000      -0.623705       -16.9719
  18   2.0000      -0.575041       -15.6477
  19   2.0000      -0.563757       -15.3406
  20   2.0000      -0.553669       -15.0661
  21   2.0000      -0.533133       -14.5073
  22   2.0000      -0.478625       -13.0240
  23   2.0000      -0.471768       -12.8375
  24   2.0000      -0.420485       -11.4420
  25   2.0000      -0.346348        -9.4246
  26   2.0000      -0.274774        -7.4770
  27   0.0000       0.035454         0.9647
  28   0.0000       0.039159         1.0656
  29   0.0000       0.039832         1.0839
  30   0.0000       0.052708         1.4342
  31   0.0000       0.056486         1.5371

MULLIKEN ATOMIC CHARGES
-----------------------
   0 C :    1.205536
   1 C :    0.256827
   2 C :    0.256827
   3 C :    1.205536
   4 C :    0.392210
   5 C :    0.392210
   6 C :   -0.614857
   7 C :   -0.614857
   8 H :   -0.427290
   9 H :   -0.471143
  10 H :   -0.471143
  11 H :   -0.427290
  12 H :   -0.341284
  13 H :   -0.341284
Sum of atomic charges:    0.0000000

LOEWDIN ATOMIC CHARGES
----------------------
   0 C :    0.053312
   1 C :    0.002638
   2 C :    0.002638
   3 C :    0.053312
   4 C :    0.115515
   5 C :    0.115515
   6 C :   -0.145369
   7 C :   -0.145369
   8 H :   -0.003594
   9 H :   -0.007516
  10 H :   -0.007516
  11 H :   -0.003594
  12 H :   -0.014986
  13 H :   -0.014986

  Mayer bond orders larger than 0.100000
B(  0-C ,  1-C ) :   1.2312 B(  0-C ,  3-C ) :   0.3624 B(  0-C ,  4-C ) :   0.1293
B(  0-C ,  6-C ) :   1.4531 B(  0-C ,  7-C ) :  -0.1876 B(  1-C ,  2-C ) :   2.1691
B(  1-C ,  4-C ) :   0.1440 B(  1-C ,  5-C ) :   0.1094 B(  1-C ,  9-H ) :   0.3606
B(  1-C , 10-H ) :   0.3788 B(  2-C ,  3-C ) :   1.2312 B(  2-C ,  4-C ) :   0.1094
B(  2-C ,  5-C ) :   0.1440 B(  2-C ,  9-H ) :   0.3788 B(  2-C , 10-H ) :   0.3606
B(  3-C ,  5-C ) :   0.1293 B(  3-C ,  6-C ) :  -0.1876 B(  3-C ,  7-C ) :   1.4531
B(  4-C ,  5-C ) :   2.1610 B(  4-C ,  6-C ) :  -0.2598 B(  4-C ,  7-C ) :   1.2413
B(  4-C , 12-H ) :   0.3918 B(  5-C ,  6-C ) :   1.2413 B(  5-C ,  7-C ) :  -0.2598
B(  5-C , 13-H ) :   0.3918 B(  6-C ,  7-C ) :   2.3626 B(  6-C ,  8-H ) :   0.6561
B(  6-C , 13-H ) :   0.3977 B(  7-C , 11-H ) :   0.6561 B(  7-C , 12-H ) :   0.3977

MP2 TOTAL ENERGY:     -307.432189596 Eh
FINAL SINGLE POINT ENERGY      -307.432189595718

DIPOLE MOMENT
-------------
                                X             Y             Z
Electronic contribution:      0.00000       0.00000       1.55022
Nuclear contribution   :      0.00000      -0.00000      -1.20369
                        -----------------------------------------
Total Dipole Moment    :      0.00000       0.00000       0.34653
                        -----------------------------------------
Magnitude (a.u.)       :      0.34653
Magnitude (Debye)      :      0.88082

Rotational constants in cm-1:     0.162162     0.073403     0.050530
Rotational constants in MHz :  4861.499657  2200.563360  1514.860175

                             ****ORCA TERMINATED NORMALLY****
TOTAL RUN TIME: 0 days 0 hours 0 minutes 49 seconds 28 msec
