                         Program Version 5.0.3 -  RELEASE  -
|  1> !ri-mp2 aug-cc-pvdz aug-cc-pvdz/c tightscf
|  2> %pal nprocs 16 end
|  3>
|  4> * xyz 0 1
|  5> H    -0.140619    0.678735    2.076979
|  6> H     1.129568    1.686573    1.231058
|  7> C     0.276344    1.019981    1.138037
|  8> H    -0.140619    0.678735   -2.076979
|  9> H     1.129568    1.686573   -1.231058
| 10> C     0.276344    1.019981   -1.138037
| 11> C     0.276344    0.034656    0.000000
| 12> H    -1.743752    1.161245    0.000000
| 13> C    -0.668943    1.198926    0.000000
| 14> N    -0.181839   -2.488939    0.000000
| 15> C     0.013033   -1.351758    0.000000
| 16> *
| 17>
| 18>                          ****END OF INPUT****

CARTESIAN COORDINATES (ANGSTROEM)
---------------------------------
  H     -0.140619    0.678735    2.076979
  H      1.129568    1.686573    1.231058
  C      0.276344    1.019981    1.138037
  H     -0.140619    0.678735   -2.076979
  H      1.129568    1.686573   -1.231058
  C      0.276344    1.019981   -1.138037
  C      0.276344    0.034656    0.000000
  H     -1.743752    1.161245    0.000000
  C     -0.668943    1.198926    0.000000
  N     -0.181839   -2.488939    0.000000
  C      0.013033   -1.351758    0.000000

 Total Charge           Charge          ....    0
 Multiplicity           Mult            ....    1
 Number of Electrons    NEL             ....   42
 Basis Dimension        Dim             ....  183

ORBITAL ENERGIES
----------------

  NO   OCC          E(Eh)            E(eV)
   0   2.0000     -15.578436      -423.9108
   1   2.0000     -11.298391      -307.4448
   2   2.0000     -11.287317      -307.1435
   3   2.0000     -11.286741      -307.1278
   4   2.0000     -11.284680      -307.0717
   5   2.0000     -11.284545      -307.0681
   6   2.0000      -1.269186       -34.5363
   7   2.0000      -1.216217       -33.0949
   8   2.0000      -0.972004       -26.4496
   9   2.0000      -0.913149       -24.8481
  10   2.0000      -0.825350       -22.4589
  11   2.0000      -0.748512       -20.3680
  12   2.0000      -0.636869       -17.3301
  13   2.0000      -0.631824       -17.1928
  14   2.0000      -0.564229       -15.3534
  15   2.0000      -0.554086       -15.0775
  16   2.0000      -0.521647       -14.1947
  17   2.0000      -0.516063       -14.0428
  18   2.0000      -0.496577       -13.5125
  19   2.0000      -0.437786       -11.9128
  20   2.0000      -0.374339       -10.1863
  21   0.0000       0.029783         0.8104
  22   0.0000       0.041044         1.1169
  23   0.0000       0.041829         1.1382
  24   0.0000       0.055963         1.5228
  25   0.0000       0.068259         1.8574

MULLIKEN ATOMIC CHARGES
-----------------------
   0 H :   -0.342607
   1 H :   -0.299386
   2 C :    0.655645
   3 H :   -0.342607
   4 H :   -0.299386
   5 C :    0.655645
   6 C :    1.054501
   7 H :   -0.424006
   8 C :    0.487812
   9 N :   -0.248815
  10 C :   -0.896795
Sum of atomic charges:    0.0000000

LOEWDIN ATOMIC CHARGES
----------------------
   0 H :    0.017844
   1 H :    0.011098
   2 C :    0.128268
   3 H :    0.017844
   4 H :    0.011098
   5 C :    0.128268
   6 C :   -0.308240
   7 H :    0.024379
   8 C :   -0.002507
   9 N :    0.080205
  10 C :   -0.108258

  Mayer bond orders larger than 0.100000
B(  0-H ,  1-H ) :  -0.1213 B(  0-H ,  2-C ) :   0.8020 B(  1-H ,  2-C ) :   0.6947
B(  2-C ,  5-C ) :   0.1354 B(  2-C ,  6-C ) :   0.9113 B(  2-C ,  8-C ) :   1.1865
B(  3-H ,  4-H ) :  -0.1213 B(  3-H ,  5-C ) :   0.8020 B(  4-H ,  5-C ) :   0.6947
B(  5-C ,  6-C ) :   0.9113 B(  5-C ,  8-C ) :   1.1865 B(  6-C ,  7-H ) :  -0.2033
B(  6-C ,  8-C ) :   0.3964 B(  6-C , 10-C ) :  -0.5106 B(  7-H ,  8-C ) :   0.7259
B(  7-H , 10-C ) :   0.1296 B(  9-N , 10-C ) :   2.4553

MP2 TOTAL ENERGY:     -247.479347672 Eh
FINAL SINGLE POINT ENERGY      -247.479347672186

DIPOLE MOMENT
-------------
                                X             Y             Z
Electronic contribution:     -0.25093      -4.09984       0.00000
Nuclear contribution   :      0.23242       5.86069       0.00000
                        -----------------------------------------
Total Dipole Moment    :     -0.01851       1.76084       0.00000
                        -----------------------------------------
Magnitude (a.u.)       :      1.76094
Magnitude (Debye)      :      4.47596

Rotational constants in cm-1:     0.295953     0.097529     0.083613
Rotational constants in MHz :  8872.442664  2923.835547  2506.661098

                             ****ORCA TERMINATED NORMALLY****
TOTAL RUN TIME: 0 days 0 hours 0 minutes 31 seconds 332 msec
