                         Program Version 5.0.3 -  RELEASE  -
|  1> !ri-mp2 aug-cc-pvdz aug-cc-pvdz/c tightscf
|  2> %pal nprocs 16 end
|  3>
|  4> * xyz 0 1
|  5> C      0.645070   -0.770527   -0.387053
|  6> C     -0.789799   -1.153566   -0.033586
|  7> C      0.710734    0.747733   -0.438274
|  8> C      1.457988   -0.021657    0.630098
|  9> C     -1.464834    0.179434    0.203670
| 10> C     -0.653112    1.204214   -0.052761
| 11> H      1.177895   -1.366546   -1.113656
| 12> H     -1.269345   -1.698798   -0.852718
| 13> H     -0.844021   -1.804885    0.843900
| 14> H      1.275524    1.279992   -1.191271
| 15> H      1.092367    0.049534    1.646341
| 16> H      2.533970   -0.086125    0.538571
| 17> H     -2.482396    0.264631    0.559582
| 18> H     -0.920271    2.248412    0.036679
| 19> *
| 20>
| 21>                          ****END OF INPUT****

CARTESIAN COORDINATES (ANGSTROEM)
---------------------------------
  C      0.645070   -0.770527   -0.387053
  C     -0.789799   -1.153566   -0.033586
  C      0.710734    0.747733   -0.438274
  C      1.457988   -0.021657    0.630098
  C     -1.464834    0.179434    0.203670
  C     -0.653112    1.204214   -0.052761
  H      1.177895   -1.366546   -1.113656
  H     -1.269345   -1.698798   -0.852718
  H     -0.844021   -1.804885    0.843900
  H      1.275524    1.279992   -1.191271
  H      1.092367    0.049534    1.646341
  H      2.533970   -0.086125    0.538571
  H     -2.482396    0.264631    0.559582
  H     -0.920271    2.248412    0.036679

 Total Charge           Charge          ....    0
 Multiplicity           Mult            ....    1
 Number of Electrons    NEL             ....   44
 Basis Dimension        Dim             ....  210

ORBITAL ENERGIES
----------------

  NO   OCC          E(Eh)            E(eV)
   0   2.0000     -11.233053      -305.6669
   1   2.0000     -11.232043      -305.6394
   2   2.0000     -11.230339      -305.5931
   3   2.0000     -11.228976      -305.5560
   4   2.0000     -11.228122      -305.5327
   5   2.0000     -11.225910      -305.4725
   6   2.0000      -1.181259       -32.1437
   7   2.0000      -1.034987       -28.1634
   8   2.0000      -0.957839       -26.0641
   9   2.0000      -0.828347       -22.5405
  10   2.0000      -0.765359       -20.8265
  11   2.0000      -0.728381       -19.8203
  12   2.0000      -0.695896       -18.9363
  13   2.0000      -0.619101       -16.8466
  14   2.0000      -0.573625       -15.6091
  15   2.0000      -0.562477       -15.3058
  16   2.0000      -0.521629       -14.1942
  17   2.0000      -0.509393       -13.8613
  18   2.0000      -0.475476       -12.9384
  19   2.0000      -0.442914       -12.0523
  20   2.0000      -0.398769       -10.8511
  21   2.0000      -0.328385        -8.9358
  22   0.0000       0.036092         0.9821
  23   0.0000       0.043841         1.1930
  24   0.0000       0.046034         1.2527
  25   0.0000       0.049042         1.3345
  26   0.0000       0.062191         1.6923

MULLIKEN ATOMIC CHARGES
-----------------------
   0 C :    0.532568
   1 C :    0.193296
   2 C :    0.351249
   3 C :    0.806848
   4 C :    0.179245
   5 C :    0.237825
   6 H :   -0.394069
   7 H :   -0.075515
   8 H :   -0.062534
   9 H :   -0.383759
  10 H :   -0.365444
  11 H :   -0.391715
  12 H :   -0.305624
  13 H :   -0.322371
Sum of atomic charges:    0.0000000

LOEWDIN ATOMIC CHARGES
----------------------
   0 C :   -0.103885
   1 C :    0.013568
   2 C :   -0.114032
   3 C :    0.093118
   4 C :    0.018347
   5 C :    0.030412
   6 H :    0.022584
   7 H :    0.013278
   8 H :    0.014219
   9 H :    0.020321
  10 H :    0.005023
  11 H :   -0.000902
  12 H :   -0.008168
  13 H :   -0.003883

  Mayer bond orders larger than 0.100000
B(  0-C ,  1-C ) :   1.1620 B(  0-C ,  2-C ) :   0.8607 B(  0-C ,  3-C ) :   0.9298
B(  0-C ,  6-H ) :   0.5950 B(  1-C ,  4-C ) :   1.2096 B(  1-C ,  7-H ) :   0.7313
B(  1-C ,  8-H ) :   0.7780 B(  2-C ,  3-C ) :   0.9331 B(  2-C ,  5-C ) :   1.3121
B(  2-C ,  8-H ) :   0.1116 B(  2-C ,  9-H ) :   0.5029 B(  3-C ,  5-C ) :   0.1229
B(  3-C , 10-H ) :   0.8223 B(  3-C , 11-H ) :   0.7188 B(  4-C ,  5-C ) :   2.1739
B(  4-C , 12-H ) :   0.7067 B(  4-C , 13-H ) :   0.1665 B(  5-C ,  9-H ) :   0.1427
B(  5-C , 12-H ) :   0.1269 B(  5-C , 13-H ) :   0.5973 B(  7-H ,  8-H ) :  -0.1074
B( 10-H , 11-H ) :  -0.1744

MP2 TOTAL ENERGY:     -232.674756605 Eh
FINAL SINGLE POINT ENERGY      -232.674756605159

DIPOLE MOMENT
-------------
                                X             Y             Z
Electronic contribution:     -0.50998       1.06858      -0.52405
Nuclear contribution   :      0.58135      -1.14861       0.48204
                        -----------------------------------------
Total Dipole Moment    :      0.07137      -0.08002      -0.04200
                        -----------------------------------------
Magnitude (a.u.)       :      0.11516
Magnitude (Debye)      :      0.29271

Rotational constants in cm-1:     0.212335     0.150498     0.106940
Rotational constants in MHz :  6365.657738  4511.820652  3205.969987

                             ****ORCA TERMINATED NORMALLY****
TOTAL RUN TIME: 0 days 0 hours 0 minutes 35 seconds 563 msec
