                         Program Version 5.0.3 -  RELEASE  -
|  1> !ri-mp2 aug-cc-pvdz aug-cc-pvdz/c tightscf
|  2> %pal nprocs 16 end
|  3>
|  4> * xyz 0 1
|  5> C     0.000000     1.843020    0.753782
|  6> C     0.427743     0.611952    0.000000
|  7> C     0.000000     1.843020   -0.753782
|  8> C    -0.427743    -0.611952    0.000000
|  9> C     0.000000    -1.843020    0.753782
| 10> C     0.000000    -1.843020   -0.753782
| 11> H     0.754138     2.423213    1.266843
| 12> H    -0.956630     1.813429    1.257842
| 13> H     1.492677     0.407118    0.000000
| 14> H    -0.956630     1.813429   -1.257842
| 15> H     0.754138     2.423213   -1.266843
| 16> H    -1.492677    -0.407118    0.000000
| 17> H    -0.754138    -2.423213    1.266843
| 18> H     0.956630    -1.813429    1.257842
| 19> H     0.956630    -1.813429   -1.257842
| 20> H    -0.754138    -2.423213   -1.266843
| 21> *
| 22>
| 23>                          ****END OF INPUT****

CARTESIAN COORDINATES (ANGSTROEM)
---------------------------------
  C      0.000000    1.843020    0.753782
  C      0.427743    0.611952    0.000000
  C      0.000000    1.843020   -0.753782
  C     -0.427743   -0.611952    0.000000
  C      0.000000   -1.843020    0.753782
  C      0.000000   -1.843020   -0.753782
  H      0.754138    2.423213    1.266843
  H     -0.956630    1.813429    1.257842
  H      1.492677    0.407118    0.000000
  H     -0.956630    1.813429   -1.257842
  H      0.754138    2.423213   -1.266843
  H     -1.492677   -0.407118    0.000000
  H     -0.754138   -2.423213    1.266843
  H      0.956630   -1.813429    1.257842
  H      0.956630   -1.813429   -1.257842
  H     -0.754138   -2.423213   -1.266843

 Total Charge           Charge          ....    0
 Multiplicity           Mult            ....    1
 Number of Electrons    NEL             ....   46
 Basis Dimension        Dim             ....  228

ORBITAL ENERGIES
----------------

  NO   OCC          E(Eh)            E(eV)
   0   2.0000     -11.234166      -305.6972
   1   2.0000     -11.233494      -305.6789
   2   2.0000     -11.225019      -305.4483
   3   2.0000     -11.225015      -305.4482
   4   2.0000     -11.224389      -305.4311
   5   2.0000     -11.224383      -305.4310
   6   2.0000      -1.161544       -31.6072
   7   2.0000      -1.113292       -30.2942
   8   2.0000      -0.867274       -23.5997
   9   2.0000      -0.824780       -22.4434
  10   2.0000      -0.813198       -22.1282
  11   2.0000      -0.765788       -20.8382
  12   2.0000      -0.667992       -18.1770
  13   2.0000      -0.658839       -17.9279
  14   2.0000      -0.615620       -16.7519
  15   2.0000      -0.572285       -15.5727
  16   2.0000      -0.512347       -13.9417
  17   2.0000      -0.510836       -13.9006
  18   2.0000      -0.485594       -13.2137
  19   2.0000      -0.470482       -12.8025
  20   2.0000      -0.437681       -11.9099
  21   2.0000      -0.397992       -10.8299
  22   2.0000      -0.366844        -9.9823
  23   0.0000       0.038478         1.0470
  24   0.0000       0.042776         1.1640
  25   0.0000       0.044804         1.2192
  26   0.0000       0.046247         1.2584
  27   0.0000       0.063167         1.7189

MULLIKEN ATOMIC CHARGES
-----------------------
   0 C :    0.854900
   1 C :    0.226893
   2 C :    0.854900
   3 C :    0.226893
   4 C :    0.854900
   5 C :    0.854900
   6 H :   -0.369646
   7 H :   -0.385378
   8 H :   -0.426645
   9 H :   -0.385378
  10 H :   -0.369646
  11 H :   -0.426645
  12 H :   -0.369646
  13 H :   -0.385378
  14 H :   -0.385378
  15 H :   -0.369646
Sum of atomic charges:    0.0000000

LOEWDIN ATOMIC CHARGES
----------------------
   0 C :    0.065663
   1 C :   -0.148696
   2 C :    0.065663
   3 C :   -0.148696
   4 C :    0.065663
   5 C :    0.065663
   6 H :   -0.005728
   7 H :   -0.002625
   8 H :    0.034078
   9 H :   -0.002625
  10 H :   -0.005728
  11 H :    0.034078
  12 H :   -0.005728
  13 H :   -0.002625
  14 H :   -0.002625
  15 H :   -0.005728

  Mayer bond orders larger than 0.100000
B(  0-C ,  1-C ) :   0.8087 B(  0-C ,  2-C ) :   1.1393 B(  0-C ,  6-H ) :   0.7073
B(  0-C ,  7-H ) :   0.7273 B(  1-C ,  2-C ) :   0.8087 B(  1-C ,  3-C ) :   1.1847
B(  1-C ,  8-H ) :   0.2275 B(  1-C , 11-H ) :   0.3897 B(  2-C ,  9-H ) :   0.7273
B(  2-C , 10-H ) :   0.7073 B(  3-C ,  4-C ) :   0.8087 B(  3-C ,  5-C ) :   0.8087
B(  3-C ,  8-H ) :   0.3897 B(  3-C , 11-H ) :   0.2275 B(  4-C ,  5-C ) :   1.1393
B(  4-C , 12-H ) :   0.7073 B(  4-C , 13-H ) :   0.7273 B(  5-C , 14-H ) :   0.7273
B(  5-C , 15-H ) :   0.7073 B(  6-H ,  7-H ) :  -0.1583 B(  9-H , 10-H ) :  -0.1583
B( 12-H , 13-H ) :  -0.1583 B( 14-H , 15-H ) :  -0.1583

MP2 TOTAL ENERGY:     -233.849616249 Eh
FINAL SINGLE POINT ENERGY      -233.849616249200

DIPOLE MOMENT
-------------
                                X             Y             Z
Electronic contribution:     -0.00000      -0.00000      -0.00000
Nuclear contribution   :     -0.00000       0.00000      -0.00000
                        -----------------------------------------
Total Dipole Moment    :     -0.00000      -0.00000      -0.00000
                        -----------------------------------------
Magnitude (a.u.)       :      0.00000
Magnitude (Debye)      :      0.00000

Rotational constants in cm-1:     0.308189     0.075148     0.067451
Rotational constants in MHz :  9239.280437  2252.867815  2022.127919

                             ****ORCA TERMINATED NORMALLY****
TOTAL RUN TIME: 0 days 0 hours 0 minutes 41 seconds 813 msec
