                         Program Version 5.0.3 -  RELEASE  -
|  1> !ri-mp2 aug-cc-pvdz aug-cc-pvdz/c tightscf
|  2> %pal nprocs 16 end
|  3>
|  4> * xyz 0 1
|  5> C      1.747263   -1.406167        0.000000
|  6> C      2.223038   -0.087275        0.000000
|  7> C      0.389336   -1.682725        0.000000
|  8> C      1.351487    0.993360        0.000000
|  9> C     -1.940990   -0.463643        0.000000
| 10> C     -2.180642    0.864075        0.000000
| 11> C     -0.508089   -0.610981        0.000000
| 12> C      0.000000    0.695937        0.000000
| 13> O     -1.024824    1.601092        0.000000
| 14> H      2.457684   -2.221739        0.000000
| 15> H      3.289485    0.091942        0.000000
| 16> H      0.033887   -2.704379        0.000000
| 17> H      1.703212    2.015004        0.000000
| 18> H     -2.683681   -1.242643        0.000000
| 19> H     -3.090416    1.437594        0.000000
| 20> *
| 21>
| 22>                          ****END OF INPUT****

CARTESIAN COORDINATES (ANGSTROEM)
---------------------------------
  C      1.747263   -1.406167    0.000000
  C      2.223038   -0.087275    0.000000
  C      0.389336   -1.682725    0.000000
  C      1.351487    0.993360    0.000000
  C     -1.940990   -0.463643    0.000000
  C     -2.180642    0.864075    0.000000
  C     -0.508089   -0.610981    0.000000
  C      0.000000    0.695937    0.000000
  O     -1.024824    1.601092    0.000000
  H      2.457684   -2.221739    0.000000
  H      3.289485    0.091942    0.000000
  H      0.033887   -2.704379    0.000000
  H      1.703212    2.015004    0.000000
  H     -2.683681   -1.242643    0.000000
  H     -3.090416    1.437594    0.000000

 Total Charge           Charge          ....    0
 Multiplicity           Mult            ....    1
 Number of Electrons    NEL             ....   62
 Basis Dimension        Dim             ....  261

ORBITAL ENERGIES
----------------

  NO   OCC          E(Eh)            E(eV)
   0   2.0000     -20.630680      -561.3893
   1   2.0000     -11.308336      -307.7155
   2   2.0000     -11.299465      -307.4741
   3   2.0000     -11.247597      -306.0627
   4   2.0000     -11.246244      -306.0259
   5   2.0000     -11.245625      -306.0090
   6   2.0000     -11.244301      -305.9730
   7   2.0000     -11.243018      -305.9381
   8   2.0000     -11.238693      -305.8204
   9   2.0000      -1.462689       -39.8018
  10   2.0000      -1.160101       -31.5680
  11   2.0000      -1.087892       -29.6031
  12   2.0000      -1.021369       -27.7929
  13   2.0000      -0.997542       -27.1445
  14   2.0000      -0.860950       -23.4277
  15   2.0000      -0.820322       -22.3221
  16   2.0000      -0.803782       -21.8720
  17   2.0000      -0.718771       -19.5588
  18   2.0000      -0.681734       -18.5509
  19   2.0000      -0.664272       -18.0758
  20   2.0000      -0.642148       -17.4737
  21   2.0000      -0.614285       -16.7155
  22   2.0000      -0.597663       -16.2632
  23   2.0000      -0.576440       -15.6857
  24   2.0000      -0.560963       -15.2646
  25   2.0000      -0.523300       -14.2397
  26   2.0000      -0.493669       -13.4334
  27   2.0000      -0.493656       -13.4331
  28   2.0000      -0.409964       -11.1557
  29   2.0000      -0.327714        -8.9176
  30   2.0000      -0.303671        -8.2633
  31   0.0000       0.034828         0.9477
  32   0.0000       0.037475         1.0198
  33   0.0000       0.041123         1.1190
  34   0.0000       0.052753         1.4355
  35   0.0000       0.056663         1.5419

MULLIKEN ATOMIC CHARGES
-----------------------
   0 C :    0.479238
   1 C :    0.457631
   2 C :    1.112004
   3 C :    0.455666
   4 C :    0.456016
   5 C :    0.727841
   6 C :    0.013523
   7 C :   -0.072776
   8 O :   -1.033955
   9 H :   -0.471878
  10 H :   -0.458466
  11 H :   -0.461874
  12 H :   -0.489036
  13 H :   -0.373546
  14 H :   -0.340391
Sum of atomic charges:   -0.0000000

LOEWDIN ATOMIC CHARGES
----------------------
   0 C :    0.001817
   1 C :    0.009911
   2 C :    0.058269
   3 C :    0.062808
   4 C :    0.057009
   5 C :    0.034718
   6 C :   -0.167007
   7 C :   -0.161335
   8 O :    0.101349
   9 H :   -0.004007
  10 H :   -0.001853
  11 H :    0.004130
  12 H :    0.009084
  13 H :   -0.002140
  14 H :   -0.002754

  Mayer bond orders larger than 0.100000
B(  0-C ,  1-C ) :   1.7810 B(  0-C ,  2-C ) :   1.5230 B(  0-C ,  4-C ) :   0.1430
B(  0-C ,  9-H ) :   0.2847 B(  0-C , 10-H ) :   0.2660 B(  0-C , 12-H ) :  -0.1128
B(  1-C ,  3-C ) :   1.8611 B(  1-C ,  6-C ) :   0.1724 B(  1-C ,  9-H ) :   0.2055
B(  1-C , 10-H ) :   0.2798 B(  1-C , 12-H ) :   0.1284 B(  2-C ,  3-C ) :   0.2179
B(  2-C ,  4-C ) :  -0.3968 B(  2-C ,  6-C ) :   1.6156 B(  2-C ,  7-C ) :  -0.4270
B(  2-C ,  9-H ) :   0.2185 B(  3-C ,  4-C ) :   0.2186 B(  3-C ,  6-C ) :  -0.6199
B(  3-C ,  7-C ) :   2.1870 B(  3-C , 10-H ) :   0.1723 B(  3-C , 12-H ) :  -0.1965
B(  4-C ,  5-C ) :   1.5900 B(  4-C ,  6-C ) :   1.5291 B(  4-C ,  7-C ) :  -0.2136
B(  4-C ,  8-O ) :   0.1755 B(  4-C , 13-H ) :   0.3159 B(  4-C , 14-H ) :  -0.1917
B(  5-C ,  8-O ) :   0.5073 B(  5-C , 14-H ) :   0.8912 B(  6-C ,  7-C ) :   1.7936
B(  6-C ,  8-O ) :   0.3331 B(  6-C , 11-H ) :   0.7125 B(  6-C , 13-H ) :   0.6240
B(  6-C , 14-H ) :   0.1154 B(  7-C , 12-H ) :   0.8694 B(  7-C , 14-H ) :   0.1356
B(  8-O , 14-H ) :  -0.1023

MP2 TOTAL ENERGY:     -382.592586951 Eh
FINAL SINGLE POINT ENERGY      -382.592586950931

DIPOLE MOMENT
-------------
                                X             Y             Z
Electronic contribution:     -1.87947       2.28252      -0.00000
Nuclear contribution   :      1.66972      -2.56170       0.00000
                        -----------------------------------------
Total Dipole Moment    :     -0.20975      -0.27919      -0.00000
                        -----------------------------------------
Magnitude (a.u.)       :      0.34920
Magnitude (Debye)      :      0.88760

Rotational constants in cm-1:     0.131649     0.055565     0.039073
Rotational constants in MHz :  3946.752312  1665.787532  1171.386035

                             ****ORCA TERMINATED NORMALLY****
TOTAL RUN TIME: 0 days 0 hours 1 minutes 12 seconds 58 msec
