                         Program Version 5.0.3 -  RELEASE  -
|  1> !ri-mp2 aug-cc-pvdz aug-cc-pvdz/c tightscf
|  2> %pal nprocs 16 end
|  3>
|  4> * xyz 0 1
|  5> C    -1.522244     0.801625    0.000000
|  6> H    -1.971604     1.251554    0.886835
|  7> H    -1.971604     1.251554   -0.886835
|  8> C    -1.522244    -0.801625    0.000000
|  9> H    -1.971604    -1.251554   -0.886835
| 10> H    -1.971604    -1.251554    0.886835
| 11> C     1.522244    -0.801625    0.000000
| 12> H     1.971604    -1.251554    0.886835
| 13> H     1.971604    -1.251554   -0.886835
| 14> C     0.000000    -0.656608    0.000000
| 15> C     0.000000     0.656608    0.000000
| 16> C     1.522244     0.801625    0.000000
| 17> H     1.971604     1.251554   -0.886835
| 18> H     1.971604     1.251554    0.886835
| 19> *
| 20>
| 21>                          ****END OF INPUT****

CARTESIAN COORDINATES (ANGSTROEM)
---------------------------------
  C     -1.522244    0.801625    0.000000
  H     -1.971604    1.251554    0.886835
  H     -1.971604    1.251554   -0.886835
  C     -1.522244   -0.801625    0.000000
  H     -1.971604   -1.251554   -0.886835
  H     -1.971604   -1.251554    0.886835
  C      1.522244   -0.801625    0.000000
  H      1.971604   -1.251554    0.886835
  H      1.971604   -1.251554   -0.886835
  C      0.000000   -0.656608    0.000000
  C      0.000000    0.656608    0.000000
  C      1.522244    0.801625    0.000000
  H      1.971604    1.251554   -0.886835
  H      1.971604    1.251554    0.886835

 Total Charge           Charge          ....    0
 Multiplicity           Mult            ....    1
 Number of Electrons    NEL             ....   44
 Basis Dimension        Dim             ....  210

ORBITAL ENERGIES
----------------

  NO   OCC          E(Eh)            E(eV)
   0   2.0000     -11.243776      -305.9587
   1   2.0000     -11.243768      -305.9585
   2   2.0000     -11.243336      -305.9467
   3   2.0000     -11.243320      -305.9463
   4   2.0000     -11.208453      -304.9975
   5   2.0000     -11.206505      -304.9445
   6   2.0000      -1.176988       -32.0275
   7   2.0000      -1.038517       -28.2595
   8   2.0000      -0.884105       -24.0577
   9   2.0000      -0.850321       -23.1384
  10   2.0000      -0.834653       -22.7121
  11   2.0000      -0.652779       -17.7630
  12   2.0000      -0.637325       -17.3425
  13   2.0000      -0.604154       -16.4399
  14   2.0000      -0.599455       -16.3120
  15   2.0000      -0.536436       -14.5972
  16   2.0000      -0.515738       -14.0339
  17   2.0000      -0.503660       -13.7053
  18   2.0000      -0.444720       -12.1014
  19   2.0000      -0.442266       -12.0347
  20   2.0000      -0.411567       -11.1993
  21   2.0000      -0.329881        -8.9765
  22   0.0000       0.038731         1.0539
  23   0.0000       0.043533         1.1846
  24   0.0000       0.046997         1.2789
  25   0.0000       0.048108         1.3091
  26   0.0000       0.057947         1.5768

MULLIKEN ATOMIC CHARGES
-----------------------
   0 C :    0.630933
   1 H :   -0.158043
   2 H :   -0.158043
   3 C :    0.630933
   4 H :   -0.158043
   5 H :   -0.158043
   6 C :    0.630933
   7 H :   -0.158043
   8 H :   -0.158043
   9 C :   -0.629695
  10 C :   -0.629695
  11 C :    0.630933
  12 H :   -0.158043
  13 H :   -0.158043
Sum of atomic charges:   -0.0000000

LOEWDIN ATOMIC CHARGES
----------------------
   0 C :    0.067282
   1 H :   -0.007450
   2 H :   -0.007450
   3 C :    0.067282
   4 H :   -0.007450
   5 H :   -0.007450
   6 C :    0.067282
   7 H :   -0.007450
   8 H :   -0.007450
   9 C :   -0.104766
  10 C :   -0.104766
  11 C :    0.067282
  12 H :   -0.007450
  13 H :   -0.007450

  Mayer bond orders larger than 0.100000
B(  0-C ,  1-H ) :   0.7073 B(  0-C ,  2-H ) :   0.7073 B(  0-C ,  3-C ) :   1.3016
B(  0-C , 10-C ) :   0.8746 B(  0-C , 11-C ) :   0.1609 B(  1-H ,  2-H ) :  -0.1056
B(  1-H , 10-C ) :   0.1705 B(  2-H , 10-C ) :   0.1705 B(  3-C ,  4-H ) :   0.7073
B(  3-C ,  5-H ) :   0.7073 B(  3-C ,  6-C ) :   0.1609 B(  3-C ,  9-C ) :   0.8746
B(  4-H ,  5-H ) :  -0.1056 B(  4-H ,  9-C ) :   0.1705 B(  5-H ,  9-C ) :   0.1705
B(  6-C ,  7-H ) :   0.7073 B(  6-C ,  8-H ) :   0.7073 B(  6-C ,  9-C ) :   0.8746
B(  6-C , 11-C ) :   1.3016 B(  7-H ,  8-H ) :  -0.1056 B(  7-H ,  9-C ) :   0.1705
B(  8-H ,  9-C ) :   0.1705 B(  9-C , 10-C ) :   2.6436 B( 10-C , 11-C ) :   0.8746
B( 10-C , 12-H ) :   0.1705 B( 10-C , 13-H ) :   0.1705 B( 11-C , 12-H ) :   0.7073
B( 11-C , 13-H ) :   0.7073 B( 12-H , 13-H ) :  -0.1056

MP2 TOTAL ENERGY:     -232.586239803 Eh
FINAL SINGLE POINT ENERGY      -232.586239802845

DIPOLE MOMENT
-------------
                                X             Y             Z
Electronic contribution:     -0.00000      -0.00000       0.00000
Nuclear contribution   :      0.00000       0.00000       0.00000
                        -----------------------------------------
Total Dipole Moment    :     -0.00000      -0.00000       0.00000
                        -----------------------------------------
Magnitude (a.u.)       :      0.00000
Magnitude (Debye)      :      0.00000

Rotational constants in cm-1:     0.280012     0.113125     0.085774
Rotational constants in MHz :  8394.534287  3391.409129  2571.426051

                             ****ORCA TERMINATED NORMALLY****
TOTAL RUN TIME: 0 days 0 hours 0 minutes 35 seconds 716 msec
