                         Program Version 5.0.3 -  RELEASE  -
|  1> !ri-mp2 aug-cc-pvdz aug-cc-pvdz/c tightscf
|  2> %pal nprocs 16 end
|  3>
|  4> * xyz 0 1
|  5> C     -0.252798    0.723681    0.616235
|  6> C      0.252798    1.571360   -0.551646
|  7> C      0.252798   -0.723681    0.616235
|  8> C     -0.252798   -1.571360   -0.551646
|  9> H     -0.104388    2.599202   -0.473491
| 10> H      0.083428   -1.182319   -1.513402
| 11> H     -1.344623   -1.601548   -0.570383
| 12> H     -0.083428    1.182319   -1.513402
| 13> H      0.104388   -2.599202   -0.473491
| 14> H      1.344623    1.601548   -0.570383
| 15> H     -1.347442    0.719895    0.615666
| 16> H      0.047102    1.198634    1.554079
| 17> H      1.347442   -0.719895    0.615666
| 18> H     -0.047102   -1.198634    1.554079
| 19> *
| 20>
| 21>                          ****END OF INPUT****

CARTESIAN COORDINATES (ANGSTROEM)
---------------------------------
  C     -0.252798    0.723681    0.616235
  C      0.252798    1.571360   -0.551646
  C      0.252798   -0.723681    0.616235
  C     -0.252798   -1.571360   -0.551646
  H     -0.104388    2.599202   -0.473491
  H      0.083428   -1.182319   -1.513402
  H     -1.344623   -1.601548   -0.570383
  H     -0.083428    1.182319   -1.513402
  H      0.104388   -2.599202   -0.473491
  H      1.344623    1.601548   -0.570383
  H     -1.347442    0.719895    0.615666
  H      0.047102    1.198634    1.554079
  H      1.347442   -0.719895    0.615666
  H     -0.047102   -1.198634    1.554079

 Total Charge           Charge          ....    0
 Multiplicity           Mult            ....    1
 Number of Electrons    NEL             ....   34
 Basis Dimension        Dim             ....  182

ORBITAL ENERGIES
----------------

  NO   OCC          E(Eh)            E(eV)
   0   2.0000     -11.220787      -305.3331
   1   2.0000     -11.220202      -305.3172
   2   2.0000     -11.214966      -305.1747
   3   2.0000     -11.214965      -305.1747
   4   2.0000      -1.069361       -29.0988
   5   2.0000      -0.976561       -26.5736
   6   2.0000      -0.873494       -23.7690
   7   2.0000      -0.776543       -21.1308
   8   2.0000      -0.621382       -16.9087
   9   2.0000      -0.617750       -16.8098
  10   2.0000      -0.572612       -15.5816
  11   2.0000      -0.532358       -14.4862
  12   2.0000      -0.529800       -14.4166
  13   2.0000      -0.502492       -13.6735
  14   2.0000      -0.461111       -12.5475
  15   2.0000      -0.457060       -12.4372
  16   2.0000      -0.455742       -12.4014
  17   0.0000       0.038295         1.0421
  18   0.0000       0.046240         1.2583
  19   0.0000       0.048352         1.3157
  20   0.0000       0.049362         1.3432
  21   0.0000       0.068483         1.8635

MULLIKEN ATOMIC CHARGES
-----------------------
   0 C :    0.160389
   1 C :    0.386611
   2 C :    0.160389
   3 C :    0.386611
   4 H :   -0.092100
   5 H :   -0.110334
   6 H :   -0.081410
   7 H :   -0.110334
   8 H :   -0.092100
   9 H :   -0.081410
  10 H :   -0.144219
  11 H :   -0.118937
  12 H :   -0.144219
  13 H :   -0.118937
Sum of atomic charges:    0.0000000

LOEWDIN ATOMIC CHARGES
----------------------
   0 C :   -0.077158
   1 C :    0.128028
   2 C :   -0.077158
   3 C :    0.128028
   4 H :   -0.021749
   5 H :   -0.028360
   6 H :   -0.018045
   7 H :   -0.028360
   8 H :   -0.021749
   9 H :   -0.018045
  10 H :    0.009177
  11 H :    0.008107
  12 H :    0.009177
  13 H :    0.008107

  Mayer bond orders larger than 0.100000
B(  0-C ,  1-C ) :   1.2105 B(  0-C ,  2-C ) :   1.3199 B(  0-C , 10-H ) :   0.8391
B(  0-C , 11-H ) :   0.7864 B(  1-C ,  4-H ) :   0.8962 B(  1-C ,  7-H ) :   0.9653
B(  1-C ,  9-H ) :   0.9336 B(  2-C ,  3-C ) :   1.2105 B(  2-C , 12-H ) :   0.8391
B(  2-C , 13-H ) :   0.7864 B(  3-C ,  5-H ) :   0.9653 B(  3-C ,  6-H ) :   0.9336
B(  3-C ,  8-H ) :   0.8962 B( 10-H , 11-H ) :  -0.1033 B( 12-H , 13-H ) :  -0.1033

MP2 TOTAL ENERGY:     -157.924444309 Eh
FINAL SINGLE POINT ENERGY      -157.924444308861

DIPOLE MOMENT
-------------
                                X             Y             Z
Electronic contribution:     -0.00000      -0.00000       0.88887
Nuclear contribution   :      0.00000      -0.00000      -0.85148
                        -----------------------------------------
Total Dipole Moment    :     -0.00000      -0.00000       0.03739
                        -----------------------------------------
Magnitude (a.u.)       :      0.03739
Magnitude (Debye)      :      0.09505

Rotational constants in cm-1:     0.447713     0.156290     0.134036
Rotational constants in MHz : 13422.112160  4685.460288  4018.290901

                             ****ORCA TERMINATED NORMALLY****
TOTAL RUN TIME: 0 days 0 hours 0 minutes 34 seconds 518 msec
