                         Program Version 5.0.3 -  RELEASE  -
|  1> !ri-mp2 aug-cc-pvdz aug-cc-pvdz/c tightscf
|  2> %pal nprocs 16 end
|  3>
|  4> * xyz 0 1
|  5> O      3.189684   -0.076657   -0.064099
|  6> O     -3.189684    0.076659   -0.064103
|  7> C      0.681541   -0.006531   -0.008790
|  8> C     -0.681541    0.006524   -0.008791
|  9> C      1.886110   -0.000033    0.003758
| 10> C     -1.886111    0.000032    0.003757
| 11> H      3.604742    0.550174    0.542991
| 12> H     -3.604744   -0.550143    0.543017
| 13> *
| 14>
| 15>                          ****END OF INPUT****

CARTESIAN COORDINATES (ANGSTROEM)
---------------------------------
  O      3.189684   -0.076657   -0.064099
  O     -3.189684    0.076659   -0.064103
  C      0.681541   -0.006531   -0.008790
  C     -0.681541    0.006524   -0.008791
  C      1.886110   -0.000033    0.003758
  C     -1.886111    0.000032    0.003757
  H      3.604742    0.550174    0.542991
  H     -3.604744   -0.550143    0.543017

 Total Charge           Charge          ....    0
 Multiplicity           Mult            ....    1
 Number of Electrons    NEL             ....   42
 Basis Dimension        Dim             ....  156

ORBITAL ENERGIES
----------------

  NO   OCC          E(Eh)            E(eV)
   0   2.0000     -20.652826      -561.9920
   1   2.0000     -20.652824      -561.9919
   2   2.0000     -11.313995      -307.8694
   3   2.0000     -11.313986      -307.8692
   4   2.0000     -11.252240      -306.1890
   5   2.0000     -11.251034      -306.1562
   6   2.0000      -1.459599       -39.7177
   7   2.0000      -1.459551       -39.7164
   8   2.0000      -1.078913       -29.3587
   9   2.0000      -1.010360       -27.4933
  10   2.0000      -0.858185       -23.3524
  11   2.0000      -0.820559       -22.3285
  12   2.0000      -0.770115       -20.9559
  13   2.0000      -0.675215       -18.3735
  14   2.0000      -0.672482       -18.2992
  15   2.0000      -0.627560       -17.0768
  16   2.0000      -0.627370       -17.0716
  17   2.0000      -0.464143       -12.6300
  18   2.0000      -0.463665       -12.6170
  19   2.0000      -0.336403        -9.1540
  20   2.0000      -0.335587        -9.1318
  21   0.0000       0.027159         0.7390
  22   0.0000       0.030520         0.8305
  23   0.0000       0.087948         2.3932
  24   0.0000       0.091416         2.4876
  25   0.0000       0.098397         2.6775

MULLIKEN ATOMIC CHARGES
-----------------------
   0 O :   -0.550999
   1 O :   -0.550999
   2 C :    1.778016
   3 C :    1.778002
   4 C :   -1.372464
   5 C :   -1.372450
   6 H :    0.145447
   7 H :    0.145447
Sum of atomic charges:    0.0000000

LOEWDIN ATOMIC CHARGES
----------------------
   0 O :    0.189904
   1 O :    0.189903
   2 C :   -0.085276
   3 C :   -0.085276
   4 C :   -0.089819
   5 C :   -0.089820
   6 H :   -0.014808
   7 H :   -0.014807

  Mayer bond orders larger than 0.100000
B(  0-O ,  2-C ) :  -0.3213 B(  0-O ,  4-C ) :   0.8863 B(  0-O ,  6-H ) :   1.0129
B(  1-O ,  3-C ) :  -0.3213 B(  1-O ,  5-C ) :   0.8863 B(  1-O ,  7-H ) :   1.0129
B(  2-C ,  3-C ) :   1.2487 B(  2-C ,  4-C ) :   0.6021 B(  2-C ,  5-C ) :  -0.8962
B(  3-C ,  4-C ) :  -0.8962 B(  3-C ,  5-C ) :   0.6021 B(  4-C ,  5-C ) :   0.9647
B(  4-C ,  6-H ) :   0.1299 B(  5-C ,  7-H ) :   0.1299

MP2 TOTAL ENERGY:     -303.132717876 Eh
FINAL SINGLE POINT ENERGY      -303.132717876463

DIPOLE MOMENT
-------------
                                X             Y             Z
Electronic contribution:     -0.00000      -0.00001      -0.19250
Nuclear contribution   :     -0.00000       0.00003       1.04199
                        -----------------------------------------
Total Dipole Moment    :     -0.00000       0.00002       0.84949
                        -----------------------------------------
Magnitude (a.u.)       :      0.84949
Magnitude (Debye)      :      2.15924

Rotational constants in cm-1:    11.400909     0.037536     0.037531
Rotational constants in MHz : 341790.640996  1125.292412  1125.165354

                             ****ORCA TERMINATED NORMALLY****
TOTAL RUN TIME: 0 days 0 hours 0 minutes 18 seconds 517 msec
