                         Program Version 5.0.3 -  RELEASE  -
|  1> !ri-mp2 aug-cc-pvdz aug-cc-pvdz/c tightscf
|  2> %pal nprocs 16 end
|  3>
|  4> * xyz 0 1
|  5> C      2.295875   -0.194875    0.152817
|  6> C      1.760211    1.086177    0.147384
|  7> C      1.459304   -1.293258   -0.029852
|  8> C      0.392585    1.267430   -0.038587
|  9> C      0.097012   -1.108725   -0.219163
| 10> C     -0.452614    0.175941   -0.226405
| 11> C     -1.935484    0.370754   -0.429766
| 12> O     -2.736278   -0.345146    0.513236
| 13> H      3.357833   -0.339687    0.298826
| 14> H      2.403036    1.944269    0.291616
| 15> H      1.872130   -2.293318   -0.028077
| 16> H     -0.021144    2.268461   -0.038507
| 17> H     -0.552474   -1.963339   -0.357038
| 18> H     -2.174626    1.438864   -0.408291
| 19> H     -2.241931   -0.013856   -1.403463
| 20> H     -2.453932   -0.100885    1.400478
| 21> *
| 22>
| 23>                          ****END OF INPUT****

CARTESIAN COORDINATES (ANGSTROEM)
---------------------------------
  C      2.295875   -0.194875    0.152817
  C      1.760211    1.086177    0.147384
  C      1.459304   -1.293258   -0.029852
  C      0.392585    1.267430   -0.038587
  C      0.097012   -1.108725   -0.219163
  C     -0.452614    0.175941   -0.226405
  C     -1.935484    0.370754   -0.429766
  O     -2.736278   -0.345146    0.513236
  H      3.357833   -0.339687    0.298826
  H      2.403036    1.944269    0.291616
  H      1.872130   -2.293318   -0.028077
  H     -0.021144    2.268461   -0.038507
  H     -0.552474   -1.963339   -0.357038
  H     -2.174626    1.438864   -0.408291
  H     -2.241931   -0.013856   -1.403463
  H     -2.453932   -0.100885    1.400478

 Total Charge           Charge          ....    0
 Multiplicity           Mult            ....    1
 Number of Electrons    NEL             ....   58
 Basis Dimension        Dim             ....  256

ORBITAL ENERGIES
----------------

  NO   OCC          E(Eh)            E(eV)
   0   2.0000     -20.570052      -559.7396
   1   2.0000     -11.290006      -307.2167
   2   2.0000     -11.247185      -306.0515
   3   2.0000     -11.244940      -305.9904
   4   2.0000     -11.244201      -305.9703
   5   2.0000     -11.243638      -305.9549
   6   2.0000     -11.242709      -305.9297
   7   2.0000     -11.240838      -305.8788
   8   2.0000      -1.363443       -37.1012
   9   2.0000      -1.162114       -31.6227
  10   2.0000      -1.044667       -28.4268
  11   2.0000      -1.022250       -27.8168
  12   2.0000      -0.925266       -25.1778
  13   2.0000      -0.834780       -22.7155
  14   2.0000      -0.809561       -22.0293
  15   2.0000      -0.713904       -19.4263
  16   2.0000      -0.683073       -18.5874
  17   2.0000      -0.650107       -17.6903
  18   2.0000      -0.623164       -16.9572
  19   2.0000      -0.607842       -16.5402
  20   2.0000      -0.596315       -16.2266
  21   2.0000      -0.588859       -16.0237
  22   2.0000      -0.535375       -14.5683
  23   2.0000      -0.505847       -13.7648
  24   2.0000      -0.498874       -13.5751
  25   2.0000      -0.482890       -13.1401
  26   2.0000      -0.452229       -12.3058
  27   2.0000      -0.341668        -9.2973
  28   2.0000      -0.335745        -9.1361
  29   0.0000       0.033210         0.9037
  30   0.0000       0.040185         1.0935
  31   0.0000       0.043508         1.1839
  32   0.0000       0.053892         1.4665
  33   0.0000       0.056126         1.5273

MULLIKEN ATOMIC CHARGES
-----------------------
   0 C :    0.394385
   1 C :    0.303781
   2 C :    0.379134
   3 C :    0.580036
   4 C :    0.171917
   5 C :    0.497180
   6 C :    1.045771
   7 O :   -0.701313
   8 H :   -0.440072
   9 H :   -0.450483
  10 H :   -0.452207
  11 H :   -0.570777
  12 H :   -0.553888
  13 H :   -0.246077
  14 H :   -0.111608
  15 H :    0.154221
Sum of atomic charges:   -0.0000000

LOEWDIN ATOMIC CHARGES
----------------------
   0 C :    0.006613
   1 C :    0.008881
   2 C :    0.011938
   3 C :    0.036849
   4 C :    0.049390
   5 C :   -0.187185
   6 C :   -0.009452
   7 O :    0.112632
   8 H :   -0.000914
   9 H :   -0.000415
  10 H :    0.000310
  11 H :    0.002723
  12 H :    0.012390
  13 H :    0.003994
  14 H :    0.010693
  15 H :   -0.058445

  Mayer bond orders larger than 0.100000
B(  0-C ,  1-C ) :   1.7974 B(  0-C ,  2-C ) :   1.7913 B(  0-C ,  5-C ) :   0.2465
B(  0-C ,  8-H ) :   0.3160 B(  0-C ,  9-H ) :   0.1935 B(  0-C , 10-H ) :   0.2048
B(  1-C ,  2-C ) :  -0.1172 B(  1-C ,  3-C ) :   1.5772 B(  1-C ,  4-C ) :   0.1545
B(  1-C ,  5-C ) :  -0.3474 B(  1-C ,  6-C ) :   0.3971 B(  1-C ,  8-H ) :   0.2059
B(  1-C ,  9-H ) :   0.2910 B(  1-C , 10-H ) :  -0.1008 B(  1-C , 11-H ) :   0.1818
B(  2-C ,  4-C ) :   2.0384 B(  2-C ,  5-C ) :  -0.4337 B(  2-C ,  6-C ) :   0.2338
B(  2-C ,  8-H ) :   0.2210 B(  2-C , 10-H ) :   0.2086 B(  2-C , 12-H ) :   0.2303
B(  3-C ,  4-C ) :  -0.5971 B(  3-C ,  5-C ) :   1.9616 B(  3-C ,  6-C ) :  -0.4004
B(  3-C ,  9-H ) :   0.2633 B(  4-C ,  5-C ) :   1.4357 B(  4-C ,  6-C ) :  -0.4428
B(  4-C , 10-H ) :   0.3834 B(  4-C , 12-H ) :   0.1623 B(  5-C ,  6-C ) :   1.4100
B(  5-C ,  7-O ) :   0.2047 B(  5-C , 11-H ) :   0.4842 B(  5-C , 12-H ) :   0.2973
B(  5-C , 13-H ) :   0.3698 B(  5-C , 14-H ) :   0.1073 B(  6-C ,  7-O ) :   0.4813
B(  6-C , 13-H ) :   0.6263 B(  6-C , 14-H ) :   0.9279 B(  7-O , 15-H ) :   1.0483

MP2 TOTAL ENERGY:     -345.792068524 Eh
FINAL SINGLE POINT ENERGY      -345.792068524182

DIPOLE MOMENT
-------------
                                X             Y             Z
Electronic contribution:      0.38768      -0.56277       0.35830
Nuclear contribution   :      0.14682       0.94188      -0.23809
                        -----------------------------------------
Total Dipole Moment    :      0.53450       0.37912       0.12022
                        -----------------------------------------
Magnitude (a.u.)       :      0.66624
Magnitude (Debye)      :      1.69345

Rotational constants in cm-1:     0.159517     0.048877     0.039632
Rotational constants in MHz :  4782.193647  1465.305170  1188.140529

                             ****ORCA TERMINATED NORMALLY****
TOTAL RUN TIME: 0 days 0 hours 1 minutes 5 seconds 593 msec
