                         Program Version 5.0.3 -  RELEASE  -
|  1> !ri-mp2 aug-cc-pvdz aug-cc-pvdz/c tightscf
|  2> %pal nprocs 16 end
|  3>
|  4> * xyz 0 1
|  5> C      2.419842   -0.781506        0.000000
|  6> C      2.384977    0.620139        0.000000
|  7> C      1.250934   -1.517608        0.000000
|  8> C      1.179130    1.298960        0.000000
|  9> C     -1.312092   -1.405181        0.000000
| 10> C     -2.275718   -0.456495        0.000000
| 11> C      0.014337   -0.856085        0.000000
| 12> C      0.000000    0.556152        0.000000
| 13> S     -1.639275    1.165435        0.000000
| 14> H      3.374674   -1.289610        0.000000
| 15> H      3.311216    1.178597        0.000000
| 16> H      1.282913   -2.599422        0.000000
| 17> H      1.154241    2.380060        0.000000
| 18> H     -1.519954   -2.465202        0.000000
| 19> H     -3.343153   -0.601646        0.000000
| 20> *
| 21>
| 22>                          ****END OF INPUT****

CARTESIAN COORDINATES (ANGSTROEM)
---------------------------------
  C      2.419842   -0.781506    0.000000
  C      2.384977    0.620139    0.000000
  C      1.250934   -1.517608    0.000000
  C      1.179130    1.298960    0.000000
  C     -1.312092   -1.405181    0.000000
  C     -2.275718   -0.456495    0.000000
  C      0.014337   -0.856085    0.000000
  C      0.000000    0.556152    0.000000
  S     -1.639275    1.165435    0.000000
  H      3.374674   -1.289610    0.000000
  H      3.311216    1.178597    0.000000
  H      1.282913   -2.599422    0.000000
  H      1.154241    2.380060    0.000000
  H     -1.519954   -2.465202    0.000000
  H     -3.343153   -0.601646    0.000000

 Total Charge           Charge          ....    0
 Multiplicity           Mult            ....    1
 Number of Electrons    NEL             ....   70
 Basis Dimension        Dim             ....  265

ORBITAL ENERGIES
----------------

  NO   OCC          E(Eh)            E(eV)
   0   2.0000     -91.982002     -2502.9575
   1   2.0000     -11.276685      -306.8542
   2   2.0000     -11.274778      -306.8023
   3   2.0000     -11.252678      -306.2009
   4   2.0000     -11.250495      -306.1415
   5   2.0000     -11.248647      -306.0912
   6   2.0000     -11.247730      -306.0663
   7   2.0000     -11.245721      -306.0116
   8   2.0000     -11.243022      -305.9382
   9   2.0000      -8.984539      -244.4817
  10   2.0000      -6.666251      -181.3979
  11   2.0000      -6.665375      -181.3741
  12   2.0000      -6.663316      -181.3181
  13   2.0000      -1.196997       -32.5719
  14   2.0000      -1.118906       -30.4470
  15   2.0000      -1.046344       -28.4725
  16   2.0000      -0.993882       -27.0449
  17   2.0000      -0.963770       -26.2255
  18   2.0000      -0.844494       -22.9799
  19   2.0000      -0.802392       -21.8342
  20   2.0000      -0.776145       -21.1200
  21   2.0000      -0.690008       -18.7761
  22   2.0000      -0.663141       -18.0450
  23   2.0000      -0.642500       -17.4833
  24   2.0000      -0.600318       -16.3355
  25   2.0000      -0.598004       -16.2725
  26   2.0000      -0.549852       -14.9622
  27   2.0000      -0.546367       -14.8674
  28   2.0000      -0.514369       -13.9967
  29   2.0000      -0.502637       -13.6775
  30   2.0000      -0.468025       -12.7356
  31   2.0000      -0.458454       -12.4752
  32   2.0000      -0.389688       -10.6040
  33   2.0000      -0.318494        -8.6667
  34   2.0000      -0.300571        -8.1790
  35   0.0000       0.035117         0.9556
  36   0.0000       0.036741         0.9998
  37   0.0000       0.042695         1.1618
  38   0.0000       0.051846         1.4108
  39   0.0000       0.058005         1.5784

MULLIKEN ATOMIC CHARGES
-----------------------
   0 C :    0.283777
   1 C :    0.368112
   2 C :    0.974367
   3 C :    0.078541
   4 C :    0.332665
   5 C :   -0.230763
   6 C :    0.401808
   7 C :    0.040385
   8 S :    0.461832
   9 H :   -0.465797
  10 H :   -0.451938
  11 H :   -0.519425
  12 H :   -0.448654
  13 H :   -0.441421
  14 H :   -0.383490
Sum of atomic charges:   -0.0000000

LOEWDIN ATOMIC CHARGES
----------------------
   0 C :    0.006286
   1 C :    0.004607
   2 C :    0.049703
   3 C :   -0.013070
   4 C :   -0.043765
   5 C :   -0.267708
   6 C :   -0.240034
   7 C :   -0.421281
   8 S :    0.975850
   9 H :   -0.001491
  10 H :   -0.001028
  11 H :    0.005792
  12 H :   -0.000994
  13 H :   -0.000840
  14 H :   -0.052026

  Mayer bond orders larger than 0.100000
B(  0-C ,  1-C ) :   1.7517 B(  0-C ,  2-C ) :   1.4991 B(  0-C ,  4-C ) :   0.3556
B(  0-C ,  6-C ) :  -0.2637 B(  0-C ,  7-C ) :   0.1947 B(  0-C ,  9-H ) :   0.2807
B(  0-C , 10-H ) :   0.2296 B(  0-C , 11-H ) :   0.1564 B(  1-C ,  3-C ) :   1.9259
B(  1-C ,  6-C ) :   0.1227 B(  1-C ,  7-C ) :  -0.1682 B(  1-C ,  9-H ) :   0.1759
B(  1-C , 10-H ) :   0.2849 B(  1-C , 11-H ) :  -0.1030 B(  1-C , 12-H ) :   0.1272
B(  2-C ,  4-C ) :  -0.7792 B(  2-C ,  5-C ) :   0.4497 B(  2-C ,  6-C ) :   2.0761
B(  2-C ,  7-C ) :  -0.9229 B(  2-C ,  9-H ) :   0.2413 B(  2-C , 11-H ) :  -0.1668
B(  3-C ,  4-C ) :   0.5266 B(  3-C ,  5-C ) :   0.1990 B(  3-C ,  6-C ) :  -0.4623
B(  3-C ,  7-C ) :   1.7766 B(  3-C ,  8-S ) :  -0.2787 B(  3-C , 10-H ) :   0.2247
B(  3-C , 12-H ) :   0.1053 B(  4-C ,  5-C ) :   1.9506 B(  4-C ,  6-C ) :   1.2915
B(  4-C ,  7-C ) :  -0.5858 B(  4-C ,  8-S ) :   0.1485 B(  4-C , 13-H ) :   0.2759
B(  4-C , 14-H ) :   0.1957 B(  5-C ,  6-C ) :  -0.1039 B(  5-C ,  7-C ) :  -0.4855
B(  5-C ,  8-S ) :   0.6237 B(  5-C , 14-H ) :   0.7759 B(  6-C ,  7-C ) :   2.4292
B(  6-C , 11-H ) :   0.7830 B(  6-C , 13-H ) :   0.4728 B(  7-C ,  8-S ) :   0.8731
B(  7-C , 12-H ) :   0.5474 B(  8-S , 14-H ) :  -0.1559

MP2 TOTAL ENERGY:     -705.219531674 Eh
FINAL SINGLE POINT ENERGY      -705.219531673544

DIPOLE MOMENT
-------------
                                X             Y             Z
Electronic contribution:     -4.13258       3.00357       0.00000
Nuclear contribution   :      4.22280      -3.36332       0.00000
                        -----------------------------------------
Total Dipole Moment    :      0.09022      -0.35975       0.00000
                        -----------------------------------------
Magnitude (a.u.)       :      0.37089
Magnitude (Debye)      :      0.94273

Rotational constants in cm-1:     0.105510     0.043608     0.030855
Rotational constants in MHz :  3163.105964  1307.346647   925.024004

                             ****ORCA TERMINATED NORMALLY****
TOTAL RUN TIME: 0 days 0 hours 1 minutes 22 seconds 568 msec
