                         Program Version 5.0.3 -  RELEASE  -
|  1> !ri-mp2 aug-cc-pvdz aug-cc-pvdz/c tightscf
|  2> %pal nprocs 16 end
|  3>
|  4> * xyz 0 1
|  5> C     -0.244446   -0.536702    0.764733
|  6> C     -0.244446   -0.536702   -0.764733
|  7> C     -0.244446    0.993902    0.781471
|  8> C     -0.244446    0.993902   -0.781471
|  9> C      0.939024   -1.048468    0.000000
| 10> H     -0.797183   -1.171910    1.441963
| 11> H     -0.797183   -1.171910   -1.441963
| 12> H      0.607058    1.464190    1.277074
| 13> H      0.607058    1.464190   -1.277074
| 14> H     -1.160667    1.417563    1.188390
| 15> H     -1.160667    1.417563   -1.188390
| 16> H      1.871038   -0.492128    0.000000
| 17> H      1.063120   -2.123147    0.000000
| 18> *
| 19>
| 20>                          ****END OF INPUT****

CARTESIAN COORDINATES (ANGSTROEM)
---------------------------------
  C     -0.244446   -0.536702    0.764733
  C     -0.244446   -0.536702   -0.764733
  C     -0.244446    0.993902    0.781471
  C     -0.244446    0.993902   -0.781471
  C      0.939024   -1.048468    0.000000
  H     -0.797183   -1.171910    1.441963
  H     -0.797183   -1.171910   -1.441963
  H      0.607058    1.464190    1.277074
  H      0.607058    1.464190   -1.277074
  H     -1.160667    1.417563    1.188390
  H     -1.160667    1.417563   -1.188390
  H      1.871038   -0.492128    0.000000
  H      1.063120   -2.123147    0.000000

 Total Charge           Charge          ....    0
 Multiplicity           Mult            ....    1
 Number of Electrons    NEL             ....   38
 Basis Dimension        Dim             ....  187

ORBITAL ENERGIES
----------------

  NO   OCC          E(Eh)            E(eV)
   0   2.0000     -11.231303      -305.6193
   1   2.0000     -11.230646      -305.6014
   2   2.0000     -11.226808      -305.4970
   3   2.0000     -11.226269      -305.4823
   4   2.0000     -11.225756      -305.4684
   5   2.0000      -1.186203       -32.2782
   6   2.0000      -0.981377       -26.7046
   7   2.0000      -0.888416       -24.1750
   8   2.0000      -0.797270       -21.6948
   9   2.0000      -0.726904       -19.7801
  10   2.0000      -0.685895       -18.6641
  11   2.0000      -0.609402       -16.5827
  12   2.0000      -0.595532       -16.2052
  13   2.0000      -0.531378       -14.4595
  14   2.0000      -0.520148       -14.1540
  15   2.0000      -0.463694       -12.6177
  16   2.0000      -0.458908       -12.4875
  17   2.0000      -0.402932       -10.9643
  18   2.0000      -0.371010       -10.0957
  19   0.0000       0.036904         1.0042
  20   0.0000       0.046608         1.2683
  21   0.0000       0.047027         1.2797
  22   0.0000       0.047956         1.3049
  23   0.0000       0.066533         1.8105

MULLIKEN ATOMIC CHARGES
-----------------------
   0 C :    0.303389
   1 C :    0.303389
   2 C :    0.507267
   3 C :    0.507267
   4 C :    0.857597
   5 H :   -0.446334
   6 H :   -0.446334
   7 H :   -0.214011
   8 H :   -0.214011
   9 H :   -0.195986
  10 H :   -0.195986
  11 H :   -0.402963
  12 H :   -0.363286
Sum of atomic charges:   -0.0000000

LOEWDIN ATOMIC CHARGES
----------------------
   0 C :   -0.092641
   1 C :   -0.092641
   2 C :    0.041179
   3 C :    0.041179
   4 C :    0.068582
   5 H :    0.010300
   6 H :    0.010300
   7 H :    0.000720
   8 H :    0.000720
   9 H :    0.002999
  10 H :    0.002999
  11 H :    0.003646
  12 H :    0.002659

  Mayer bond orders larger than 0.100000
B(  0-C ,  1-C ) :   1.0093 B(  0-C ,  2-C ) :   1.2180 B(  0-C ,  4-C ) :   1.0106
B(  0-C ,  5-H ) :   0.5600 B(  0-C ,  6-H ) :   0.1313 B(  1-C ,  3-C ) :   1.2180
B(  1-C ,  4-C ) :   1.0106 B(  1-C ,  5-H ) :   0.1313 B(  1-C ,  6-H ) :   0.5600
B(  2-C ,  3-C ) :   1.1926 B(  2-C ,  7-H ) :   0.7682 B(  2-C ,  9-H ) :   0.7565
B(  3-C ,  8-H ) :   0.7682 B(  3-C , 10-H ) :   0.7565 B(  4-C , 11-H ) :   0.7217
B(  4-C , 12-H ) :   0.7415 B(  7-H ,  9-H ) :  -0.1568 B(  8-H , 10-H ) :  -0.1568
B( 11-H , 12-H ) :  -0.1801

MP2 TOTAL ENERGY:     -194.663427714 Eh
FINAL SINGLE POINT ENERGY      -194.663427714179

DIPOLE MOMENT
-------------
                                X             Y             Z
Electronic contribution:     -0.33870      -0.86963      -0.00000
Nuclear contribution   :      0.24366       0.84276       0.00000
                        -----------------------------------------
Total Dipole Moment    :     -0.09504      -0.02686      -0.00000
                        -----------------------------------------
Magnitude (a.u.)       :      0.09876
Magnitude (Debye)      :      0.25103

Rotational constants in cm-1:     0.306317     0.203983     0.159486
Rotational constants in MHz :  9183.148758  6115.264763  4781.267908

                             ****ORCA TERMINATED NORMALLY****
TOTAL RUN TIME: 0 days 0 hours 0 minutes 36 seconds 964 msec
