                         Program Version 5.0.3 -  RELEASE  -
|  1> !ri-mp2 aug-cc-pvdz aug-cc-pvdz/c tightscf
|  2> %pal nprocs 16 end
|  3>
|  4> * xyz 0 1
|  5> C      2.784969   -0.371669   -0.128185
|  6> C      1.353327   -0.290285    0.397998
|  7> C      0.523956    0.782957   -0.309707
|  8> C     -0.898001    0.948281    0.219480
|  9> S     -1.902817   -0.567172   -0.109965
| 10> H      3.355821   -1.140150    0.394167
| 11> H      3.309752    0.577267    0.001618
| 12> H      2.800602   -0.614167   -1.192643
| 13> H      1.367691   -0.079826    1.471581
| 14> H      0.869424   -1.263165    0.287020
| 15> H      0.488279    0.573674   -1.382567
| 16> H      1.026483    1.749510   -0.202216
| 17> H     -0.887504    1.133147    1.293120
| 18> H     -1.385788    1.786314   -0.273539
| 19> H     -3.085182   -0.063565    0.285377
| 20> *
| 21>
| 22>                          ****END OF INPUT****

CARTESIAN COORDINATES (ANGSTROEM)
---------------------------------
  C      2.784969   -0.371669   -0.128185
  C      1.353327   -0.290285    0.397998
  C      0.523956    0.782957   -0.309707
  C     -0.898001    0.948281    0.219480
  S     -1.902817   -0.567172   -0.109965
  H      3.355821   -1.140150    0.394167
  H      3.309752    0.577267    0.001618
  H      2.800602   -0.614167   -1.192643
  H      1.367691   -0.079826    1.471581
  H      0.869424   -1.263165    0.287020
  H      0.488279    0.573674   -1.382567
  H      1.026483    1.749510   -0.202216
  H     -0.887504    1.133147    1.293120
  H     -1.385788    1.786314   -0.273539
  H     -3.085182   -0.063565    0.285377

 Total Charge           Charge          ....    0
 Multiplicity           Mult            ....    1
 Number of Electrons    NEL             ....   50
 Basis Dimension        Dim             ....  209

ORBITAL ENERGIES
----------------

  NO   OCC          E(Eh)            E(eV)
   0   2.0000     -91.950111     -2502.0897
   1   2.0000     -11.266801      -306.5852
   2   2.0000     -11.235485      -305.7331
   3   2.0000     -11.226881      -305.4990
   4   2.0000     -11.220676      -305.3301
   5   2.0000      -8.951694      -243.5880
   6   2.0000      -6.633809      -180.5151
   7   2.0000      -6.632446      -180.4780
   8   2.0000      -6.630343      -180.4208
   9   2.0000      -1.093821       -29.7644
  10   2.0000      -1.021030       -27.7836
  11   2.0000      -0.934176       -25.4202
  12   2.0000      -0.846462       -23.0334
  13   2.0000      -0.786097       -21.3908
  14   2.0000      -0.647256       -17.6127
  15   2.0000      -0.614531       -16.7222
  16   2.0000      -0.594952       -16.1895
  17   2.0000      -0.571338       -15.5469
  18   2.0000      -0.527516       -14.3544
  19   2.0000      -0.514128       -13.9901
  20   2.0000      -0.484324       -13.1791
  21   2.0000      -0.476976       -12.9792
  22   2.0000      -0.469539       -12.7768
  23   2.0000      -0.437513       -11.9053
  24   2.0000      -0.351973        -9.5777
  25   0.0000       0.035748         0.9728
  26   0.0000       0.042234         1.1492
  27   0.0000       0.047683         1.2975
  28   0.0000       0.050303         1.3688
  29   0.0000       0.063012         1.7147

MULLIKEN ATOMIC CHARGES
-----------------------
   0 C :    0.440751
   1 C :    0.162569
   2 C :    0.214229
   3 C :    0.091506
   4 S :    0.152898
   5 H :   -0.079748
   6 H :   -0.086633
   7 H :   -0.071997
   8 H :   -0.156076
   9 H :   -0.155330
  10 H :   -0.197186
  11 H :   -0.131797
  12 H :   -0.138728
  13 H :   -0.122212
  14 H :    0.077754
Sum of atomic charges:    0.0000000

LOEWDIN ATOMIC CHARGES
----------------------
   0 C :    0.131288
   1 C :   -0.089820
   2 C :   -0.112381
   3 C :   -0.301784
   4 S :    0.709926
   5 H :   -0.020808
   6 H :   -0.020413
   7 H :   -0.018959
   8 H :    0.011627
   9 H :   -0.007049
  10 H :    0.009989
  11 H :    0.014652
  12 H :   -0.035043
  13 H :   -0.036287
  14 H :   -0.234937

  Mayer bond orders larger than 0.100000
B(  0-C ,  1-C ) :   1.1983 B(  0-C ,  5-H ) :   0.9105 B(  0-C ,  6-H ) :   0.9287
B(  0-C ,  7-H ) :   0.9337 B(  1-C ,  2-C ) :   1.2189 B(  1-C ,  8-H ) :   0.8051
B(  1-C ,  9-H ) :   0.7937 B(  2-C ,  3-C ) :   1.2406 B(  2-C ,  4-S ) :  -0.1301
B(  2-C , 10-H ) :   0.8572 B(  2-C , 11-H ) :   0.7650 B(  2-C , 13-H ) :   0.1538
B(  3-C ,  4-S ) :   1.1604 B(  3-C , 12-H ) :   0.9378 B(  3-C , 13-H ) :   0.8938
B(  4-S , 14-H ) :   0.9630

MP2 TOTAL ENERGY:     -555.596438005 Eh
FINAL SINGLE POINT ENERGY      -555.596438004633

DIPOLE MOMENT
-------------
                                X             Y             Z
Electronic contribution:     -8.06051      -2.15221      -0.50167
Nuclear contribution   :      8.24488       2.78694       0.71358
                        -----------------------------------------
Total Dipole Moment    :      0.18438       0.63473       0.21191
                        -----------------------------------------
Magnitude (a.u.)       :      0.69410
Magnitude (Debye)      :      1.76426

Rotational constants in cm-1:     0.310060     0.055798     0.050659
Rotational constants in MHz :  9295.369299  1672.775156  1518.704158

                             ****ORCA TERMINATED NORMALLY****
TOTAL RUN TIME: 0 days 0 hours 0 minutes 38 seconds 944 msec
