                         Program Version 5.0.3 -  RELEASE  -
|  1> !ri-mp2 aug-cc-pvdz aug-cc-pvdz/c tightscf
|  2> %pal nprocs 16 end
|  3>
|  4> * xyz 0 1
|  5> C     -2.731329   -0.188210    0.027569
|  6> H     -2.896131   -0.208886    1.106914
|  7> H     -3.510969    0.433548   -0.413737
|  8> H     -2.869306   -1.205115   -0.346583
|  9> C     -1.343418    0.351342   -0.308883
| 10> H     -1.217269    0.398690   -1.393390
| 11> H     -1.233985    1.372797    0.054840
| 12> C     -0.221272   -0.497474    0.289364
| 13> H     -0.261557   -1.517699   -0.100776
| 14> H     -0.357479   -0.572869    1.373168
| 15> N      2.159806   -0.790578   -0.170020
| 16> H      3.099748   -0.446011   -0.265813
| 17> H      1.999084   -1.780108   -0.196024
| 18> C      1.158613    0.105753    0.066900
| 19> O      1.369207    1.303904    0.115231
| 20> *
| 21>
| 22>                          ****END OF INPUT****

CARTESIAN COORDINATES (ANGSTROEM)
---------------------------------
  C     -2.731329   -0.188210    0.027569
  H     -2.896131   -0.208886    1.106914
  H     -3.510969    0.433548   -0.413737
  H     -2.869306   -1.205115   -0.346583
  C     -1.343418    0.351342   -0.308883
  H     -1.217269    0.398690   -1.393390
  H     -1.233985    1.372797    0.054840
  C     -0.221272   -0.497474    0.289364
  H     -0.261557   -1.517699   -0.100776
  H     -0.357479   -0.572869    1.373168
  N      2.159806   -0.790578   -0.170020
  H      3.099748   -0.446011   -0.265813
  H      1.999084   -1.780108   -0.196024
  C      1.158613    0.105753    0.066900
  O      1.369207    1.303904    0.115231

 Total Charge           Charge          ....    0
 Multiplicity           Mult            ....    1
 Number of Electrons    NEL             ....   48
 Basis Dimension        Dim             ....  219

ORBITAL ENERGIES
----------------

  NO   OCC          E(Eh)            E(eV)
   0   2.0000     -20.526099      -558.5435
   1   2.0000     -15.592366      -424.2899
   2   2.0000     -11.357949      -309.0655
   3   2.0000     -11.245218      -305.9979
   4   2.0000     -11.229478      -305.5696
   5   2.0000     -11.223513      -305.4073
   6   2.0000      -1.383672       -37.6516
   7   2.0000      -1.212753       -33.0007
   8   2.0000      -1.074246       -29.2317
   9   2.0000      -0.964862       -26.2552
  10   2.0000      -0.836994       -22.7758
  11   2.0000      -0.783042       -21.3076
  12   2.0000      -0.723364       -19.6837
  13   2.0000      -0.671712       -18.2782
  14   2.0000      -0.637792       -17.3552
  15   2.0000      -0.601662       -16.3721
  16   2.0000      -0.586491       -15.9592
  17   2.0000      -0.563147       -15.3240
  18   2.0000      -0.526632       -14.3304
  19   2.0000      -0.503411       -13.6985
  20   2.0000      -0.483498       -13.1567
  21   2.0000      -0.475822       -12.9478
  22   2.0000      -0.418826       -11.3968
  23   2.0000      -0.412779       -11.2323
  24   0.0000       0.027885         0.7588
  25   0.0000       0.040679         1.1069
  26   0.0000       0.048934         1.3316
  27   0.0000       0.050242         1.3672
  28   0.0000       0.064027         1.7423

MULLIKEN ATOMIC CHARGES
-----------------------
   0 C :    0.461925
   1 H :   -0.073306
   2 H :   -0.064785
   3 H :   -0.082778
   4 C :    0.203866
   5 H :   -0.163491
   6 H :   -0.120325
   7 C :    0.200930
   8 H :   -0.184593
   9 H :   -0.008640
  10 N :   -0.190658
  11 H :   -0.040073
  12 H :   -0.029444
  13 C :    0.890435
  14 O :   -0.799064
Sum of atomic charges:   -0.0000000

LOEWDIN ATOMIC CHARGES
----------------------
   0 C :    0.133313
   1 H :   -0.019181
   2 H :   -0.019613
   3 H :   -0.020869
   4 C :   -0.060924
   5 H :    0.016565
   6 H :    0.012607
   7 C :    0.023757
   8 H :    0.012344
   9 H :    0.028190
  10 N :    0.268708
  11 H :   -0.007411
  12 H :   -0.024049
  13 C :   -0.360753
  14 O :    0.017317

  Mayer bond orders larger than 0.100000
B(  0-C ,  1-H ) :   0.9488 B(  0-C ,  2-H ) :   0.9136 B(  0-C ,  3-H ) :   0.9264
B(  0-C ,  4-C ) :   1.2123 B(  4-C ,  5-H ) :   0.7973 B(  4-C ,  6-H ) :   0.8349
B(  4-C ,  7-C ) :   1.2422 B(  7-C ,  8-H ) :   0.7627 B(  7-C ,  9-H ) :   0.9014
B(  7-C , 13-C ) :   0.9481 B( 10-N , 11-H ) :   1.1118 B( 10-N , 12-H ) :   1.0940
B( 10-N , 13-C ) :   0.8768 B( 13-C , 14-O ) :   1.3646

MP2 TOTAL ENERGY:     -287.043909811 Eh
FINAL SINGLE POINT ENERGY      -287.043909810919

DIPOLE MOMENT
-------------
                                X             Y             Z
Electronic contribution:      7.37867       2.08767       0.10819
Nuclear contribution   :     -7.46411      -3.63162      -0.18685
                        -----------------------------------------
Total Dipole Moment    :     -0.08544      -1.54395      -0.07866
                        -----------------------------------------
Magnitude (a.u.)       :      1.54831
Magnitude (Debye)      :      3.93550

Rotational constants in cm-1:     0.286145     0.060804     0.052762
Rotational constants in MHz :  8578.396467  1822.843819  1581.776498

                             ****ORCA TERMINATED NORMALLY****
TOTAL RUN TIME: 0 days 0 hours 0 minutes 39 seconds 697 msec
