                         Program Version 5.0.3 -  RELEASE  -
|  1> !ri-mp2 aug-cc-pvdz aug-cc-pvdz/c tightscf
|  2> %pal nprocs 16 end
|  3> %maxcore 3800
|  4>
|  5> * xyz 0 1
|  6> C    -2.229408    1.746979    0.000000
|  7> C     2.627632    1.057235    0.000000
|  8> C    -0.398224   -2.804213    0.000000
|  9> C    -1.554337    2.916926    0.000000
| 10> C     3.303300   -0.112368    0.000000
| 11> C    -1.748963   -2.804558    0.000000
| 12> C    -1.230229    0.713698    0.000000
| 13> C     1.233195    0.708561    0.000000
| 14> C    -0.002966   -1.422258    0.000000
| 15> C     0.000000    1.375748    0.000000
| 16> C     1.191433   -0.687874    0.000000
| 17> C    -1.191433   -0.687874    0.000000
| 18> O    -0.195326    2.723963    0.000000
| 19> O     2.456685   -1.192825    0.000000
| 20> O    -2.261359   -1.531139    0.000000
| 21> H    -3.298343    1.627719    0.000000
| 22> H     3.058818    2.042589    0.000000
| 23> H     0.239525   -3.670309    0.000000
| 24> H    -1.873962    3.943054    0.000000
| 25> H     4.351766   -0.348628    0.000000
| 26> H    -2.477803   -3.594426    0.000000
| 27> *
| 28>
| 29>                          ****END OF INPUT****

CARTESIAN COORDINATES (ANGSTROEM)
---------------------------------
  C     -2.229408    1.746979    0.000000
  C      2.627632    1.057235    0.000000
  C     -0.398224   -2.804213    0.000000
  C     -1.554337    2.916926    0.000000
  C      3.303300   -0.112368    0.000000
  C     -1.748963   -2.804558    0.000000
  C     -1.230229    0.713698    0.000000
  C      1.233195    0.708561    0.000000
  C     -0.002966   -1.422258    0.000000
  C      0.000000    1.375748    0.000000
  C      1.191433   -0.687874    0.000000
  C     -1.191433   -0.687874    0.000000
  O     -0.195326    2.723963    0.000000
  O      2.456685   -1.192825    0.000000
  O     -2.261359   -1.531139    0.000000
  H     -3.298343    1.627719    0.000000
  H      3.058818    2.042589    0.000000
  H      0.239525   -3.670309    0.000000
  H     -1.873962    3.943054    0.000000
  H      4.351766   -0.348628    0.000000
  H     -2.477803   -3.594426    0.000000

 Total Charge           Charge          ....    0
 Multiplicity           Mult            ....    1
 Number of Electrons    NEL             ....  102
 Basis Dimension        Dim             ....  399

ORBITAL ENERGIES
----------------

  NO   OCC          E(Eh)            E(eV)
   0   2.0000     -20.637092      -561.5638
   1   2.0000     -20.637092      -561.5638
   2   2.0000     -20.637091      -561.5638
   3   2.0000     -11.312093      -307.8177
   4   2.0000     -11.312083      -307.8174
   5   2.0000     -11.312083      -307.8174
   6   2.0000     -11.306514      -307.6659
   7   2.0000     -11.306514      -307.6659
   8   2.0000     -11.306513      -307.6659
   9   2.0000     -11.250271      -306.1354
  10   2.0000     -11.250271      -306.1354
  11   2.0000     -11.250235      -306.1345
  12   2.0000     -11.247650      -306.0641
  13   2.0000     -11.247649      -306.0641
  14   2.0000     -11.247647      -306.0640
  15   2.0000      -1.470639       -40.0181
  16   2.0000      -1.466760       -39.9126
  17   2.0000      -1.466760       -39.9126
  18   2.0000      -1.166529       -31.7429
  19   2.0000      -1.104258       -30.0484
  20   2.0000      -1.104258       -30.0484
  21   2.0000      -1.049573       -28.5603
  22   2.0000      -1.000060       -27.2130
  23   2.0000      -1.000060       -27.2130
  24   2.0000      -0.855709       -23.2850
  25   2.0000      -0.851909       -23.1816
  26   2.0000      -0.851909       -23.1816
  27   2.0000      -0.783841       -21.3294
  28   2.0000      -0.783841       -21.3294
  29   2.0000      -0.771357       -20.9897
  30   2.0000      -0.712542       -19.3893
  31   2.0000      -0.687245       -18.7009
  32   2.0000      -0.687245       -18.7009
  33   2.0000      -0.664265       -18.0756
  34   2.0000      -0.637122       -17.3370
  35   2.0000      -0.637122       -17.3370
  36   2.0000      -0.612681       -16.6719
  37   2.0000      -0.608802       -16.5664
  38   2.0000      -0.608802       -16.5663
  39   2.0000      -0.578524       -15.7424
  40   2.0000      -0.578524       -15.7424
  41   2.0000      -0.577871       -15.7247
  42   2.0000      -0.561178       -15.2704
  43   2.0000      -0.524224       -14.2649
  44   2.0000      -0.524224       -14.2649
  45   2.0000      -0.474065       -12.9000
  46   2.0000      -0.420607       -11.4453
  47   2.0000      -0.420607       -11.4453
  48   2.0000      -0.363887        -9.9019
  49   2.0000      -0.288786        -7.8583
  50   2.0000      -0.288786        -7.8583
  51   0.0000       0.033988         0.9249
  52   0.0000       0.035738         0.9725
  53   0.0000       0.035738         0.9725
  54   0.0000       0.049874         1.3571
  55   0.0000       0.049874         1.3571

MULLIKEN ATOMIC CHARGES
-----------------------
   0 C :    0.483928
   1 C :    0.483918
   2 C :    0.483914
   3 C :    0.786830
   4 C :    0.786825
   5 C :    0.786839
   6 C :    0.278791
   7 C :    0.278830
   8 C :    0.278829
   9 C :    0.360035
  10 C :    0.360041
  11 C :    0.360030
  12 O :   -1.098641
  13 O :   -1.098640
  14 O :   -1.098641
  15 H :   -0.408181
  16 H :   -0.408181
  17 H :   -0.408180
  18 H :   -0.402782
  19 H :   -0.402782
  20 H :   -0.402782
Sum of atomic charges:   -0.0000000

LOEWDIN ATOMIC CHARGES
----------------------
   0 C :    0.069106
   1 C :    0.069107
   2 C :    0.069106
   3 C :    0.036863
   4 C :    0.036862
   5 C :    0.036862
   6 C :   -0.110784
   7 C :   -0.110784
   8 C :   -0.110785
   9 C :   -0.102001
  10 C :   -0.102000
  11 C :   -0.102001
  12 O :    0.109310
  13 O :    0.109310
  14 O :    0.109310
  15 H :    0.002096
  16 H :    0.002096
  17 H :    0.002096
  18 H :   -0.004590
  19 H :   -0.004590
  20 H :   -0.004590

  Mayer bond orders larger than 0.100000
B(  0-C ,  1-C ) :   0.2424 B(  0-C ,  2-C ) :   0.2424 B(  0-C ,  3-C ) :   1.6957
B(  0-C ,  5-C ) :  -0.1229 B(  0-C ,  6-C ) :   1.4149 B(  0-C ,  7-C ) :  -0.5945
B(  0-C ,  8-C ) :  -0.2854 B(  0-C , 11-C ) :   0.3077 B(  0-C , 12-O ) :   0.2089
B(  0-C , 18-H ) :  -0.1394 B(  1-C ,  2-C ) :   0.2424 B(  1-C ,  3-C ) :  -0.1229
B(  1-C ,  4-C ) :   1.6957 B(  1-C ,  6-C ) :  -0.2854 B(  1-C ,  7-C ) :   1.4149
B(  1-C ,  8-C ) :  -0.5946 B(  1-C ,  9-C ) :   0.3077 B(  1-C , 13-O ) :   0.2089
B(  1-C , 19-H ) :  -0.1394 B(  2-C ,  4-C ) :  -0.1229 B(  2-C ,  5-C ) :   1.6957
B(  2-C ,  6-C ) :  -0.5945 B(  2-C ,  7-C ) :  -0.2854 B(  2-C ,  8-C ) :   1.4149
B(  2-C , 10-C ) :   0.3077 B(  2-C , 14-O ) :   0.2089 B(  2-C , 20-H ) :  -0.1393
B(  3-C ,  6-C ) :  -0.2058 B(  3-C ,  7-C ) :   0.3491 B(  3-C ,  8-C ) :   0.1872
B(  3-C , 10-C ) :   0.1538 B(  3-C , 11-C ) :  -0.2921 B(  3-C , 12-O ) :   0.4941
B(  3-C , 18-H ) :   0.7275 B(  4-C ,  6-C ) :   0.1872 B(  4-C ,  7-C ) :  -0.2058
B(  4-C ,  8-C ) :   0.3491 B(  4-C ,  9-C ) :  -0.2921 B(  4-C , 11-C ) :   0.1538
B(  4-C , 13-O ) :   0.4941 B(  4-C , 19-H ) :   0.7275 B(  5-C ,  6-C ) :   0.3491
B(  5-C ,  7-C ) :   0.1872 B(  5-C ,  8-C ) :  -0.2058 B(  5-C ,  9-C ) :   0.1538
B(  5-C , 10-C ) :  -0.2921 B(  5-C , 14-O ) :   0.4941 B(  5-C , 20-H ) :   0.7275
B(  6-C ,  7-C ) :   0.4774 B(  6-C ,  8-C ) :   0.4774 B(  6-C ,  9-C ) :   1.3596
B(  6-C , 10-C ) :   0.4414 B(  6-C , 11-C ) :   1.0727 B(  6-C , 14-O ) :   0.6427
B(  6-C , 15-H ) :   0.9093 B(  6-C , 18-H ) :  -0.1544 B(  7-C ,  8-C ) :   0.4774
B(  7-C ,  9-C ) :   1.0727 B(  7-C , 10-C ) :   1.3595 B(  7-C , 11-C ) :   0.4414
B(  7-C , 12-O ) :   0.6427 B(  7-C , 16-H ) :   0.9093 B(  7-C , 19-H ) :  -0.1544
B(  8-C ,  9-C ) :   0.4414 B(  8-C , 10-C ) :   1.0727 B(  8-C , 11-C ) :   1.3596
B(  8-C , 13-O ) :   0.6427 B(  8-C , 17-H ) :   0.9093 B(  8-C , 20-H ) :  -0.1544
B(  9-C , 10-C ) :   0.2142 B(  9-C , 11-C ) :   0.2142 B(  9-C , 12-O ) :  -0.4101
B(  9-C , 15-H ) :  -0.2205 B(  9-C , 16-H ) :   0.2141 B(  9-C , 18-H ) :   0.4777
B(  9-C , 19-H ) :  -0.1127 B( 10-C , 11-C ) :   0.2142 B( 10-C , 13-O ) :  -0.4101
B( 10-C , 16-H ) :  -0.2205 B( 10-C , 17-H ) :   0.2141 B( 10-C , 19-H ) :   0.4777
B( 10-C , 20-H ) :  -0.1127 B( 11-C , 14-O ) :  -0.4101 B( 11-C , 15-H ) :   0.2141
B( 11-C , 17-H ) :  -0.2205 B( 11-C , 18-H ) :  -0.1127 B( 11-C , 20-H ) :   0.4777
B( 12-O , 18-H ) :  -0.1448 B( 13-O , 19-H ) :  -0.1448 B( 14-O , 20-H ) :  -0.1448

MP2 TOTAL ENERGY:     -684.700836454 Eh
FINAL SINGLE POINT ENERGY      -684.700836453694

DIPOLE MOMENT
-------------
                                X             Y             Z
Electronic contribution:     -0.00000       0.00000       0.00000
Nuclear contribution   :      0.00000      -0.00000       0.00000
                        -----------------------------------------
Total Dipole Moment    :     -0.00000       0.00000       0.00000
                        -----------------------------------------
Magnitude (a.u.)       :      0.00000
Magnitude (Debye)      :      0.00000

Rotational constants in cm-1:     0.026334     0.026334     0.013167
Rotational constants in MHz :   789.467552   789.467415   394.733742

                             ****ORCA TERMINATED NORMALLY****
TOTAL RUN TIME: 0 days 0 hours 3 minutes 46 seconds 264 msec
