                         Program Version 5.0.3 -  RELEASE  -
|  1> !ri-mp2 aug-cc-pvdz aug-cc-pvdz/c tightscf
|  2> %pal nprocs 16 end
|  3>
|  4> * xyz 0 1
|  5> C      1.454366    0.512277    0.000000
|  6> C     -2.231561   -0.577773    0.000000
|  7> C      0.000000    0.631202    0.000000
|  8> C     -0.713585   -0.731881    0.000000
|  9> N      2.598842    0.398853    0.000000
| 10> H     -2.575965   -0.034286    0.881826
| 11> H     -2.575965   -0.034286   -0.881826
| 12> H     -2.719763   -1.552135    0.000000
| 13> H     -0.295422    1.212550    0.876647
| 14> H     -0.295422    1.212550   -0.876647
| 15> H     -0.392342   -1.299658    0.874523
| 16> H     -0.392342   -1.299658   -0.874523
| 17> *
| 18>
| 19>                          ****END OF INPUT****

CARTESIAN COORDINATES (ANGSTROEM)
---------------------------------
  C      1.454366    0.512277    0.000000
  C     -2.231561   -0.577773    0.000000
  C      0.000000    0.631202    0.000000
  C     -0.713585   -0.731881    0.000000
  N      2.598842    0.398853    0.000000
  H     -2.575965   -0.034286    0.881826
  H     -2.575965   -0.034286   -0.881826
  H     -2.719763   -1.552135    0.000000
  H     -0.295422    1.212550    0.876647
  H     -0.295422    1.212550   -0.876647
  H     -0.392342   -1.299658    0.874523
  H     -0.392342   -1.299658   -0.874523

 Total Charge           Charge          ....    0
 Multiplicity           Mult            ....    1
 Number of Electrons    NEL             ....   38
 Basis Dimension        Dim             ....  178

ORBITAL ENERGIES
----------------

  NO   OCC          E(Eh)            E(eV)
   0   2.0000     -15.576466      -423.8572
   1   2.0000     -11.287660      -307.1528
   2   2.0000     -11.279654      -306.9350
   3   2.0000     -11.258420      -306.3572
   4   2.0000     -11.242173      -305.9151
   5   2.0000      -1.224126       -33.3102
   6   2.0000      -1.102841       -30.0098
   7   2.0000      -0.989623       -26.9290
   8   2.0000      -0.848602       -23.0916
   9   2.0000      -0.703599       -19.1459
  10   2.0000      -0.671218       -18.2648
  11   2.0000      -0.604259       -16.4427
  12   2.0000      -0.584485       -15.9046
  13   2.0000      -0.562824       -15.3152
  14   2.0000      -0.531275       -14.4567
  15   2.0000      -0.518517       -14.1096
  16   2.0000      -0.506077       -13.7711
  17   2.0000      -0.456703       -12.4275
  18   2.0000      -0.453585       -12.3427
  19   0.0000       0.029232         0.7954
  20   0.0000       0.041643         1.1332
  21   0.0000       0.043734         1.1901
  22   0.0000       0.050785         1.3819
  23   0.0000       0.068019         1.8509

MULLIKEN ATOMIC CHARGES
-----------------------
   0 C :   -0.249365
   1 C :    0.447349
   2 C :    0.550799
   3 C :    0.164964
   4 N :   -0.318346
   5 H :   -0.067117
   6 H :   -0.067117
   7 H :   -0.063357
   8 H :   -0.038863
   9 H :   -0.038863
  10 H :   -0.160042
  11 H :   -0.160042
Sum of atomic charges:    0.0000000

LOEWDIN ATOMIC CHARGES
----------------------
   0 C :   -0.147294
   1 C :    0.138753
   2 C :   -0.038776
   3 C :   -0.058097
   4 N :    0.066749
   5 H :   -0.016507
   6 H :   -0.016507
   7 H :   -0.016275
   8 H :    0.027004
   9 H :    0.027004
  10 H :    0.016973
  11 H :    0.016973

  Mayer bond orders larger than 0.100000
B(  0-C ,  2-C ) :   0.6807 B(  0-C ,  4-N ) :   2.7022 B(  1-C ,  3-C ) :   1.2211
B(  1-C ,  5-H ) :   0.9394 B(  1-C ,  6-H ) :   0.9394 B(  1-C ,  7-H ) :   0.9159
B(  2-C ,  3-C ) :   1.2477 B(  2-C ,  8-H ) :   0.8345 B(  2-C ,  9-H ) :   0.8345
B(  3-C , 10-H ) :   0.8177 B(  3-C , 11-H ) :   0.8177

MP2 TOTAL ENERGY:     -210.755361011 Eh
FINAL SINGLE POINT ENERGY      -210.755361010705

DIPOLE MOMENT
-------------
                                X             Y             Z
Electronic contribution:      7.76172       1.86300      -0.00000
Nuclear contribution   :     -9.53385      -1.85120       0.00000
                        -----------------------------------------
Total Dipole Moment    :     -1.77212       0.01181      -0.00000
                        -----------------------------------------
Magnitude (a.u.)       :      1.77216
Magnitude (Debye)      :      4.50448

Rotational constants in cm-1:     0.803269     0.075347     0.071612
Rotational constants in MHz : 24081.403932  2258.842702  2146.874022

                             ****ORCA TERMINATED NORMALLY****
TOTAL RUN TIME: 0 days 0 hours 0 minutes 33 seconds 19 msec
