                         Program Version 5.0.3 -  RELEASE  -
|  1> !ri-mp2 aug-cc-pvdz aug-cc-pvdz/c tightscf
|  2> %pal nprocs 16 end
|  3> %maxcore 3800
|  4>
|  5> * xyz 0 1
|  6> C     -1.791427   -0.546342   -0.470725
|  7> C     -1.753453    0.902887    0.021944
|  8> C     -0.346099    1.484644   -0.136504
|  9> C      0.713967    0.691652    0.641171
| 10> C      2.060839    0.553545   -0.118966
| 11> C      1.570404   -0.813571   -0.662948
| 12> C      0.552087   -0.854996    0.508236
| 13> C     -0.849517   -1.436058    0.348591
| 14> H     -2.807213   -0.943727   -0.416752
| 15> H     -1.508563   -0.568405   -1.527994
| 16> H     -2.059618    0.940911    1.073243
| 17> H     -2.471421    1.510461   -0.533276
| 18> H     -0.099323    1.483279   -1.202799
| 19> H     -0.319965    2.530882    0.176897
| 20> H      0.774332    1.062996    1.665761
| 21> H      2.903852    0.434272    0.561752
| 22> H      2.304420    1.332097   -0.842353
| 23> H      2.293715   -1.626176   -0.723529
| 24> H      1.084176   -0.713631   -1.633483
| 25> H      1.040476   -1.331839    1.360944
| 26> H     -1.285091   -1.564400    1.345109
| 27> H     -0.790577   -2.437289   -0.088318
| 28> *
| 29>
| 30>                          ****END OF INPUT****

CARTESIAN COORDINATES (ANGSTROEM)
---------------------------------
  C     -1.791427   -0.546342   -0.470725
  C     -1.753453    0.902887    0.021944
  C     -0.346099    1.484644   -0.136504
  C      0.713967    0.691652    0.641171
  C      2.060839    0.553545   -0.118966
  C      1.570404   -0.813571   -0.662948
  C      0.552087   -0.854996    0.508236
  C     -0.849517   -1.436058    0.348591
  H     -2.807213   -0.943727   -0.416752
  H     -1.508563   -0.568405   -1.527994
  H     -2.059618    0.940911    1.073243
  H     -2.471421    1.510461   -0.533276
  H     -0.099323    1.483279   -1.202799
  H     -0.319965    2.530882    0.176897
  H      0.774332    1.062996    1.665761
  H      2.903852    0.434272    0.561752
  H      2.304420    1.332097   -0.842353
  H      2.293715   -1.626176   -0.723529
  H      1.084176   -0.713631   -1.633483
  H      1.040476   -1.331839    1.360944
  H     -1.285091   -1.564400    1.345109
  H     -0.790577   -2.437289   -0.088318

 Total Charge           Charge          ....    0
 Multiplicity           Mult            ....    1
 Number of Electrons    NEL             ....   62
 Basis Dimension        Dim             ....  310

ORBITAL ENERGIES
----------------

  NO   OCC          E(Eh)            E(eV)
   0   2.0000     -11.220866      -305.3353
   1   2.0000     -11.220317      -305.3203
   2   2.0000     -11.217510      -305.2440
   3   2.0000     -11.217486      -305.2433
   4   2.0000     -11.216922      -305.2280
   5   2.0000     -11.216732      -305.2228
   6   2.0000     -11.216409      -305.2140
   7   2.0000     -11.216034      -305.2038
   8   2.0000      -1.144968       -31.1562
   9   2.0000      -1.059318       -28.8255
  10   2.0000      -1.003897       -27.3174
  11   2.0000      -0.917009       -24.9531
  12   2.0000      -0.869185       -23.6517
  13   2.0000      -0.818079       -22.2611
  14   2.0000      -0.786535       -21.4027
  15   2.0000      -0.703937       -19.1551
  16   2.0000      -0.661426       -17.9983
  17   2.0000      -0.621449       -16.9105
  18   2.0000      -0.606996       -16.5172
  19   2.0000      -0.592113       -16.1122
  20   2.0000      -0.575495       -15.6600
  21   2.0000      -0.533381       -14.5140
  22   2.0000      -0.516393       -14.0518
  23   2.0000      -0.495001       -13.4697
  24   2.0000      -0.492334       -13.3971
  25   2.0000      -0.480238       -13.0679
  26   2.0000      -0.466805       -12.7024
  27   2.0000      -0.445038       -12.1101
  28   2.0000      -0.418606       -11.3909
  29   2.0000      -0.409494       -11.1429
  30   2.0000      -0.398976       -10.8567
  31   0.0000       0.036699         0.9986
  32   0.0000       0.042613         1.1596
  33   0.0000       0.043151         1.1742
  34   0.0000       0.044672         1.2156
  35   0.0000       0.059195         1.6108

MULLIKEN ATOMIC CHARGES
-----------------------
   0 C :    0.302763
   1 C :    0.567509
   2 C :    0.251516
   3 C :   -0.009286
   4 C :    0.901068
   5 C :    0.575768
   6 C :   -0.225386
   7 C :    0.540755
   8 H :   -0.129443
   9 H :   -0.145792
  10 H :   -0.182443
  11 H :   -0.118834
  12 H :   -0.204795
  13 H :   -0.149275
  14 H :   -0.365965
  15 H :   -0.281602
  16 H :   -0.282113
  17 H :   -0.249096
  18 H :   -0.284671
  19 H :   -0.338037
  20 H :   -0.047281
  21 H :   -0.125358
Sum of atomic charges:    0.0000000

LOEWDIN ATOMIC CHARGES
----------------------
   0 C :   -0.023564
   1 C :   -0.020360
   2 C :    0.000901
   3 C :   -0.129969
   4 C :    0.045701
   5 C :    0.050611
   6 C :   -0.140181
   7 C :    0.004750
   8 H :    0.013563
   9 H :    0.014448
  10 H :    0.019268
  11 H :    0.013941
  12 H :    0.015448
  13 H :    0.017804
  14 H :    0.031613
  15 H :    0.005574
  16 H :    0.001276
  17 H :    0.000480
  18 H :    0.003884
  19 H :    0.038441
  20 H :    0.017822
  21 H :    0.018551

  Mayer bond orders larger than 0.100000
B(  0-C ,  1-C ) :   1.2330 B(  0-C ,  7-C ) :   1.2448 B(  0-C ,  8-H ) :   0.7901
B(  0-C ,  9-H ) :   0.7745 B(  1-C ,  2-C ) :   1.1964 B(  1-C , 10-H ) :   0.7219
B(  1-C , 11-H ) :   0.7450 B(  2-C ,  3-C ) :   1.2010 B(  2-C , 12-H ) :   0.7404
B(  2-C , 13-H ) :   0.7761 B(  2-C , 14-H ) :   0.1048 B(  3-C ,  4-C ) :   1.0409
B(  3-C ,  6-C ) :   0.9280 B(  3-C , 12-H ) :   0.2125 B(  3-C , 14-H ) :   0.3759
B(  3-C , 15-H ) :   0.1206 B(  3-C , 19-H ) :   0.2055 B(  4-C ,  5-C ) :   1.1199
B(  4-C , 12-H ) :  -0.1169 B(  4-C , 15-H ) :   0.6386 B(  4-C , 16-H ) :   0.7366
B(  5-C ,  6-C ) :   1.1319 B(  5-C , 17-H ) :   0.8110 B(  5-C , 18-H ) :   0.6710
B(  5-C , 19-H ) :   0.1045 B(  6-C ,  7-C ) :   1.1367 B(  6-C ,  9-H ) :   0.1119
B(  6-C , 14-H ) :   0.1733 B(  6-C , 18-H ) :   0.1090 B(  6-C , 19-H ) :   0.4238
B(  6-C , 20-H ) :   0.1363 B(  7-C , 20-H ) :   0.7211 B(  7-C , 21-H ) :   0.7776
B(  8-H ,  9-H ) :  -0.1521 B( 10-H , 11-H ) :  -0.1545 B( 12-H , 13-H ) :  -0.1524
B( 15-H , 16-H ) :  -0.2059 B( 17-H , 18-H ) :  -0.2065 B( 20-H , 21-H ) :  -0.1448

MP2 TOTAL ENERGY:     -312.276515407 Eh
FINAL SINGLE POINT ENERGY      -312.276515407239

DIPOLE MOMENT
-------------
                                X             Y             Z
Electronic contribution:      0.95762      -0.12239       0.87170
Nuclear contribution   :     -0.99408       0.11563      -0.82924
                        -----------------------------------------
Total Dipole Moment    :     -0.03646      -0.00677       0.04246
                        -----------------------------------------
Magnitude (a.u.)       :      0.05637
Magnitude (Debye)      :      0.14329

Rotational constants in cm-1:     0.109144     0.066070     0.049362
Rotational constants in MHz :  3272.065183  1980.720649  1479.829471

                             ****ORCA TERMINATED NORMALLY****
TOTAL RUN TIME: 0 days 0 hours 1 minutes 32 seconds 434 msec
