                         Program Version 5.0.3 -  RELEASE  -
|  1> !ri-mp2 aug-cc-pvdz aug-cc-pvdz/c tightscf
|  2> %pal nprocs 16 end
|  3>
|  4> * xyz 0 1
|  5> C      0.307786   -2.544530        0.000000
|  6> C      1.429809   -1.720826        0.000000
|  7> C     -0.966751   -1.987681        0.000000
|  8> C      1.277760   -0.342753        0.000000
|  9> C     -1.123948   -0.608404        0.000000
| 10> C      0.000000    0.220374        0.000000
| 11> C     -0.110623    1.700856        0.000000
| 12> O      0.823931    2.465863        0.000000
| 13> O     -1.394622    2.140425        0.000000
| 14> H      0.427051   -3.619739        0.000000
| 15> H      2.420556   -2.154119        0.000000
| 16> H     -1.837930   -2.628373        0.000000
| 17> H      2.135639    0.314086        0.000000
| 18> H     -2.111190   -0.171656        0.000000
| 19> H     -1.352794    3.107284        0.000000
| 20> *
| 21>
| 22>                          ****END OF INPUT****

CARTESIAN COORDINATES (ANGSTROEM)
---------------------------------
  C      0.307786   -2.544530    0.000000
  C      1.429809   -1.720826    0.000000
  C     -0.966751   -1.987681    0.000000
  C      1.277760   -0.342753    0.000000
  C     -1.123948   -0.608404    0.000000
  C      0.000000    0.220374    0.000000
  C     -0.110623    1.700856    0.000000
  O      0.823931    2.465863    0.000000
  O     -1.394622    2.140425    0.000000
  H      0.427051   -3.619739    0.000000
  H      2.420556   -2.154119    0.000000
  H     -1.837930   -2.628373    0.000000
  H      2.135639    0.314086    0.000000
  H     -2.111190   -0.171656    0.000000
  H     -1.352794    3.107284    0.000000

 Total Charge           Charge          ....    0
 Multiplicity           Mult            ....    1
 Number of Electrons    NEL             ....   64
 Basis Dimension        Dim             ....  261

ORBITAL ENERGIES
----------------

  NO   OCC          E(Eh)            E(eV)
   0   2.0000     -20.623177      -561.1852
   1   2.0000     -20.560003      -559.4661
   2   2.0000     -11.400258      -310.2168
   3   2.0000     -11.262367      -306.4646
   4   2.0000     -11.261687      -306.4461
   5   2.0000     -11.261130      -306.4309
   6   2.0000     -11.258555      -306.3609
   7   2.0000     -11.252768      -306.2034
   8   2.0000     -11.252054      -306.1839
   9   2.0000      -1.471023       -40.0286
  10   2.0000      -1.366662       -37.1888
  11   2.0000      -1.176270       -32.0079
  12   2.0000      -1.054549       -28.6957
  13   2.0000      -1.035812       -28.1859
  14   2.0000      -0.903775       -24.5930
  15   2.0000      -0.847994       -23.0751
  16   2.0000      -0.806633       -21.9496
  17   2.0000      -0.735457       -20.0128
  18   2.0000      -0.708559       -19.2809
  19   2.0000      -0.679092       -18.4790
  20   2.0000      -0.642828       -17.4922
  21   2.0000      -0.635394       -17.2899
  22   2.0000      -0.630153       -17.1473
  23   2.0000      -0.606587       -16.5061
  24   2.0000      -0.588966       -16.0266
  25   2.0000      -0.529003       -14.3949
  26   2.0000      -0.520314       -14.1585
  27   2.0000      -0.508557       -13.8385
  28   2.0000      -0.486231       -13.2310
  29   2.0000      -0.457960       -12.4617
  30   2.0000      -0.356343        -9.6966
  31   2.0000      -0.351478        -9.5642
  32   0.0000       0.031099         0.8463
  33   0.0000       0.038192         1.0393
  34   0.0000       0.042340         1.1521
  35   0.0000       0.053307         1.4506
  36   0.0000       0.063614         1.7310

MULLIKEN ATOMIC CHARGES
-----------------------
   0 C :    0.268395
   1 C :    0.627080
   2 C :    0.525605
   3 C :   -0.107393
   4 C :    0.299583
   5 C :    1.397181
   6 C :    0.792826
   7 O :   -0.781246
   8 O :   -0.856167
   9 H :   -0.432889
  10 H :   -0.434953
  11 H :   -0.455395
  12 H :   -0.611411
  13 H :   -0.532321
  14 H :    0.301104
Sum of atomic charges:    0.0000000

LOEWDIN ATOMIC CHARGES
----------------------
   0 C :    0.023948
   1 C :    0.021344
   2 C :    0.018159
   3 C :    0.070097
   4 C :    0.064554
   5 C :   -0.137100
   6 C :   -0.312573
   7 O :    0.041626
   8 O :    0.203501
   9 H :    0.004997
  10 H :    0.002002
  11 H :    0.001418
  12 H :    0.012279
  13 H :    0.004214
  14 H :   -0.018465

  Mayer bond orders larger than 0.100000
B(  0-C ,  1-C ) :   1.6893 B(  0-C ,  2-C ) :   1.6639 B(  0-C ,  3-C ) :   0.2435
B(  0-C ,  5-C ) :  -0.1022 B(  0-C ,  6-C ) :   0.1211 B(  0-C ,  9-H ) :   0.4225
B(  0-C , 10-H ) :   0.1379 B(  0-C , 11-H ) :   0.1309 B(  1-C ,  3-C ) :   2.0314
B(  1-C ,  5-C ) :  -0.4872 B(  1-C ,  6-C ) :   0.1410 B(  1-C ,  9-H ) :   0.1362
B(  1-C , 10-H ) :   0.2094 B(  1-C , 11-H ) :  -0.1233 B(  1-C , 12-H ) :   0.1662
B(  2-C ,  4-C ) :   1.7993 B(  2-C ,  5-C ) :  -0.3311 B(  2-C ,  6-C ) :   0.1595
B(  2-C ,  9-H ) :   0.1893 B(  2-C , 10-H ) :  -0.1080 B(  2-C , 11-H ) :   0.1954
B(  2-C , 13-H ) :   0.2310 B(  3-C ,  4-C ) :  -0.6840 B(  3-C ,  5-C ) :   1.3037
B(  3-C ,  6-C ) :  -0.5997 B(  3-C , 10-H ) :   0.4263 B(  3-C , 12-H ) :   0.1176
B(  4-C ,  5-C ) :   1.8187 B(  4-C ,  6-C ) :  -0.3558 B(  4-C , 11-H ) :   0.4324
B(  4-C , 13-H ) :   0.2059 B(  5-C ,  6-C ) :   0.2375 B(  5-C ,  8-O ) :   0.2212
B(  5-C , 12-H ) :   0.4005 B(  5-C , 13-H ) :   0.2918 B(  6-C ,  7-O ) :   1.3359
B(  6-C ,  8-O ) :   0.1805 B(  7-O ,  8-O ) :   0.1202 B(  8-O , 14-H ) :   0.9277

MP2 TOTAL ENERGY:     -419.704190326 Eh
FINAL SINGLE POINT ENERGY      -419.704190325934

DIPOLE MOMENT
-------------
                                X             Y             Z
Electronic contribution:     -0.18457       4.21358      -0.00000
Nuclear contribution   :     -0.32250      -4.99978       0.00000
                        -----------------------------------------
Total Dipole Moment    :     -0.50706      -0.78619      -0.00000
                        -----------------------------------------
Magnitude (a.u.)       :      0.93553
Magnitude (Debye)      :      2.37792

Rotational constants in cm-1:     0.129986     0.040954     0.031142
Rotational constants in MHz :  3896.878269  1227.770858   933.619738

                             ****ORCA TERMINATED NORMALLY****
TOTAL RUN TIME: 0 days 0 hours 1 minutes 16 seconds 111 msec
