                         Program Version 5.0.3 -  RELEASE  -
|  1> !ri-mp2 aug-cc-pvdz aug-cc-pvdz/c tightscf
|  2> %pal nprocs 16 end
|  3>
|  4> * xyz 0 1
|  5> C      0.007083   -2.289118        0.000000
|  6> C      1.204721   -1.583554        0.000000
|  7> C     -1.194960   -1.590256        0.000000
|  8> C      1.206584   -0.194173        0.000000
|  9> C     -1.203315   -0.201715        0.000000
| 10> C      0.000000    0.505241        0.000000
| 11> S     -0.086475    2.284006        0.000000
| 12> H      0.010418   -3.370141        0.000000
| 13> H      2.147471   -2.114249        0.000000
| 14> H     -2.134602   -2.126238        0.000000
| 15> H      2.146513    0.340962        0.000000
| 16> H     -2.144219    0.332370        0.000000
| 17> H      1.237336    2.514654        0.000000
| 18> *
| 19>
| 20>                          ****END OF INPUT****

CARTESIAN COORDINATES (ANGSTROEM)
---------------------------------
  C      0.007083   -2.289118    0.000000
  C      1.204721   -1.583554    0.000000
  C     -1.194960   -1.590256    0.000000
  C      1.206584   -0.194173    0.000000
  C     -1.203315   -0.201715    0.000000
  C      0.000000    0.505241    0.000000
  S     -0.086475    2.284006    0.000000
  H      0.010418   -3.370141    0.000000
  H      2.147471   -2.114249    0.000000
  H     -2.134602   -2.126238    0.000000
  H      2.146513    0.340962    0.000000
  H     -2.144219    0.332370    0.000000
  H      1.237336    2.514654    0.000000

 Total Charge           Charge          ....    0
 Multiplicity           Mult            ....    1
 Number of Electrons    NEL             ....   58
 Basis Dimension        Dim             ....  219

ORBITAL ENERGIES
----------------

  NO   OCC          E(Eh)            E(eV)
   0   2.0000     -91.971691     -2502.6769
   1   2.0000     -11.284733      -307.0732
   2   2.0000     -11.250664      -306.1461
   3   2.0000     -11.250042      -306.1292
   4   2.0000     -11.249043      -306.1020
   5   2.0000     -11.247500      -306.0600
   6   2.0000     -11.243007      -305.9378
   7   2.0000      -8.973694      -244.1866
   8   2.0000      -6.655865      -181.1153
   9   2.0000      -6.654448      -181.0767
  10   2.0000      -6.652267      -181.0174
  11   2.0000      -1.171615       -31.8813
  12   2.0000      -1.061958       -28.8974
  13   2.0000      -1.028956       -27.9993
  14   2.0000      -0.953036       -25.9334
  15   2.0000      -0.841300       -22.8929
  16   2.0000      -0.812781       -22.1169
  17   2.0000      -0.706229       -19.2175
  18   2.0000      -0.648646       -17.6506
  19   2.0000      -0.638221       -17.3669
  20   2.0000      -0.598746       -16.2927
  21   2.0000      -0.580671       -15.8009
  22   2.0000      -0.526297       -14.3213
  23   2.0000      -0.525198       -14.2914
  24   2.0000      -0.504090       -13.7170
  25   2.0000      -0.469604       -12.7786
  26   2.0000      -0.416987       -11.3468
  27   2.0000      -0.347572        -9.4579
  28   2.0000      -0.309464        -8.4210
  29   0.0000       0.034239         0.9317
  30   0.0000       0.039839         1.0841
  31   0.0000       0.043862         1.1936
  32   0.0000       0.056434         1.5357
  33   0.0000       0.060904         1.6573

MULLIKEN ATOMIC CHARGES
-----------------------
   0 C :    0.228661
   1 C :    0.728218
   2 C :    0.519455
   3 C :    0.433911
   4 C :   -0.136253
   5 C :    0.435022
   6 S :    0.129896
   7 H :   -0.431644
   8 H :   -0.439474
   9 H :   -0.445041
  10 H :   -0.585685
  11 H :   -0.481742
  12 H :    0.044676
Sum of atomic charges:   -0.0000000

LOEWDIN ATOMIC CHARGES
----------------------
   0 C :    0.003692
   1 C :    0.004399
   2 C :    0.003619
   3 C :   -0.029594
   4 C :   -0.036070
   5 C :   -0.516287
   6 S :    0.801563
   7 H :   -0.002415
   8 H :    0.001904
   9 H :    0.002149
  10 H :   -0.011338
  11 H :   -0.006605
  12 H :   -0.215016

  Mayer bond orders larger than 0.100000
B(  0-C ,  1-C ) :   1.6540 B(  0-C ,  2-C ) :   1.7125 B(  0-C ,  3-C ) :   0.2026
B(  0-C ,  4-C ) :   0.1693 B(  0-C ,  7-H ) :   0.4065 B(  0-C ,  8-H ) :   0.2018
B(  0-C ,  9-H ) :   0.2179 B(  1-C ,  2-C ) :  -0.1135 B(  1-C ,  3-C ) :   1.6067
B(  1-C ,  5-C ) :  -0.1381 B(  1-C ,  7-H ) :   0.1467 B(  1-C ,  8-H ) :   0.3145
B(  1-C , 10-H ) :   0.1023 B(  2-C ,  3-C ) :   0.1028 B(  2-C ,  4-C ) :   1.9148
B(  2-C ,  5-C ) :  -0.2577 B(  2-C ,  7-H ) :   0.1762 B(  2-C ,  9-H ) :   0.2849
B(  2-C , 11-H ) :   0.1513 B(  3-C ,  5-C ) :   1.4859 B(  3-C ,  6-S ) :  -0.1644
B(  3-C ,  8-H ) :   0.2560 B(  3-C , 10-H ) :   0.1671 B(  4-C ,  5-C ) :   1.7195
B(  4-C ,  9-H ) :   0.2988 B(  4-C , 11-H ) :   0.3815 B(  5-C ,  6-S ) :   1.0890
B(  5-C ,  9-H ) :  -0.1034 B(  5-C , 10-H ) :   0.3061 B(  5-C , 11-H ) :   0.1799
B(  6-S , 12-H ) :   0.9361

MP2 TOTAL ENERGY:     -629.213212120 Eh
FINAL SINGLE POINT ENERGY      -629.213212119900

DIPOLE MOMENT
-------------
                                X             Y             Z
Electronic contribution:     -0.92449       4.03703      -0.00000
Nuclear contribution   :      1.25128      -4.44231       0.00000
                        -----------------------------------------
Total Dipole Moment    :      0.32679      -0.40528      -0.00000
                        -----------------------------------------
Magnitude (a.u.)       :      0.52062
Magnitude (Debye)      :      1.32331

Rotational constants in cm-1:     0.187929     0.052407     0.040979
Rotational constants in MHz :  5633.971695  1571.119497  1228.526127

                             ****ORCA TERMINATED NORMALLY****
TOTAL RUN TIME: 0 days 0 hours 0 minutes 44 seconds 535 msec
