                         Program Version 5.0.3 -  RELEASE  -
|  1> !ri-mp2 aug-cc-pvdz aug-cc-pvdz/c tightscf
|  2> %pal nprocs 16 end
|  3>
|  4> * xyz 0 1
|  5> C    -0.742813     0.000000   -0.317669
|  6> C     0.742813     0.000000   -0.317669
|  7> C     0.000000     1.134528    0.312889
|  8> C     0.000000    -1.134528    0.312889
|  9> H     0.000000    -1.232016    1.397188
| 10> H     0.000000     1.232016    1.397188
| 11> H     0.000000    -2.078551   -0.219647
| 12> H     0.000000     2.078551   -0.219647
| 13> H    -1.425483     0.000000   -1.148859
| 14> H     1.425483     0.000000   -1.148859
| 15> *
| 16>
| 17>                          ****END OF INPUT****

CARTESIAN COORDINATES (ANGSTROEM)
---------------------------------
  C     -0.742813    0.000000   -0.317669
  C      0.742813    0.000000   -0.317669
  C      0.000000    1.134528    0.312889
  C      0.000000   -1.134528    0.312889
  H      0.000000   -1.232016    1.397188
  H      0.000000    1.232016    1.397188
  H      0.000000   -2.078551   -0.219647
  H      0.000000    2.078551   -0.219647
  H     -1.425483    0.000000   -1.148859
  H      1.425483    0.000000   -1.148859

 Total Charge           Charge          ....    0
 Multiplicity           Mult            ....    1
 Number of Electrons    NEL             ....   30
 Basis Dimension        Dim             ....  146

ORBITAL ENERGIES
----------------

  NO   OCC          E(Eh)            E(eV)
   0   2.0000     -11.244967      -305.9911
   1   2.0000     -11.244877      -305.9887
   2   2.0000     -11.240769      -305.8769
   3   2.0000     -11.240123      -305.8593
   4   2.0000      -1.218520       -33.1576
   5   2.0000      -0.930928       -25.3318
   6   2.0000      -0.786530       -21.4026
   7   2.0000      -0.785710       -21.3802
   8   2.0000      -0.693742       -18.8777
   9   2.0000      -0.589020       -16.0281
  10   2.0000      -0.581336       -15.8190
  11   2.0000      -0.514044       -13.9879
  12   2.0000      -0.457969       -12.4620
  13   2.0000      -0.434029       -11.8105
  14   2.0000      -0.354084        -9.6351
  15   0.0000       0.036711         0.9990
  16   0.0000       0.046479         1.2648
  17   0.0000       0.049350         1.3429
  18   0.0000       0.050778         1.3817
  19   0.0000       0.067681         1.8417

MULLIKEN ATOMIC CHARGES
-----------------------
   0 C :    0.434597
   1 C :    0.434597
   2 C :    0.643032
   3 C :    0.643032
   4 H :   -0.318781
   5 H :   -0.318781
   6 H :   -0.353513
   7 H :   -0.353513
   8 H :   -0.405335
   9 H :   -0.405335
Sum of atomic charges:    0.0000000

LOEWDIN ATOMIC CHARGES
----------------------
   0 C :   -0.067858
   1 C :   -0.067858
   2 C :    0.068395
   3 C :    0.068395
   4 H :   -0.003501
   5 H :   -0.003501
   6 H :    0.000955
   7 H :    0.000955
   8 H :    0.002008
   9 H :    0.002008

  Mayer bond orders larger than 0.100000
B(  0-C ,  1-C ) :   0.6021 B(  0-C ,  2-C ) :   1.0867 B(  0-C ,  3-C ) :   1.0867
B(  0-C ,  8-H ) :   0.7397 B(  1-C ,  2-C ) :   1.0867 B(  1-C ,  3-C ) :   1.0867
B(  1-C ,  9-H ) :   0.7397 B(  2-C ,  3-C ) :   0.1335 B(  2-C ,  5-H ) :   0.7820
B(  2-C ,  7-H ) :   0.7742 B(  3-C ,  4-H ) :   0.7820 B(  3-C ,  6-H ) :   0.7742
B(  4-H ,  6-H ) :  -0.1398 B(  5-H ,  7-H ) :  -0.1398

MP2 TOTAL ENERGY:     -155.456980265 Eh
FINAL SINGLE POINT ENERGY      -155.456980264794

DIPOLE MOMENT
-------------
                                X             Y             Z
Electronic contribution:      0.00000      -0.00000      -0.33418
Nuclear contribution   :      0.00000       0.00000       0.05975
                        -----------------------------------------
Total Dipole Moment    :      0.00000      -0.00000      -0.27443
                        -----------------------------------------
Magnitude (a.u.)       :      0.27443
Magnitude (Debye)      :      0.69756

Rotational constants in cm-1:     0.584916     0.311260     0.280769
Rotational constants in MHz : 17535.339368  9331.341366  8417.231477

                             ****ORCA TERMINATED NORMALLY****
TOTAL RUN TIME: 0 days 0 hours 0 minutes 29 seconds 903 msec
