                         Program Version 5.0.3 -  RELEASE  -
|  1> !ri-mp2 aug-cc-pvdz aug-cc-pvdz/c tightscf
|  2> %pal nprocs 16 end
|  3>
|  4> * xyz 0 1
|  5> C     0.000000     1.390589       0.000000
|  6> C     1.204285     0.695294       0.000000
|  7> C    -1.204285     0.695294       0.000000
|  8> C     1.204285    -0.695294       0.000000
|  9> C    -1.204285    -0.695294       0.000000
| 10> C     0.000000    -1.390589       0.000000
| 11> H     0.000000     2.472617       0.000000
| 12> H     0.000000    -2.472617       0.000000
| 13> H    -2.141349     1.236308       0.000000
| 14> H     2.141349    -1.236308       0.000000
| 15> H     2.141349     1.236308       0.000000
| 16> H    -2.141349    -1.236308       0.000000
| 17> *
| 18>
| 19>                          ****END OF INPUT****

CARTESIAN COORDINATES (ANGSTROEM)
---------------------------------
  C      0.000000    1.390589    0.000000
  C      1.204285    0.695294    0.000000
  C     -1.204285    0.695294    0.000000
  C      1.204285   -0.695294    0.000000
  C     -1.204285   -0.695294    0.000000
  C      0.000000   -1.390589    0.000000
  H      0.000000    2.472617    0.000000
  H      0.000000   -2.472617    0.000000
  H     -2.141349    1.236308    0.000000
  H      2.141349   -1.236308    0.000000
  H      2.141349    1.236308    0.000000
  H     -2.141349   -1.236308    0.000000

 Total Charge           Charge          ....    0
 Multiplicity           Mult            ....    1
 Number of Electrons    NEL             ....   42
 Basis Dimension        Dim             ....  192

ORBITAL ENERGIES
----------------

  NO   OCC          E(Eh)            E(eV)
   0   2.0000     -11.241254      -305.8901
   1   2.0000     -11.240685      -305.8746
   2   2.0000     -11.240684      -305.8746
   3   2.0000     -11.239447      -305.8409
   4   2.0000     -11.239447      -305.8409
   5   2.0000     -11.238844      -305.8245
   6   2.0000      -1.155141       -31.4330
   7   2.0000      -1.018351       -27.7107
   8   2.0000      -1.018351       -27.7107
   9   2.0000      -0.826247       -22.4833
  10   2.0000      -0.826246       -22.4833
  11   2.0000      -0.711318       -19.3559
  12   2.0000      -0.643793       -17.5185
  13   2.0000      -0.621184       -16.9033
  14   2.0000      -0.588902       -16.0248
  15   2.0000      -0.588902       -16.0248
  16   2.0000      -0.503242       -13.6939
  17   2.0000      -0.494622       -13.4593
  18   2.0000      -0.494621       -13.4593
  19   2.0000      -0.337051        -9.1716
  20   2.0000      -0.337050        -9.1716
  21   0.0000       0.035989         0.9793
  22   0.0000       0.042540         1.1576
  23   0.0000       0.042540         1.1576
  24   0.0000       0.057518         1.5651
  25   0.0000       0.057518         1.5651

MULLIKEN ATOMIC CHARGES
-----------------------
   0 C :    0.438844
   1 C :    0.438851
   2 C :    0.438851
   3 C :    0.438851
   4 C :    0.438851
   5 C :    0.438844
   6 H :   -0.438849
   7 H :   -0.438849
   8 H :   -0.438849
   9 H :   -0.438849
  10 H :   -0.438849
  11 H :   -0.438849
Sum of atomic charges:    0.0000000

LOEWDIN ATOMIC CHARGES
----------------------
   0 C :    0.001554
   1 C :    0.001553
   2 C :    0.001553
   3 C :    0.001553
   4 C :    0.001553
   5 C :    0.001554
   6 H :   -0.001554
   7 H :   -0.001554
   8 H :   -0.001553
   9 H :   -0.001553
  10 H :   -0.001553
  11 H :   -0.001553

  Mayer bond orders larger than 0.100000
B(  0-C ,  1-C ) :   1.8058 B(  0-C ,  2-C ) :   1.8058 B(  0-C ,  3-C ) :  -0.1012
B(  0-C ,  4-C ) :  -0.1012 B(  0-C ,  5-C ) :   0.1928 B(  0-C ,  6-H ) :   0.3981
B(  0-C ,  8-H ) :   0.1854 B(  0-C , 10-H ) :   0.1854 B(  1-C ,  2-C ) :  -0.1012
B(  1-C ,  3-C ) :   1.8058 B(  1-C ,  4-C ) :   0.1928 B(  1-C ,  5-C ) :  -0.1012
B(  1-C ,  6-H ) :   0.1854 B(  1-C ,  9-H ) :   0.1854 B(  1-C , 10-H ) :   0.3981
B(  2-C ,  3-C ) :   0.1928 B(  2-C ,  4-C ) :   1.8058 B(  2-C ,  5-C ) :  -0.1012
B(  2-C ,  6-H ) :   0.1854 B(  2-C ,  8-H ) :   0.3981 B(  2-C , 11-H ) :   0.1854
B(  3-C ,  4-C ) :  -0.1012 B(  3-C ,  5-C ) :   1.8058 B(  3-C ,  7-H ) :   0.1854
B(  3-C ,  9-H ) :   0.3981 B(  3-C , 10-H ) :   0.1854 B(  4-C ,  5-C ) :   1.8058
B(  4-C ,  7-H ) :   0.1854 B(  4-C ,  8-H ) :   0.1854 B(  4-C , 11-H ) :   0.3981
B(  5-C ,  7-H ) :   0.3981 B(  5-C ,  9-H ) :   0.1854 B(  5-C , 11-H ) :   0.1854

MP2 TOTAL ENERGY:     -231.537836966 Eh
FINAL SINGLE POINT ENERGY      -231.537836966443

DIPOLE MOMENT
-------------
                                X             Y             Z
Electronic contribution:      0.00000       0.00000       0.00000
Nuclear contribution   :      0.00000       0.00000       0.00000
                        -----------------------------------------
Total Dipole Moment    :      0.00000       0.00000       0.00000
                        -----------------------------------------
Magnitude (a.u.)       :      0.00000
Magnitude (Debye)      :      0.00000

Rotational constants in cm-1:     0.191202     0.191202     0.095601
Rotational constants in MHz :  5732.099279  5732.098611  2866.049473

                             ****ORCA TERMINATED NORMALLY****
TOTAL RUN TIME: 0 days 0 hours 0 minutes 36 seconds 44 msec
