                         Program Version 5.0.3 -  RELEASE  -
|  1> !ri-mp2 aug-cc-pvdz aug-cc-pvdz/c tightscf
|  2> %pal nprocs 16 end
|  3>
|  4> * xyz 0 1
|  5> C      0.000000    0.000000    1.438198
|  6> C      0.000000    0.000000   -1.438198
|  7> O      0.000000    0.000000    2.656988
|  8> O      0.000000    0.000000   -2.656988
|  9> C      0.000000    1.265716    0.667837
| 10> C      0.000000   -1.265716    0.667837
| 11> C      0.000000   -1.265716   -0.667837
| 12> C      0.000000    1.265716   -0.667837
| 13> H      0.000000    2.176019    1.252736
| 14> H      0.000000   -2.176019    1.252736
| 15> H      0.000000   -2.176019   -1.252736
| 16> H      0.000000    2.176019   -1.252736
| 17> *
| 18>
| 19>                          ****END OF INPUT****

CARTESIAN COORDINATES (ANGSTROEM)
---------------------------------
  C      0.000000    0.000000    1.438198
  C      0.000000    0.000000   -1.438198
  O      0.000000    0.000000    2.656988
  O      0.000000    0.000000   -2.656988
  C      0.000000    1.265716    0.667837
  C      0.000000   -1.265716    0.667837
  C      0.000000   -1.265716   -0.667837
  C      0.000000    1.265716   -0.667837
  H      0.000000    2.176019    1.252736
  H      0.000000   -2.176019    1.252736
  H      0.000000   -2.176019   -1.252736
  H      0.000000    2.176019   -1.252736

 Total Charge           Charge          ....    0
 Multiplicity           Mult            ....    1
 Number of Electrons    NEL             ....   56
 Basis Dimension        Dim             ....  220

ORBITAL ENERGIES
----------------

  NO   OCC          E(Eh)            E(eV)
   0   2.0000     -20.591189      -560.3148
   1   2.0000     -20.591189      -560.3147
   2   2.0000     -11.369872      -309.3900
   3   2.0000     -11.369862      -309.3897
   4   2.0000     -11.290048      -307.2178
   5   2.0000     -11.290014      -307.2169
   6   2.0000     -11.288369      -307.1721
   7   2.0000     -11.288354      -307.1717
   8   2.0000      -1.421361       -38.6772
   9   2.0000      -1.419007       -38.6131
  10   2.0000      -1.165688       -31.7200
  11   2.0000      -1.082177       -29.4475
  12   2.0000      -0.969132       -26.3714
  13   2.0000      -0.877825       -23.8868
  14   2.0000      -0.834910       -22.7190
  15   2.0000      -0.720593       -19.6083
  16   2.0000      -0.717483       -19.5237
  17   2.0000      -0.692780       -18.8515
  18   2.0000      -0.644756       -17.5447
  19   2.0000      -0.632219       -17.2035
  20   2.0000      -0.608192       -16.5497
  21   2.0000      -0.598443       -16.2845
  22   2.0000      -0.586795       -15.9675
  23   2.0000      -0.557100       -15.1595
  24   2.0000      -0.465516       -12.6673
  25   2.0000      -0.443396       -12.0654
  26   2.0000      -0.418081       -11.3766
  27   2.0000      -0.413058       -11.2399
  28   0.0000       0.001393         0.0379
  29   0.0000       0.031269         0.8509
  30   0.0000       0.036268         0.9869
  31   0.0000       0.047694         1.2978
  32   0.0000       0.057834         1.5737

MULLIKEN ATOMIC CHARGES
-----------------------
   0 C :    0.162485
   1 C :    0.162485
   2 O :   -0.811210
   3 O :   -0.811210
   4 C :    0.723116
   5 C :    0.723116
   6 C :    0.723116
   7 C :    0.723116
   8 H :   -0.398753
   9 H :   -0.398753
  10 H :   -0.398753
  11 H :   -0.398753
Sum of atomic charges:   -0.0000000

LOEWDIN ATOMIC CHARGES
----------------------
   0 C :   -0.276954
   1 C :   -0.276954
   2 O :    0.062838
   3 O :    0.062838
   4 C :    0.090967
   5 C :    0.090967
   6 C :    0.090967
   7 C :    0.090967
   8 H :    0.016091
   9 H :    0.016091
  10 H :    0.016091
  11 H :    0.016091

  Mayer bond orders larger than 0.100000
B(  0-C ,  2-O ) :   1.3731 B(  0-C ,  4-C ) :   1.0347 B(  0-C ,  5-C ) :   1.0347
B(  0-C ,  8-H ) :   0.1166 B(  0-C ,  9-H ) :   0.1166 B(  1-C ,  3-O ) :   1.3731
B(  1-C ,  6-C ) :   1.0347 B(  1-C ,  7-C ) :   1.0347 B(  1-C , 10-H ) :   0.1166
B(  1-C , 11-H ) :   0.1166 B(  4-C ,  6-C ) :   0.1203 B(  4-C ,  7-C ) :   2.1798
B(  4-C ,  8-H ) :   0.4869 B(  4-C , 11-H ) :   0.1581 B(  5-C ,  6-C ) :   2.1798
B(  5-C ,  7-C ) :   0.1203 B(  5-C ,  9-H ) :   0.4869 B(  5-C , 10-H ) :   0.1581
B(  6-C ,  9-H ) :   0.1581 B(  6-C , 10-H ) :   0.4869 B(  7-C ,  8-H ) :   0.1581
B(  7-C , 11-H ) :   0.4869

MP2 TOTAL ENERGY:     -380.447100871 Eh
FINAL SINGLE POINT ENERGY      -380.447100871489

DIPOLE MOMENT
-------------
                                X             Y             Z
Electronic contribution:     -0.00000      -0.00000      -0.00000
Nuclear contribution   :      0.00000       0.00000       0.00000
                        -----------------------------------------
Total Dipole Moment    :     -0.00000      -0.00000      -0.00000
                        -----------------------------------------
Magnitude (a.u.)       :      0.00000
Magnitude (Debye)      :      0.00000

Rotational constants in cm-1:     0.175491     0.055574     0.042208
Rotational constants in MHz :  5261.080204  1666.073907  1265.360682

                             ****ORCA TERMINATED NORMALLY****
TOTAL RUN TIME: 0 days 0 hours 0 minutes 51 seconds 440 msec
