                         Program Version 5.0.3 -  RELEASE  -
|  1> !ri-mp2 aug-cc-pvdz aug-cc-pvdz/c tightscf
|  2> %pal nprocs 16 end
|  3> %maxcore 3800
|  4>
|  5> * xyz 0 1
|  6> C     -1.220553    0.008291    0.000000
|  7> C      0.018065    0.941134    0.000000
|  8> C      0.207716    1.430365    1.426632
|  9> C      0.207716    1.430365   -1.426632
| 10> C     -0.475923   -1.306583    0.000000
| 11> C      0.207716    0.053150    2.219513
| 12> C      0.207716    0.053150   -2.219513
| 13> C      0.362254   -1.260477   -1.348939
| 14> C      0.362254   -1.260477    1.348939
| 15> H     -1.853935    0.149273    0.874293
| 16> H     -1.853935    0.149273   -0.874293
| 17> H      0.882835    0.286335    0.000000
| 18> H      1.158855    1.951425    1.555610
| 19> H     -0.583800    2.082415    1.802671
| 20> H     -0.583800    2.082415   -1.802671
| 21> H      1.158855    1.951425   -1.555610
| 22> H     -1.113964   -2.193709    0.000000
| 23> H      1.006641    0.053850    2.962556
| 24> H     -0.719568   -0.025384    2.786768
| 25> H     -0.719568   -0.025384   -2.786768
| 26> H      1.006641    0.053850   -2.962556
| 27> H      1.419007   -1.432023   -1.131265
| 28> H      0.057484   -2.092626   -1.986451
| 29> H      0.057484   -2.092626    1.986451
| 30> H      1.419007   -1.432023    1.131265
| 31> *
| 32>
| 33>                          ****END OF INPUT****

CARTESIAN COORDINATES (ANGSTROEM)
---------------------------------
  C     -1.220553    0.008291    0.000000
  C      0.018065    0.941134    0.000000
  C      0.207716    1.430365    1.426632
  C      0.207716    1.430365   -1.426632
  C     -0.475923   -1.306583    0.000000
  C      0.207716    0.053150    2.219513
  C      0.207716    0.053150   -2.219513
  C      0.362254   -1.260477   -1.348939
  C      0.362254   -1.260477    1.348939
  H     -1.853935    0.149273    0.874293
  H     -1.853935    0.149273   -0.874293
  H      0.882835    0.286335    0.000000
  H      1.158855    1.951425    1.555610
  H     -0.583800    2.082415    1.802671
  H     -0.583800    2.082415   -1.802671
  H      1.158855    1.951425   -1.555610
  H     -1.113964   -2.193709    0.000000
  H      1.006641    0.053850    2.962556
  H     -0.719568   -0.025384    2.786768
  H     -0.719568   -0.025384   -2.786768
  H      1.006641    0.053850   -2.962556
  H      1.419007   -1.432023   -1.131265
  H      0.057484   -2.092626   -1.986451
  H      0.057484   -2.092626    1.986451
  H      1.419007   -1.432023    1.131265

 Total Charge           Charge          ....    0
 Multiplicity           Mult            ....    1
 Number of Electrons    NEL             ....   70
 Basis Dimension        Dim             ....  351

ORBITAL ENERGIES
----------------

  NO   OCC          E(Eh)            E(eV)
   0   2.0000     -11.228527      -305.5437
   1   2.0000     -11.224313      -305.4291
   2   2.0000     -11.224312      -305.4291
   3   2.0000     -11.223493      -305.4068
   4   2.0000     -11.223475      -305.4063
   5   2.0000     -11.223343      -305.4027
   6   2.0000     -11.223329      -305.4023
   7   2.0000     -11.211473      -305.0797
   8   2.0000     -11.205459      -304.9161
   9   2.0000      -1.146855       -31.2075
  10   2.0000      -1.040468       -28.3126
  11   2.0000      -1.015014       -27.6199
  12   2.0000      -0.961476       -26.1631
  13   2.0000      -0.914570       -24.8867
  14   2.0000      -0.852905       -23.2087
  15   2.0000      -0.786754       -21.4087
  16   2.0000      -0.785132       -21.3645
  17   2.0000      -0.718470       -19.5506
  18   2.0000      -0.652308       -17.7502
  19   2.0000      -0.633900       -17.2493
  20   2.0000      -0.612281       -16.6610
  21   2.0000      -0.604391       -16.4463
  22   2.0000      -0.558348       -15.1934
  23   2.0000      -0.538841       -14.6626
  24   2.0000      -0.526506       -14.3270
  25   2.0000      -0.508687       -13.8421
  26   2.0000      -0.502384       -13.6706
  27   2.0000      -0.485753       -13.2180
  28   2.0000      -0.481112       -13.0917
  29   2.0000      -0.466838       -12.7033
  30   2.0000      -0.460026       -12.5179
  31   2.0000      -0.448442       -12.2027
  32   2.0000      -0.414972       -11.2920
  33   2.0000      -0.407633       -11.0922
  34   2.0000      -0.386356       -10.5133
  35   0.0000       0.035646         0.9700
  36   0.0000       0.041438         1.1276
  37   0.0000       0.041504         1.1294
  38   0.0000       0.045243         1.2311
  39   0.0000       0.059324         1.6143

MULLIKEN ATOMIC CHARGES
-----------------------
   0 C :    0.958618
   1 C :   -0.775009
   2 C :    0.713287
   3 C :    0.713287
   4 C :   -0.149026
   5 C :    0.282281
   6 C :    0.282281
   7 C :    0.579078
   8 C :    0.579078
   9 H :   -0.322309
  10 H :   -0.322309
  11 H :   -0.347705
  12 H :   -0.100434
  13 H :   -0.157762
  14 H :   -0.157762
  15 H :   -0.100434
  16 H :   -0.309233
  17 H :   -0.184544
  18 H :   -0.128761
  19 H :   -0.128761
  20 H :   -0.184544
  21 H :   -0.136859
  22 H :   -0.232800
  23 H :   -0.232800
  24 H :   -0.136859
Sum of atomic charges:   -0.0000000

LOEWDIN ATOMIC CHARGES
----------------------
   0 C :    0.031504
   1 C :   -0.210024
   2 C :    0.046108
   3 C :    0.046108
   4 C :   -0.138952
   5 C :    0.028047
   6 C :    0.028047
   7 C :    0.043021
   8 C :    0.043021
   9 H :    0.015530
  10 H :    0.015530
  11 H :   -0.029637
  12 H :    0.010274
  13 H :    0.008598
  14 H :    0.008598
  15 H :    0.010274
  16 H :    0.024417
  17 H :    0.002622
  18 H :   -0.002646
  19 H :   -0.002646
  20 H :    0.002622
  21 H :    0.004190
  22 H :    0.005603
  23 H :    0.005603
  24 H :    0.004190

  Mayer bond orders larger than 0.100000
B(  0-C ,  1-C ) :   1.0875 B(  0-C ,  2-C ) :  -0.1314 B(  0-C ,  3-C ) :  -0.1314
B(  0-C ,  4-C ) :   1.2061 B(  0-C ,  7-C ) :  -0.1205 B(  0-C ,  8-C ) :  -0.1205
B(  0-C ,  9-H ) :   0.6641 B(  0-C , 10-H ) :   0.6641 B(  0-C , 11-H ) :  -0.2012
B(  1-C ,  2-C ) :   1.2770 B(  1-C ,  3-C ) :   1.2770 B(  1-C ,  5-C ) :   0.1102
B(  1-C ,  6-C ) :   0.1102 B(  1-C ,  7-C ) :   0.1286 B(  1-C ,  8-C ) :   0.1286
B(  1-C , 11-H ) :   0.9881 B(  1-C , 12-H ) :   0.3474 B(  1-C , 15-H ) :   0.3474
B(  2-C ,  5-C ) :   1.1708 B(  2-C ,  8-C ) :  -0.1442 B(  2-C , 11-H ) :  -0.2406
B(  2-C , 12-H ) :   0.6320 B(  2-C , 13-H ) :   0.5969 B(  2-C , 18-H ) :   0.1131
B(  3-C ,  6-C ) :   1.1708 B(  3-C ,  7-C ) :  -0.1442 B(  3-C , 11-H ) :  -0.2406
B(  3-C , 14-H ) :   0.5969 B(  3-C , 15-H ) :   0.6320 B(  3-C , 19-H ) :   0.1131
B(  4-C ,  7-C ) :   1.1177 B(  4-C ,  8-C ) :   1.1177 B(  4-C , 16-H ) :   0.3797
B(  5-C ,  8-C ) :   1.2252 B(  5-C ,  9-H ) :   0.1618 B(  5-C , 17-H ) :   0.8188
B(  5-C , 18-H ) :   0.7591 B(  6-C ,  7-C ) :   1.2252 B(  6-C , 10-H ) :   0.1618
B(  6-C , 19-H ) :   0.7591 B(  6-C , 20-H ) :   0.8188 B(  7-C , 21-H ) :   0.6632
B(  7-C , 22-H ) :   0.7814 B(  8-C , 23-H ) :   0.7814 B(  8-C , 24-H ) :   0.6632
B(  9-H , 10-H ) :  -0.3471 B( 11-H , 13-H ) :   0.1123 B( 11-H , 14-H ) :   0.1123
B( 11-H , 21-H ) :   0.1416 B( 11-H , 24-H ) :   0.1416 B( 12-H , 13-H ) :  -0.2562
B( 14-H , 15-H ) :  -0.2562 B( 17-H , 18-H ) :  -0.1679 B( 19-H , 20-H ) :  -0.1679
B( 21-H , 22-H ) :  -0.1839 B( 23-H , 24-H ) :  -0.1839

MP2 TOTAL ENERGY:     -351.421573611 Eh
FINAL SINGLE POINT ENERGY      -351.421573610803

DIPOLE MOMENT
-------------
                                X             Y             Z
Electronic contribution:     -0.74615       0.49859      -0.00000
Nuclear contribution   :      0.78125      -0.56460       0.00000
                        -----------------------------------------
Total Dipole Moment    :      0.03510      -0.06600      -0.00000
                        -----------------------------------------
Magnitude (a.u.)       :      0.07476
Magnitude (Debye)      :      0.19002

Rotational constants in cm-1:     0.085035     0.053859     0.040057
Rotational constants in MHz :  2549.299993  1614.654851  1200.879065

                             ****ORCA TERMINATED NORMALLY****
TOTAL RUN TIME: 0 days 0 hours 2 minutes 28 seconds 400 msec
