                         Program Version 5.0.3 -  RELEASE  -
|  1> !ri-mp2 aug-cc-pvdz aug-cc-pvdz/c tightscf
|  2> %pal nprocs 16 end
|  3> %maxcore 3800
|  4>
|  5> * xyz 0 1
|  6> C      0.000000    0.000000   -0.741117
|  7> C     -0.402579    1.130241   -1.461501
|  8> C      0.402579   -1.130241   -1.461501
|  9> C      0.403188   -1.130626   -2.850176
| 10> C      0.000000    0.000000   -3.551569
| 11> C     -0.403188    1.130626   -2.850176
| 12> C      0.000000    0.000000    0.741117
| 13> C      0.402579    1.130241    1.461501
| 14> C      0.403188    1.130626    2.850176
| 15> C      0.000000    0.000000    3.551569
| 16> C     -0.403188   -1.130626    2.850176
| 17> C     -0.402579   -1.130241    1.461501
| 18> H     -0.727357   -2.013375    3.385168
| 19> H     -0.727357    2.013375   -3.385168
| 20> H      0.000000    0.000000    4.633120
| 21> H      0.000000    0.000000   -4.633120
| 22> H      0.727357   -2.013375   -3.385168
| 23> H      0.727357    2.013375    3.385168
| 24> H      0.740949    2.008623    0.928761
| 25> H      0.740949   -2.008623   -0.928761
| 26> H     -0.740949   -2.008623    0.928761
| 27> H     -0.740949    2.008623   -0.928761
| 28> *
| 29>
| 30>                          ****END OF INPUT****

CARTESIAN COORDINATES (ANGSTROEM)
---------------------------------
  C      0.000000    0.000000   -0.741117
  C     -0.402579    1.130241   -1.461501
  C      0.402579   -1.130241   -1.461501
  C      0.403188   -1.130626   -2.850176
  C      0.000000    0.000000   -3.551569
  C     -0.403188    1.130626   -2.850176
  C      0.000000    0.000000    0.741117
  C      0.402579    1.130241    1.461501
  C      0.403188    1.130626    2.850176
  C      0.000000    0.000000    3.551569
  C     -0.403188   -1.130626    2.850176
  C     -0.402579   -1.130241    1.461501
  H     -0.727357   -2.013375    3.385168
  H     -0.727357    2.013375   -3.385168
  H      0.000000    0.000000    4.633120
  H      0.000000    0.000000   -4.633120
  H      0.727357   -2.013375   -3.385168
  H      0.727357    2.013375    3.385168
  H      0.740949    2.008623    0.928761
  H      0.740949   -2.008623   -0.928761
  H     -0.740949   -2.008623    0.928761
  H     -0.740949    2.008623   -0.928761

 Total Charge           Charge          ....    0
 Multiplicity           Mult            ....    1
 Number of Electrons    NEL             ....   82
 Basis Dimension        Dim             ....  366

ORBITAL ENERGIES
----------------

  NO   OCC          E(Eh)            E(eV)
   0   2.0000     -11.251588      -306.1713
   1   2.0000     -11.250855      -306.1513
   2   2.0000     -11.242146      -305.9143
   3   2.0000     -11.242145      -305.9143
   4   2.0000     -11.241845      -305.9062
   5   2.0000     -11.241845      -305.9062
   6   2.0000     -11.240092      -305.8584
   7   2.0000     -11.240091      -305.8584
   8   2.0000     -11.239909      -305.8535
   9   2.0000     -11.239903      -305.8533
  10   2.0000     -11.239556      -305.8439
  11   2.0000     -11.239556      -305.8439
  12   2.0000      -1.175124       -31.9767
  13   2.0000      -1.147261       -31.2186
  14   2.0000      -1.058551       -28.8046
  15   2.0000      -1.024501       -27.8781
  16   2.0000      -1.015919       -27.6446
  17   2.0000      -0.987659       -26.8756
  18   2.0000      -0.856056       -23.2945
  19   2.0000      -0.846017       -23.0213
  20   2.0000      -0.813742       -22.1430
  21   2.0000      -0.794114       -21.6089
  22   2.0000      -0.722617       -19.6634
  23   2.0000      -0.684677       -18.6310
  24   2.0000      -0.656603       -17.8671
  25   2.0000      -0.643130       -17.5005
  26   2.0000      -0.617884       -16.8135
  27   2.0000      -0.609691       -16.5905
  28   2.0000      -0.593390       -16.1470
  29   2.0000      -0.588079       -16.0024
  30   2.0000      -0.584127       -15.8949
  31   2.0000      -0.522554       -14.2194
  32   2.0000      -0.518964       -14.1217
  33   2.0000      -0.504811       -13.7366
  34   2.0000      -0.492922       -13.4131
  35   2.0000      -0.486324       -13.2335
  36   2.0000      -0.483619       -13.1600
  37   2.0000      -0.370142       -10.0721
  38   2.0000      -0.339276        -9.2322
  39   2.0000      -0.339165        -9.2291
  40   2.0000      -0.302409        -8.2290
  41   0.0000       0.034641         0.9426
  42   0.0000       0.037337         1.0160
  43   0.0000       0.039051         1.0626
  44   0.0000       0.047676         1.2973
  45   0.0000       0.049422         1.3448

MULLIKEN ATOMIC CHARGES
-----------------------
   0 C :    1.334583
   1 C :    0.161726
   2 C :    0.161726
   3 C :    0.210564
   4 C :    0.483783
   5 C :    0.210564
   6 C :    1.334583
   7 C :    0.161727
   8 C :    0.210564
   9 C :    0.483783
  10 C :    0.210564
  11 C :    0.161727
  12 H :   -0.467316
  13 H :   -0.467316
  14 H :   -0.443970
  15 H :   -0.443970
  16 H :   -0.467316
  17 H :   -0.467316
  18 H :   -0.592172
  19 H :   -0.592172
  20 H :   -0.592172
  21 H :   -0.592172
Sum of atomic charges:   -0.0000000

LOEWDIN ATOMIC CHARGES
----------------------
   0 C :   -0.144455
   1 C :    0.051105
   2 C :    0.051105
   3 C :    0.012290
   4 C :    0.007722
   5 C :    0.012290
   6 C :   -0.144455
   7 C :    0.051105
   8 C :    0.012290
   9 C :    0.007722
  10 C :    0.012290
  11 C :    0.051105
  12 H :    0.000769
  13 H :    0.000769
  14 H :   -0.001405
  15 H :   -0.001405
  16 H :    0.000769
  17 H :    0.000769
  18 H :    0.004905
  19 H :    0.004905
  20 H :    0.004905
  21 H :    0.004905

  Mayer bond orders larger than 0.100000
B(  0-C ,  1-C ) :   1.3516 B(  0-C ,  2-C ) :   1.3516 B(  0-C ,  3-C ) :  -0.5962
B(  0-C ,  4-C ) :   0.1447 B(  0-C ,  5-C ) :  -0.5962 B(  0-C ,  6-C ) :   2.6412
B(  0-C ,  7-C ) :  -0.7405 B(  0-C ,  8-C ) :   0.2435 B(  0-C ,  9-C ) :  -0.1213
B(  0-C , 10-C ) :   0.2435 B(  0-C , 11-C ) :  -0.7405 B(  0-C , 19-H ) :   0.4746
B(  0-C , 21-H ) :   0.4746 B(  1-C ,  2-C ) :  -0.7830 B(  1-C ,  3-C ) :   0.1925
B(  1-C ,  5-C ) :   2.0144 B(  1-C ,  6-C ) :  -0.7405 B(  1-C , 10-C ) :   0.1219
B(  1-C , 11-C ) :   0.2147 B(  1-C , 13-H ) :   0.5093 B(  1-C , 21-H ) :  -0.1227
B(  2-C ,  3-C ) :   2.0144 B(  2-C ,  5-C ) :   0.1925 B(  2-C ,  6-C ) :  -0.7405
B(  2-C ,  7-C ) :   0.2147 B(  2-C ,  8-C ) :   0.1219 B(  2-C , 16-H ) :   0.5093
B(  2-C , 19-H ) :  -0.1227 B(  3-C ,  4-C ) :   1.7903 B(  3-C ,  6-C ) :   0.2435
B(  3-C ,  7-C ) :   0.1219 B(  3-C , 13-H ) :  -0.1311 B(  3-C , 15-H ) :   0.2043
B(  3-C , 16-H ) :   0.1271 B(  3-C , 19-H ) :   0.2722 B(  4-C ,  5-C ) :   1.7903
B(  4-C ,  6-C ) :  -0.1213 B(  4-C , 13-H ) :   0.1160 B(  4-C , 15-H ) :   0.3164
B(  4-C , 16-H ) :   0.1160 B(  5-C ,  6-C ) :   0.2435 B(  5-C , 11-C ) :   0.1219
B(  5-C , 13-H ) :   0.1271 B(  5-C , 15-H ) :   0.2043 B(  5-C , 16-H ) :  -0.1311
B(  5-C , 21-H ) :   0.2722 B(  6-C ,  7-C ) :   1.3516 B(  6-C ,  8-C ) :  -0.5962
B(  6-C ,  9-C ) :   0.1447 B(  6-C , 10-C ) :  -0.5962 B(  6-C , 11-C ) :   1.3516
B(  6-C , 18-H ) :   0.4746 B(  6-C , 20-H ) :   0.4746 B(  7-C ,  8-C ) :   2.0144
B(  7-C , 10-C ) :   0.1925 B(  7-C , 11-C ) :  -0.7830 B(  7-C , 17-H ) :   0.5093
B(  7-C , 18-H ) :  -0.1227 B(  8-C ,  9-C ) :   1.7903 B(  8-C , 11-C ) :   0.1925
B(  8-C , 12-H ) :  -0.1311 B(  8-C , 14-H ) :   0.2043 B(  8-C , 17-H ) :   0.1271
B(  8-C , 18-H ) :   0.2722 B(  9-C , 10-C ) :   1.7903 B(  9-C , 12-H ) :   0.1160
B(  9-C , 14-H ) :   0.3164 B(  9-C , 17-H ) :   0.1160 B( 10-C , 11-C ) :   2.0144
B( 10-C , 12-H ) :   0.1271 B( 10-C , 14-H ) :   0.2043 B( 10-C , 17-H ) :  -0.1311
B( 10-C , 20-H ) :   0.2722 B( 11-C , 12-H ) :   0.5093 B( 11-C , 20-H ) :  -0.1227

MP2 TOTAL ENERGY:     -461.917008501 Eh
FINAL SINGLE POINT ENERGY      -461.917008500912

DIPOLE MOMENT
-------------
                                X             Y             Z
Electronic contribution:      0.00000      -0.00000      -0.00000
Nuclear contribution   :      0.00000       0.00000      -0.00000
                        -----------------------------------------
Total Dipole Moment    :      0.00000      -0.00000      -0.00000
                        -----------------------------------------
Magnitude (a.u.)       :      0.00000
Magnitude (Debye)      :      0.00000

Rotational constants in cm-1:     0.096140     0.018284     0.015942
Rotational constants in MHz :  2882.217325   548.130110   477.916535

                             ****ORCA TERMINATED NORMALLY****
TOTAL RUN TIME: 0 days 0 hours 2 minutes 24 seconds 338 msec
