                         Program Version 5.0.3 -  RELEASE  -
|  1> !ri-mp2 aug-cc-pvdz aug-cc-pvdz/c tightscf
|  2> %pal nprocs 16 end
|  3> %maxcore 3800
|  4>
|  5> * xyz 0 1
|  6> C    -2.260008    1.718793    0.000000
|  7> C     2.618522    1.097828    0.000000
|  8> C    -0.358514   -2.816621    0.000000
|  9> C    -1.636395    2.936436    0.000000
| 10> C     3.361226   -0.051059    0.000000
| 11> C    -1.724831   -2.885378    0.000000
| 12> C    -1.235698    0.719678    0.000000
| 13> C     1.241108    0.710307    0.000000
| 14> C    -0.005410   -1.429985    0.000000
| 15> C     0.000000    1.392828    0.000000
| 16> C     1.206225   -0.696414    0.000000
| 17> C    -1.206225   -0.696414    0.000000
| 18> N    -0.273028    2.739129    0.000000
| 19> N     2.508669   -1.133115    0.000000
| 20> N    -2.235641   -1.606014    0.000000
| 21> H    -3.326106    1.566758    0.000000
| 22> H     3.019905    2.097113    0.000000
| 23> H     0.306200   -3.663871    0.000000
| 24> H    -2.050289    3.929412    0.000000
| 25> H     4.428115   -0.189104    0.000000
| 26> H    -2.377826   -3.740308    0.000000
| 27> H     0.415105    3.468383    0.000000
| 28> H     2.796155   -2.093683    0.000000
| 29> H    -3.211260   -1.374700    0.000000
| 30> *
| 31>
| 32>                          ****END OF INPUT****

CARTESIAN COORDINATES (ANGSTROEM)
---------------------------------
  C     -2.260008    1.718793    0.000000
  C      2.618522    1.097828    0.000000
  C     -0.358514   -2.816621    0.000000
  C     -1.636395    2.936436    0.000000
  C      3.361226   -0.051059    0.000000
  C     -1.724831   -2.885378    0.000000
  C     -1.235698    0.719678    0.000000
  C      1.241108    0.710307    0.000000
  C     -0.005410   -1.429985    0.000000
  C      0.000000    1.392828    0.000000
  C      1.206225   -0.696414    0.000000
  C     -1.206225   -0.696414    0.000000
  N     -0.273028    2.739129    0.000000
  N      2.508669   -1.133115    0.000000
  N     -2.235641   -1.606014    0.000000
  H     -3.326106    1.566758    0.000000
  H      3.019905    2.097113    0.000000
  H      0.306200   -3.663871    0.000000
  H     -2.050289    3.929412    0.000000
  H      4.428115   -0.189104    0.000000
  H     -2.377826   -3.740308    0.000000
  H      0.415105    3.468383    0.000000
  H      2.796155   -2.093683    0.000000
  H     -3.211260   -1.374700    0.000000

 Total Charge           Charge          ....    0
 Multiplicity           Mult            ....    1
 Number of Electrons    NEL             ....  102
 Basis Dimension        Dim             ....  426

ORBITAL ENERGIES
----------------

  NO   OCC          E(Eh)            E(eV)
   0   2.0000     -15.605059      -424.6352
   1   2.0000     -15.605058      -424.6352
   2   2.0000     -15.605058      -424.6352
   3   2.0000     -11.263899      -306.5063
   4   2.0000     -11.263890      -306.5060
   5   2.0000     -11.263889      -306.5060
   6   2.0000     -11.262618      -306.4714
   7   2.0000     -11.262618      -306.4714
   8   2.0000     -11.262617      -306.4714
   9   2.0000     -11.219348      -305.2940
  10   2.0000     -11.219347      -305.2940
  11   2.0000     -11.219334      -305.2936
  12   2.0000     -11.218357      -305.2670
  13   2.0000     -11.218357      -305.2670
  14   2.0000     -11.218330      -305.2663
  15   2.0000      -1.301767       -35.4229
  16   2.0000      -1.287989       -35.0480
  17   2.0000      -1.287989       -35.0480
  18   2.0000      -1.102352       -29.9965
  19   2.0000      -1.056957       -28.7613
  20   2.0000      -1.056957       -28.7613
  21   2.0000      -1.007975       -27.4284
  22   2.0000      -0.960976       -26.1495
  23   2.0000      -0.960976       -26.1495
  24   2.0000      -0.820243       -22.3200
  25   2.0000      -0.820243       -22.3200
  26   2.0000      -0.814589       -22.1661
  27   2.0000      -0.782095       -21.2819
  28   2.0000      -0.774840       -21.0845
  29   2.0000      -0.774840       -21.0845
  30   2.0000      -0.679216       -18.4824
  31   2.0000      -0.672281       -18.2937
  32   2.0000      -0.672281       -18.2937
  33   2.0000      -0.599820       -16.3219
  34   2.0000      -0.595359       -16.2005
  35   2.0000      -0.588977       -16.0269
  36   2.0000      -0.588977       -16.0269
  37   2.0000      -0.578501       -15.7418
  38   2.0000      -0.567415       -15.4401
  39   2.0000      -0.567415       -15.4401
  40   2.0000      -0.558385       -15.1944
  41   2.0000      -0.558385       -15.1944
  42   2.0000      -0.544627       -14.8201
  43   2.0000      -0.499291       -13.5864
  44   2.0000      -0.499291       -13.5864
  45   2.0000      -0.404330       -11.0024
  46   2.0000      -0.373864       -10.1734
  47   2.0000      -0.373864       -10.1734
  48   2.0000      -0.319079        -8.6826
  49   2.0000      -0.248364        -6.7583
  50   2.0000      -0.248364        -6.7583
  51   0.0000       0.031650         0.8612
  52   0.0000       0.033279         0.9056
  53   0.0000       0.033279         0.9056
  54   0.0000       0.046046         1.2530
  55   0.0000       0.046046         1.2530

MULLIKEN ATOMIC CHARGES
-----------------------
   0 C :    0.502862
   1 C :    0.502868
   2 C :    0.502834
   3 C :    0.783710
   4 C :    0.783713
   5 C :    0.783730
   6 C :    1.520121
   7 C :    1.520009
   8 C :    1.520103
   9 C :   -1.094157
  10 C :   -1.094053
  11 C :   -1.094083
  12 N :   -0.701641
  13 N :   -0.701652
  14 N :   -0.701647
  15 H :   -0.466065
  16 H :   -0.466067
  17 H :   -0.466064
  18 H :   -0.421846
  19 H :   -0.421850
  20 H :   -0.421850
  21 H :   -0.122992
  22 H :   -0.122991
  23 H :   -0.122992
Sum of atomic charges:   -0.0000000

LOEWDIN ATOMIC CHARGES
----------------------
   0 C :    0.048914
   1 C :    0.048914
   2 C :    0.048914
   3 C :    0.028542
   4 C :    0.028542
   5 C :    0.028542
   6 C :   -0.103268
   7 C :   -0.103268
   8 C :   -0.103267
   9 C :   -0.094144
  10 C :   -0.094144
  11 C :   -0.094143
  12 N :    0.111397
  13 N :    0.111396
  14 N :    0.111396
  15 H :   -0.012487
  16 H :   -0.012488
  17 H :   -0.012488
  18 H :   -0.004980
  19 H :   -0.004980
  20 H :   -0.004981
  21 H :    0.026027
  22 H :    0.026027
  23 H :    0.026027

  Mayer bond orders larger than 0.100000
B(  0-C ,  1-C ) :   0.1100 B(  0-C ,  2-C ) :   0.1099 B(  0-C ,  3-C ) :   1.3969
B(  0-C ,  6-C ) :   1.3555 B(  0-C ,  7-C ) :  -0.5776 B(  0-C ,  8-C ) :  -0.4241
B(  0-C ,  9-C ) :  -0.1487 B(  0-C , 10-C ) :  -0.1298 B(  0-C , 11-C ) :   0.5905
B(  0-C , 12-N ) :   0.1103 B(  0-C , 15-H ) :  -0.2481 B(  1-C ,  2-C ) :   0.1100
B(  1-C ,  4-C ) :   1.3970 B(  1-C ,  6-C ) :  -0.4241 B(  1-C ,  7-C ) :   1.3555
B(  1-C ,  8-C ) :  -0.5776 B(  1-C ,  9-C ) :   0.5905 B(  1-C , 10-C ) :  -0.1487
B(  1-C , 11-C ) :  -0.1298 B(  1-C , 13-N ) :   0.1103 B(  1-C , 16-H ) :  -0.2481
B(  2-C ,  5-C ) :   1.3970 B(  2-C ,  6-C ) :  -0.5777 B(  2-C ,  7-C ) :  -0.4241
B(  2-C ,  8-C ) :   1.3555 B(  2-C ,  9-C ) :  -0.1297 B(  2-C , 10-C ) :   0.5905
B(  2-C , 11-C ) :  -0.1487 B(  2-C , 14-N ) :   0.1103 B(  2-C , 17-H ) :  -0.2481
B(  3-C ,  6-C ) :  -0.6192 B(  3-C ,  7-C ) :   0.5590 B(  3-C ,  8-C ) :   0.1988
B(  3-C ,  9-C ) :   0.4406 B(  3-C , 10-C ) :   0.3789 B(  3-C , 11-C ) :  -0.6598
B(  3-C , 12-N ) :   0.8926 B(  3-C , 18-H ) :   0.5513 B(  3-C , 21-H ) :  -0.1943
B(  4-C ,  6-C ) :   0.1988 B(  4-C ,  7-C ) :  -0.6192 B(  4-C ,  8-C ) :   0.5590
B(  4-C ,  9-C ) :  -0.6597 B(  4-C , 10-C ) :   0.4406 B(  4-C , 11-C ) :   0.3789
B(  4-C , 13-N ) :   0.8926 B(  4-C , 19-H ) :   0.5513 B(  4-C , 22-H ) :  -0.1943
B(  5-C ,  6-C ) :   0.5590 B(  5-C ,  7-C ) :   0.1987 B(  5-C ,  8-C ) :  -0.6193
B(  5-C ,  9-C ) :   0.3788 B(  5-C , 10-C ) :  -0.6597 B(  5-C , 11-C ) :   0.4406
B(  5-C , 14-N ) :   0.8926 B(  5-C , 20-H ) :   0.5513 B(  5-C , 23-H ) :  -0.1943
B(  6-C ,  7-C ) :   1.0708 B(  6-C ,  8-C ) :   1.0709 B(  6-C ,  9-C ) :   0.3100
B(  6-C , 11-C ) :   0.5815 B(  6-C , 14-N ) :  -0.4746 B(  6-C , 15-H ) :   0.9368
B(  6-C , 18-H ) :  -0.5144 B(  6-C , 20-H ) :   0.2798 B(  6-C , 23-H ) :   0.1076
B(  7-C ,  8-C ) :   1.0708 B(  7-C ,  9-C ) :   0.5816 B(  7-C , 10-C ) :   0.3101
B(  7-C , 12-N ) :  -0.4746 B(  7-C , 16-H ) :   0.9367 B(  7-C , 18-H ) :   0.2798
B(  7-C , 19-H ) :  -0.5144 B(  7-C , 21-H ) :   0.1076 B(  8-C , 10-C ) :   0.5817
B(  8-C , 11-C ) :   0.3100 B(  8-C , 13-N ) :  -0.4746 B(  8-C , 17-H ) :   0.9367
B(  8-C , 19-H ) :   0.2798 B(  8-C , 20-H ) :  -0.5144 B(  8-C , 22-H ) :   0.1076
B(  9-C , 10-C ) :   0.6881 B(  9-C , 11-C ) :   0.6881 B(  9-C , 12-N ) :   1.0414
B(  9-C , 13-N ) :   0.1830 B(  9-C , 14-N ) :  -0.2107 B(  9-C , 15-H ) :  -0.1175
B(  9-C , 16-H ) :   0.2336 B(  9-C , 18-H ) :   0.8238 B(  9-C , 19-H ) :  -0.2034
B(  9-C , 21-H ) :  -0.2029 B( 10-C , 11-C ) :   0.6880 B( 10-C , 12-N ) :  -0.2107
B( 10-C , 13-N ) :   1.0415 B( 10-C , 14-N ) :   0.1830 B( 10-C , 16-H ) :  -0.1176
B( 10-C , 17-H ) :   0.2335 B( 10-C , 19-H ) :   0.8238 B( 10-C , 20-H ) :  -0.2034
B( 10-C , 22-H ) :  -0.2029 B( 11-C , 12-N ) :   0.1830 B( 11-C , 13-N ) :  -0.2107
B( 11-C , 14-N ) :   1.0415 B( 11-C , 15-H ) :   0.2335 B( 11-C , 17-H ) :  -0.1175
B( 11-C , 18-H ) :  -0.2034 B( 11-C , 20-H ) :   0.8238 B( 11-C , 23-H ) :  -0.2029
B( 12-N , 18-H ) :  -0.1233 B( 12-N , 21-H ) :   1.2452 B( 13-N , 19-H ) :  -0.1233
B( 13-N , 22-H ) :   1.2452 B( 14-N , 20-H ) :  -0.1233 B( 14-N , 23-H ) :   1.2452

MP2 TOTAL ENERGY:     -625.210361995 Eh
FINAL SINGLE POINT ENERGY      -625.210361994921

DIPOLE MOMENT
-------------
                                X             Y             Z
Electronic contribution:      0.00000      -0.00000       0.00000
Nuclear contribution   :     -0.00000       0.00000       0.00000
                        -----------------------------------------
Total Dipole Moment    :     -0.00000      -0.00000       0.00000
                        -----------------------------------------
Magnitude (a.u.)       :      0.00000
Magnitude (Debye)      :      0.00000

Rotational constants in cm-1:     0.025998     0.025998     0.012999
Rotational constants in MHz :   779.390853   779.390774   389.695407

                             ****ORCA TERMINATED NORMALLY****
TOTAL RUN TIME: 0 days 0 hours 4 minutes 44 seconds 527 msec
