                         Program Version 5.0.3 -  RELEASE  -
|  1> !ri-mp2 aug-cc-pvdz aug-cc-pvdz/c tightscf
|  2> %pal nprocs 16 end
|  3>
|  4> * xyz 0 1
|  5> H     -1.102142   -2.369592    0.000000
|  6> H     -1.825210   -0.706722    0.000000
|  7> C     -0.167576    1.451617    0.000000
|  8> H     -1.252508    1.558566    0.000000
|  9> H      0.244759    2.460062    0.000000
| 10> C      0.285460    0.631379    1.227651
| 11> H     -0.356020    0.801607    2.094810
| 12> H      1.301459    0.910417    1.518369
| 13> C      0.285460    0.631379   -1.227651
| 14> H      1.301459    0.910417   -1.518369
| 15> H     -0.356020    0.801607   -2.094810
| 16> C     -0.922260   -1.303615    0.000000
| 17> C      0.285460   -0.812956    0.755445
| 18> H      0.866098   -1.537728    1.309572
| 19> C      0.285460   -0.812956   -0.755445
| 20> H      0.866098   -1.537728   -1.309572
| 21> *
| 22>
| 23>                          ****END OF INPUT****

CARTESIAN COORDINATES (ANGSTROEM)
---------------------------------
  H     -1.102142   -2.369592    0.000000
  H     -1.825210   -0.706722    0.000000
  C     -0.167576    1.451617    0.000000
  H     -1.252508    1.558566    0.000000
  H      0.244759    2.460062    0.000000
  C      0.285460    0.631379    1.227651
  H     -0.356020    0.801607    2.094810
  H      1.301459    0.910417    1.518369
  C      0.285460    0.631379   -1.227651
  H      1.301459    0.910417   -1.518369
  H     -0.356020    0.801607   -2.094810
  C     -0.922260   -1.303615    0.000000
  C      0.285460   -0.812956    0.755445
  H      0.866098   -1.537728    1.309572
  C      0.285460   -0.812956   -0.755445
  H      0.866098   -1.537728   -1.309572

 Total Charge           Charge          ....    0
 Multiplicity           Mult            ....    1
 Number of Electrons    NEL             ....   46
 Basis Dimension        Dim             ....  228

ORBITAL ENERGIES
----------------

  NO   OCC          E(Eh)            E(eV)
   0   2.0000     -11.225519      -305.4619
   1   2.0000     -11.224802      -305.4424
   2   2.0000     -11.221481      -305.3520
   3   2.0000     -11.221362      -305.3488
   4   2.0000     -11.221281      -305.3466
   5   2.0000     -11.219970      -305.3109
   6   2.0000      -1.169887       -31.8342
   7   2.0000      -1.023039       -27.8383
   8   2.0000      -0.957497       -26.0548
   9   2.0000      -0.843890       -22.9634
  10   2.0000      -0.758510       -20.6401
  11   2.0000      -0.746662       -20.3177
  12   2.0000      -0.683934       -18.6108
  13   2.0000      -0.625205       -17.0127
  14   2.0000      -0.590196       -16.0600
  15   2.0000      -0.559221       -15.2172
  16   2.0000      -0.546116       -14.8606
  17   2.0000      -0.491996       -13.3879
  18   2.0000      -0.473073       -12.8730
  19   2.0000      -0.468771       -12.7559
  20   2.0000      -0.461562       -12.5597
  21   2.0000      -0.398653       -10.8479
  22   2.0000      -0.384367       -10.4591
  23   0.0000       0.036581         0.9954
  24   0.0000       0.045053         1.2260
  25   0.0000       0.046184         1.2567
  26   0.0000       0.047376         1.2892
  27   0.0000       0.065315         1.7773

MULLIKEN ATOMIC CHARGES
-----------------------
   0 H :   -0.404577
   1 H :   -0.403884
   2 C :    0.265548
   3 H :   -0.207379
   4 H :   -0.164224
   5 C :    0.407803
   6 H :   -0.105775
   7 H :   -0.140876
   8 C :    0.407803
   9 H :   -0.140876
  10 H :   -0.105775
  11 C :    0.816979
  12 C :    0.297464
  13 H :   -0.409846
  14 C :    0.297464
  15 H :   -0.409846
Sum of atomic charges:    0.0000000

LOEWDIN ATOMIC CHARGES
----------------------
   0 H :   -0.000775
   1 H :   -0.000117
   2 C :    0.000533
   3 H :    0.003731
   4 H :    0.007150
   5 C :    0.016826
   6 H :    0.012389
   7 H :    0.014554
   8 C :    0.016826
   9 H :    0.014554
  10 H :    0.012389
  11 C :    0.092742
  12 C :   -0.118989
  13 H :    0.023589
  14 C :   -0.118989
  15 H :    0.023589

  Mayer bond orders larger than 0.100000
B(  0-H ,  1-H ) :  -0.2041 B(  0-H , 11-C ) :   0.6831 B(  1-H , 11-C ) :   0.7043
B(  2-C ,  3-H ) :   0.7571 B(  2-C ,  4-H ) :   0.8585 B(  2-C ,  5-C ) :   1.1622
B(  2-C ,  8-C ) :   1.1622 B(  3-H ,  4-H ) :  -0.1669 B(  5-C ,  6-H ) :   0.7851
B(  5-C ,  7-H ) :   0.6935 B(  5-C , 12-C ) :   1.2296 B(  6-H ,  7-H ) :  -0.1309
B(  7-H , 12-C ) :   0.1472 B(  8-C ,  9-H ) :   0.6935 B(  8-C , 10-H ) :   0.7851
B(  8-C , 14-C ) :   1.2296 B(  9-H , 10-H ) :  -0.1309 B(  9-H , 14-C ) :   0.1472
B( 11-C , 12-C ) :   1.0370 B( 11-C , 14-C ) :   1.0370 B( 12-C , 13-H ) :   0.5268
B( 12-C , 14-C ) :   0.8403 B( 14-C , 15-H ) :   0.5268

MP2 TOTAL ENERGY:     -233.891206576 Eh
FINAL SINGLE POINT ENERGY      -233.891206575627

DIPOLE MOMENT
-------------
                                X             Y             Z
Electronic contribution:      0.39892      -1.33195       0.00000
Nuclear contribution   :     -0.32815       1.35762       0.00000
                        -----------------------------------------
Total Dipole Moment    :      0.07077       0.02567       0.00000
                        -----------------------------------------
Magnitude (a.u.)       :      0.07528
Magnitude (Debye)      :      0.19135

Rotational constants in cm-1:     0.185897     0.141100     0.103726
Rotational constants in MHz :  5573.039996  4230.078504  3109.633443

                             ****ORCA TERMINATED NORMALLY****
TOTAL RUN TIME: 0 days 0 hours 0 minutes 42 seconds 895 msec
