                         Program Version 5.0.3 -  RELEASE  -
|  1> !ri-mp2 aug-cc-pvdz aug-cc-pvdz/c tightscf
|  2> %pal nprocs 16 end
|  3>
|  4> * xyz 0 1
|  5> C      0.000000    1.455634   -0.133697
|  6> C      0.000000    0.700529    1.053581
|  7> C      0.000000   -0.700529    1.053581
|  8> C      0.000000   -1.455634   -0.133697
|  9> C      0.000000   -0.620534   -1.230930
| 10> C      0.000000    0.620534   -1.230930
| 11> H      0.000000    2.535415   -0.135167
| 12> H      0.000000    1.224463    2.001444
| 13> H      0.000000   -1.224463    2.001444
| 14> H      0.000000   -2.535415   -0.135167
| 15> *
| 16>
| 17>                          ****END OF INPUT****

CARTESIAN COORDINATES (ANGSTROEM)
---------------------------------
  C      0.000000    1.455634   -0.133697
  C      0.000000    0.700529    1.053581
  C      0.000000   -0.700529    1.053581
  C      0.000000   -1.455634   -0.133697
  C      0.000000   -0.620534   -1.230930
  C      0.000000    0.620534   -1.230930
  H      0.000000    2.535415   -0.135167
  H      0.000000    1.224463    2.001444
  H      0.000000   -1.224463    2.001444
  H      0.000000   -2.535415   -0.135167

 Total Charge           Charge          ....    0
 Multiplicity           Mult            ....    1
 Number of Electrons    NEL             ....   40
 Basis Dimension        Dim             ....  174

ORBITAL ENERGIES
----------------

  NO   OCC          E(Eh)            E(eV)
   0   2.0000     -11.281447      -306.9838
   1   2.0000     -11.281432      -306.9834
   2   2.0000     -11.259984      -306.3997
   3   2.0000     -11.258827      -306.3683
   4   2.0000     -11.257852      -306.3417
   5   2.0000     -11.254795      -306.2585
   6   2.0000      -1.181946       -32.1624
   7   2.0000      -1.035463       -28.1764
   8   2.0000      -1.022030       -27.8108
   9   2.0000      -0.853161       -23.2157
  10   2.0000      -0.798594       -21.7308
  11   2.0000      -0.696522       -18.9533
  12   2.0000      -0.648354       -17.6426
  13   2.0000      -0.637841       -17.3565
  14   2.0000      -0.555527       -15.1167
  15   2.0000      -0.550903       -14.9908
  16   2.0000      -0.531068       -14.4511
  17   2.0000      -0.377148       -10.2627
  18   2.0000      -0.357626        -9.7315
  19   2.0000      -0.355106        -9.6629
  20   0.0000       0.033850         0.9211
  21   0.0000       0.038836         1.0568
  22   0.0000       0.047120         1.2822
  23   0.0000       0.049192         1.3386
  24   0.0000       0.068676         1.8688

MULLIKEN ATOMIC CHARGES
-----------------------
   0 C :    0.520678
   1 C :    0.532330
   2 C :    0.532330
   3 C :    0.520678
   4 C :   -0.310616
   5 C :   -0.310616
   6 H :   -0.300584
   7 H :   -0.441807
   8 H :   -0.441807
   9 H :   -0.300584
Sum of atomic charges:    0.0000000

LOEWDIN ATOMIC CHARGES
----------------------
   0 C :   -0.007199
   1 C :    0.001658
   2 C :    0.001658
   3 C :   -0.007199
   4 C :    0.015067
   5 C :    0.015067
   6 H :   -0.009206
   7 H :   -0.000321
   8 H :   -0.000321
   9 H :   -0.009206

  Mayer bond orders larger than 0.100000
B(  0-C ,  1-C ) :   1.7620 B(  0-C ,  2-C ) :  -0.1010 B(  0-C ,  3-C ) :   0.2286
B(  0-C ,  4-C ) :   0.1317 B(  0-C ,  5-C ) :   1.2153 B(  0-C ,  6-H ) :   0.5567
B(  1-C ,  2-C ) :   1.6612 B(  1-C ,  3-C ) :  -0.1010 B(  1-C ,  7-H ) :   0.5210
B(  1-C ,  8-H ) :   0.2016 B(  2-C ,  3-C ) :   1.7620 B(  2-C ,  7-H ) :   0.2016
B(  2-C ,  8-H ) :   0.5210 B(  3-C ,  4-C ) :   1.2153 B(  3-C ,  5-C ) :   0.1317
B(  3-C ,  9-H ) :   0.5567 B(  4-C ,  5-C ) :   2.1258 B(  4-C ,  9-H ) :   0.1222
B(  5-C ,  6-H ) :   0.1222

MP2 TOTAL ENERGY:     -230.225480434 Eh
FINAL SINGLE POINT ENERGY      -230.225480433755

DIPOLE MOMENT
-------------
                                X             Y             Z
Electronic contribution:      0.00000      -0.00000      -2.96150
Nuclear contribution   :      0.00000       0.00000       3.68473
                        -----------------------------------------
Total Dipole Moment    :      0.00000      -0.00000       0.72323
                        -----------------------------------------
Magnitude (a.u.)       :      0.72323
Magnitude (Debye)      :      1.83831

Rotational constants in cm-1:     0.236022     0.191738     0.105794
Rotational constants in MHz :  7075.753978  5748.163081  3171.619685

                             ****ORCA TERMINATED NORMALLY****
TOTAL RUN TIME: 0 days 0 hours 0 minutes 28 seconds 715 msec
