                         Program Version 5.0.3 -  RELEASE  -
|  1> !ri-mp2 aug-cc-pvdz aug-cc-pvdz/c tightscf
|  2> %pal nprocs 16 end
|  3>
|  4> * xyz 0 1
|  5> O     -1.034291   -0.277068    0.000000
|  6> C      0.000000    0.628638    0.000000
|  7> O     -0.070941    1.813015    0.000000
|  8> C      1.084794   -0.444247    0.000000
|  9> H      1.709429   -0.440463    0.889880
| 10> H      1.709429   -0.440463   -0.889880
| 11> C     -0.101764   -1.414106    0.000000
| 12> H     -0.237589   -2.014177   -0.895897
| 13> H     -0.237589   -2.014177    0.895897
| 14> *
| 15>
| 16>                          ****END OF INPUT****

CARTESIAN COORDINATES (ANGSTROEM)
---------------------------------
  O     -1.034291   -0.277068    0.000000
  C      0.000000    0.628638    0.000000
  O     -0.070941    1.813015    0.000000
  C      1.084794   -0.444247    0.000000
  H      1.709429   -0.440463    0.889880
  H      1.709429   -0.440463   -0.889880
  C     -0.101764   -1.414106    0.000000
  H     -0.237589   -2.014177   -0.895897
  H     -0.237589   -2.014177    0.895897

 Total Charge           Charge          ....    0
 Multiplicity           Mult            ....    1
 Number of Electrons    NEL             ....   38
 Basis Dimension        Dim             ....  151

ORBITAL ENERGIES
----------------

  NO   OCC          E(Eh)            E(eV)
   0   2.0000     -20.616497      -561.0034
   1   2.0000     -20.569068      -559.7128
   2   2.0000     -11.399266      -310.1898
   3   2.0000     -11.322602      -308.1037
   4   2.0000     -11.275576      -306.8240
   5   2.0000      -1.472300       -40.0633
   6   2.0000      -1.389458       -37.8091
   7   2.0000      -1.060607       -28.8606
   8   2.0000      -0.925394       -25.1812
   9   2.0000      -0.762203       -20.7406
  10   2.0000      -0.713460       -19.4142
  11   2.0000      -0.703325       -19.1384
  12   2.0000      -0.683100       -18.5881
  13   2.0000      -0.576635       -15.6910
  14   2.0000      -0.572885       -15.5890
  15   2.0000      -0.568006       -15.4562
  16   2.0000      -0.524998       -14.2859
  17   2.0000      -0.464971       -12.6525
  18   2.0000      -0.448247       -12.1974
  19   0.0000       0.027957         0.7607
  20   0.0000       0.042679         1.1614
  21   0.0000       0.044421         1.2088
  22   0.0000       0.066607         1.8125
  23   0.0000       0.070957         1.9308

MULLIKEN ATOMIC CHARGES
-----------------------
   0 O :   -0.891730
   1 C :    0.875596
   2 O :   -0.659739
   3 C :    0.132824
   4 H :   -0.081596
   5 H :   -0.081596
   6 C :    1.118624
   7 H :   -0.206191
   8 H :   -0.206191
Sum of atomic charges:   -0.0000000

LOEWDIN ATOMIC CHARGES
----------------------
   0 O :    0.064277
   1 C :   -0.309072
   2 O :    0.061714
   3 C :    0.090282
   4 H :    0.014503
   5 H :    0.014503
   6 C :    0.060127
   7 H :    0.001833
   8 H :    0.001833

  Mayer bond orders larger than 0.100000
B(  0-O ,  1-C ) :   0.6955 B(  0-O ,  3-C ) :   0.2173 B(  0-O ,  6-C ) :   0.5835
B(  1-C ,  2-O ) :   1.6000 B(  1-C ,  3-C ) :   0.9800 B(  1-C ,  6-C ) :  -0.1095
B(  3-C ,  4-H ) :   0.8947 B(  3-C ,  5-H ) :   0.8947 B(  3-C ,  6-C ) :   1.1310
B(  4-H ,  5-H ) :  -0.1149 B(  6-C ,  7-H ) :   0.8904 B(  6-C ,  8-H ) :   0.8904

MP2 TOTAL ENERGY:     -266.477824906 Eh
FINAL SINGLE POINT ENERGY      -266.477824906344

DIPOLE MOMENT
-------------
                                X             Y             Z
Electronic contribution:     -1.94804       3.18291      -0.00000
Nuclear contribution   :      2.89798      -4.83787       0.00000
                        -----------------------------------------
Total Dipole Moment    :      0.94994      -1.65496      -0.00000
                        -----------------------------------------
Magnitude (a.u.)       :      1.90822
Magnitude (Debye)      :      4.85030

Rotational constants in cm-1:     0.416316     0.174738     0.129141
Rotational constants in MHz : 12480.851450  5238.513616  3871.538350

                             ****ORCA TERMINATED NORMALLY****
TOTAL RUN TIME: 0 days 0 hours 0 minutes 26 seconds 530 msec
