                         Program Version 5.0.3 -  RELEASE  -
|  1> !ri-mp2 aug-cc-pvdz aug-cc-pvdz/c tightscf
|  2> %pal nprocs 16 end
|  3> %maxcore 3800
|  4>
|  5> * xyz 0 1
|  6> C      0.322882   -1.211271    0.752902
|  7> C      0.322882   -1.211271   -0.752902
|  8> C     -0.466950   -2.251492    0.000000
|  9> C     -0.345255   -0.092908    1.527147
| 10> C     -0.345255   -0.092908   -1.527147
| 11> C      0.322882    1.274175    1.311568
| 12> C      0.322882    1.274175   -1.311568
| 13> C     -0.056876    1.976267    0.000000
| 14> H      1.240243   -1.564633   -1.210344
| 15> H     -0.116933   -3.274616    0.000000
| 16> H     -1.545089   -2.152272    0.000000
| 17> H     -1.402559   -0.021790    1.258165
| 18> H     -0.326225   -0.345142    2.590759
| 19> H     -0.326225   -0.345142   -2.590759
| 20> H     -1.402559   -0.021790   -1.258165
| 21> H      0.048720    1.937680    2.136366
| 22> H      1.410002    1.155998    1.365948
| 23> H      1.410002    1.155998   -1.365948
| 24> H      0.048720    1.937680   -2.136366
| 25> H     -1.139984    2.143490    0.000000
| 26> H      0.398488    2.970578    0.000000
| 27> H      1.240243   -1.564633    1.210344
| 28> *
| 29>
| 30>                          ****END OF INPUT****

CARTESIAN COORDINATES (ANGSTROEM)
---------------------------------
  C      0.322882   -1.211271    0.752902
  C      0.322882   -1.211271   -0.752902
  C     -0.466950   -2.251492    0.000000
  C     -0.345255   -0.092908    1.527147
  C     -0.345255   -0.092908   -1.527147
  C      0.322882    1.274175    1.311568
  C      0.322882    1.274175   -1.311568
  C     -0.056876    1.976267    0.000000
  H      1.240243   -1.564633   -1.210344
  H     -0.116933   -3.274616    0.000000
  H     -1.545089   -2.152272    0.000000
  H     -1.402559   -0.021790    1.258165
  H     -0.326225   -0.345142    2.590759
  H     -0.326225   -0.345142   -2.590759
  H     -1.402559   -0.021790   -1.258165
  H      0.048720    1.937680    2.136366
  H      1.410002    1.155998    1.365948
  H      1.410002    1.155998   -1.365948
  H      0.048720    1.937680   -2.136366
  H     -1.139984    2.143490    0.000000
  H      0.398488    2.970578    0.000000
  H      1.240243   -1.564633    1.210344

 Total Charge           Charge          ....    0
 Multiplicity           Mult            ....    1
 Number of Electrons    NEL             ....   62
 Basis Dimension        Dim             ....  310

ORBITAL ENERGIES
----------------

  NO   OCC          E(Eh)            E(eV)
   0   2.0000     -11.224473      -305.4334
   1   2.0000     -11.223745      -305.4136
   2   2.0000     -11.220625      -305.3287
   3   2.0000     -11.220365      -305.3217
   4   2.0000     -11.220359      -305.3215
   5   2.0000     -11.218741      -305.2775
   6   2.0000     -11.218086      -305.2596
   7   2.0000     -11.217821      -305.2524
   8   2.0000      -1.153316       -31.3833
   9   2.0000      -1.066729       -29.0272
  10   2.0000      -1.024864       -27.8880
  11   2.0000      -0.926269       -25.2051
  12   2.0000      -0.871107       -23.7040
  13   2.0000      -0.801664       -21.8144
  14   2.0000      -0.768539       -20.9130
  15   2.0000      -0.729555       -19.8522
  16   2.0000      -0.668776       -18.1983
  17   2.0000      -0.632478       -17.2106
  18   2.0000      -0.615420       -16.7464
  19   2.0000      -0.582993       -15.8640
  20   2.0000      -0.559102       -15.2140
  21   2.0000      -0.556036       -15.1305
  22   2.0000      -0.516175       -14.0458
  23   2.0000      -0.509564       -13.8659
  24   2.0000      -0.503561       -13.7026
  25   2.0000      -0.464246       -12.6328
  26   2.0000      -0.459627       -12.5071
  27   2.0000      -0.454964       -12.3802
  28   2.0000      -0.445566       -12.1245
  29   2.0000      -0.392244       -10.6735
  30   2.0000      -0.378917       -10.3108
  31   0.0000       0.037188         1.0119
  32   0.0000       0.041945         1.1414
  33   0.0000       0.042536         1.1575
  34   0.0000       0.044965         1.2236
  35   0.0000       0.058446         1.5904

MULLIKEN ATOMIC CHARGES
-----------------------
   0 C :    0.408084
   1 C :    0.408084
   2 C :    0.920801
   3 C :    0.246142
   4 C :    0.246142
   5 C :    0.447764
   6 C :    0.447764
   7 C :    0.061995
   8 H :   -0.484837
   9 H :   -0.404005
  10 H :   -0.364778
  11 H :   -0.134130
  12 H :   -0.147815
  13 H :   -0.147815
  14 H :   -0.134130
  15 H :   -0.124270
  16 H :   -0.181893
  17 H :   -0.181893
  18 H :   -0.124270
  19 H :   -0.132049
  20 H :   -0.140053
  21 H :   -0.484837
Sum of atomic charges:   -0.0000000

LOEWDIN ATOMIC CHARGES
----------------------
   0 C :   -0.130244
   1 C :   -0.130244
   2 C :    0.097700
   3 C :    0.002223
   4 C :    0.002223
   5 C :   -0.016292
   6 C :   -0.016292
   7 C :   -0.028880
   8 H :    0.032082
   9 H :   -0.003402
  10 H :    0.002939
  11 H :    0.016430
  12 H :    0.016376
  13 H :    0.016376
  14 H :    0.016430
  15 H :    0.012327
  16 H :    0.018290
  17 H :    0.018290
  18 H :    0.012327
  19 H :    0.016338
  20 H :    0.012923
  21 H :    0.032082

  Mayer bond orders larger than 0.100000
B(  0-C ,  1-C ) :   0.8638 B(  0-C ,  2-C ) :   1.0152 B(  0-C ,  3-C ) :   1.1503
B(  0-C ,  8-H ) :   0.1107 B(  0-C ,  9-H ) :   0.1528 B(  0-C , 21-H ) :   0.4181
B(  1-C ,  2-C ) :   1.0152 B(  1-C ,  4-C ) :   1.1503 B(  1-C ,  8-H ) :   0.4181
B(  1-C ,  9-H ) :   0.1528 B(  1-C , 21-H ) :   0.1107 B(  2-C ,  9-H ) :   0.5469
B(  2-C , 10-H ) :   0.7626 B(  3-C ,  5-C ) :   1.2170 B(  3-C , 11-H ) :   0.8065
B(  3-C , 12-H ) :   0.7479 B(  4-C ,  6-C ) :   1.2170 B(  4-C , 13-H ) :   0.7479
B(  4-C , 14-H ) :   0.8065 B(  5-C ,  7-C ) :   1.2574 B(  5-C , 11-H ) :  -0.1233
B(  5-C , 15-H ) :   0.7467 B(  5-C , 16-H ) :   0.7607 B(  6-C ,  7-C ) :   1.2574
B(  6-C , 14-H ) :  -0.1233 B(  6-C , 17-H ) :   0.7607 B(  6-C , 18-H ) :   0.7467
B(  7-C , 19-H ) :   0.8318 B(  7-C , 20-H ) :   0.7827 B(  9-H , 10-H ) :  -0.2069
B( 11-H , 12-H ) :  -0.1543 B( 13-H , 14-H ) :  -0.1543 B( 15-H , 16-H ) :  -0.1424
B( 17-H , 18-H ) :  -0.1424 B( 19-H , 20-H ) :  -0.1248

MP2 TOTAL ENERGY:     -312.269440851 Eh
FINAL SINGLE POINT ENERGY      -312.269440851134

DIPOLE MOMENT
-------------
                                X             Y             Z
Electronic contribution:      0.52928      -2.06986       0.00000
Nuclear contribution   :     -0.48938       2.12531      -0.00000
                        -----------------------------------------
Total Dipole Moment    :      0.03989       0.05545       0.00000
                        -----------------------------------------
Magnitude (a.u.)       :      0.06831
Magnitude (Debye)      :      0.17362

Rotational constants in cm-1:     0.100211     0.066798     0.045395
Rotational constants in MHz :  3004.259896  2002.538777  1360.913889

                             ****ORCA TERMINATED NORMALLY****
TOTAL RUN TIME: 0 days 0 hours 1 minutes 28 seconds 511 msec
