                         Program Version 5.0.3 -  RELEASE  -
|  1> !ri-mp2 aug-cc-pvdz aug-cc-pvdz/c tightscf
|  2> %pal nprocs 16 end
|  3>
|  4> * xyz 0 1
|  5> H      2.844792   -0.788170    0.777220
|  6> H      3.404575    0.345604   -0.245141
|  7> N      2.637944   -0.294370   -0.082906
|  8> H      1.280732    1.064160    0.901267
|  9> H      1.287489    1.091764   -0.849294
| 10> C      1.367895    0.430365    0.012626
| 11> H      0.282574   -1.185743   -0.904827
| 12> H      0.265487   -1.235933    0.844398
| 13> C      0.206748   -0.556935   -0.013182
| 14> O     -1.337293    1.297083    0.023560
| 15> C     -1.152003    0.113743    0.002622
| 16> H     -1.923395   -1.652577   -0.039753
| 17> O     -2.218170   -0.734777   -0.013051
| 18> *
| 19>
| 20>                          ****END OF INPUT****

CARTESIAN COORDINATES (ANGSTROEM)
---------------------------------
  H      2.844792   -0.788170    0.777220
  H      3.404575    0.345604   -0.245141
  N      2.637944   -0.294370   -0.082906
  H      1.280732    1.064160    0.901267
  H      1.287489    1.091764   -0.849294
  C      1.367895    0.430365    0.012626
  H      0.282574   -1.185743   -0.904827
  H      0.265487   -1.235933    0.844398
  C      0.206748   -0.556935   -0.013182
  O     -1.337293    1.297083    0.023560
  C     -1.152003    0.113743    0.002622
  H     -1.923395   -1.652577   -0.039753
  O     -2.218170   -0.734777   -0.013051

 Total Charge           Charge          ....    0
 Multiplicity           Mult            ....    1
 Number of Electrons    NEL             ....   48
 Basis Dimension        Dim             ....  201

ORBITAL ENERGIES
----------------

  NO   OCC          E(Eh)            E(eV)
   0   2.0000     -20.622289      -561.1610
   1   2.0000     -20.558139      -559.4154
   2   2.0000     -15.562408      -423.4747
   3   2.0000     -11.395987      -310.1006
   4   2.0000     -11.270349      -306.6818
   5   2.0000     -11.263761      -306.5025
   6   2.0000      -1.464440       -39.8494
   7   2.0000      -1.370750       -37.3000
   8   2.0000      -1.195615       -32.5343
   9   2.0000      -1.047177       -28.4951
  10   2.0000      -0.882049       -24.0018
  11   2.0000      -0.821608       -22.3571
  12   2.0000      -0.729802       -19.8589
  13   2.0000      -0.685737       -18.6599
  14   2.0000      -0.665382       -18.1060
  15   2.0000      -0.644526       -17.5384
  16   2.0000      -0.623302       -16.9609
  17   2.0000      -0.597121       -16.2485
  18   2.0000      -0.563148       -15.3240
  19   2.0000      -0.534208       -14.5365
  20   2.0000      -0.510428       -13.8894
  21   2.0000      -0.482068       -13.1177
  22   2.0000      -0.452042       -12.3007
  23   2.0000      -0.404364       -11.0033
  24   0.0000       0.026314         0.7160
  25   0.0000       0.036033         0.9805
  26   0.0000       0.046497         1.2653
  27   0.0000       0.055478         1.5096
  28   0.0000       0.065192         1.7740

MULLIKEN ATOMIC CHARGES
-----------------------
   0 H :   -0.001549
   1 H :   -0.026865
   2 N :   -0.382448
   3 H :   -0.117209
   4 H :   -0.179743
   5 C :    0.849340
   6 H :    0.008791
   7 H :   -0.042760
   8 C :   -0.012112
   9 O :   -0.697053
  10 C :    1.125727
  11 H :    0.196447
  12 O :   -0.720567
Sum of atomic charges:   -0.0000000

LOEWDIN ATOMIC CHARGES
----------------------
   0 H :   -0.053137
   1 H :   -0.050689
   2 N :    0.180852
   3 H :    0.013245
   4 H :    0.016875
   5 C :   -0.063633
   6 H :    0.027598
   7 H :    0.024171
   8 C :    0.018990
   9 O :    0.055769
  10 C :   -0.328666
  11 H :   -0.040763
  12 O :    0.199390

  Mayer bond orders larger than 0.100000
B(  0-H ,  2-N ) :   1.0689 B(  1-H ,  2-N ) :   1.0745 B(  2-N ,  5-C ) :   0.8794
B(  3-H ,  5-C ) :   0.8496 B(  4-H ,  5-C ) :   0.8316 B(  5-C ,  8-C ) :   1.2239
B(  6-H ,  8-C ) :   0.8835 B(  7-H ,  8-C ) :   0.8560 B(  8-C , 10-C ) :   0.9982
B(  8-C , 12-O ) :   0.1255 B(  9-O , 10-C ) :   1.6740 B( 10-C , 12-O ) :   0.3878
B( 11-H , 12-O ) :   1.0110

MP2 TOTAL ENERGY:     -322.915343851 Eh
FINAL SINGLE POINT ENERGY      -322.915343850704

DIPOLE MOMENT
-------------
                                X             Y             Z
Electronic contribution:     -6.41719       1.17979      -0.14017
Nuclear contribution   :      7.48921      -2.38159       0.48927
                        -----------------------------------------
Total Dipole Moment    :      1.07202      -1.20180       0.34910
                        -----------------------------------------
Magnitude (a.u.)       :      1.64785
Magnitude (Debye)      :      4.18851

Rotational constants in cm-1:     0.304285     0.061500     0.052386
Rotational constants in MHz :  9122.234882  1843.737930  1570.494781

                             ****ORCA TERMINATED NORMALLY****
TOTAL RUN TIME: 0 days 0 hours 0 minutes 33 seconds 331 msec
