                         Program Version 5.0.3 -  RELEASE  -
|  1> !ri-mp2 aug-cc-pvdz aug-cc-pvdz/c tightscf
|  2> %pal nprocs 16 end
|  3>
|  4> * xyz 0 1
|  5> C     0.000000     0.666639    1.212835
|  6> C     0.000000    -0.666639    1.212835
|  7> C     0.000000    -1.020958   -0.278406
|  8> C     0.000000     1.020958   -0.278406
|  9> C     1.063233     0.000000   -0.808697
| 10> C    -1.063233     0.000000   -0.808697
| 11> H     0.000000     1.359953    2.038801
| 12> H     0.000000    -1.359953    2.038801
| 13> H     0.000000    -2.068141   -0.567858
| 14> H     0.000000     2.068141   -0.567858
| 15> H     2.041135     0.000000   -0.329854
| 16> H    -2.041135     0.000000   -0.329854
| 17> H    -1.157060     0.000000   -1.895481
| 18> H     1.157060     0.000000   -1.895481
| 19> *
| 20>
| 21>                          ****END OF INPUT****

CARTESIAN COORDINATES (ANGSTROEM)
---------------------------------
  C      0.000000    0.666639    1.212835
  C      0.000000   -0.666639    1.212835
  C      0.000000   -1.020958   -0.278406
  C      0.000000    1.020958   -0.278406
  C      1.063233    0.000000   -0.808697
  C     -1.063233    0.000000   -0.808697
  H      0.000000    1.359953    2.038801
  H      0.000000   -1.359953    2.038801
  H      0.000000   -2.068141   -0.567858
  H      0.000000    2.068141   -0.567858
  H      2.041135    0.000000   -0.329854
  H     -2.041135    0.000000   -0.329854
  H     -1.157060    0.000000   -1.895481
  H      1.157060    0.000000   -1.895481

 Total Charge           Charge          ....    0
 Multiplicity           Mult            ....    1
 Number of Electrons    NEL             ....   44
 Basis Dimension        Dim             ....  210

ORBITAL ENERGIES
----------------

  NO   OCC          E(Eh)            E(eV)
   0   2.0000     -11.239940      -305.8543
   1   2.0000     -11.239909      -305.8535
   2   2.0000     -11.229505      -305.5704
   3   2.0000     -11.229482      -305.5697
   4   2.0000     -11.226777      -305.4961
   5   2.0000     -11.225077      -305.4499
   6   2.0000      -1.194118       -32.4936
   7   2.0000      -0.987847       -26.8807
   8   2.0000      -0.912898       -24.8412
   9   2.0000      -0.895018       -24.3547
  10   2.0000      -0.747555       -20.3420
  11   2.0000      -0.715190       -19.4613
  12   2.0000      -0.693699       -18.8765
  13   2.0000      -0.633146       -17.2288
  14   2.0000      -0.561883       -15.2896
  15   2.0000      -0.558235       -15.1904
  16   2.0000      -0.487151       -13.2561
  17   2.0000      -0.475716       -12.9449
  18   2.0000      -0.468312       -12.7434
  19   2.0000      -0.458740       -12.4829
  20   2.0000      -0.431194       -11.7334
  21   2.0000      -0.326517        -8.8850
  22   0.0000       0.035565         0.9678
  23   0.0000       0.042327         1.1518
  24   0.0000       0.044238         1.2038
  25   0.0000       0.049481         1.3464
  26   0.0000       0.061137         1.6636

MULLIKEN ATOMIC CHARGES
-----------------------
   0 C :    0.439655
   1 C :    0.439655
   2 C :    0.251436
   3 C :    0.251436
   4 C :    0.741871
   5 C :    0.741871
   6 H :   -0.341981
   7 H :   -0.341981
   8 H :   -0.460985
   9 H :   -0.460985
  10 H :   -0.284139
  11 H :   -0.284139
  12 H :   -0.345856
  13 H :   -0.345856
Sum of atomic charges:    0.0000000

LOEWDIN ATOMIC CHARGES
----------------------
   0 C :    0.039399
   1 C :    0.039399
   2 C :   -0.111307
   3 C :   -0.111307
   4 C :    0.063691
   5 C :    0.063691
   6 H :   -0.011708
   7 H :   -0.011708
   8 H :    0.015163
   9 H :    0.015163
  10 H :    0.001923
  11 H :    0.001923
  12 H :    0.002838
  13 H :    0.002838

  Mayer bond orders larger than 0.100000
B(  0-C ,  1-C ) :   2.2010 B(  0-C ,  3-C ) :   1.2433 B(  0-C ,  6-H ) :   0.5452
B(  0-C ,  7-H ) :   0.1772 B(  0-C ,  9-H ) :   0.1800 B(  1-C ,  2-C ) :   1.2433
B(  1-C ,  6-H ) :   0.1772 B(  1-C ,  7-H ) :   0.5452 B(  1-C ,  8-H ) :   0.1800
B(  2-C ,  4-C ) :   0.9838 B(  2-C ,  5-C ) :   0.9838 B(  2-C ,  8-H ) :   0.3620
B(  3-C ,  4-C ) :   0.9838 B(  3-C ,  5-C ) :   0.9838 B(  3-C ,  9-H ) :   0.3620
B(  4-C ,  8-H ) :   0.1087 B(  4-C ,  9-H ) :   0.1087 B(  4-C , 10-H ) :   0.8489
B(  4-C , 13-H ) :   0.7094 B(  5-C ,  8-H ) :   0.1087 B(  5-C ,  9-H ) :   0.1087
B(  5-C , 11-H ) :   0.8489 B(  5-C , 12-H ) :   0.7094 B( 10-H , 13-H ) :  -0.2460
B( 11-H , 12-H ) :  -0.2460

MP2 TOTAL ENERGY:     -232.649588599 Eh
FINAL SINGLE POINT ENERGY      -232.649588598889

DIPOLE MOMENT
-------------
                                X             Y             Z
Electronic contribution:      0.00000       0.00000       1.42529
Nuclear contribution   :      0.00000       0.00000      -1.55595
                        -----------------------------------------
Total Dipole Moment    :      0.00000       0.00000      -0.13066
                        -----------------------------------------
Magnitude (a.u.)       :      0.13066
Magnitude (Debye)      :      0.33212

Rotational constants in cm-1:     0.195291     0.156631     0.143544
Rotational constants in MHz :  5854.684100  4695.685850  4303.350513

                             ****ORCA TERMINATED NORMALLY****
TOTAL RUN TIME: 0 days 0 hours 0 minutes 38 seconds 430 msec
