                         Program Version 5.0.3 -  RELEASE  -
|  1> !ri-mp2 aug-cc-pvdz aug-cc-pvdz/c tightscf
|  2> %pal nprocs 16 end
|  3>
|  4> * xyz 0 1
|  5> C      0.571069   -2.149970        0.000000
|  6> C      1.611083   -1.227341        0.000000
|  7> C     -0.754728   -1.717051        0.000000
|  8> C      1.324206    0.131604        0.000000
|  9> C     -1.041517   -0.362317        0.000000
| 10> C      0.000000    0.570512        0.000000
| 11> C     -0.284070    2.020789        0.000000
| 12> O     -1.388905    2.512174        0.000000
| 13> H      0.790975   -3.209245        0.000000
| 14> H      2.637810   -1.566777        0.000000
| 15> H     -1.558218   -2.441065        0.000000
| 16> H      2.126678    0.859329        0.000000
| 17> H     -2.060939   -0.001955        0.000000
| 18> H      0.618676    2.664963        0.000000
| 19> *
| 20>
| 21>                          ****END OF INPUT****

CARTESIAN COORDINATES (ANGSTROEM)
---------------------------------
  C      0.571069   -2.149970    0.000000
  C      1.611083   -1.227341    0.000000
  C     -0.754728   -1.717051    0.000000
  C      1.324206    0.131604    0.000000
  C     -1.041517   -0.362317    0.000000
  C      0.000000    0.570512    0.000000
  C     -0.284070    2.020789    0.000000
  O     -1.388905    2.512174    0.000000
  H      0.790975   -3.209245    0.000000
  H      2.637810   -1.566777    0.000000
  H     -1.558218   -2.441065    0.000000
  H      2.126678    0.859329    0.000000
  H     -2.060939   -0.001955    0.000000
  H      0.618676    2.664963    0.000000

 Total Charge           Charge          ....    0
 Multiplicity           Mult            ....    1
 Number of Electrons    NEL             ....   56
 Basis Dimension        Dim             ....  238

ORBITAL ENERGIES
----------------

  NO   OCC          E(Eh)            E(eV)
   0   2.0000     -20.566825      -559.6518
   1   2.0000     -11.343854      -308.6820
   2   2.0000     -11.266593      -306.5796
   3   2.0000     -11.264335      -306.5181
   4   2.0000     -11.259880      -306.3969
   5   2.0000     -11.257402      -306.3295
   6   2.0000     -11.257027      -306.3193
   7   2.0000     -11.255437      -306.2760
   8   2.0000      -1.398392       -38.0522
   9   2.0000      -1.178348       -32.0645
  10   2.0000      -1.055407       -28.7191
  11   2.0000      -1.038960       -28.2715
  12   2.0000      -0.897675       -24.4270
  13   2.0000      -0.850354       -23.1393
  14   2.0000      -0.795505       -21.6468
  15   2.0000      -0.723294       -19.6818
  16   2.0000      -0.681639       -18.5483
  17   2.0000      -0.656910       -17.8754
  18   2.0000      -0.623199       -16.9581
  19   2.0000      -0.618203       -16.8222
  20   2.0000      -0.607208       -16.5230
  21   2.0000      -0.556911       -15.1543
  22   2.0000      -0.532182       -14.4814
  23   2.0000      -0.511077       -13.9071
  24   2.0000      -0.504518       -13.7286
  25   2.0000      -0.428747       -11.6668
  26   2.0000      -0.357013        -9.7148
  27   2.0000      -0.353517        -9.6197
  28   0.0000       0.029500         0.8027
  29   0.0000       0.037107         1.0097
  30   0.0000       0.043787         1.1915
  31   0.0000       0.054286         1.4772
  32   0.0000       0.059059         1.6071

MULLIKEN ATOMIC CHARGES
-----------------------
   0 C :    0.209959
   1 C :    0.416298
   2 C :    0.521443
   3 C :    0.188034
   4 C :    0.067250
   5 C :    1.163747
   6 C :    0.908931
   7 O :   -0.766401
   8 H :   -0.433399
   9 H :   -0.443114
  10 H :   -0.438425
  11 H :   -0.562775
  12 H :   -0.565362
  13 H :   -0.266188
Sum of atomic charges:    0.0000000

LOEWDIN ATOMIC CHARGES
----------------------
   0 C :    0.024365
   1 C :    0.015995
   2 C :    0.022189
   3 C :    0.047027
   4 C :    0.068429
   5 C :   -0.182861
   6 C :   -0.065617
   7 O :    0.025156
   8 H :    0.004697
   9 H :    0.001248
  10 H :    0.002444
  11 H :    0.007441
  12 H :    0.013573
  13 H :    0.015914

  Mayer bond orders larger than 0.100000
B(  0-C ,  1-C ) :   1.7926 B(  0-C ,  2-C ) :   1.7517 B(  0-C ,  8-H ) :   0.4141
B(  0-C ,  9-H ) :   0.2184 B(  0-C , 10-H ) :   0.1722 B(  1-C ,  3-C ) :   1.6520
B(  1-C ,  5-C ) :  -0.4675 B(  1-C ,  6-C ) :   0.2041 B(  1-C ,  8-H ) :   0.1783
B(  1-C ,  9-H ) :   0.3013 B(  1-C , 11-H ) :   0.1040 B(  2-C ,  4-C ) :   1.9441
B(  2-C ,  5-C ) :  -0.4258 B(  2-C ,  8-H ) :   0.1597 B(  2-C , 10-H ) :   0.2451
B(  2-C , 12-H ) :   0.2070 B(  3-C ,  4-C ) :  -0.6179 B(  3-C ,  5-C ) :   1.9038
B(  3-C ,  6-C ) :  -0.1299 B(  3-C ,  9-H ) :   0.2534 B(  4-C ,  5-C ) :   1.5586
B(  4-C ,  6-C ) :  -0.6355 B(  4-C , 10-H ) :   0.3549 B(  4-C , 12-H ) :   0.2671
B(  5-C ,  6-C ) :   1.0823 B(  5-C , 11-H ) :   0.4692 B(  5-C , 12-H ) :   0.2344
B(  5-C , 13-H ) :   0.1532 B(  6-C ,  7-O ) :   1.4741 B(  6-C , 13-H ) :   0.6192

MP2 TOTAL ENERGY:     -344.600775680 Eh
FINAL SINGLE POINT ENERGY      -344.600775680240

DIPOLE MOMENT
-------------
                                X             Y             Z
Electronic contribution:     -1.46370       2.58530       0.00000
Nuclear contribution   :      2.51037      -3.62236       0.00000
                        -----------------------------------------
Total Dipole Moment    :      1.04666      -1.03706       0.00000
                        -----------------------------------------
Magnitude (a.u.)       :      1.47343
Magnitude (Debye)      :      3.74517

Rotational constants in cm-1:     0.176044     0.052234     0.040282
Rotational constants in MHz :  5277.666222  1565.928994  1207.618261

                             ****ORCA TERMINATED NORMALLY****
TOTAL RUN TIME: 0 days 0 hours 0 minutes 48 seconds 507 msec
