                         Program Version 5.0.3 -  RELEASE  -
|  1> !ri-mp2 aug-cc-pvdz aug-cc-pvdz/c tightscf
|  2> %pal nprocs 16 end
|  3>
|  4> * xyz 0 1
|  5> C     -1.045329   -0.494601    0.000000
|  6> C      2.460708    1.198934    0.000000
|  7> C      0.000000    0.591852    0.000000
|  8> C      1.432695    0.069636    0.000000
|  9> O     -0.842076   -1.681341    0.000000
| 10> O     -2.300401    0.024009    0.000000
| 11> H      2.354021    1.835295    0.881002
| 12> H      2.354021    1.835295   -0.881002
| 13> H      3.476451    0.802896    0.000000
| 14> H     -0.189161    1.228211    0.869185
| 15> H     -0.189161    1.228211   -0.869185
| 16> H      1.580358   -0.571042   -0.870771
| 17> H      1.580358   -0.571042    0.870771
| 18> H     -2.915516   -0.724098    0.000000
| 19> *
| 20>
| 21>                          ****END OF INPUT****

CARTESIAN COORDINATES (ANGSTROEM)
---------------------------------
  C     -1.045329   -0.494601    0.000000
  C      2.460708    1.198934    0.000000
  C      0.000000    0.591852    0.000000
  C      1.432695    0.069636    0.000000
  O     -0.842076   -1.681341    0.000000
  O     -2.300401    0.024009    0.000000
  H      2.354021    1.835295    0.881002
  H      2.354021    1.835295   -0.881002
  H      3.476451    0.802896    0.000000
  H     -0.189161    1.228211    0.869185
  H     -0.189161    1.228211   -0.869185
  H      1.580358   -0.571042   -0.870771
  H      1.580358   -0.571042    0.870771
  H     -2.915516   -0.724098    0.000000

 Total Charge           Charge          ....    0
 Multiplicity           Mult            ....    1
 Number of Electrons    NEL             ....   48
 Basis Dimension        Dim             ....  210

ORBITAL ENERGIES
----------------

  NO   OCC          E(Eh)            E(eV)
   0   2.0000     -20.620084      -561.1010
   1   2.0000     -20.561042      -559.4944
   2   2.0000     -11.394540      -310.0612
   3   2.0000     -11.252835      -306.2052
   4   2.0000     -11.234583      -305.7085
   5   2.0000     -11.227242      -305.5088
   6   2.0000      -1.468153       -39.9505
   7   2.0000      -1.366056       -37.1723
   8   2.0000      -1.085999       -29.5515
   9   2.0000      -0.981542       -26.7091
  10   2.0000      -0.855916       -23.2907
  11   2.0000      -0.788566       -21.4580
  12   2.0000      -0.705223       -19.1901
  13   2.0000      -0.688385       -18.7319
  14   2.0000      -0.665656       -18.1134
  15   2.0000      -0.613216       -16.6865
  16   2.0000      -0.598182       -16.2774
  17   2.0000      -0.574451       -15.6316
  18   2.0000      -0.544263       -14.8102
  19   2.0000      -0.509136       -13.8543
  20   2.0000      -0.492604       -13.4044
  21   2.0000      -0.484340       -13.1796
  22   2.0000      -0.480888       -13.0856
  23   2.0000      -0.451052       -12.2737
  24   0.0000       0.034503         0.9389
  25   0.0000       0.041375         1.1259
  26   0.0000       0.048940         1.3317
  27   0.0000       0.050269         1.3679
  28   0.0000       0.062141         1.6909

MULLIKEN ATOMIC CHARGES
-----------------------
   0 C :    0.928347
   1 C :    0.492386
   2 C :    0.063011
   3 C :    0.329773
   4 O :   -0.710691
   5 O :   -0.708790
   6 H :   -0.080632
   7 H :   -0.080632
   8 H :   -0.058237
   9 H :   -0.028477
  10 H :   -0.028477
  11 H :   -0.165884
  12 H :   -0.165884
  13 H :    0.214187
Sum of atomic charges:   -0.0000000

LOEWDIN ATOMIC CHARGES
----------------------
   0 C :   -0.335878
   1 C :    0.134807
   2 C :    0.019588
   3 C :   -0.062050
   4 O :    0.041675
   5 O :    0.193108
   6 H :   -0.019289
   7 H :   -0.019289
   8 H :   -0.019147
   9 H :    0.027798
  10 H :    0.027798
  11 H :    0.016235
  12 H :    0.016235
  13 H :   -0.021591

  Mayer bond orders larger than 0.100000
B(  0-C ,  2-C ) :   0.9913 B(  0-C ,  4-O ) :   1.5580 B(  0-C ,  5-O ) :   0.4692
B(  1-C ,  2-C ) :  -0.1005 B(  1-C ,  3-C ) :   1.2235 B(  1-C ,  6-H ) :   0.9429
B(  1-C ,  7-H ) :   0.9429 B(  1-C ,  8-H ) :   0.9066 B(  2-C ,  3-C ) :   1.1571
B(  2-C ,  5-O ) :   0.1004 B(  2-C ,  9-H ) :   0.9040 B(  2-C , 10-H ) :   0.9040
B(  3-C , 11-H ) :   0.8072 B(  3-C , 12-H ) :   0.8072 B(  5-O , 13-H ) :   1.0064

MP2 TOTAL ENERGY:     -306.898475531 Eh
FINAL SINGLE POINT ENERGY      -306.898475531365

DIPOLE MOMENT
-------------
                                X             Y             Z
Electronic contribution:     -8.18832      -4.45264      -0.00000
Nuclear contribution   :      8.18724       5.15433       0.00000
                        -----------------------------------------
Total Dipole Moment    :     -0.00108       0.70168      -0.00000
                        -----------------------------------------
Magnitude (a.u.)       :      0.70168
Magnitude (Debye)      :      1.78354

Rotational constants in cm-1:     0.301441     0.060809     0.052043
Rotational constants in MHz :  9036.966220  1822.996551  1560.220896

                             ****ORCA TERMINATED NORMALLY****
TOTAL RUN TIME: 0 days 0 hours 0 minutes 37 seconds 578 msec
