                         Program Version 5.0.3 -  RELEASE  -
|  1> !ri-mp2 aug-cc-pvdz aug-cc-pvdz/c tightscf
|  2> %pal nprocs 16 end
|  3> %maxcore 3800
|  4>
|  5> * xyz 0 1
|  6> C      3.111158    0.691977    0.000194
|  7> C      1.909382    1.439432    0.000379
|  8> C      0.753239    0.709064   -0.000071
|  9> C     -0.753239    0.709064    0.000071
| 10> C     -0.753239   -0.709064   -0.000071
| 11> C      0.753239   -0.709064    0.000071
| 12> C      1.909382   -1.439432   -0.000379
| 13> C      3.111158   -0.691977   -0.000194
| 14> C     -1.909382   -1.439432    0.000379
| 15> C     -3.111158   -0.691977    0.000194
| 16> C     -3.111158    0.691977   -0.000194
| 17> C     -1.909382    1.439432   -0.000379
| 18> H      4.056913    1.217403    0.000417
| 19> H      1.930044    2.520654    0.000453
| 20> H      1.930044   -2.520654   -0.000453
| 21> H      4.056913   -1.217403   -0.000417
| 22> H     -1.930044   -2.520654    0.000453
| 23> H     -4.056913   -1.217403    0.000417
| 24> H     -4.056913    1.217403   -0.000417
| 25> H     -1.930044    2.520654   -0.000453
| 26> *
| 27>
| 28>                          ****END OF INPUT****

CARTESIAN COORDINATES (ANGSTROEM)
---------------------------------
  C      3.111158    0.691977    0.000194
  C      1.909382    1.439432    0.000379
  C      0.753239    0.709064   -0.000071
  C     -0.753239    0.709064    0.000071
  C     -0.753239   -0.709064   -0.000071
  C      0.753239   -0.709064    0.000071
  C      1.909382   -1.439432   -0.000379
  C      3.111158   -0.691977   -0.000194
  C     -1.909382   -1.439432    0.000379
  C     -3.111158   -0.691977    0.000194
  C     -3.111158    0.691977   -0.000194
  C     -1.909382    1.439432   -0.000379
  H      4.056913    1.217403    0.000417
  H      1.930044    2.520654    0.000453
  H      1.930044   -2.520654   -0.000453
  H      4.056913   -1.217403   -0.000417
  H     -1.930044   -2.520654    0.000453
  H     -4.056913   -1.217403    0.000417
  H     -4.056913    1.217403   -0.000417
  H     -1.930044    2.520654   -0.000453

 Total Charge           Charge          ....    0
 Multiplicity           Mult            ....    1
 Number of Electrons    NEL             ....   80
 Basis Dimension        Dim             ....  348

ORBITAL ENERGIES
----------------

  NO   OCC          E(Eh)            E(eV)
   0   2.0000     -11.254856      -306.2602
   1   2.0000     -11.254244      -306.2436
   2   2.0000     -11.253793      -306.2313
   3   2.0000     -11.253178      -306.2145
   4   2.0000     -11.247260      -306.0535
   5   2.0000     -11.247259      -306.0535
   6   2.0000     -11.247211      -306.0522
   7   2.0000     -11.247203      -306.0519
   8   2.0000     -11.245274      -305.9995
   9   2.0000     -11.245274      -305.9995
  10   2.0000     -11.244059      -305.9664
  11   2.0000     -11.244059      -305.9664
  12   2.0000      -1.215275       -33.0693
  13   2.0000      -1.142271       -31.0828
  14   2.0000      -1.081720       -29.4351
  15   2.0000      -1.035789       -28.1852
  16   2.0000      -1.016393       -27.6575
  17   2.0000      -0.963933       -26.2300
  18   2.0000      -0.885819       -24.1044
  19   2.0000      -0.845129       -22.9971
  20   2.0000      -0.785082       -21.3632
  21   2.0000      -0.781178       -21.2569
  22   2.0000      -0.718195       -19.5431
  23   2.0000      -0.658074       -17.9071
  24   2.0000      -0.653788       -17.7905
  25   2.0000      -0.649988       -17.6871
  26   2.0000      -0.624031       -16.9807
  27   2.0000      -0.602121       -16.3845
  28   2.0000      -0.586326       -15.9547
  29   2.0000      -0.563285       -15.3278
  30   2.0000      -0.554133       -15.0787
  31   2.0000      -0.538080       -14.6419
  32   2.0000      -0.485137       -13.2012
  33   2.0000      -0.485016       -13.1980
  34   2.0000      -0.480030       -13.0623
  35   2.0000      -0.479901       -13.0588
  36   2.0000      -0.386658       -10.5215
  37   2.0000      -0.368463       -10.0264
  38   2.0000      -0.331912        -9.0318
  39   2.0000      -0.271602        -7.3907
  40   0.0000       0.034736         0.9452
  41   0.0000       0.036890         1.0038
  42   0.0000       0.037172         1.0115
  43   0.0000       0.047160         1.2833
  44   0.0000       0.048808         1.3281

MULLIKEN ATOMIC CHARGES
-----------------------
   0 C :    0.025295
   1 C :    0.448085
   2 C :    0.444795
   3 C :    0.444794
   4 C :    0.444794
   5 C :    0.444795
   6 C :    0.448085
   7 C :    0.025295
   8 C :    0.448085
   9 C :    0.025295
  10 C :    0.025295
  11 C :    0.448086
  12 H :   -0.485848
  13 H :   -0.432326
  14 H :   -0.432326
  15 H :   -0.485848
  16 H :   -0.432326
  17 H :   -0.485848
  18 H :   -0.485848
  19 H :   -0.432326
Sum of atomic charges:    0.0000000

LOEWDIN ATOMIC CHARGES
----------------------
   0 C :    0.011933
   1 C :    0.068586
   2 C :   -0.079297
   3 C :   -0.079297
   4 C :   -0.079297
   5 C :   -0.079297
   6 C :    0.068586
   7 C :    0.011933
   8 C :    0.068586
   9 C :    0.011933
  10 C :    0.011933
  11 C :    0.068586
  12 H :   -0.003497
  13 H :    0.002274
  14 H :    0.002274
  15 H :   -0.003497
  16 H :    0.002274
  17 H :   -0.003497
  18 H :   -0.003497
  19 H :    0.002274

  Mayer bond orders larger than 0.100000
B(  0-C ,  1-C ) :   1.4965 B(  0-C ,  2-C ) :  -0.6765 B(  0-C ,  3-C ) :   0.1839
B(  0-C ,  4-C ) :   0.2666 B(  0-C ,  6-C ) :   0.2139 B(  0-C ,  7-C ) :   2.1445
B(  0-C ,  8-C ) :   0.1479 B(  0-C , 12-H ) :   0.2144 B(  0-C , 13-H ) :   0.1140
B(  0-C , 15-H ) :   0.5365 B(  1-C ,  2-C ) :   0.8492 B(  1-C ,  3-C ) :  -1.3796
B(  1-C ,  4-C ) :  -0.5860 B(  1-C ,  5-C ) :  -0.5247 B(  1-C ,  6-C ) :   0.5483
B(  1-C ,  7-C ) :   0.2139 B(  1-C ,  8-C ) :   0.5803 B(  1-C ,  9-C ) :   0.1479
B(  1-C , 11-C ) :   1.2328 B(  1-C , 12-H ) :  -0.1768 B(  1-C , 13-H ) :  -0.3556
B(  2-C ,  3-C ) :   1.9568 B(  2-C ,  4-C ) :  -0.2872 B(  2-C ,  5-C ) :   3.0525
B(  2-C ,  6-C ) :  -0.5247 B(  2-C ,  8-C ) :  -0.5860 B(  2-C ,  9-C ) :   0.2666
B(  2-C , 10-C ) :   0.1839 B(  2-C , 11-C ) :  -1.3796 B(  2-C , 12-H ) :   0.2612
B(  2-C , 13-H ) :   1.0373 B(  2-C , 14-H ) :  -0.1218 B(  2-C , 15-H ) :  -0.2956
B(  3-C ,  4-C ) :   3.0525 B(  3-C ,  5-C ) :  -0.2872 B(  3-C ,  6-C ) :  -0.5860
B(  3-C ,  7-C ) :   0.2666 B(  3-C ,  8-C ) :  -0.5247 B(  3-C , 10-C ) :  -0.6765
B(  3-C , 11-C ) :   0.8492 B(  3-C , 16-H ) :  -0.1218 B(  3-C , 17-H ) :  -0.2956
B(  3-C , 18-H ) :   0.2612 B(  3-C , 19-H ) :   1.0373 B(  4-C ,  5-C ) :   1.9568
B(  4-C ,  6-C ) :  -1.3796 B(  4-C ,  7-C ) :   0.1839 B(  4-C ,  8-C ) :   0.8492
B(  4-C ,  9-C ) :  -0.6765 B(  4-C , 11-C ) :  -0.5247 B(  4-C , 16-H ) :   1.0373
B(  4-C , 17-H ) :   0.2612 B(  4-C , 18-H ) :  -0.2956 B(  4-C , 19-H ) :  -0.1218
B(  5-C ,  6-C ) :   0.8492 B(  5-C ,  7-C ) :  -0.6765 B(  5-C ,  8-C ) :  -1.3796
B(  5-C ,  9-C ) :   0.1839 B(  5-C , 10-C ) :   0.2666 B(  5-C , 11-C ) :  -0.5860
B(  5-C , 12-H ) :  -0.2956 B(  5-C , 13-H ) :  -0.1218 B(  5-C , 14-H ) :   1.0373
B(  5-C , 15-H ) :   0.2612 B(  6-C ,  7-C ) :   1.4965 B(  6-C ,  8-C ) :   1.2328
B(  6-C , 10-C ) :   0.1479 B(  6-C , 11-C ) :   0.5803 B(  6-C , 14-H ) :  -0.3556
B(  6-C , 15-H ) :  -0.1768 B(  7-C , 11-C ) :   0.1479 B(  7-C , 12-H ) :   0.5365
B(  7-C , 14-H ) :   0.1140 B(  7-C , 15-H ) :   0.2144 B(  8-C ,  9-C ) :   1.4965
B(  8-C , 10-C ) :   0.2139 B(  8-C , 11-C ) :   0.5483 B(  8-C , 16-H ) :  -0.3556
B(  8-C , 17-H ) :  -0.1768 B(  9-C , 10-C ) :   2.1445 B(  9-C , 11-C ) :   0.2139
B(  9-C , 16-H ) :   0.1140 B(  9-C , 17-H ) :   0.2144 B(  9-C , 18-H ) :   0.5365
B( 10-C , 11-C ) :   1.4965 B( 10-C , 17-H ) :   0.5365 B( 10-C , 18-H ) :   0.2144
B( 10-C , 19-H ) :   0.1140 B( 11-C , 18-H ) :  -0.1768 B( 11-C , 19-H ) :  -0.3556

MP2 TOTAL ENERGY:     -460.656694647 Eh
FINAL SINGLE POINT ENERGY      -460.656694647131

DIPOLE MOMENT
-------------
                                X             Y             Z
Electronic contribution:      0.00000       0.00000      -0.00000
Nuclear contribution   :     -0.00000       0.00000       0.00000
                        -----------------------------------------
Total Dipole Moment    :      0.00000       0.00000      -0.00000
                        -----------------------------------------
Magnitude (a.u.)       :      0.00000
Magnitude (Debye)      :      0.00000

Rotational constants in cm-1:     0.094547     0.022512     0.018183
Rotational constants in MHz :  2834.441975   674.894468   545.102838

                             ****ORCA TERMINATED NORMALLY****
TOTAL RUN TIME: 0 days 0 hours 2 minutes 34 seconds 439 msec
