                         Program Version 5.0.3 -  RELEASE  -
|  1> !ri-mp2 aug-cc-pvdz aug-cc-pvdz/c tightscf
|  2> %pal nprocs 16 end
|  3>
|  4> * xyz 0 1
|  5> C     1.306673     0.778578   -0.253085
|  6> C     1.306673    -0.778578   -0.253085
|  7> C     0.000000    -0.786260    0.577788
|  8> C     0.000000     0.786260    0.577788
|  9> C    -1.306673     0.778578   -0.253085
| 10> C    -1.306673    -0.778578   -0.253085
| 11> H     1.235314     1.258625   -1.230081
| 12> H     2.159674     1.206785    0.272012
| 13> H     2.159674    -1.206785    0.272012
| 14> H     1.235314    -1.258625   -1.230081
| 15> H     0.000000    -1.384950    1.486430
| 16> H     0.000000     1.384950    1.486430
| 17> H    -2.159674     1.206785    0.272012
| 18> H    -1.235314     1.258625   -1.230081
| 19> H    -1.235314    -1.258625   -1.230081
| 20> H    -2.159674    -1.206785    0.272012
| 21> *
| 22>
| 23>                          ****END OF INPUT****

CARTESIAN COORDINATES (ANGSTROEM)
---------------------------------
  C      1.306673    0.778578   -0.253085
  C      1.306673   -0.778578   -0.253085
  C      0.000000   -0.786260    0.577788
  C      0.000000    0.786260    0.577788
  C     -1.306673    0.778578   -0.253085
  C     -1.306673   -0.778578   -0.253085
  H      1.235314    1.258625   -1.230081
  H      2.159674    1.206785    0.272012
  H      2.159674   -1.206785    0.272012
  H      1.235314   -1.258625   -1.230081
  H      0.000000   -1.384950    1.486430
  H      0.000000    1.384950    1.486430
  H     -2.159674    1.206785    0.272012
  H     -1.235314    1.258625   -1.230081
  H     -1.235314   -1.258625   -1.230081
  H     -2.159674   -1.206785    0.272012

 Total Charge           Charge          ....    0
 Multiplicity           Mult            ....    1
 Number of Electrons    NEL             ....   46
 Basis Dimension        Dim             ....  228

ORBITAL ENERGIES
----------------

  NO   OCC          E(Eh)            E(eV)
   0   2.0000     -11.221662      -305.3569
   1   2.0000     -11.221170      -305.3436
   2   2.0000     -11.218899      -305.2818
   3   2.0000     -11.218830      -305.2799
   4   2.0000     -11.218375      -305.2675
   5   2.0000     -11.218306      -305.2656
   6   2.0000      -1.156145       -31.4603
   7   2.0000      -1.007801       -27.4237
   8   2.0000      -0.920390       -25.0451
   9   2.0000      -0.843558       -22.9544
  10   2.0000      -0.814519       -22.1642
  11   2.0000      -0.693003       -18.8576
  12   2.0000      -0.673634       -18.3305
  13   2.0000      -0.615326       -16.7439
  14   2.0000      -0.606248       -16.4968
  15   2.0000      -0.563877       -15.3439
  16   2.0000      -0.532736       -14.4965
  17   2.0000      -0.488692       -13.2980
  18   2.0000      -0.475402       -12.9364
  19   2.0000      -0.452601       -12.3159
  20   2.0000      -0.430508       -11.7147
  21   2.0000      -0.402302       -10.9472
  22   2.0000      -0.389307       -10.5936
  23   0.0000       0.036771         1.0006
  24   0.0000       0.045604         1.2410
  25   0.0000       0.046710         1.2710
  26   0.0000       0.048089         1.3086
  27   0.0000       0.060993         1.6597

MULLIKEN ATOMIC CHARGES
-----------------------
   0 C :    0.597729
   1 C :    0.597729
   2 C :    0.245091
   3 C :    0.245091
   4 C :    0.597729
   5 C :    0.597729
   6 H :   -0.268783
   7 H :   -0.245393
   8 H :   -0.245393
   9 H :   -0.268783
  10 H :   -0.412197
  11 H :   -0.412197
  12 H :   -0.245393
  13 H :   -0.268783
  14 H :   -0.268783
  15 H :   -0.245393
Sum of atomic charges:   -0.0000000

LOEWDIN ATOMIC CHARGES
----------------------
   0 C :    0.045907
   1 C :    0.045907
   2 C :   -0.106705
   3 C :   -0.106705
   4 C :    0.045907
   5 C :    0.045907
   6 H :   -0.000437
   7 H :   -0.000146
   8 H :   -0.000146
   9 H :   -0.000437
  10 H :    0.016057
  11 H :    0.016057
  12 H :   -0.000146
  13 H :   -0.000437
  14 H :   -0.000437
  15 H :   -0.000146

  Mayer bond orders larger than 0.100000
B(  0-C ,  1-C ) :   1.2680 B(  0-C ,  3-C ) :   1.1294 B(  0-C ,  6-H ) :   0.7112
B(  0-C ,  7-H ) :   0.7159 B(  0-C , 11-H ) :   0.1080 B(  1-C ,  2-C ) :   1.1294
B(  1-C ,  8-H ) :   0.7159 B(  1-C ,  9-H ) :   0.7112 B(  1-C , 10-H ) :   0.1080
B(  2-C ,  3-C ) :   0.9666 B(  2-C ,  5-C ) :   1.1294 B(  2-C ,  8-H ) :   0.1105
B(  2-C , 10-H ) :   0.3856 B(  2-C , 11-H ) :   0.1247 B(  2-C , 15-H ) :   0.1105
B(  3-C ,  4-C ) :   1.1294 B(  3-C ,  7-H ) :   0.1105 B(  3-C , 10-H ) :   0.1247
B(  3-C , 11-H ) :   0.3856 B(  3-C , 12-H ) :   0.1105 B(  4-C ,  5-C ) :   1.2680
B(  4-C , 11-H ) :   0.1080 B(  4-C , 12-H ) :   0.7159 B(  4-C , 13-H ) :   0.7112
B(  5-C , 10-H ) :   0.1080 B(  5-C , 14-H ) :   0.7112 B(  5-C , 15-H ) :   0.7159
B(  6-H ,  7-H ) :  -0.1885 B(  8-H ,  9-H ) :  -0.1885 B( 12-H , 13-H ) :  -0.1885
B( 14-H , 15-H ) :  -0.1885

MP2 TOTAL ENERGY:     -233.853803318 Eh
FINAL SINGLE POINT ENERGY      -233.853803318012

DIPOLE MOMENT
-------------
                                X             Y             Z
Electronic contribution:      0.00000      -0.00000       0.96718
Nuclear contribution   :      0.00000      -0.00000      -0.90383
                        -----------------------------------------
Total Dipole Moment    :      0.00000      -0.00000       0.06335
                        -----------------------------------------
Magnitude (a.u.)       :      0.06335
Magnitude (Debye)      :      0.16102

Rotational constants in cm-1:     0.205477     0.130750     0.100890
Rotational constants in MHz :  6160.055033  3919.789220  3024.613607

                             ****ORCA TERMINATED NORMALLY****
TOTAL RUN TIME: 0 days 0 hours 0 minutes 46 seconds 729 msec
