                         Program Version 5.0.3 -  RELEASE  -
|  1> !ri-mp2 aug-cc-pvdz aug-cc-pvdz/c tightscf
|  2> %pal nprocs 16 end
|  3>
|  4> * xyz 0 1
|  5> C     -0.266056    1.055248    0.669094
|  6> C     -0.266056    1.055248   -0.669094
|  7> C     -0.266056   -0.460196    0.760307
|  8> C     -0.266056   -0.460196   -0.760307
|  9> C      0.922329   -1.012414    0.000000
| 10> H     -0.135836    1.824369    1.417771
| 11> H     -0.135836    1.824369   -1.417771
| 12> H     -0.878809   -1.079524    1.397279
| 13> H     -0.878809   -1.079524   -1.397279
| 14> H      1.855860   -0.463241    0.000000
| 15> H      1.024808   -2.092588    0.000000
| 16> *
| 17>
| 18>                          ****END OF INPUT****

CARTESIAN COORDINATES (ANGSTROEM)
---------------------------------
  C     -0.266056    1.055248    0.669094
  C     -0.266056    1.055248   -0.669094
  C     -0.266056   -0.460196    0.760307
  C     -0.266056   -0.460196   -0.760307
  C      0.922329   -1.012414    0.000000
  H     -0.135836    1.824369    1.417771
  H     -0.135836    1.824369   -1.417771
  H     -0.878809   -1.079524    1.397279
  H     -0.878809   -1.079524   -1.397279
  H      1.855860   -0.463241    0.000000
  H      1.024808   -2.092588    0.000000

 Total Charge           Charge          ....    0
 Multiplicity           Mult            ....    1
 Number of Electrons    NEL             ....   36
 Basis Dimension        Dim             ....  169

ORBITAL ENERGIES
----------------

  NO   OCC          E(Eh)            E(eV)
   0   2.0000     -11.243584      -305.9535
   1   2.0000     -11.239679      -305.8472
   2   2.0000     -11.238957      -305.8276
   3   2.0000     -11.238648      -305.8192
   4   2.0000     -11.237762      -305.7950
   5   2.0000      -1.207283       -32.8518
   6   2.0000      -0.995394       -27.0860
   7   2.0000      -0.854245       -23.2452
   8   2.0000      -0.808706       -22.0060
   9   2.0000      -0.702439       -19.1143
  10   2.0000      -0.696305       -18.9474
  11   2.0000      -0.613329       -16.6895
  12   2.0000      -0.599778       -16.3208
  13   2.0000      -0.509147       -13.8546
  14   2.0000      -0.478067       -13.0089
  15   2.0000      -0.429464       -11.6863
  16   2.0000      -0.429259       -11.6807
  17   2.0000      -0.320828        -8.7302
  18   0.0000       0.037027         1.0076
  19   0.0000       0.044805         1.2192
  20   0.0000       0.044942         1.2229
  21   0.0000       0.051825         1.4102
  22   0.0000       0.063057         1.7159

MULLIKEN ATOMIC CHARGES
-----------------------
   0 C :    0.240676
   1 C :    0.240676
   2 C :    0.407275
   3 C :    0.407275
   4 C :    0.600121
   5 H :   -0.230411
   6 H :   -0.230411
   7 H :   -0.381310
   8 H :   -0.381310
   9 H :   -0.333631
  10 H :   -0.338950
Sum of atomic charges:    0.0000000

LOEWDIN ATOMIC CHARGES
----------------------
   0 C :    0.061464
   1 C :    0.061464
   2 C :   -0.096183
   3 C :   -0.096183
   4 C :    0.092758
   5 H :   -0.018353
   6 H :   -0.018353
   7 H :    0.008609
   8 H :    0.008609
   9 H :   -0.003268
  10 H :   -0.000564

  Mayer bond orders larger than 0.100000
B(  0-C ,  1-C ) :   2.1930 B(  0-C ,  2-C ) :   1.2311 B(  0-C ,  3-C ) :  -0.1363
B(  0-C ,  4-C ) :   0.1038 B(  0-C ,  5-H ) :   0.7167 B(  0-C ,  6-H ) :   0.1074
B(  1-C ,  2-C ) :  -0.1363 B(  1-C ,  3-C ) :   1.2311 B(  1-C ,  4-C ) :   0.1038
B(  1-C ,  5-H ) :   0.1074 B(  1-C ,  6-H ) :   0.7167 B(  2-C ,  3-C ) :   0.9270
B(  2-C ,  4-C ) :   0.9984 B(  2-C ,  7-H ) :   0.6311 B(  3-C ,  4-C ) :   0.9984
B(  3-C ,  8-H ) :   0.6311 B(  4-C ,  9-H ) :   0.8745 B(  4-C , 10-H ) :   0.8155
B(  9-H , 10-H ) :  -0.1569

MP2 TOTAL ENERGY:     -193.426818694 Eh
FINAL SINGLE POINT ENERGY      -193.426818694326

DIPOLE MOMENT
-------------
                                X             Y             Z
Electronic contribution:     -0.79433       0.93952      -0.00000
Nuclear contribution   :      0.87079      -1.09045       0.00000
                        -----------------------------------------
Total Dipole Moment    :      0.07646      -0.15094      -0.00000
                        -----------------------------------------
Magnitude (a.u.)       :      0.16920
Magnitude (Debye)      :      0.43007

Rotational constants in cm-1:     0.365449     0.217370     0.174361
Rotational constants in MHz : 10955.896496  6516.578012  5227.217693

                             ****ORCA TERMINATED NORMALLY****
TOTAL RUN TIME: 0 days 0 hours 0 minutes 27 seconds 324 msec
