                         Program Version 5.0.3 -  RELEASE  -
|  1> !ri-mp2 aug-cc-pvdz aug-cc-pvdz/c tightscf
|  2> %pal nprocs 16 end
|  3>
|  4> * xyz 0 1
|  5> C      0.000000    0.000000    2.038408
|  6> C      0.000000    0.000000   -2.171450
|  7> C      0.000000    1.205362   -1.477349
|  8> C      0.000000   -1.205362   -1.477349
|  9> C      0.000000    1.211491   -0.090773
| 10> C      0.000000   -1.211491   -0.090773
| 11> C      0.000000    0.000000    0.608724
| 12> N      0.000000    0.000000    3.190989
| 13> H      0.000000    0.000000   -3.252992
| 14> H      0.000000    2.142437   -2.016824
| 15> H      0.000000   -2.142437   -2.016824
| 16> H      0.000000    2.143254    0.456544
| 17> H      0.000000   -2.143254    0.456544
| 18> *
| 19>
| 20>                          ****END OF INPUT****

CARTESIAN COORDINATES (ANGSTROEM)
---------------------------------
  C      0.000000    0.000000    2.038408
  C      0.000000    0.000000   -2.171450
  C      0.000000    1.205362   -1.477349
  C      0.000000   -1.205362   -1.477349
  C      0.000000    1.211491   -0.090773
  C      0.000000   -1.211491   -0.090773
  C      0.000000    0.000000    0.608724
  N      0.000000    0.000000    3.190989
  H      0.000000    0.000000   -3.252992
  H      0.000000    2.142437   -2.016824
  H      0.000000   -2.142437   -2.016824
  H      0.000000    2.143254    0.456544
  H      0.000000   -2.143254    0.456544

 Total Charge           Charge          ....    0
 Multiplicity           Mult            ....    1
 Number of Electrons    NEL             ....   54
 Basis Dimension        Dim             ....  229

ORBITAL ENERGIES
----------------

  NO   OCC          E(Eh)            E(eV)
   0   2.0000     -15.584268      -424.0695
   1   2.0000     -11.295709      -307.3719
   2   2.0000     -11.286225      -307.1138
   3   2.0000     -11.277234      -306.8691
   4   2.0000     -11.277182      -306.8677
   5   2.0000     -11.272657      -306.7446
   6   2.0000     -11.267188      -306.5958
   7   2.0000     -11.267045      -306.5919
   8   2.0000      -1.232110       -33.5274
   9   2.0000      -1.188239       -32.3336
  10   2.0000      -1.067199       -29.0400
  11   2.0000      -1.051801       -28.6210
  12   2.0000      -0.891340       -24.2546
  13   2.0000      -0.862135       -23.4599
  14   2.0000      -0.768706       -20.9175
  15   2.0000      -0.701738       -19.0953
  16   2.0000      -0.663841       -18.0640
  17   2.0000      -0.638798       -17.3826
  18   2.0000      -0.620234       -16.8774
  19   2.0000      -0.566446       -15.4138
  20   2.0000      -0.555587       -15.1183
  21   2.0000      -0.536347       -14.5947
  22   2.0000      -0.530831       -14.4446
  23   2.0000      -0.483969       -13.1695
  24   2.0000      -0.469611       -12.7788
  25   2.0000      -0.367171        -9.9912
  26   2.0000      -0.359247        -9.7756
  27   0.0000       0.026081         0.7097
  28   0.0000       0.036099         0.9823
  29   0.0000       0.042933         1.1683
  30   0.0000       0.057315         1.5596
  31   0.0000       0.061866         1.6835

MULLIKEN ATOMIC CHARGES
-----------------------
   0 C :   -1.144052
   1 C :    0.179046
   2 C :    0.615113
   3 C :    0.615113
   4 C :    0.029982
   5 C :    0.029982
   6 C :    2.294594
   7 N :   -0.262085
   8 H :   -0.432736
   9 H :   -0.425459
  10 H :   -0.425459
  11 H :   -0.537019
  12 H :   -0.537019
Sum of atomic charges:    0.0000000

LOEWDIN ATOMIC CHARGES
----------------------
   0 C :   -0.124521
   1 C :    0.027134
   2 C :    0.023399
   3 C :    0.023399
   4 C :    0.063693
   5 C :    0.063693
   6 C :   -0.213035
   7 N :    0.086952
   8 H :    0.006461
   9 H :    0.005113
  10 H :    0.005113
  11 H :    0.016299
  12 H :    0.016299

  Mayer bond orders larger than 0.100000
B(  0-C ,  1-C ) :   0.1537 B(  0-C ,  4-C ) :  -0.1994 B(  0-C ,  5-C ) :  -0.1994
B(  0-C ,  6-C ) :  -0.5071 B(  0-C ,  7-N ) :   2.4792 B(  1-C ,  2-C ) :   1.7004
B(  1-C ,  3-C ) :   1.7004 B(  1-C ,  4-C ) :   0.1544 B(  1-C ,  5-C ) :   0.1544
B(  1-C ,  6-C ) :  -0.1155 B(  1-C ,  8-H ) :   0.4147 B(  1-C ,  9-H ) :   0.2078
B(  1-C , 10-H ) :   0.2078 B(  2-C ,  3-C ) :  -0.1157 B(  2-C ,  4-C ) :   1.8876
B(  2-C ,  6-C ) :  -0.1601 B(  2-C ,  8-H ) :   0.1693 B(  2-C ,  9-H ) :   0.2851
B(  2-C , 11-H ) :   0.1565 B(  3-C ,  5-C ) :   1.8876 B(  3-C ,  6-C ) :  -0.1601
B(  3-C ,  8-H ) :   0.1693 B(  3-C , 10-H ) :   0.2851 B(  3-C , 12-H ) :   0.1565
B(  4-C ,  5-C ) :  -0.4030 B(  4-C ,  6-C ) :   1.3156 B(  4-C ,  9-H ) :   0.2692
B(  4-C , 11-H ) :   0.3353 B(  5-C ,  6-C ) :   1.3156 B(  5-C , 10-H ) :   0.2692
B(  5-C , 12-H ) :   0.3353 B(  6-C ,  7-N ) :  -0.1801 B(  6-C , 11-H ) :   0.2246
B(  6-C , 12-H ) :   0.2246

MP2 TOTAL ENERGY:     -323.558766512 Eh
FINAL SINGLE POINT ENERGY      -323.558766511650

DIPOLE MOMENT
-------------
                                X             Y             Z
Electronic contribution:      0.00000      -0.00000       4.28204
Nuclear contribution   :      0.00000       0.00000      -6.24957
                        -----------------------------------------
Total Dipole Moment    :      0.00000      -0.00000      -1.96752
                        -----------------------------------------
Magnitude (a.u.)       :      1.96752
Magnitude (Debye)      :      5.00104

Rotational constants in cm-1:     0.190110     0.051847     0.040737
Rotational constants in MHz :  5699.365942  1554.322711  1221.261946

                             ****ORCA TERMINATED NORMALLY****
TOTAL RUN TIME: 0 days 0 hours 0 minutes 46 seconds 432 msec
