                         Program Version 5.0.3 -  RELEASE  -
|  1> !ri-mp2 aug-cc-pvdz aug-cc-pvdz/c tightscf
|  2> %pal nprocs 16 end
|  3>
|  4> * xyz 0 1
|  5> C      0.000000    0.000000    0.631617
|  6> C      0.000000    0.000000   -0.631617
|  7> C      0.000000    0.000000    1.943149
|  8> C      0.000000    0.000000   -1.943149
|  9> H      0.000000    0.924533    2.508102
| 10> H      0.000000   -0.924533    2.508102
| 11> H      0.000000    0.924533   -2.508102
| 12> H      0.000000   -0.924533   -2.508102
| 13> *
| 14>
| 15>                          ****END OF INPUT****

CARTESIAN COORDINATES (ANGSTROEM)
---------------------------------
  C      0.000000    0.000000    0.631617
  C      0.000000    0.000000   -0.631617
  C      0.000000    0.000000    1.943149
  C      0.000000    0.000000   -1.943149
  H      0.000000    0.924533    2.508102
  H      0.000000   -0.924533    2.508102
  H      0.000000    0.924533   -2.508102
  H      0.000000   -0.924533   -2.508102

 Total Charge           Charge          ....    0
 Multiplicity           Mult            ....    1
 Number of Electrons    NEL             ....   28
 Basis Dimension        Dim             ....  128

ORBITAL ENERGIES
----------------

  NO   OCC          E(Eh)            E(eV)
   0   2.0000     -11.266448      -306.5756
   1   2.0000     -11.264197      -306.5144
   2   2.0000     -11.261727      -306.4472
   3   2.0000     -11.261537      -306.4420
   4   2.0000      -1.097389       -29.8615
   5   2.0000      -1.018686       -27.7199
   6   2.0000      -0.898644       -24.4534
   7   2.0000      -0.692251       -18.8371
   8   2.0000      -0.651878       -17.7385
   9   2.0000      -0.626545       -17.0492
  10   2.0000      -0.604566       -16.4511
  11   2.0000      -0.477389       -12.9904
  12   2.0000      -0.375244       -10.2109
  13   2.0000      -0.335800        -9.1376
  14   0.0000       0.037102         1.0096
  15   0.0000       0.042207         1.1485
  16   0.0000       0.049038         1.3344
  17   0.0000       0.060660         1.6506
  18   0.0000       0.061030         1.6607

MULLIKEN ATOMIC CHARGES
-----------------------
   0 C :   -0.168083
   1 C :   -0.168083
   2 C :    0.478837
   3 C :    0.478837
   4 H :   -0.155377
   5 H :   -0.155377
   6 H :   -0.155377
   7 H :   -0.155377
Sum of atomic charges:   -0.0000000

LOEWDIN ATOMIC CHARGES
----------------------
   0 C :   -0.094393
   1 C :   -0.094393
   2 C :    0.172958
   3 C :    0.172958
   4 H :   -0.039283
   5 H :   -0.039283
   6 H :   -0.039283
   7 H :   -0.039283

  Mayer bond orders larger than 0.100000
B(  0-C ,  1-C ) :   1.8928 B(  0-C ,  2-C ) :   1.9796 B(  0-C ,  3-C ) :   0.1168
B(  0-C ,  4-H ) :   0.2161 B(  0-C ,  5-H ) :   0.2161 B(  1-C ,  2-C ) :   0.1168
B(  1-C ,  3-C ) :   1.9796 B(  1-C ,  6-H ) :   0.2161 B(  1-C ,  7-H ) :   0.2161
B(  2-C ,  3-C ) :   0.4071 B(  2-C ,  4-H ) :   0.7591 B(  2-C ,  5-H ) :   0.7591
B(  3-C ,  6-H ) :   0.7591 B(  3-C ,  7-H ) :   0.7591 B(  4-H ,  5-H ) :  -0.1492
B(  6-H ,  7-H ) :  -0.1492

MP2 TOTAL ENERGY:     -154.237552577 Eh
FINAL SINGLE POINT ENERGY      -154.237552576959

DIPOLE MOMENT
-------------
                                X             Y             Z
Electronic contribution:      0.00000      -0.00000      -0.00000
Nuclear contribution   :      0.00000       0.00000       0.00000
                        -----------------------------------------
Total Dipole Moment    :      0.00000      -0.00000      -0.00000
                        -----------------------------------------
Magnitude (a.u.)       :      0.00000
Magnitude (Debye)      :      0.00000

Rotational constants in cm-1:     4.891382     0.134164     0.130582
Rotational constants in MHz : 146639.930398  4022.124664  3914.748677

                             ****ORCA TERMINATED NORMALLY****
TOTAL RUN TIME: 0 days 0 hours 0 minutes 25 seconds 346 msec
