                         Program Version 5.0.3 -  RELEASE  -
|  1> !ri-mp2 aug-cc-pvdz aug-cc-pvdz/c tightscf
|  2> %pal nprocs 16 end
|  3>
|  4> * xyz 0 1
|  5> C     0.000000     1.396197   -0.005270
|  6> C     1.209142    -0.698099   -0.005270
|  7> C    -1.209142    -0.698099   -0.005270
|  8> C     1.208834     0.697921   -0.006832
|  9> C    -1.208834     0.697921   -0.006832
| 10> C     0.000000    -1.395841   -0.006832
| 11> N     2.416644     1.395250   -0.064461
| 12> N    -2.416644     1.395250   -0.064461
| 13> N     0.000000    -2.790500   -0.064461
| 14> H     0.000000     2.479119   -0.023214
| 15> H     2.146980    -1.239560   -0.023214
| 16> H    -2.146980    -1.239560   -0.023214
| 17> H     3.222171     0.895252    0.273528
| 18> H     2.386397     2.342856    0.273528
| 19> H    -2.386397     2.342856    0.273528
| 20> H    -3.222171     0.895252    0.273528
| 21> H    -0.835774    -3.238108    0.273528
| 22> H     0.835774    -3.238108    0.273528
| 23> *
| 24>
| 25>                          ****END OF INPUT****

CARTESIAN COORDINATES (ANGSTROEM)
---------------------------------
  C      0.000000    1.396197   -0.005270
  C      1.209142   -0.698099   -0.005270
  C     -1.209142   -0.698099   -0.005270
  C      1.208834    0.697921   -0.006832
  C     -1.208834    0.697921   -0.006832
  C      0.000000   -1.395841   -0.006832
  N      2.416644    1.395250   -0.064461
  N     -2.416644    1.395250   -0.064461
  N      0.000000   -2.790500   -0.064461
  H      0.000000    2.479119   -0.023214
  H      2.146980   -1.239560   -0.023214
  H     -2.146980   -1.239560   -0.023214
  H      3.222171    0.895252    0.273528
  H      2.386397    2.342856    0.273528
  H     -2.386397    2.342856    0.273528
  H     -3.222171    0.895252    0.273528
  H     -0.835774   -3.238108    0.273528
  H      0.835774   -3.238108    0.273528

 Total Charge           Charge          ....    0
 Multiplicity           Mult            ....    1
 Number of Electrons    NEL             ....   66
 Basis Dimension        Dim             ....  288

ORBITAL ENERGIES
----------------

  NO   OCC          E(Eh)            E(eV)
   0   2.0000     -15.567941      -423.6252
   1   2.0000     -15.567941      -423.6252
   2   2.0000     -15.567941      -423.6252
   3   2.0000     -11.281219      -306.9776
   4   2.0000     -11.281217      -306.9775
   5   2.0000     -11.281217      -306.9775
   6   2.0000     -11.200808      -304.7895
   7   2.0000     -11.200808      -304.7895
   8   2.0000     -11.200773      -304.7885
   9   2.0000      -1.234372       -33.5890
  10   2.0000      -1.211427       -32.9646
  11   2.0000      -1.211427       -32.9646
  12   2.0000      -1.083377       -29.4802
  13   2.0000      -0.974785       -26.5252
  14   2.0000      -0.974784       -26.5252
  15   2.0000      -0.817960       -22.2578
  16   2.0000      -0.817960       -22.2578
  17   2.0000      -0.719814       -19.5871
  18   2.0000      -0.704836       -19.1796
  19   2.0000      -0.660539       -17.9742
  20   2.0000      -0.660539       -17.9742
  21   2.0000      -0.657878       -17.9018
  22   2.0000      -0.602445       -16.3934
  23   2.0000      -0.602445       -16.3934
  24   2.0000      -0.560401       -15.2493
  25   2.0000      -0.548986       -14.9387
  26   2.0000      -0.510579       -13.8936
  27   2.0000      -0.510579       -13.8936
  28   2.0000      -0.482833       -13.1386
  29   2.0000      -0.482833       -13.1386
  30   2.0000      -0.377941       -10.2843
  31   2.0000      -0.282935        -7.6990
  32   2.0000      -0.282934        -7.6990
  33   0.0000       0.031382         0.8539
  34   0.0000       0.038304         1.0423
  35   0.0000       0.038304         1.0423
  36   0.0000       0.053619         1.4590
  37   0.0000       0.053619         1.4590

MULLIKEN ATOMIC CHARGES
-----------------------
   0 C :    1.110432
   1 C :    1.110429
   2 C :    1.110429
   3 C :    0.052445
   4 C :    0.052445
   5 C :    0.052448
   6 N :   -0.410415
   7 N :   -0.410415
   8 N :   -0.410413
   9 H :   -0.662309
  10 H :   -0.662309
  11 H :   -0.662309
  12 H :   -0.045076
  13 H :   -0.045076
  14 H :   -0.045076
  15 H :   -0.045076
  16 H :   -0.045077
  17 H :   -0.045077
Sum of atomic charges:   -0.0000000

LOEWDIN ATOMIC CHARGES
----------------------
   0 C :    0.068105
   1 C :    0.068106
   2 C :    0.068106
   3 C :   -0.244692
   4 C :   -0.244692
   5 C :   -0.244693
   6 N :    0.246457
   7 N :    0.246457
   8 N :    0.246458
   9 H :   -0.006543
  10 H :   -0.006543
  11 H :   -0.006543
  12 H :   -0.031664
  13 H :   -0.031664
  14 H :   -0.031664
  15 H :   -0.031664
  16 H :   -0.031664
  17 H :   -0.031664

  Mayer bond orders larger than 0.100000
B(  0-C ,  1-C ) :   0.2854 B(  0-C ,  2-C ) :   0.2854 B(  0-C ,  3-C ) :   1.6877
B(  0-C ,  4-C ) :   1.6877 B(  0-C ,  9-H ) :  -0.4119 B(  1-C ,  2-C ) :   0.2854
B(  1-C ,  3-C ) :   1.6877 B(  1-C ,  5-C ) :   1.6877 B(  1-C , 10-H ) :  -0.4119
B(  2-C ,  4-C ) :   1.6877 B(  2-C ,  5-C ) :   1.6877 B(  2-C , 11-H ) :  -0.4119
B(  3-C ,  4-C ) :  -0.3499 B(  3-C ,  5-C ) :  -0.3499 B(  3-C ,  6-N ) :   0.7915
B(  3-C ,  9-H ) :   0.5407 B(  3-C , 10-H ) :   0.5407 B(  4-C ,  5-C ) :  -0.3499
B(  4-C ,  7-N ) :   0.7915 B(  4-C ,  9-H ) :   0.5407 B(  4-C , 11-H ) :   0.5407
B(  5-C ,  8-N ) :   0.7915 B(  5-C , 10-H ) :   0.5407 B(  5-C , 11-H ) :   0.5407
B(  6-N , 12-H ) :   1.1068 B(  6-N , 13-H ) :   1.1068 B(  7-N , 14-H ) :   1.1068
B(  7-N , 15-H ) :   1.1068 B(  8-N , 16-H ) :   1.1068 B(  8-N , 17-H ) :   1.1068

MP2 TOTAL ENERGY:     -397.205833873 Eh
FINAL SINGLE POINT ENERGY      -397.205833873042

DIPOLE MOMENT
-------------
                                X             Y             Z
Electronic contribution:     -0.00000       0.00001      -0.46221
Nuclear contribution   :      0.00000      -0.00000       1.58051
                        -----------------------------------------
Total Dipole Moment    :     -0.00000       0.00000       1.11830
                        -----------------------------------------
Magnitude (a.u.)       :      1.11830
Magnitude (Debye)      :      2.84249

Rotational constants in cm-1:     0.060736     0.060736     0.030435
Rotational constants in MHz :  1820.829574  1820.829510   912.425454

                             ****ORCA TERMINATED NORMALLY****
TOTAL RUN TIME: 0 days 0 hours 1 minutes 26 seconds 707 msec
