                         Program Version 5.0.3 -  RELEASE  -
|  1> !ri-mp2 aug-cc-pvdz aug-cc-pvdz/c tightscf
|  2> %pal nprocs 16 end
|  3>
|  4> * xyz 0 1
|  5> C     -2.571902    0.046888    0.020768
|  6> C     -1.848389    1.223950   -0.131564
|  7> C     -1.902431   -1.166543    0.145550
|  8> C     -0.459401    1.189827   -0.147202
|  9> C     -0.515903   -1.202319    0.120287
| 10> C      0.218670   -0.023721   -0.016122
| 11> C      1.715052   -0.135921   -0.035243
| 12> N      2.416666    1.006941    0.237137
| 13> O      2.280280   -1.184451   -0.295323
| 14> H     -3.653148    0.074322    0.035323
| 15> H     -2.364586    2.167480   -0.245942
| 16> H     -2.462548   -2.084753    0.259361
| 17> H      0.086801    2.111464   -0.297061
| 18> H      0.020859   -2.136416    0.202736
| 19> H      1.984571    1.789885    0.692283
| 20> H      3.414974    0.912074    0.317082
| 21> *
| 22>
| 23>                          ****END OF INPUT****

CARTESIAN COORDINATES (ANGSTROEM)
---------------------------------
  C     -2.571902    0.046888    0.020768
  C     -1.848389    1.223950   -0.131564
  C     -1.902431   -1.166543    0.145550
  C     -0.459401    1.189827   -0.147202
  C     -0.515903   -1.202319    0.120287
  C      0.218670   -0.023721   -0.016122
  C      1.715052   -0.135921   -0.035243
  N      2.416666    1.006941    0.237137
  O      2.280280   -1.184451   -0.295323
  H     -3.653148    0.074322    0.035323
  H     -2.364586    2.167480   -0.245942
  H     -2.462548   -2.084753    0.259361
  H      0.086801    2.111464   -0.297061
  H      0.020859   -2.136416    0.202736
  H      1.984571    1.789885    0.692283
  H      3.414974    0.912074    0.317082

 Total Charge           Charge          ....    0
 Multiplicity           Mult            ....    1
 Number of Electrons    NEL             ....   64
 Basis Dimension        Dim             ....  270

ORBITAL ENERGIES
----------------

  NO   OCC          E(Eh)            E(eV)
   0   2.0000     -20.532170      -558.7087
   1   2.0000     -15.593852      -424.3303
   2   2.0000     -11.366383      -309.2950
   3   2.0000     -11.261294      -306.4354
   4   2.0000     -11.258379      -306.3561
   5   2.0000     -11.256915      -306.3162
   6   2.0000     -11.252852      -306.2057
   7   2.0000     -11.251964      -306.1815
   8   2.0000     -11.249824      -306.1233
   9   2.0000      -1.389393       -37.8073
  10   2.0000      -1.217335       -33.1254
  11   2.0000      -1.170428       -31.8490
  12   2.0000      -1.044473       -28.4216
  13   2.0000      -1.032887       -28.1063
  14   2.0000      -0.882758       -24.0211
  15   2.0000      -0.843850       -22.9623
  16   2.0000      -0.794610       -21.6224
  17   2.0000      -0.749820       -20.4036
  18   2.0000      -0.699951       -19.0466
  19   2.0000      -0.675221       -18.3737
  20   2.0000      -0.642245       -17.4764
  21   2.0000      -0.622809       -16.9475
  22   2.0000      -0.604170       -16.4403
  23   2.0000      -0.597949       -16.2710
  24   2.0000      -0.578283       -15.7359
  25   2.0000      -0.524667       -14.2769
  26   2.0000      -0.509970       -13.8770
  27   2.0000      -0.506195       -13.7743
  28   2.0000      -0.433664       -11.8006
  29   2.0000      -0.417132       -11.3507
  30   2.0000      -0.352434        -9.5902
  31   2.0000      -0.348270        -9.4769
  32   0.0000       0.027495         0.7482
  33   0.0000       0.035335         0.9615
  34   0.0000       0.042597         1.1591
  35   0.0000       0.053223         1.4483
  36   0.0000       0.061968         1.6862

MULLIKEN ATOMIC CHARGES
-----------------------
   0 C :    0.251061
   1 C :    0.369549
   2 C :    0.590206
   3 C :    0.427567
   4 C :   -0.034561
   5 C :    1.546714
   6 C :    0.449393
   7 N :   -0.256810
   8 O :   -0.814305
   9 H :   -0.435666
  10 H :   -0.459865
  11 H :   -0.427998
  12 H :   -0.596643
  13 H :   -0.610551
  14 H :   -0.025950
  15 H :    0.027858
Sum of atomic charges:   -0.0000000

LOEWDIN ATOMIC CHARGES
----------------------
   0 C :    0.019094
   1 C :    0.014174
   2 C :    0.022743
   3 C :    0.048401
   4 C :    0.068037
   5 C :   -0.121633
   6 C :   -0.333368
   7 N :    0.276413
   8 O :    0.023911
   9 H :    0.003466
  10 H :    0.001083
  11 H :    0.002501
  12 H :    0.000524
  13 H :    0.011631
  14 H :   -0.030515
  15 H :   -0.006461

  Mayer bond orders larger than 0.100000
B(  0-C ,  1-C ) :   1.7589 B(  0-C ,  2-C ) :   1.7133 B(  0-C ,  4-C ) :   0.1912
B(  0-C ,  9-H ) :   0.4013 B(  0-C , 10-H ) :   0.1854 B(  0-C , 11-H ) :   0.1610
B(  1-C ,  2-C ) :  -0.1017 B(  1-C ,  3-C ) :   1.7872 B(  1-C ,  4-C ) :   0.1082
B(  1-C ,  5-C ) :  -0.3898 B(  1-C ,  6-C ) :   0.2208 B(  1-C ,  9-H ) :   0.1732
B(  1-C , 10-H ) :   0.1972 B(  1-C , 12-H ) :   0.2172 B(  2-C ,  4-C ) :   2.0557
B(  2-C ,  5-C ) :  -0.4233 B(  2-C ,  9-H ) :   0.1666 B(  2-C , 10-H ) :  -0.1122
B(  2-C , 11-H ) :   0.2221 B(  2-C , 13-H ) :   0.1730 B(  3-C ,  4-C ) :  -0.6967
B(  3-C ,  5-C ) :   1.8169 B(  3-C ,  6-C ) :  -0.4490 B(  3-C , 10-H ) :   0.3937
B(  3-C , 12-H ) :   0.1239 B(  4-C ,  5-C ) :   1.2535 B(  4-C ,  6-C ) :  -0.4559
B(  4-C , 11-H ) :   0.3887 B(  4-C , 13-H ) :   0.1460 B(  5-C ,  6-C ) :   0.5157
B(  5-C , 12-H ) :   0.2584 B(  5-C , 13-H ) :   0.3381 B(  6-C ,  7-N ) :   0.8418
B(  6-C ,  8-O ) :   1.3249 B(  6-C , 14-H ) :  -0.1507 B(  7-N , 14-H ) :   1.1205
B(  7-N , 15-H ) :   1.0405

MP2 TOTAL ENERGY:     -399.849294543 Eh
FINAL SINGLE POINT ENERGY      -399.849294543205

DIPOLE MOMENT
-------------
                                X             Y             Z
Electronic contribution:      2.16024      -1.51652      -0.41736
Nuclear contribution   :     -2.90021       2.79935       0.95305
                        -----------------------------------------
Total Dipole Moment    :     -0.73997       1.28283       0.53568
                        -----------------------------------------
Magnitude (a.u.)       :      1.57485
Magnitude (Debye)      :      4.00296

Rotational constants in cm-1:     0.128088     0.040569     0.031259
Rotational constants in MHz :  3839.973529  1216.221507   937.118121

                             ****ORCA TERMINATED NORMALLY****
TOTAL RUN TIME: 0 days 0 hours 1 minutes 9 seconds 372 msec
