                         Program Version 5.0.3 -  RELEASE  -
|  1> !ri-mp2 aug-cc-pvdz aug-cc-pvdz/c tightscf
|  2> %pal nprocs 16 end
|  3>
|  4> * xyz 0 1
|  5> O     -0.115324    2.385771   -0.820827
|  6> O      0.115324   -2.385771   -0.820827
|  7> C      0.379356    0.637546    0.860073
|  8> C     -0.379356   -0.637546    0.860073
|  9> C      0.115324    1.569774   -0.030466
| 10> C     -0.115324   -1.569774   -0.030466
| 11> H      1.150733    0.853280    1.588973
| 12> H     -1.150733   -0.853280    1.588973
| 13> *
| 14>
| 15>                          ****END OF INPUT****

CARTESIAN COORDINATES (ANGSTROEM)
---------------------------------
  O     -0.115324    2.385771   -0.820827
  O      0.115324   -2.385771   -0.820827
  C      0.379356    0.637546    0.860073
  C     -0.379356   -0.637546    0.860073
  C      0.115324    1.569774   -0.030466
  C     -0.115324   -1.569774   -0.030466
  H      1.150733    0.853280    1.588973
  H     -1.150733   -0.853280    1.588973

 Total Charge           Charge          ....    0
 Multiplicity           Mult            ....    1
 Number of Electrons    NEL             ....   42
 Basis Dimension        Dim             ....  156

ORBITAL ENERGIES
----------------

  NO   OCC          E(Eh)            E(eV)
   0   2.0000     -20.650526      -561.9294
   1   2.0000     -20.650525      -561.9293
   2   2.0000     -11.403330      -310.3004
   3   2.0000     -11.403330      -310.3004
   4   2.0000     -11.272455      -306.7391
   5   2.0000     -11.271788      -306.7209
   6   2.0000      -1.491617       -40.5890
   7   2.0000      -1.491202       -40.5777
   8   2.0000      -1.127863       -30.6907
   9   2.0000      -1.015479       -27.6326
  10   2.0000      -0.786472       -21.4010
  11   2.0000      -0.757402       -20.6100
  12   2.0000      -0.710305       -19.3284
  13   2.0000      -0.685050       -18.6411
  14   2.0000      -0.678147       -18.4533
  15   2.0000      -0.649955       -17.6862
  16   2.0000      -0.648567       -17.6484
  17   2.0000      -0.600891       -16.3511
  18   2.0000      -0.563661       -15.3380
  19   2.0000      -0.389575       -10.6009
  20   2.0000      -0.356639        -9.7047
  21   0.0000       0.028664         0.7800
  22   0.0000       0.042864         1.1664
  23   0.0000       0.065694         1.7876
  24   0.0000       0.068018         1.8509
  25   0.0000       0.097052         2.6409

MULLIKEN ATOMIC CHARGES
-----------------------
   0 O :   -0.423559
   1 O :   -0.423559
   2 C :    0.865111
   3 C :    0.865111
   4 C :   -0.206389
   5 C :   -0.206389
   6 H :   -0.235163
   7 H :   -0.235163
Sum of atomic charges:   -0.0000000

LOEWDIN ATOMIC CHARGES
----------------------
   0 O :    0.123233
   1 O :    0.123233
   2 C :   -0.040676
   3 C :   -0.040676
   4 C :   -0.070168
   5 C :   -0.070168
   6 H :   -0.012388
   7 H :   -0.012388

  Mayer bond orders larger than 0.100000
B(  0-O ,  2-C ) :  -0.1650 B(  0-O ,  4-C ) :   2.1522 B(  1-O ,  3-C ) :  -0.1650
B(  1-O ,  5-C ) :   2.1522 B(  2-C ,  3-C ) :   1.0653 B(  2-C ,  4-C ) :   1.0510
B(  2-C ,  6-H ) :   0.8802 B(  2-C ,  7-H ) :  -0.1256 B(  3-C ,  5-C ) :   1.0510
B(  3-C ,  6-H ) :  -0.1256 B(  3-C ,  7-H ) :   0.8802 B(  4-C ,  5-C ) :   0.1144

MP2 TOTAL ENERGY:     -303.227605784 Eh
FINAL SINGLE POINT ENERGY      -303.227605783798

DIPOLE MOMENT
-------------
                                X             Y             Z
Electronic contribution:      0.00000       0.00000      -2.13792
Nuclear contribution   :      0.00000       0.00000       3.02996
                        -----------------------------------------
Total Dipole Moment    :      0.00000       0.00000       0.89204
                        -----------------------------------------
Magnitude (a.u.)       :      0.89204
Magnitude (Debye)      :      2.26739

Rotational constants in cm-1:     0.329587     0.064980     0.056775
Rotational constants in MHz :  9880.780873  1948.053999  1702.056797

                             ****ORCA TERMINATED NORMALLY****
TOTAL RUN TIME: 0 days 0 hours 0 minutes 29 seconds 760 msec
