                         Program Version 5.0.3 -  RELEASE  -
|  1> !ri-mp2 aug-cc-pvdz aug-cc-pvdz/c tightscf
|  2> %pal nprocs 16 end
|  3>
|  4> * xyz 0 1
|  5> N     -1.375785    0.000002    0.012410
|  6> N      1.116606    0.000001   -0.079764
|  7> C     -0.221237   -0.000004   -0.000219
|  8> H      1.570840    0.843614    0.236395
|  9> H      1.570840   -0.843611    0.236395
| 10> *
| 11>
| 12>                          ****END OF INPUT****

CARTESIAN COORDINATES (ANGSTROEM)
---------------------------------
  N     -1.375785    0.000002    0.012410
  N      1.116606    0.000001   -0.079764
  C     -0.221237   -0.000004   -0.000219
  H      1.570840    0.843614    0.236395
  H      1.570840   -0.843611    0.236395

 Total Charge           Charge          ....    0
 Multiplicity           Mult            ....    1
 Number of Electrons    NEL             ....   22
 Basis Dimension        Dim             ....   87

ORBITAL ENERGIES
----------------

  NO   OCC          E(Eh)            E(eV)
   0   2.0000     -15.640382      -425.5964
   1   2.0000     -15.573939      -423.7884
   2   2.0000     -11.317650      -307.9689
   3   2.0000      -1.288150       -35.0524
   4   2.0000      -1.197097       -32.5747
   5   2.0000      -0.801950       -21.8222
   6   2.0000      -0.747991       -20.3539
   7   2.0000      -0.578081       -15.7304
   8   2.0000      -0.556584       -15.1454
   9   2.0000      -0.467337       -12.7169
  10   2.0000      -0.416975       -11.3465
  11   0.0000       0.018980         0.5165
  12   0.0000       0.046064         1.2535
  13   0.0000       0.089532         2.4363
  14   0.0000       0.098150         2.6708
  15   0.0000       0.117743         3.2039

MULLIKEN ATOMIC CHARGES
-----------------------
   0 N :   -0.292854
   1 N :   -0.100084
   2 C :    0.225426
   3 H :    0.083756
   4 H :    0.083756
Sum of atomic charges:   -0.0000000

LOEWDIN ATOMIC CHARGES
----------------------
   0 N :    0.057001
   1 N :    0.227404
   2 C :   -0.262849
   3 H :   -0.010777
   4 H :   -0.010779

  Mayer bond orders larger than 0.100000
B(  0-N ,  2-C ) :   2.7101 B(  1-N ,  2-C ) :   1.1523 B(  1-N ,  3-H ) :   1.0136
B(  1-N ,  4-H ) :   1.0136

MP2 TOTAL ENERGY:     -148.401901030 Eh
FINAL SINGLE POINT ENERGY      -148.401901029765

DIPOLE MOMENT
-------------
                                X             Y             Z
Electronic contribution:     -1.24427      -0.00000      -0.08301
Nuclear contribution   :      3.08613       0.00000       0.46427
                        -----------------------------------------
Total Dipole Moment    :      1.84185      -0.00000       0.38126
                        -----------------------------------------
Magnitude (a.u.)       :      1.88090
Magnitude (Debye)      :      4.78086

Rotational constants in cm-1:    10.397620     0.340519     0.332144
Rotational constants in MHz : 311712.817653 10208.498957  9957.439031

                             ****ORCA TERMINATED NORMALLY****
TOTAL RUN TIME: 0 days 0 hours 0 minutes 29 seconds 614 msec
