                         Program Version 5.0.3 -  RELEASE  -
|  1> !ri-mp2 aug-cc-pvdz aug-cc-pvdz/c tightscf
|  2> %pal nprocs 16 end
|  3>
|  4> * xyz 0 1
|  5> C      0.000000    0.000000   -0.527573
|  6> O      0.000000    0.000000   -1.683489
|  7> S      0.000000    0.000000    1.039584
|  8> *
|  9>
| 10>                          ****END OF INPUT****

CARTESIAN COORDINATES (ANGSTROEM)
---------------------------------
  C      0.000000    0.000000   -0.527573
  O      0.000000    0.000000   -1.683489
  S      0.000000    0.000000    1.039584

 Total Charge           Charge          ....    0
 Multiplicity           Mult            ....    1
 Number of Electrons    NEL             ....   30
 Basis Dimension        Dim             ....   73

ORBITAL ENERGIES
----------------

  NO   OCC          E(Eh)            E(eV)
   0   2.0000     -91.996634     -2503.3557
   1   2.0000     -20.672541      -562.5284
   2   2.0000     -11.450956      -311.5964
   3   2.0000      -9.000386      -244.9129
   4   2.0000      -6.682994      -181.8535
   5   2.0000      -6.678832      -181.7403
   6   2.0000      -6.678832      -181.7403
   7   2.0000      -1.516427       -41.2641
   8   2.0000      -1.093978       -29.7687
   9   2.0000      -0.784080       -21.3359
  10   2.0000      -0.662244       -18.0206
  11   2.0000      -0.662244       -18.0206
  12   2.0000      -0.636844       -17.3294
  13   2.0000      -0.421166       -11.4605
  14   2.0000      -0.421166       -11.4605
  15   0.0000       0.058737         1.5983
  16   0.0000       0.074629         2.0308
  17   0.0000       0.095345         2.5945
  18   0.0000       0.095345         2.5945
  19   0.0000       0.108115         2.9420

MULLIKEN ATOMIC CHARGES
-----------------------
   0 C :   -0.088708
   1 O :   -0.315931
   2 S :    0.404639
Sum of atomic charges:    0.0000000

LOEWDIN ATOMIC CHARGES
----------------------
   0 C :   -0.690234
   1 O :    0.053513
   2 S :    0.636721

  Mayer bond orders larger than 0.100000
B(  0-C ,  1-O ) :   1.9639 B(  0-C ,  2-S ) :   1.7561

MP2 TOTAL ENERGY:     -510.756532822 Eh
FINAL SINGLE POINT ENERGY      -510.756532821616

DIPOLE MOMENT
-------------
                                X             Y             Z
Electronic contribution:     -0.00000       0.00000       0.32394
Nuclear contribution   :      0.00000       0.00000      -0.05498
                        -----------------------------------------
Total Dipole Moment    :     -0.00000       0.00000       0.26896
                        -----------------------------------------
Magnitude (a.u.)       :      0.26896
Magnitude (Debye)      :      0.68365

Rotational constants in cm-1:     0.000000     0.202288     0.202288
Rotational constants in MHz :     0.000000  6064.454708  6064.454708

                             ****ORCA TERMINATED NORMALLY****
TOTAL RUN TIME: 0 days 0 hours 0 minutes 27 seconds 232 msec
