                         Program Version 5.0.3 -  RELEASE  -
|  1> !ri-mp2 aug-cc-pvdz aug-cc-pvdz/c tightscf
|  2> %pal nprocs 16 end
|  3>
|  4> * xyz 0 1
|  5> H     -0.839567   -2.094249    0.000000
|  6> H      0.927182   -2.122428    0.000000
|  7> C      0.054138   -1.475036    0.000000
|  8> O     -0.153392    1.866794    0.000000
|  9> C     -0.034224    0.676084    0.000000
| 10> H      0.974306   -0.304588    1.688889
| 11> H      0.974306   -0.304588   -1.688889
| 12> H     -0.789114   -0.376716    1.798667
| 13> H     -0.789114   -0.376716   -1.798667
| 14> C      0.054138   -0.380113    1.107874
| 15> C      0.054138   -0.380113   -1.107874
| 16> *
| 17>
| 18>                          ****END OF INPUT****

CARTESIAN COORDINATES (ANGSTROEM)
---------------------------------
  H     -0.839567   -2.094249    0.000000
  H      0.927182   -2.122428    0.000000
  C      0.054138   -1.475036    0.000000
  O     -0.153392    1.866794    0.000000
  C     -0.034224    0.676084    0.000000
  H      0.974306   -0.304588    1.688889
  H      0.974306   -0.304588   -1.688889
  H     -0.789114   -0.376716    1.798667
  H     -0.789114   -0.376716   -1.798667
  C      0.054138   -0.380113    1.107874
  C      0.054138   -0.380113   -1.107874

 Total Charge           Charge          ....    0
 Multiplicity           Mult            ....    1
 Number of Electrons    NEL             ....   38
 Basis Dimension        Dim             ....  169

ORBITAL ENERGIES
----------------

  NO   OCC          E(Eh)            E(eV)
   0   2.0000     -20.563718      -559.5672
   1   2.0000     -11.339744      -308.5701
   2   2.0000     -11.247955      -306.0724
   3   2.0000     -11.246739      -306.0393
   4   2.0000     -11.246603      -306.0356
   5   2.0000      -1.399935       -38.0942
   6   2.0000      -1.137078       -30.9415
   7   2.0000      -0.936448       -25.4820
   8   2.0000      -0.869709       -23.6660
   9   2.0000      -0.728259       -19.8169
  10   2.0000      -0.668880       -18.2011
  11   2.0000      -0.666488       -18.1361
  12   2.0000      -0.618485       -16.8298
  13   2.0000      -0.566238       -15.4081
  14   2.0000      -0.543231       -14.7821
  15   2.0000      -0.507691       -13.8150
  16   2.0000      -0.485075       -13.1996
  17   2.0000      -0.479830       -13.0568
  18   2.0000      -0.397971       -10.8293
  19   0.0000       0.033208         0.9036
  20   0.0000       0.044372         1.2074
  21   0.0000       0.046980         1.2784
  22   0.0000       0.051440         1.3997
  23   0.0000       0.066776         1.8171

MULLIKEN ATOMIC CHARGES
-----------------------
   0 H :   -0.185313
   1 H :   -0.216601
   2 C :    0.595647
   3 O :   -0.702749
   4 C :    0.377698
   5 H :   -0.094189
   6 H :   -0.094189
   7 H :   -0.142281
   8 H :   -0.142281
   9 C :    0.302129
  10 C :    0.302129
Sum of atomic charges:   -0.0000000

LOEWDIN ATOMIC CHARGES
----------------------
   0 H :   -0.001072
   1 H :   -0.002697
   2 C :    0.024702
   3 O :    0.051208
   4 C :   -0.254211
   5 H :    0.011084
   6 H :    0.011084
   7 H :    0.009695
   8 H :    0.009695
   9 C :    0.070257
  10 C :    0.070257

  Mayer bond orders larger than 0.100000
B(  0-H ,  1-H ) :  -0.1381 B(  0-H ,  2-C ) :   0.7837 B(  1-H ,  2-C ) :   0.7800
B(  2-C ,  4-C ) :  -0.1167 B(  2-C ,  9-C ) :   1.1816 B(  2-C , 10-C ) :   1.1816
B(  3-O ,  4-C ) :   1.3823 B(  4-C ,  9-C ) :   1.0257 B(  4-C , 10-C ) :   1.0257
B(  5-H ,  7-H ) :  -0.1132 B(  5-H ,  9-C ) :   0.8470 B(  6-H ,  8-H ) :  -0.1132
B(  6-H , 10-C ) :   0.8470 B(  7-H ,  9-C ) :   0.8599 B(  8-H , 10-C ) :   0.8599

MP2 TOTAL ENERGY:     -230.579235264 Eh
FINAL SINGLE POINT ENERGY      -230.579235263742

DIPOLE MOMENT
-------------
                                X             Y             Z
Electronic contribution:     -0.32927       4.28446      -0.00000
Nuclear contribution   :      0.46387      -5.65087       0.00000
                        -----------------------------------------
Total Dipole Moment    :      0.13460      -1.36641      -0.00000
                        -----------------------------------------
Magnitude (a.u.)       :      1.37303
Magnitude (Debye)      :      3.48996

Rotational constants in cm-1:     0.362115     0.160413     0.118675
Rotational constants in MHz : 10855.926986  4809.060266  3557.778230

                             ****ORCA TERMINATED NORMALLY****
TOTAL RUN TIME: 0 days 0 hours 0 minutes 38 seconds 473 msec
