                         Program Version 5.0.3 -  RELEASE  -
|  1> !ri-mp2 aug-cc-pvdz aug-cc-pvdz/c tightscf
|  2> %pal nprocs 16 end
|  3>
|  4> * xyz 0 1
|  5> Cl     2.428631   -0.064395    0.032886
|  6> O     -1.730300    1.196583    0.115542
|  7> O     -2.527186   -0.891563   -0.130112
|  8> N      0.770338    0.388259   -0.379853
|  9> C     -0.158958   -0.592845    0.181441
| 10> C     -1.598551   -0.146064    0.017450
| 11> H     -0.003971   -0.777676    1.252540
| 12> H     -0.042747   -1.538938   -0.340394
| 13> H      0.644604    1.280659    0.086477
| 14> H     -2.672033    1.406156    0.024511
| 15> *
| 16>
| 17>                          ****END OF INPUT****

CARTESIAN COORDINATES (ANGSTROEM)
---------------------------------
  Cl     2.428631   -0.064395    0.032886
  O     -1.730300    1.196583    0.115542
  O     -2.527186   -0.891563   -0.130112
  N      0.770338    0.388259   -0.379853
  C     -0.158958   -0.592845    0.181441
  C     -1.598551   -0.146064    0.017450
  H     -0.003971   -0.777676    1.252540
  H     -0.042747   -1.538938   -0.340394
  H      0.644604    1.280659    0.086477
  H     -2.672033    1.406156    0.024511

 Total Charge           Charge          ....    0
 Multiplicity           Mult            ....    1
 Number of Electrons    NEL             ....   56
 Basis Dimension        Dim             ....  178

ORBITAL ENERGIES
----------------

  NO   OCC          E(Eh)            E(eV)
   0   2.0000    -104.862474     -2853.4530
   1   2.0000     -20.644820      -561.7741
   2   2.0000     -20.581710      -560.0568
   3   2.0000     -15.648970      -425.8301
   4   2.0000     -11.419015      -310.7272
   5   2.0000     -11.308006      -307.7065
   6   2.0000     -10.585702      -288.0516
   7   2.0000      -8.053538      -219.1479
   8   2.0000      -8.049730      -219.0443
   9   2.0000      -8.049473      -219.0373
  10   2.0000      -1.493012       -40.6269
  11   2.0000      -1.390868       -37.8474
  12   2.0000      -1.269990       -34.5582
  13   2.0000      -1.076037       -29.2805
  14   2.0000      -0.963802       -26.2264
  15   2.0000      -0.853149       -23.2154
  16   2.0000      -0.732101       -19.9215
  17   2.0000      -0.720312       -19.6007
  18   2.0000      -0.696299       -18.9473
  19   2.0000      -0.639099       -17.3908
  20   2.0000      -0.618423       -16.8282
  21   2.0000      -0.612485       -16.6666
  22   2.0000      -0.573011       -15.5924
  23   2.0000      -0.524907       -14.2835
  24   2.0000      -0.501598       -13.6492
  25   2.0000      -0.476231       -12.9589
  26   2.0000      -0.457065       -12.4374
  27   2.0000      -0.411206       -11.1895
  28   0.0000       0.030076         0.8184
  29   0.0000       0.046459         1.2642
  30   0.0000       0.055626         1.5137
  31   0.0000       0.058682         1.5968
  32   0.0000       0.078580         2.1383

MULLIKEN ATOMIC CHARGES
-----------------------
   0 Cl:    0.203184
   1 O :   -0.705642
   2 O :   -0.720546
   3 N :   -0.748388
   4 C :    0.675468
   5 C :    0.988345
   6 H :    0.040827
   7 H :   -0.092899
   8 H :    0.157433
   9 H :    0.202217
Sum of atomic charges:   -0.0000000

LOEWDIN ATOMIC CHARGES
----------------------
   0 Cl:    0.444300
   1 O :    0.203233
   2 O :    0.051876
   3 N :   -0.235513
   4 C :   -0.059569
   5 C :   -0.335024
   6 H :    0.017311
   7 H :    0.015836
   8 H :   -0.091000
   9 H :   -0.011449

  Mayer bond orders larger than 0.100000
B(  0-Cl,  3-N ) :   0.9337 B(  0-Cl,  4-C ) :  -0.1293 B(  1-O ,  4-C ) :   0.1821
B(  1-O ,  5-C ) :   0.5220 B(  1-O ,  9-H ) :   1.0043 B(  2-O ,  4-C ) :   0.1112
B(  2-O ,  5-C ) :   1.4177 B(  3-N ,  4-C ) :   0.9204 B(  3-N ,  8-H ) :   1.0042
B(  4-C ,  5-C ) :   1.0636 B(  4-C ,  6-H ) :   0.8674 B(  4-C ,  7-H ) :   0.8606

MP2 TOTAL ENERGY:     -742.752536152 Eh
FINAL SINGLE POINT ENERGY      -742.752536151746

DIPOLE MOMENT
-------------
                                X             Y             Z
Electronic contribution:      5.19003       0.18826      -0.41827
Nuclear contribution   :     -5.38890       0.45081       0.93504
                        -----------------------------------------
Total Dipole Moment    :     -0.19887       0.63907       0.51677
                        -----------------------------------------
Magnitude (a.u.)       :      0.84559
Magnitude (Debye)      :      2.14932

Rotational constants in cm-1:     0.314371     0.041067     0.037063
Rotational constants in MHz :  9424.612711  1231.158817  1111.122543

                             ****ORCA TERMINATED NORMALLY****
TOTAL RUN TIME: 0 days 0 hours 0 minutes 34 seconds 716 msec
