                         Program Version 5.0.3 -  RELEASE  -
|  1> !ri-mp2 aug-cc-pvdz aug-cc-pvdz/c tightscf
|  2> %pal nprocs 16 end
|  3>
|  4> * xyz 0 1
|  5> C     0.000000     0.000000    0.861410
|  6> C     0.000000     0.643280   -0.499979
|  7> C     0.000000    -0.643280   -0.499979
|  8> H     0.000000     1.571117   -1.041246
|  9> H     0.000000    -1.571117   -1.041246
| 10> H     0.910708     0.000000    1.456887
| 11> H    -0.910708     0.000000    1.456887
| 12> *
| 13>
| 14>                          ****END OF INPUT****

CARTESIAN COORDINATES (ANGSTROEM)
---------------------------------
  C      0.000000    0.000000    0.861410
  C      0.000000    0.643280   -0.499979
  C      0.000000   -0.643280   -0.499979
  H      0.000000    1.571117   -1.041246
  H      0.000000   -1.571117   -1.041246
  H      0.910708    0.000000    1.456887
  H     -0.910708    0.000000    1.456887

 Total Charge           Charge          ....    0
 Multiplicity           Mult            ....    1
 Number of Electrons    NEL             ....   22
 Basis Dimension        Dim             ....  105

ORBITAL ENERGIES
----------------

  NO   OCC          E(Eh)            E(eV)
   0   2.0000     -11.250913      -306.1529
   1   2.0000     -11.248674      -306.0920
   2   2.0000     -11.244975      -305.9913
   3   2.0000      -1.162597       -31.6359
   4   2.0000      -0.825953       -22.4753
   5   2.0000      -0.767491       -20.8845
   6   2.0000      -0.681774       -18.5520
   7   2.0000      -0.596227       -16.2242
   8   2.0000      -0.494053       -13.4439
   9   2.0000      -0.419782       -11.4228
  10   2.0000      -0.358611        -9.7583
  11   0.0000       0.038639         1.0514
  12   0.0000       0.044345         1.2067
  13   0.0000       0.050579         1.3763
  14   0.0000       0.057130         1.5546
  15   0.0000       0.102557         2.7907

MULLIKEN ATOMIC CHARGES
-----------------------
   0 C :    0.565628
   1 C :    0.234784
   2 C :    0.234784
   3 H :   -0.280553
   4 H :   -0.280553
   5 H :   -0.237045
   6 H :   -0.237045
Sum of atomic charges:   -0.0000000

LOEWDIN ATOMIC CHARGES
----------------------
   0 C :    0.012395
   1 C :    0.059880
   2 C :    0.059880
   3 H :   -0.031580
   4 H :   -0.031580
   5 H :   -0.034497
   6 H :   -0.034497

  Mayer bond orders larger than 0.100000
B(  0-C ,  1-C ) :   1.0216 B(  0-C ,  2-C ) :   1.0216 B(  0-C ,  5-H ) :   0.8960
B(  0-C ,  6-H ) :   0.8960 B(  1-C ,  2-C ) :   2.0202 B(  1-C ,  3-H ) :   0.7759
B(  2-C ,  4-H ) :   0.7759 B(  5-H ,  6-H ) :  -0.1210

MP2 TOTAL ENERGY:     -116.249039039 Eh
FINAL SINGLE POINT ENERGY      -116.249039038886

DIPOLE MOMENT
-------------
                                X             Y             Z
Electronic contribution:     -0.00000       0.00000      -1.05056
Nuclear contribution   :      0.00000       0.00000       0.85727
                        -----------------------------------------
Total Dipole Moment    :     -0.00000       0.00000      -0.19328
                        -----------------------------------------
Magnitude (a.u.)       :      0.19328
Magnitude (Debye)      :      0.49129

Rotational constants in cm-1:     1.016201     0.731757     0.464628
Rotational constants in MHz : 30464.947943 21937.511045 13929.200353

                             ****ORCA TERMINATED NORMALLY****
TOTAL RUN TIME: 0 days 0 hours 0 minutes 46 seconds 352 msec
