                         Program Version 5.0.3 -  RELEASE  -
|  1> !ri-mp2 aug-cc-pvdz aug-cc-pvdz/c tightscf
|  2> %pal nprocs 16 end
|  3>
|  4> * xyz 0 1
|  5> H     -1.297824    0.008644   -1.543899
|  6> H     -2.422921    0.029181   -0.180212
|  7> C     -1.370643    0.014803   -0.458265
|  8> H     -0.900800    1.519610    1.097315
|  9> H     -0.113750    1.903984   -0.444735
| 10> C     -0.464979    1.093290    0.193316
| 11> H      0.987868   -0.008659    1.529152
| 12> C      0.579115   -0.009257    0.514978
| 13> H     -0.932014   -1.492737    1.105684
| 14> H     -0.141293   -1.892778   -0.431151
| 15> C     -0.487824   -1.078003    0.201469
| 16> H      2.214363    0.655067   -0.337686
| 17> O      1.634045   -0.105913   -0.437932
| 18> *
| 19>
| 20>                          ****END OF INPUT****

CARTESIAN COORDINATES (ANGSTROEM)
---------------------------------
  H     -1.297824    0.008644   -1.543899
  H     -2.422921    0.029181   -0.180212
  C     -1.370643    0.014803   -0.458265
  H     -0.900800    1.519610    1.097315
  H     -0.113750    1.903984   -0.444735
  C     -0.464979    1.093290    0.193316
  H      0.987868   -0.008659    1.529152
  C      0.579115   -0.009257    0.514978
  H     -0.932014   -1.492737    1.105684
  H     -0.141293   -1.892778   -0.431151
  C     -0.487824   -1.078003    0.201469
  H      2.214363    0.655067   -0.337686
  O      1.634045   -0.105913   -0.437932

 Total Charge           Charge          ....    0
 Multiplicity           Mult            ....    1
 Number of Electrons    NEL             ....   40
 Basis Dimension        Dim             ....  187

ORBITAL ENERGIES
----------------

  NO   OCC          E(Eh)            E(eV)
   0   2.0000     -20.565304      -559.6104
   1   2.0000     -11.281209      -306.9773
   2   2.0000     -11.224093      -305.4231
   3   2.0000     -11.222953      -305.3921
   4   2.0000     -11.220650      -305.3294
   5   2.0000      -1.360870       -37.0312
   6   2.0000      -1.114632       -30.3307
   7   2.0000      -0.904823       -24.6215
   8   2.0000      -0.886752       -24.1297
   9   2.0000      -0.751164       -20.4402
  10   2.0000      -0.695937       -18.9374
  11   2.0000      -0.653898       -17.7935
  12   2.0000      -0.621831       -16.9209
  13   2.0000      -0.568465       -15.4687
  14   2.0000      -0.535052       -14.5595
  15   2.0000      -0.515930       -14.0392
  16   2.0000      -0.475772       -12.9464
  17   2.0000      -0.466677       -12.6989
  18   2.0000      -0.432666       -11.7734
  19   2.0000      -0.412014       -11.2115
  20   0.0000       0.036254         0.9865
  21   0.0000       0.045704         1.2437
  22   0.0000       0.047464         1.2916
  23   0.0000       0.052399         1.4259
  24   0.0000       0.067945         1.8489

MULLIKEN ATOMIC CHARGES
-----------------------
   0 H :   -0.214048
   1 H :   -0.251875
   2 C :    0.519875
   3 H :   -0.193921
   4 H :   -0.230990
   5 C :    0.390999
   6 H :   -0.237983
   7 C :    0.849596
   8 H :   -0.194023
   9 H :   -0.198326
  10 C :    0.426602
  11 H :    0.127199
  12 O :   -0.793106
Sum of atomic charges:    0.0000000

LOEWDIN ATOMIC CHARGES
----------------------
   0 H :    0.002464
   1 H :   -0.005743
   2 C :    0.022288
   3 H :    0.003839
   4 H :    0.000573
   5 C :    0.035758
   6 H :    0.018967
   7 C :   -0.195253
   8 H :    0.005495
   9 H :    0.005260
  10 C :    0.037907
  11 H :   -0.057566
  12 O :    0.126012

  Mayer bond orders larger than 0.100000
B(  0-H ,  1-H ) :  -0.1448 B(  0-H ,  2-C ) :   0.7538 B(  1-H ,  2-C ) :   0.7989
B(  2-C ,  5-C ) :   1.1664 B(  2-C , 10-C ) :   1.1619 B(  3-H ,  4-H ) :  -0.1315
B(  3-H ,  5-C ) :   0.7966 B(  4-H ,  5-C ) :   0.8085 B(  5-C ,  7-C ) :   1.1563
B(  5-C , 12-O ) :   0.1326 B(  6-H ,  7-C ) :   0.6667 B(  7-C , 10-C ) :   1.1702
B(  7-C , 12-O ) :   0.1971 B(  8-H ,  9-H ) :  -0.1320 B(  8-H , 10-C ) :   0.7604
B(  9-H , 10-C ) :   0.8036 B( 11-H , 12-O ) :   1.0833

MP2 TOTAL ENERGY:     -231.767718915 Eh
FINAL SINGLE POINT ENERGY      -231.767718915127

DIPOLE MOMENT
-------------
                                X             Y             Z
Electronic contribution:      2.56112      -0.27111      -0.40137
Nuclear contribution   :     -2.68855       0.75078       0.82050
                        -----------------------------------------
Total Dipole Moment    :     -0.12743       0.47967       0.41913
                        -----------------------------------------
Magnitude (a.u.)       :      0.64961
Magnitude (Debye)      :      1.65118

Rotational constants in cm-1:     0.289919     0.156924     0.128949
Rotational constants in MHz :  8691.556030  4704.455324  3865.795691

                             ****ORCA TERMINATED NORMALLY****
TOTAL RUN TIME: 0 days 0 hours 0 minutes 47 seconds 815 msec
