                         Program Version 5.0.3 -  RELEASE  -
|  1> !ri-mp2 aug-cc-pvdz aug-cc-pvdz/c tightscf
|  2> %pal nprocs 16 end
|  3>
|  4> * xyz 0 1
|  5> C    -0.061344     1.463150    0.000000
|  6> C     0.061344    -1.463150    0.000000
|  7> C    -0.332830     0.695697    1.281972
|  8> C    -0.332830     0.695697   -1.281972
|  9> C     0.332830    -0.695697    1.281972
| 10> C     0.332830    -0.695697   -1.281972
| 11> O     0.332830     2.606139    0.000000
| 12> O    -0.332830    -2.606139    0.000000
| 13> H    -0.003435     1.294970    2.128181
| 14> H    -1.417638     0.571706    1.364952
| 15> H    -1.417638     0.571706   -1.364952
| 16> H    -0.003435     1.294970   -2.128181
| 17> H     0.003435    -1.294970    2.128181
| 18> H     1.417638    -0.571706    1.364952
| 19> H     1.417638    -0.571706   -1.364952
| 20> H     0.003435    -1.294970   -2.128181
| 21> *
| 22>
| 23>                          ****END OF INPUT****

CARTESIAN COORDINATES (ANGSTROEM)
---------------------------------
  C     -0.061344    1.463150    0.000000
  C      0.061344   -1.463150    0.000000
  C     -0.332830    0.695697    1.281972
  C     -0.332830    0.695697   -1.281972
  C      0.332830   -0.695697    1.281972
  C      0.332830   -0.695697   -1.281972
  O      0.332830    2.606139    0.000000
  O     -0.332830   -2.606139    0.000000
  H     -0.003435    1.294970    2.128181
  H     -1.417638    0.571706    1.364952
  H     -1.417638    0.571706   -1.364952
  H     -0.003435    1.294970   -2.128181
  H      0.003435   -1.294970    2.128181
  H      1.417638   -0.571706    1.364952
  H      1.417638   -0.571706   -1.364952
  H      0.003435   -1.294970   -2.128181

 Total Charge           Charge          ....    0
 Multiplicity           Mult            ....    1
 Number of Electrons    NEL             ....   60
 Basis Dimension        Dim             ....  256

ORBITAL ENERGIES
----------------

  NO   OCC          E(Eh)            E(eV)
   0   2.0000     -20.571985      -559.7922
   1   2.0000     -20.571984      -559.7921
   2   2.0000     -11.351267      -308.8837
   3   2.0000     -11.351260      -308.8835
   4   2.0000     -11.264318      -306.5177
   5   2.0000     -11.264288      -306.5169
   6   2.0000     -11.263751      -306.5023
   7   2.0000     -11.263729      -306.5016
   8   2.0000      -1.408650       -38.3313
   9   2.0000      -1.406684       -38.2778
  10   2.0000      -1.131831       -30.7987
  11   2.0000      -1.055580       -28.7238
  12   2.0000      -0.979434       -26.6518
  13   2.0000      -0.897876       -24.4325
  14   2.0000      -0.789572       -21.4853
  15   2.0000      -0.732201       -19.9242
  16   2.0000      -0.679557       -18.4917
  17   2.0000      -0.663609       -18.0577
  18   2.0000      -0.657336       -17.8870
  19   2.0000      -0.646763       -17.5993
  20   2.0000      -0.617170       -16.7940
  21   2.0000      -0.610816       -16.6211
  22   2.0000      -0.571149       -15.5418
  23   2.0000      -0.553601       -15.0643
  24   2.0000      -0.531585       -14.4652
  25   2.0000      -0.528890       -14.3918
  26   2.0000      -0.518632       -14.1127
  27   2.0000      -0.487115       -13.2551
  28   2.0000      -0.421157       -11.4603
  29   2.0000      -0.414110       -11.2685
  30   0.0000       0.031613         0.8602
  31   0.0000       0.037840         1.0297
  32   0.0000       0.039775         1.0823
  33   0.0000       0.056197         1.5292
  34   0.0000       0.060097         1.6353

MULLIKEN ATOMIC CHARGES
-----------------------
   0 C :    0.348488
   1 C :    0.348488
   2 C :    0.359284
   3 C :    0.359284
   4 C :    0.359284
   5 C :    0.359284
   6 O :   -0.807293
   7 O :   -0.807293
   8 H :   -0.123018
   9 H :   -0.006864
  10 H :   -0.006864
  11 H :   -0.123018
  12 H :   -0.123018
  13 H :   -0.006864
  14 H :   -0.006864
  15 H :   -0.123018
Sum of atomic charges:    0.0000000

LOEWDIN ATOMIC CHARGES
----------------------
   0 C :   -0.264091
   1 C :   -0.264091
   2 C :    0.048203
   3 C :    0.048203
   4 C :    0.048203
   5 C :    0.048203
   6 O :    0.056848
   7 O :    0.056848
   8 H :    0.024992
   9 H :    0.030427
  10 H :    0.030427
  11 H :    0.024992
  12 H :    0.024992
  13 H :    0.030427
  14 H :    0.030427
  15 H :    0.024992

  Mayer bond orders larger than 0.100000
B(  0-C ,  2-C ) :   1.0916 B(  0-C ,  3-C ) :   1.0916 B(  0-C ,  6-O ) :   1.3206
B(  0-C ,  8-H ) :   0.1776 B(  0-C , 11-H ) :   0.1776 B(  1-C ,  4-C ) :   1.0916
B(  1-C ,  5-C ) :   1.0916 B(  1-C ,  7-O ) :   1.3206 B(  1-C , 12-H ) :   0.1776
B(  1-C , 15-H ) :   0.1776 B(  2-C ,  4-C ) :   1.2848 B(  2-C ,  8-H ) :   0.6427
B(  2-C ,  9-H ) :   0.8987 B(  3-C ,  5-C ) :   1.2848 B(  3-C , 10-H ) :   0.8987
B(  3-C , 11-H ) :   0.6427 B(  4-C , 12-H ) :   0.6427 B(  4-C , 13-H ) :   0.8987
B(  5-C , 14-H ) :   0.8987 B(  5-C , 15-H ) :   0.6427 B(  8-H ,  9-H ) :  -0.1055
B( 10-H , 11-H ) :  -0.1055 B( 12-H , 13-H ) :  -0.1055 B( 14-H , 15-H ) :  -0.1055

MP2 TOTAL ENERGY:     -382.867359520 Eh
FINAL SINGLE POINT ENERGY      -382.867359520000

DIPOLE MOMENT
-------------
                                X             Y             Z
Electronic contribution:     -0.00000      -0.00000       0.00000
Nuclear contribution   :     -0.00000       0.00000       0.00000
                        -----------------------------------------
Total Dipole Moment    :     -0.00000      -0.00000       0.00000
                        -----------------------------------------
Magnitude (a.u.)       :      0.00000
Magnitude (Debye)      :      0.00000

Rotational constants in cm-1:     0.138917     0.053154     0.041597
Rotational constants in MHz :  4164.636559  1593.511923  1247.046445

                             ****ORCA TERMINATED NORMALLY****
TOTAL RUN TIME: 0 days 0 hours 1 minutes 22 seconds 534 msec
