                         Program Version 5.0.3 -  RELEASE  -
|  1> !ri-mp2 aug-cc-pvdz aug-cc-pvdz/c tightscf
|  2> %pal nprocs 16 end
|  3>
|  4> * xyz 0 1
|  5> N      0.042436    1.333654        0.000000
|  6> C      0.000000    0.181234        0.000000
|  7> O     -0.128990   -1.109677        0.000000
|  8> H      0.734862   -1.545563        0.000000
|  9> *
| 10>
| 11>                          ****END OF INPUT****

CARTESIAN COORDINATES (ANGSTROEM)
---------------------------------
  N      0.042436    1.333654    0.000000
  C      0.000000    0.181234    0.000000
  O     -0.128990   -1.109677    0.000000
  H      0.734862   -1.545563    0.000000

 Total Charge           Charge          ....    0
 Multiplicity           Mult            ....    1
 Number of Electrons    NEL             ....   22
 Basis Dimension        Dim             ....   78

ORBITAL ENERGIES
----------------

  NO   OCC          E(Eh)            E(eV)
   0   2.0000     -20.693296      -563.0932
   1   2.0000     -15.589555      -424.2134
   2   2.0000     -11.358005      -309.0670
   3   2.0000      -1.506343       -40.9897
   4   2.0000      -1.232227       -33.5306
   5   2.0000      -0.883702       -24.0468
   6   2.0000      -0.720645       -19.6097
   7   2.0000      -0.672738       -18.3061
   8   2.0000      -0.572774       -15.5860
   9   2.0000      -0.476091       -12.9551
  10   2.0000      -0.459321       -12.4988
  11   0.0000       0.016613         0.4521
  12   0.0000       0.083803         2.2804
  13   0.0000       0.090004         2.4491
  14   0.0000       0.092877         2.5273
  15   0.0000       0.117093         3.1863

MULLIKEN ATOMIC CHARGES
-----------------------
   0 N :   -0.247116
   1 C :    0.375723
   2 O :   -0.365494
   3 H :    0.236887
Sum of atomic charges:   -0.0000000

LOEWDIN ATOMIC CHARGES
----------------------
   0 N :    0.054810
   1 C :   -0.266270
   2 O :    0.210504
   3 H :    0.000956

  Mayer bond orders larger than 0.100000
B(  0-N ,  1-C ) :   2.7056 B(  1-C ,  2-O ) :   1.0457 B(  2-O ,  3-H ) :   0.9552

MP2 TOTAL ENERGY:     -168.238879761 Eh
FINAL SINGLE POINT ENERGY      -168.238879761244

DIPOLE MOMENT
-------------
                                X             Y             Z
Electronic contribution:     -0.11698      -0.01028       0.00000
Nuclear contribution   :      0.70399      -1.49351       0.00000
                        -----------------------------------------
Total Dipole Moment    :      0.58701      -1.50379       0.00000
                        -----------------------------------------
Magnitude (a.u.)       :      1.61430
Magnitude (Debye)      :      4.10322

Rotational constants in cm-1:    22.759651     0.355318     0.349856
Rotational constants in MHz : 682317.172791 10652.167830 10488.425118

                             ****ORCA TERMINATED NORMALLY****
TOTAL RUN TIME: 0 days 0 hours 0 minutes 48 seconds 651 msec
