                         Program Version 5.0.3 -  RELEASE  -
|  1> !ri-mp2 aug-cc-pvdz aug-cc-pvdz/c tightscf
|  2> %pal nprocs 16 end
|  3>
|  4> * xyz 0 1
|  5> Cl    -1.385401   -0.338103    0.000000
|  6> N      2.297547   -0.400037    0.000000
|  7> C      0.000000    0.819137    0.000000
|  8> C      1.275830    0.126036    0.000000
|  9> H     -0.092993    1.438487    0.887765
| 10> H     -0.092993    1.438487   -0.887765
| 11> *
| 12>
| 13>                          ****END OF INPUT****

CARTESIAN COORDINATES (ANGSTROEM)
---------------------------------
  Cl    -1.385401   -0.338103    0.000000
  N      2.297547   -0.400037    0.000000
  C      0.000000    0.819137    0.000000
  C      1.275830    0.126036    0.000000
  H     -0.092993    1.438487    0.887765
  H     -0.092993    1.438487   -0.887765

 Total Charge           Charge          ....    0
 Multiplicity           Mult            ....    1
 Number of Electrons    NEL             ....   38
 Basis Dimension        Dim             ....  114

ORBITAL ENERGIES
----------------

  NO   OCC          E(Eh)            E(eV)
   0   2.0000    -104.862954     -2853.4661
   1   2.0000     -15.606621      -424.6778
   2   2.0000     -11.369428      -309.3779
   3   2.0000     -11.306657      -307.6698
   4   2.0000     -10.588483      -288.1273
   5   2.0000      -8.056201      -219.2204
   6   2.0000      -8.052682      -219.1246
   7   2.0000      -8.052605      -219.1225
   8   2.0000      -1.252437       -34.0805
   9   2.0000      -1.172258       -31.8988
  10   2.0000      -1.002486       -27.2790
  11   2.0000      -0.740483       -20.1496
  12   2.0000      -0.687312       -18.7027
  13   2.0000      -0.611110       -16.6291
  14   2.0000      -0.579336       -15.7645
  15   2.0000      -0.495266       -13.4769
  16   2.0000      -0.491064       -13.3625
  17   2.0000      -0.472178       -12.8486
  18   2.0000      -0.466583       -12.6964
  19   0.0000       0.027803         0.7565
  20   0.0000       0.046159         1.2560
  21   0.0000       0.064210         1.7473
  22   0.0000       0.074984         2.0404
  23   0.0000       0.112532         3.0622

MULLIKEN ATOMIC CHARGES
-----------------------
   0 Cl:   -0.050071
   1 N :   -0.295372
   2 C :    0.055896
   3 C :   -0.010532
   4 H :    0.150039
   5 H :    0.150039
Sum of atomic charges:   -0.0000000

LOEWDIN ATOMIC CHARGES
----------------------
   0 Cl:    0.492009
   1 N :    0.078225
   2 C :   -0.325300
   3 C :   -0.206575
   4 H :   -0.019179
   5 H :   -0.019179

  Mayer bond orders larger than 0.100000
B(  0-Cl,  2-C ) :   1.2506 B(  0-Cl,  3-C ) :  -0.1255 B(  1-N ,  3-C ) :   2.7238
B(  2-C ,  3-C ) :   0.8938 B(  2-C ,  4-H ) :   0.8789 B(  2-C ,  5-H ) :   0.8789

MP2 TOTAL ENERGY:     -591.432151019 Eh
FINAL SINGLE POINT ENERGY      -591.432151018812

DIPOLE MOMENT
-------------
                                X             Y             Z
Electronic contribution:     -2.51155      -2.05142      -0.00000
Nuclear contribution   :      1.71051       3.17457       0.00000
                        -----------------------------------------
Total Dipole Moment    :     -0.80104       1.12315      -0.00000
                        -----------------------------------------
Magnitude (a.u.)       :      1.37954
Magnitude (Debye)      :      3.50651

Rotational constants in cm-1:     0.844577     0.103233     0.093612
Rotational constants in MHz : 25319.777353  3094.850633  2806.431557

                             ****ORCA TERMINATED NORMALLY****
TOTAL RUN TIME: 0 days 0 hours 0 minutes 26 seconds 840 msec
