                         Program Version 5.0.3 -  RELEASE  -
|  1> !ri-mp2 aug-cc-pvdz aug-cc-pvdz/c tightscf
|  2> %pal nprocs 16 end
|  3>
|  4> * xyz 0 1
|  5> Cl    0.454804   -1.139246    1.304813
|  6> Cl   -2.281823   -0.133493   -0.404658
|  7> N     0.212304    2.469029    0.884988
|  8> N     2.741580   -0.189878   -1.346088
|  9> C     0.469741    0.052344   -0.074733
| 10> C    -0.644368   -0.282574   -1.092678
| 11> C     0.324537    1.401661    0.476873
| 12> C     1.759694   -0.075092   -0.761062
| 13> H    -0.569014    0.407136   -1.929326
| 14> H    -0.506489   -1.302670   -1.436011
| 15> *
| 16>
| 17>                          ****END OF INPUT****

CARTESIAN COORDINATES (ANGSTROEM)
---------------------------------
  Cl     0.454804   -1.139246    1.304813
  Cl    -2.281823   -0.133493   -0.404658
  N      0.212304    2.469029    0.884988
  N      2.741580   -0.189878   -1.346088
  C      0.469741    0.052344   -0.074733
  C     -0.644368   -0.282574   -1.092678
  C      0.324537    1.401661    0.476873
  C      1.759694   -0.075092   -0.761062
  H     -0.569014    0.407136   -1.929326
  H     -0.506489   -1.302670   -1.436011

 Total Charge           Charge          ....    0
 Multiplicity           Mult            ....    1
 Number of Electrons    NEL             ....   74
 Basis Dimension        Dim             ....  210

ORBITAL ENERGIES
----------------

  NO   OCC          E(Eh)            E(eV)
   0   2.0000    -104.892904     -2854.2810
   1   2.0000    -104.869953     -2853.6565
   2   2.0000     -15.640013      -425.5864
   3   2.0000     -15.633967      -425.4219
   4   2.0000     -11.446915      -311.4864
   5   2.0000     -11.371658      -309.4385
   6   2.0000     -11.337304      -308.5037
   7   2.0000     -11.331358      -308.3419
   8   2.0000     -10.617930      -288.9286
   9   2.0000     -10.595762      -288.3253
  10   2.0000      -8.085594      -220.0202
  11   2.0000      -8.081928      -219.9204
  12   2.0000      -8.081878      -219.9191
  13   2.0000      -8.063507      -219.4192
  14   2.0000      -8.060087      -219.3261
  15   2.0000      -8.059930      -219.3219
  16   2.0000      -1.299186       -35.3526
  17   2.0000      -1.271463       -34.5983
  18   2.0000      -1.229860       -33.4662
  19   2.0000      -1.165391       -31.7119
  20   2.0000      -1.073005       -29.1979
  21   2.0000      -0.947983       -25.7959
  22   2.0000      -0.839472       -22.8432
  23   2.0000      -0.732103       -19.9215
  24   2.0000      -0.691474       -18.8160
  25   2.0000      -0.637811       -17.3557
  26   2.0000      -0.615763       -16.7558
  27   2.0000      -0.603797       -16.4302
  28   2.0000      -0.593684       -16.1550
  29   2.0000      -0.538099       -14.6424
  30   2.0000      -0.530925       -14.4472
  31   2.0000      -0.516055       -14.0426
  32   2.0000      -0.508514       -13.8374
  33   2.0000      -0.498394       -13.5620
  34   2.0000      -0.494061       -13.4441
  35   2.0000      -0.480491       -13.0748
  36   2.0000      -0.476505       -12.9664
  37   0.0000       0.029946         0.8149
  38   0.0000       0.046762         1.2725
  39   0.0000       0.048368         1.3162
  40   0.0000       0.066151         1.8001
  41   0.0000       0.068248         1.8571

MULLIKEN ATOMIC CHARGES
-----------------------
   0 Cl:   -0.012276
   1 Cl:   -0.021093
   2 N :   -0.285679
   3 N :   -0.283726
   4 C :    0.146452
   5 C :    0.296034
   6 C :    0.045908
   7 C :   -0.019339
   8 H :    0.055818
   9 H :    0.077900
Sum of atomic charges:   -0.0000000

LOEWDIN ATOMIC CHARGES
----------------------
   0 Cl:    0.634772
   1 Cl:    0.541783
   2 N :    0.129452
   3 N :    0.131035
   4 C :   -0.761434
   5 C :   -0.328693
   6 C :   -0.168534
   7 C :   -0.152726
   8 H :   -0.009760
   9 H :   -0.015895

  Mayer bond orders larger than 0.100000
B(  0-Cl,  4-C ) :   1.0022 B(  1-Cl,  4-C ) :  -0.3322 B(  1-Cl,  5-C ) :   1.2467
B(  2-N ,  6-C ) :   2.7291 B(  3-N ,  4-C ) :  -0.1258 B(  3-N ,  7-C ) :   2.7497
B(  4-C ,  5-C ) :   0.9286 B(  4-C ,  7-C ) :  -0.1772 B(  4-C ,  8-H ) :   0.1126
B(  5-C ,  7-C ) :   0.1250 B(  5-C ,  8-H ) :   0.8527 B(  5-C ,  9-H ) :   0.8289
B(  6-C ,  7-C ) :   0.5642

MP2 TOTAL ENERGY:    -1181.685178625 Eh
FINAL SINGLE POINT ENERGY     -1181.685178624749

DIPOLE MOMENT
-------------
                                X             Y             Z
Electronic contribution:     -2.05097      -1.74731       3.80335
Nuclear contribution   :      1.45122       0.87567      -4.34326
                        -----------------------------------------
Total Dipole Moment    :     -0.59975      -0.87164      -0.53991
                        -----------------------------------------
Magnitude (a.u.)       :      1.18784
Magnitude (Debye)      :      3.01924

Rotational constants in cm-1:     0.057858     0.035382     0.033453
Rotational constants in MHz :  1734.538525  1060.719110  1002.886540

                             ****ORCA TERMINATED NORMALLY****
TOTAL RUN TIME: 0 days 0 hours 0 minutes 44 seconds 658 msec
