                         Program Version 5.0.3 -  RELEASE  -
|  1> !ri-mp2 aug-cc-pvdz aug-cc-pvdz/c tightscf
|  2> %pal nprocs 16 end
|  3>
|  4> * xyz 0 1
|  5> C      0.000000    0.000000    0.101922
|  6> O      0.000000    0.000000    1.305118
|  7> O      0.000000    1.088420   -0.679394
|  8> O      0.000000   -1.088420   -0.679394
|  9> H      0.000000    1.854503   -0.091082
| 10> H      0.000000   -1.854503   -0.091082
| 11> *
| 12>
| 13>                          ****END OF INPUT****

CARTESIAN COORDINATES (ANGSTROEM)
---------------------------------
  C      0.000000    0.000000    0.101922
  O      0.000000    0.000000    1.305118
  O      0.000000    1.088420   -0.679394
  O      0.000000   -1.088420   -0.679394
  H      0.000000    1.854503   -0.091082
  H      0.000000   -1.854503   -0.091082

 Total Charge           Charge          ....    0
 Multiplicity           Mult            ....    1
 Number of Electrons    NEL             ....   32
 Basis Dimension        Dim             ....  110

ORBITAL ENERGIES
----------------

  NO   OCC          E(Eh)            E(eV)
   0   2.0000     -20.643158      -561.7289
   1   2.0000     -20.643134      -561.7282
   2   2.0000     -20.573050      -559.8212
   3   2.0000     -11.463647      -311.9417
   4   2.0000      -1.530240       -41.6399
   5   2.0000      -1.421791       -38.6889
   6   2.0000      -1.387019       -37.7427
   7   2.0000      -0.910290       -24.7702
   8   2.0000      -0.753071       -20.4921
   9   2.0000      -0.737536       -20.0694
  10   2.0000      -0.691675       -18.8214
  11   2.0000      -0.674815       -18.3627
  12   2.0000      -0.615234       -16.7414
  13   2.0000      -0.557067       -15.1586
  14   2.0000      -0.496497       -13.5104
  15   2.0000      -0.488131       -13.2827
  16   0.0000       0.033281         0.9056
  17   0.0000       0.041962         1.1418
  18   0.0000       0.090796         2.4707
  19   0.0000       0.098403         2.6777
  20   0.0000       0.120269         3.2727

MULLIKEN ATOMIC CHARGES
-----------------------
   0 C :    1.375287
   1 O :   -0.582853
   2 O :   -0.531102
   3 O :   -0.531102
   4 H :    0.134884
   5 H :    0.134884
Sum of atomic charges:   -0.0000000

LOEWDIN ATOMIC CHARGES
----------------------
   0 C :   -0.429125
   1 O :    0.022942
   2 O :    0.219019
   3 O :    0.219019
   4 H :   -0.015927
   5 H :   -0.015927

  Mayer bond orders larger than 0.100000
B(  0-C ,  1-O ) :   1.6502 B(  0-C ,  2-O ) :   0.7732 B(  0-C ,  3-O ) :   0.7732
B(  2-O ,  4-H ) :   1.0705 B(  3-O ,  5-H ) :   1.0705

MP2 TOTAL ENERGY:     -264.418732656 Eh
FINAL SINGLE POINT ENERGY      -264.418732656430

DIPOLE MOMENT
-------------
                                X             Y             Z
Electronic contribution:     -0.00000       0.00000       0.04821
Nuclear contribution   :      0.00000       0.00000      -0.17733
                        -----------------------------------------
Total Dipole Moment    :     -0.00000       0.00000      -0.12912
                        -----------------------------------------
Magnitude (a.u.)       :      0.12912
Magnitude (Debye)      :      0.32819

Rotational constants in cm-1:     0.399829     0.375950     0.193761
Rotational constants in MHz : 11986.581518 11270.708843  5808.813848

                             ****ORCA TERMINATED NORMALLY****
TOTAL RUN TIME: 0 days 0 hours 0 minutes 28 seconds 326 msec
