                         Program Version 5.0.3 -  RELEASE  -
|  1> !ri-mp2 aug-cc-pvdz aug-cc-pvdz/c tightscf
|  2> %pal nprocs 16 end
|  3>
|  4> * xyz 0 1
|  5> N      0.132502    1.611883    0.297686
|  6> C      0.232379    0.161878    0.470580
|  7> C      1.642693   -0.320889    0.078786
|  8> O      2.061362   -1.407821    0.371619
|  9> O      2.340267    0.562288   -0.647593
| 10> H      1.773757    1.361340   -0.710982
| 11> C     -0.766023   -0.575233   -0.432100
| 12> S     -2.526785   -0.165977   -0.120311
| 13> H      0.072670   -0.163602    1.501691
| 14> H     -0.615582   -1.646562   -0.340585
| 15> H     -0.604235   -0.298474   -1.474310
| 16> H     -2.603154   -0.697517    1.114290
| 17> H     -0.830276    1.882258    0.128698
| 18> H      0.440533    2.104739    1.126558
| 19> *
| 20>
| 21>                          ****END OF INPUT****

CARTESIAN COORDINATES (ANGSTROEM)
---------------------------------
  N      0.132502    1.611883    0.297686
  C      0.232379    0.161878    0.470580
  C      1.642693   -0.320889    0.078786
  O      2.061362   -1.407821    0.371619
  O      2.340267    0.562288   -0.647593
  H      1.773757    1.361340   -0.710982
  C     -0.766023   -0.575233   -0.432100
  S     -2.526785   -0.165977   -0.120311
  H      0.072670   -0.163602    1.501691
  H     -0.615582   -1.646562   -0.340585
  H     -0.604235   -0.298474   -1.474310
  H     -2.603154   -0.697517    1.114290
  H     -0.830276    1.882258    0.128698
  H      0.440533    2.104739    1.126558

 Total Charge           Charge          ....    0
 Multiplicity           Mult            ....    1
 Number of Electrons    NEL             ....   64
 Basis Dimension        Dim             ....  228

ORBITAL ENERGIES
----------------

  NO   OCC          E(Eh)            E(eV)
   0   2.0000     -91.980195     -2502.9084
   1   2.0000     -20.614674      -560.9538
   2   2.0000     -20.556071      -559.3591
   3   2.0000     -15.594150      -424.3384
   4   2.0000     -11.392667      -310.0102
   5   2.0000     -11.310037      -307.7617
   6   2.0000     -11.297083      -307.4093
   7   2.0000      -8.981622      -244.4024
   8   2.0000      -6.663687      -181.3281
   9   2.0000      -6.662288      -181.2901
  10   2.0000      -6.660281      -181.2355
  11   2.0000      -1.464693       -39.8563
  12   2.0000      -1.369865       -37.2759
  13   2.0000      -1.234125       -33.5822
  14   2.0000      -1.079059       -29.3627
  15   2.0000      -0.978311       -26.6212
  16   2.0000      -0.866307       -23.5734
  17   2.0000      -0.815005       -22.1774
  18   2.0000      -0.740697       -20.1554
  19   2.0000      -0.715071       -19.4581
  20   2.0000      -0.683709       -18.6047
  21   2.0000      -0.645717       -17.5708
  22   2.0000      -0.627525       -17.0758
  23   2.0000      -0.600956       -16.3529
  24   2.0000      -0.580740       -15.8027
  25   2.0000      -0.561689       -15.2843
  26   2.0000      -0.532927       -14.5017
  27   2.0000      -0.490596       -13.3498
  28   2.0000      -0.477274       -12.9873
  29   2.0000      -0.459714       -12.5095
  30   2.0000      -0.428210       -11.6522
  31   2.0000      -0.383235       -10.4284
  32   0.0000       0.026570         0.7230
  33   0.0000       0.041031         1.1165
  34   0.0000       0.044306         1.2056
  35   0.0000       0.053374         1.4524
  36   0.0000       0.066071         1.7979

MULLIKEN ATOMIC CHARGES
-----------------------
   0 N :   -0.475369
   1 C :    0.140706
   2 C :    1.271860
   3 O :   -0.782806
   4 O :   -0.708130
   5 H :    0.288406
   6 C :   -0.037964
   7 S :    0.236979
   8 H :   -0.093206
   9 H :   -0.085007
  10 H :    0.014604
  11 H :    0.108351
  12 H :    0.111603
  13 H :    0.009971
Sum of atomic charges:   -0.0000000

LOEWDIN ATOMIC CHARGES
----------------------
   0 N :    0.207968
   1 C :   -0.233656
   2 C :   -0.325479
   3 O :    0.047471
   4 O :    0.216694
   5 H :   -0.085457
   6 C :   -0.270227
   7 S :    0.756528
   8 H :    0.038705
   9 H :   -0.019799
  10 H :   -0.019256
  11 H :   -0.216662
  12 H :   -0.074510
  13 H :   -0.022320

  Mayer bond orders larger than 0.100000
B(  0-N ,  1-C ) :   0.8504 B(  0-N , 12-H ) :   0.9880 B(  0-N , 13-H ) :   1.0891
B(  1-C ,  2-C ) :   0.9891 B(  1-C ,  4-O ) :   0.1254 B(  1-C ,  6-C ) :   1.2901
B(  1-C ,  7-S ) :  -0.1182 B(  1-C ,  8-H ) :   0.7029 B(  1-C ,  9-H ) :   0.1302
B(  1-C , 10-H ) :   0.1414 B(  2-C ,  3-O ) :   1.4471 B(  2-C ,  4-O ) :   0.4296
B(  4-O ,  5-H ) :   0.9088 B(  6-C ,  7-S ) :   1.1468 B(  6-C ,  9-H ) :   0.8662
B(  6-C , 10-H ) :   0.8415 B(  7-S , 10-H ) :  -0.1238 B(  7-S , 11-H ) :   0.9566

MP2 TOTAL ENERGY:     -720.600320489 Eh
FINAL SINGLE POINT ENERGY      -720.600320488700

DIPOLE MOMENT
-------------
                                X             Y             Z
Electronic contribution:      1.01044      -1.41506      -0.80896
Nuclear contribution   :     -2.20063       2.52334       1.33583
                        -----------------------------------------
Total Dipole Moment    :     -1.19019       1.10828       0.52687
                        -----------------------------------------
Magnitude (a.u.)       :      1.70951
Magnitude (Debye)      :      4.34522

Rotational constants in cm-1:     0.145450     0.038707     0.033376
Rotational constants in MHz :  4360.467385  1160.414433  1000.602050

                             ****ORCA TERMINATED NORMALLY****
TOTAL RUN TIME: 0 days 0 hours 0 minutes 45 seconds 390 msec
