                         Program Version 5.0.3 -  RELEASE  -
|  1> !ri-mp2 aug-cc-pvdz aug-cc-pvdz/c tightscf
|  2> %pal nprocs 16 end
|  3>
|  4> * xyz 0 1
|  5> C     -0.407739    1.083702    0.000000
|  6> C      0.155829    0.499472    1.282325
|  7> C      0.155829    0.499472   -1.282325
|  8> C      0.155829   -1.039311    1.263183
|  9> C      0.155829   -1.039311   -1.263183
| 10> C      0.820538   -1.590283    0.000000
| 11> O     -1.249483    1.954490    0.000000
| 12> H      1.188471    0.854961    1.375218
| 13> H     -0.408079    0.898882    2.123656
| 14> H     -0.408079    0.898882   -2.123656
| 15> H      1.188471    0.854961   -1.375218
| 16> H      0.657166   -1.415176    2.156695
| 17> H     -0.876952   -1.396180    1.313350
| 18> H     -0.876952   -1.396180   -1.313350
| 19> H      0.657166   -1.415176   -2.156695
| 20> H      1.882221   -1.322209    0.000000
| 21> H      0.775740   -2.681122    0.000000
| 22> *
| 23>
| 24>                          ****END OF INPUT****

CARTESIAN COORDINATES (ANGSTROEM)
---------------------------------
  C     -0.407739    1.083702    0.000000
  C      0.155829    0.499472    1.282325
  C      0.155829    0.499472   -1.282325
  C      0.155829   -1.039311    1.263183
  C      0.155829   -1.039311   -1.263183
  C      0.820538   -1.590283    0.000000
  O     -1.249483    1.954490    0.000000
  H      1.188471    0.854961    1.375218
  H     -0.408079    0.898882    2.123656
  H     -0.408079    0.898882   -2.123656
  H      1.188471    0.854961   -1.375218
  H      0.657166   -1.415176    2.156695
  H     -0.876952   -1.396180    1.313350
  H     -0.876952   -1.396180   -1.313350
  H      0.657166   -1.415176   -2.156695
  H      1.882221   -1.322209    0.000000
  H      0.775740   -2.681122    0.000000

 Total Charge           Charge          ....    0
 Multiplicity           Mult            ....    1
 Number of Electrons    NEL             ....   54
 Basis Dimension        Dim             ....  251

ORBITAL ENERGIES
----------------

  NO   OCC          E(Eh)            E(eV)
   0   2.0000     -20.551591      -559.2372
   1   2.0000     -11.330451      -308.3172
   2   2.0000     -11.241697      -305.9021
   3   2.0000     -11.241668      -305.9013
   4   2.0000     -11.239499      -305.8423
   5   2.0000     -11.239478      -305.8418
   6   2.0000     -11.237706      -305.7935
   7   2.0000      -1.386712       -37.7343
   8   2.0000      -1.123644       -30.5759
   9   2.0000      -1.027728       -27.9659
  10   2.0000      -0.991344       -26.9758
  11   2.0000      -0.862845       -23.4792
  12   2.0000      -0.814560       -22.1653
  13   2.0000      -0.731478       -19.9045
  14   2.0000      -0.662784       -18.0353
  15   2.0000      -0.639520       -17.4022
  16   2.0000      -0.629532       -17.1304
  17   2.0000      -0.601711       -16.3734
  18   2.0000      -0.587383       -15.9835
  19   2.0000      -0.570845       -15.5335
  20   2.0000      -0.546321       -14.8661
  21   2.0000      -0.504683       -13.7331
  22   2.0000      -0.504245       -13.7212
  23   2.0000      -0.475257       -12.9324
  24   2.0000      -0.473276       -12.8785
  25   2.0000      -0.461720       -12.5640
  26   2.0000      -0.395169       -10.7531
  27   0.0000       0.031425         0.8551
  28   0.0000       0.040030         1.0893
  29   0.0000       0.041610         1.1323
  30   0.0000       0.048935         1.3316
  31   0.0000       0.063223         1.7204

MULLIKEN ATOMIC CHARGES
-----------------------
   0 C :    0.333448
   1 C :    0.331580
   2 C :    0.331580
   3 C :    0.287684
   4 C :    0.287684
   5 C :    0.331629
   6 O :   -0.817850
   7 H :   -0.008558
   8 H :   -0.141607
   9 H :   -0.141607
  10 H :   -0.008558
  11 H :   -0.127979
  12 H :   -0.139910
  13 H :   -0.139910
  14 H :   -0.127979
  15 H :   -0.143812
  16 H :   -0.105837
Sum of atomic charges:   -0.0000000

LOEWDIN ATOMIC CHARGES
----------------------
   0 C :   -0.265022
   1 C :    0.037077
   2 C :    0.037077
   3 C :   -0.017029
   4 C :   -0.017029
   5 C :   -0.028109
   6 O :    0.045645
   7 H :    0.027185
   8 H :    0.022065
   9 H :    0.022065
  10 H :    0.027185
  11 H :    0.016013
  12 H :    0.020115
  13 H :    0.020115
  14 H :    0.016013
  15 H :    0.019457
  16 H :    0.017177

  Mayer bond orders larger than 0.100000
B(  0-C ,  1-C ) :   1.1113 B(  0-C ,  2-C ) :   1.1113 B(  0-C ,  6-O ) :   1.3154
B(  0-C ,  8-H ) :   0.1879 B(  0-C ,  9-H ) :   0.1879 B(  1-C ,  3-C ) :   1.2773
B(  1-C ,  7-H ) :   0.8771 B(  1-C ,  8-H ) :   0.6547 B(  2-C ,  4-C ) :   1.2773
B(  2-C ,  9-H ) :   0.6547 B(  2-C , 10-H ) :   0.8771 B(  3-C ,  5-C ) :   1.2503
B(  3-C , 11-H ) :   0.7739 B(  3-C , 12-H ) :   0.7919 B(  4-C ,  5-C ) :   1.2503
B(  4-C , 13-H ) :   0.7919 B(  4-C , 14-H ) :   0.7739 B(  5-C , 15-H ) :   0.7723
B(  5-C , 16-H ) :   0.7852 B(  7-H ,  8-H ) :  -0.1103 B(  9-H , 10-H ) :  -0.1103
B( 11-H , 12-H ) :  -0.1324 B( 13-H , 14-H ) :  -0.1324 B( 15-H , 16-H ) :  -0.1308

MP2 TOTAL ENERGY:     -308.995800562 Eh
FINAL SINGLE POINT ENERGY      -308.995800562194

DIPOLE MOMENT
-------------
                                X             Y             Z
Electronic contribution:     -2.92844       5.16885      -0.00000
Nuclear contribution   :      3.88477      -6.29043      -0.00000
                        -----------------------------------------
Total Dipole Moment    :      0.95633      -1.12158      -0.00000
                        -----------------------------------------
Magnitude (a.u.)       :      1.47395
Magnitude (Debye)      :      3.74647

Rotational constants in cm-1:     0.140599     0.082997     0.058051
Rotational constants in MHz :  4215.066829  2488.184425  1740.324923

                             ****ORCA TERMINATED NORMALLY****
TOTAL RUN TIME: 0 days 0 hours 1 minutes 8 seconds 223 msec
