                         Program Version 5.0.3 -  RELEASE  -
|  1> !ri-mp2 aug-cc-pvdz aug-cc-pvdz/c tightscf
|  2> %pal nprocs 16 end
|  3>
|  4> * xyz 0 1
|  5> C     0.000000     1.082580    0.123180
|  6> C     1.082580     0.000000   -0.123180
|  7> C    -1.082580     0.000000   -0.123180
|  8> C     0.000000    -1.082580    0.123180
|  9> H     0.000000    -1.957007   -0.526411
| 10> H     1.957007     0.000000    0.526411
| 11> H    -1.957007     0.000000    0.526411
| 12> H     0.000000     1.957007   -0.526411
| 13> H     0.000000     1.422103    1.159302
| 14> H    -1.422103     0.000000   -1.159302
| 15> H     1.422103     0.000000   -1.159302
| 16> H     0.000000    -1.422103    1.159302
| 17> *
| 18>
| 19>                          ****END OF INPUT****

CARTESIAN COORDINATES (ANGSTROEM)
---------------------------------
  C      0.000000    1.082580    0.123180
  C      1.082580    0.000000   -0.123180
  C     -1.082580    0.000000   -0.123180
  C      0.000000   -1.082580    0.123180
  H      0.000000   -1.957007   -0.526411
  H      1.957007    0.000000    0.526411
  H     -1.957007    0.000000    0.526411
  H      0.000000    1.957007   -0.526411
  H      0.000000    1.422103    1.159302
  H     -1.422103    0.000000   -1.159302
  H      1.422103    0.000000   -1.159302
  H      0.000000   -1.422103    1.159302

 Total Charge           Charge          ....    0
 Multiplicity           Mult            ....    1
 Number of Electrons    NEL             ....   32
 Basis Dimension        Dim             ....  164

ORBITAL ENERGIES
----------------

  NO   OCC          E(Eh)            E(eV)
   0   2.0000     -11.220899      -305.3362
   1   2.0000     -11.220357      -305.3214
   2   2.0000     -11.220357      -305.3214
   3   2.0000     -11.219814      -305.3067
   4   2.0000      -1.120956       -30.5028
   5   2.0000      -0.892407       -24.2836
   6   2.0000      -0.892407       -24.2836
   7   2.0000      -0.747999       -20.3541
   8   2.0000      -0.646476       -17.5915
   9   2.0000      -0.638767       -17.3817
  10   2.0000      -0.534114       -14.5340
  11   2.0000      -0.534114       -14.5340
  12   2.0000      -0.482931       -13.1412
  13   2.0000      -0.449186       -12.2230
  14   2.0000      -0.433046       -11.7838
  15   2.0000      -0.433046       -11.7838
  16   0.0000       0.039339         1.0705
  17   0.0000       0.047258         1.2860
  18   0.0000       0.049258         1.3404
  19   0.0000       0.049258         1.3404
  20   0.0000       0.070881         1.9288

MULLIKEN ATOMIC CHARGES
-----------------------
   0 C :    0.463659
   1 C :    0.463659
   2 C :    0.463659
   3 C :    0.463659
   4 H :   -0.224913
   5 H :   -0.224913
   6 H :   -0.224913
   7 H :   -0.224913
   8 H :   -0.238746
   9 H :   -0.238746
  10 H :   -0.238746
  11 H :   -0.238746
Sum of atomic charges:   -0.0000000

LOEWDIN ATOMIC CHARGES
----------------------
   0 C :    0.005938
   1 C :    0.005938
   2 C :    0.005938
   3 C :    0.005938
   4 H :   -0.006479
   5 H :   -0.006479
   6 H :   -0.006479
   7 H :   -0.006479
   8 H :    0.000540
   9 H :    0.000540
  10 H :    0.000540
  11 H :    0.000540

  Mayer bond orders larger than 0.100000
B(  0-C ,  1-C ) :   1.1677 B(  0-C ,  2-C ) :   1.1677 B(  0-C ,  7-H ) :   0.8381
B(  0-C ,  8-H ) :   0.7711 B(  1-C ,  3-C ) :   1.1677 B(  1-C ,  5-H ) :   0.8381
B(  1-C , 10-H ) :   0.7711 B(  2-C ,  3-C ) :   1.1677 B(  2-C ,  6-H ) :   0.8381
B(  2-C ,  9-H ) :   0.7711 B(  3-C ,  4-H ) :   0.8381 B(  3-C , 11-H ) :   0.7711
B(  4-H , 11-H ) :  -0.1342 B(  5-H , 10-H ) :  -0.1342 B(  6-H ,  9-H ) :  -0.1342
B(  7-H ,  8-H ) :  -0.1342

MP2 TOTAL ENERGY:     -156.701026868 Eh
FINAL SINGLE POINT ENERGY      -156.701026867708

DIPOLE MOMENT
-------------
                                X             Y             Z
Electronic contribution:      0.00000       0.00000      -0.00000
Nuclear contribution   :      0.00000       0.00000       0.00000
                        -----------------------------------------
Total Dipole Moment    :      0.00000       0.00000      -0.00000
                        -----------------------------------------
Magnitude (a.u.)       :      0.00000
Magnitude (Debye)      :      0.00000

Rotational constants in cm-1:     0.357028     0.357028     0.210977
Rotational constants in MHz : 10703.415920 10703.415920  6324.923022

                             ****ORCA TERMINATED NORMALLY****
TOTAL RUN TIME: 0 days 0 hours 0 minutes 34 seconds 720 msec
