                         Program Version 5.0.3 -  RELEASE  -
|  1> !ri-mp2 aug-cc-pvdz aug-cc-pvdz/c tightscf
|  2> %pal nprocs 16 end
|  3>
|  4> * xyz 0 1
|  5> H     -2.590075    1.232318   -0.681766
|  6> H     -2.238693    1.101270    1.028530
|  7> C     -1.912106    0.776892    0.039228
|  8> H     -2.427878   -1.128437   -0.935303
|  9> H     -2.435411   -1.206457    0.811001
| 10> C     -1.913085   -0.775183   -0.042566
| 11> H     -0.116781   -1.457884   -1.078076
| 12> H     -0.224491   -2.076259    0.562195
| 13> C     -0.425486   -1.206167   -0.060963
| 14> H     -0.202025    2.158408    0.251061
| 15> H     -0.233592    1.261134   -1.263701
| 16> C     -0.451026    1.195668   -0.195623
| 17> H      0.319079    0.094769    1.494721
| 18> C      0.345505    0.036292    0.405726
| 19> H      2.525374    1.067170    0.480115
| 20> S      2.110105   -0.075690   -0.096475
| 21> *
| 22>
| 23>                          ****END OF INPUT****

CARTESIAN COORDINATES (ANGSTROEM)
---------------------------------
  H     -2.590075    1.232318   -0.681766
  H     -2.238693    1.101270    1.028530
  C     -1.912106    0.776892    0.039228
  H     -2.427878   -1.128437   -0.935303
  H     -2.435411   -1.206457    0.811001
  C     -1.913085   -0.775183   -0.042566
  H     -0.116781   -1.457884   -1.078076
  H     -0.224491   -2.076259    0.562195
  C     -0.425486   -1.206167   -0.060963
  H     -0.202025    2.158408    0.251061
  H     -0.233592    1.261134   -1.263701
  C     -0.451026    1.195668   -0.195623
  H      0.319079    0.094769    1.494721
  C      0.345505    0.036292    0.405726
  H      2.525374    1.067170    0.480115
  S      2.110105   -0.075690   -0.096475

 Total Charge           Charge          ....    0
 Multiplicity           Mult            ....    1
 Number of Electrons    NEL             ....   56
 Basis Dimension        Dim             ....  232

ORBITAL ENERGIES
----------------

  NO   OCC          E(Eh)            E(eV)
   0   2.0000     -91.949128     -2502.0630
   1   2.0000     -11.266374      -306.5736
   2   2.0000     -11.231939      -305.6366
   3   2.0000     -11.229672      -305.5749
   4   2.0000     -11.229109      -305.5596
   5   2.0000     -11.228475      -305.5423
   6   2.0000      -8.950649      -243.5595
   7   2.0000      -6.632746      -180.4862
   8   2.0000      -6.631362      -180.4485
   9   2.0000      -6.629334      -180.3933
  10   2.0000      -1.137455       -30.9517
  11   2.0000      -1.012060       -27.5396
  12   2.0000      -0.972607       -26.4660
  13   2.0000      -0.905679       -24.6448
  14   2.0000      -0.785679       -21.3794
  15   2.0000      -0.771630       -20.9971
  16   2.0000      -0.664280       -18.0760
  17   2.0000      -0.633956       -17.2508
  18   2.0000      -0.590952       -16.0806
  19   2.0000      -0.581869       -15.8335
  20   2.0000      -0.525906       -14.3106
  21   2.0000      -0.488586       -13.2951
  22   2.0000      -0.482796       -13.1375
  23   2.0000      -0.477673       -12.9981
  24   2.0000      -0.468137       -12.7387
  25   2.0000      -0.461462       -12.5570
  26   2.0000      -0.434666       -11.8279
  27   2.0000      -0.350733        -9.5439
  28   0.0000       0.035355         0.9621
  29   0.0000       0.043396         1.1809
  30   0.0000       0.045623         1.2415
  31   0.0000       0.049718         1.3529
  32   0.0000       0.065154         1.7729

MULLIKEN ATOMIC CHARGES
-----------------------
   0 H :   -0.148103
   1 H :   -0.186769
   2 C :    0.335612
   3 H :   -0.116582
   4 H :   -0.121638
   5 C :    0.344697
   6 H :   -0.181685
   7 H :   -0.160527
   8 C :    0.390302
   9 H :   -0.164865
  10 H :   -0.152884
  11 C :    0.415925
  12 H :   -0.252895
  13 C :   -0.366441
  14 H :    0.064924
  15 S :    0.300930
Sum of atomic charges:   -0.0000000

LOEWDIN ATOMIC CHARGES
----------------------
   0 H :    0.006011
   1 H :    0.007296
   2 C :   -0.001840
   3 H :    0.004953
   4 H :    0.004830
   5 C :    0.008882
   6 H :    0.003835
   7 H :    0.009635
   8 C :   -0.045747
   9 H :    0.010458
  10 H :    0.011432
  11 C :   -0.048909
  12 H :   -0.001678
  13 C :   -0.494165
  14 H :   -0.227892
  15 S :    0.752900

  Mayer bond orders larger than 0.100000
B(  0-H ,  1-H ) :  -0.1610 B(  0-H ,  2-C ) :   0.8029 B(  1-H ,  2-C ) :   0.7275
B(  2-C ,  5-C ) :   1.2774 B(  2-C , 11-C ) :   1.2048 B(  3-H ,  4-H ) :  -0.1410
B(  3-H ,  5-C ) :   0.7593 B(  4-H ,  5-C ) :   0.7494 B(  5-C ,  8-C ) :   1.2629
B(  6-H ,  7-H ) :  -0.1558 B(  6-H ,  8-C ) :   0.7494 B(  7-H ,  8-C ) :   0.7736
B(  8-C , 12-H ) :   0.1464 B(  8-C , 13-C ) :   1.2669 B(  9-H , 10-H ) :  -0.1317
B(  9-H , 11-C ) :   0.7561 B( 10-H , 11-C ) :   0.8393 B( 11-C , 12-H ) :   0.1483
B( 11-C , 13-C ) :   1.1956 B( 12-H , 13-C ) :   0.6011 B( 13-C , 15-S ) :   1.0783
B( 14-H , 15-S ) :   0.9428

MP2 TOTAL ENERGY:     -593.598866743 Eh
FINAL SINGLE POINT ENERGY      -593.598866743439

DIPOLE MOMENT
-------------
                                X             Y             Z
Electronic contribution:      7.24014      -0.78665      -0.41125
Nuclear contribution   :     -7.91361       1.07891       0.69133
                        -----------------------------------------
Total Dipole Moment    :     -0.67347       0.29225       0.28008
                        -----------------------------------------
Magnitude (a.u.)       :      0.78576
Magnitude (Debye)      :      1.99724

Rotational constants in cm-1:     0.210068     0.060617     0.050278
Rotational constants in MHz :  6297.681656  1817.248691  1507.289981

                             ****ORCA TERMINATED NORMALLY****
TOTAL RUN TIME: 0 days 0 hours 0 minutes 50 seconds 911 msec
