                         Program Version 5.0.3 -  RELEASE  -
|  1> !ri-mp2 aug-cc-pvdz aug-cc-pvdz/c tightscf
|  2> %pal nprocs 16 end
|  3>
|  4> * xyz 0 1
|  5> C      0.385941   -0.723508    0.267146
|  6> Cl     1.900475    0.227545   -0.033923
|  7> C     -0.769906   -0.104546   -0.461481
|  8> C     -1.663184    0.846606    0.196657
|  9> O     -2.059013   -0.518958    0.002364
| 10> H      0.215602   -0.732869    1.339395
| 11> H      0.583531   -1.733301   -0.081694
| 12> H     -0.670754   -0.061183   -1.541492
| 13> H     -1.474553    1.128875    1.226754
| 14> H     -2.206901    1.570555   -0.399129
| 15> *
| 16>
| 17>                          ****END OF INPUT****

CARTESIAN COORDINATES (ANGSTROEM)
---------------------------------
  C      0.385941   -0.723508    0.267146
  Cl     1.900475    0.227545   -0.033923
  C     -0.769906   -0.104546   -0.461481
  C     -1.663184    0.846606    0.196657
  O     -2.059013   -0.518958    0.002364
  H      0.215602   -0.732869    1.339395
  H      0.583531   -1.733301   -0.081694
  H     -0.670754   -0.061183   -1.541492
  H     -1.474553    1.128875    1.226754
  H     -2.206901    1.570555   -0.399129

 Total Charge           Charge          ....    0
 Multiplicity           Mult            ....    1
 Number of Electrons    NEL             ....   48
 Basis Dimension        Dim             ....  164

ORBITAL ENERGIES
----------------

  NO   OCC          E(Eh)            E(eV)
   0   2.0000    -104.832248     -2852.6305
   1   2.0000     -20.596829      -560.4682
   2   2.0000     -11.314481      -307.8827
   3   2.0000     -11.313812      -307.8645
   4   2.0000     -11.304288      -307.6053
   5   2.0000     -10.558029      -287.2986
   6   2.0000      -8.025651      -218.3891
   7   2.0000      -8.022524      -218.3040
   8   2.0000      -8.022445      -218.3018
   9   2.0000      -1.431963       -38.9657
  10   2.0000      -1.142646       -31.0930
  11   2.0000      -0.987829       -26.8802
  12   2.0000      -0.925193       -25.1758
  13   2.0000      -0.831673       -22.6310
  14   2.0000      -0.717449       -19.5228
  15   2.0000      -0.673428       -18.3249
  16   2.0000      -0.621923       -16.9234
  17   2.0000      -0.592645       -16.1267
  18   2.0000      -0.556537       -15.1441
  19   2.0000      -0.531758       -14.4699
  20   2.0000      -0.471977       -12.8431
  21   2.0000      -0.460524       -12.5315
  22   2.0000      -0.442635       -12.0447
  23   2.0000      -0.441679       -12.0187
  24   0.0000       0.037146         1.0108
  25   0.0000       0.044443         1.2093
  26   0.0000       0.045401         1.2354
  27   0.0000       0.064875         1.7653
  28   0.0000       0.071173         1.9367

MULLIKEN ATOMIC CHARGES
-----------------------
   0 C :   -0.150589
   1 Cl:   -0.138930
   2 C :    0.822105
   3 C :    0.913000
   4 O :   -0.884891
   5 H :    0.032617
   6 H :    0.106812
   7 H :   -0.292834
   8 H :   -0.208456
   9 H :   -0.198834
Sum of atomic charges:   -0.0000000

LOEWDIN ATOMIC CHARGES
----------------------
   0 C :   -0.279292
   1 Cl:    0.449641
   2 C :   -0.234562
   3 C :    0.071834
   4 O :    0.018271
   5 H :   -0.022985
   6 H :   -0.024533
   7 H :    0.023438
   8 H :   -0.000580
   9 H :   -0.001232

  Mayer bond orders larger than 0.100000
B(  0-C ,  1-Cl) :   1.2095 B(  0-C ,  2-C ) :   1.1836 B(  0-C ,  5-H ) :   0.9110
B(  0-C ,  6-H ) :   0.8534 B(  1-Cl,  2-C ) :  -0.2195 B(  2-C ,  3-C ) :   1.1263
B(  2-C ,  4-O ) :   0.4823 B(  2-C ,  6-H ) :   0.1252 B(  2-C ,  7-H ) :   0.8195
B(  3-C ,  4-O ) :   0.8062 B(  3-C ,  8-H ) :   0.9033 B(  3-C ,  9-H ) :   0.8840
B(  8-H ,  9-H ) :  -0.1256

MP2 TOTAL ENERGY:     -651.631943336 Eh
FINAL SINGLE POINT ENERGY      -651.631943336117

DIPOLE MOMENT
-------------
                                X             Y             Z
Electronic contribution:      5.98330       0.35972      -0.52421
Nuclear contribution   :     -6.14246      -0.15749       0.57718
                        -----------------------------------------
Total Dipole Moment    :     -0.15916       0.20224       0.05298
                        -----------------------------------------
Magnitude (a.u.)       :      0.26275
Magnitude (Debye)      :      0.66785

Rotational constants in cm-1:     0.442381     0.065966     0.061513
Rotational constants in MHz : 13262.263575  1977.621316  1844.127932

                             ****ORCA TERMINATED NORMALLY****
TOTAL RUN TIME: 0 days 0 hours 0 minutes 20 seconds 297 msec
