                         Program Version 5.0.3 -  RELEASE  -
|  1> !ri-mp2 aug-cc-pvdz aug-cc-pvdz/c tightscf
|  2> %pal nprocs 16 end
|  3>
|  4> * xyz 0 1
|  5> C     -0.008290   -0.208356   -0.024723
|  6> S     -1.217170   -1.356869    0.021420
|  7> N     -0.162614    1.134737   -0.015493
|  8> N     -1.417749    1.738272    0.008702
|  9> N      1.302148   -0.610414   -0.099972
| 10> N      2.364793    0.297605    0.049141
| 11> H      2.841583    0.157650    0.933495
| 12> H      3.025732    0.182703   -0.708975
| 13> H     -1.510815    2.327204    0.825721
| 14> H     -1.567518    2.280758   -0.832165
| 15> H      0.681476    1.689836   -0.040769
| 16> H      1.447958   -1.599522    0.031666
| 17> *
| 18>
| 19>                          ****END OF INPUT****

CARTESIAN COORDINATES (ANGSTROEM)
---------------------------------
  C     -0.008290   -0.208356   -0.024723
  S     -1.217170   -1.356869    0.021420
  N     -0.162614    1.134737   -0.015493
  N     -1.417749    1.738272    0.008702
  N      1.302148   -0.610414   -0.099972
  N      2.364793    0.297605    0.049141
  H      2.841583    0.157650    0.933495
  H      3.025732    0.182703   -0.708975
  H     -1.510815    2.327204    0.825721
  H     -1.567518    2.280758   -0.832165
  H      0.681476    1.689836   -0.040769
  H      1.447958   -1.599522    0.031666

 Total Charge           Charge          ....    0
 Multiplicity           Mult            ....    1
 Number of Electrons    NEL             ....   56
 Basis Dimension        Dim             ....  196

ORBITAL ENERGIES
----------------

  NO   OCC          E(Eh)            E(eV)
   0   2.0000     -91.877376     -2500.1105
   1   2.0000     -15.629251      -425.2936
   2   2.0000     -15.628249      -425.2663
   3   2.0000     -15.627669      -425.2505
   4   2.0000     -15.602959      -424.5781
   5   2.0000     -11.373318      -309.4837
   6   2.0000      -8.880893      -241.6614
   7   2.0000      -6.563499      -178.6019
   8   2.0000      -6.560297      -178.5148
   9   2.0000      -6.559534      -178.4940
  10   2.0000      -1.362449       -37.0741
  11   2.0000      -1.305245       -35.5175
  12   2.0000      -1.146088       -31.1866
  13   2.0000      -1.061387       -28.8818
  14   2.0000      -0.946863       -25.7655
  15   2.0000      -0.801107       -21.7992
  16   2.0000      -0.756859       -20.5952
  17   2.0000      -0.725684       -19.7469
  18   2.0000      -0.713172       -19.4064
  19   2.0000      -0.701662       -19.0932
  20   2.0000      -0.661576       -18.0024
  21   2.0000      -0.543400       -14.7867
  22   2.0000      -0.504809       -13.7366
  23   2.0000      -0.476375       -12.9628
  24   2.0000      -0.431895       -11.7525
  25   2.0000      -0.412154       -11.2153
  26   2.0000      -0.310833        -8.4582
  27   2.0000      -0.307324        -8.3627
  28   0.0000       0.021573         0.5870
  29   0.0000       0.034465         0.9378
  30   0.0000       0.044782         1.2186
  31   0.0000       0.055844         1.5196
  32   0.0000       0.063475         1.7273

MULLIKEN ATOMIC CHARGES
-----------------------
   0 C :    0.672524
   1 S :    0.001711
   2 N :   -0.383776
   3 N :   -0.141499
   4 N :   -0.210187
   5 N :   -0.263417
   6 H :    0.092534
   7 H :    0.109580
   8 H :    0.068038
   9 H :    0.067303
  10 H :    0.006326
  11 H :   -0.019136
Sum of atomic charges:    0.0000000

LOEWDIN ATOMIC CHARGES
----------------------
   0 C :   -0.700779
   1 S :    0.474077
   2 N :   -0.011180
   3 N :    0.214761
   4 N :   -0.015488
   5 N :    0.222321
   6 H :   -0.031319
   7 H :   -0.034577
   8 H :   -0.040140
   9 H :   -0.039422
  10 H :   -0.027532
  11 H :   -0.010722

  Mayer bond orders larger than 0.100000
B(  0-C ,  1-S ) :   1.7414 B(  0-C ,  2-N ) :   0.9356 B(  0-C ,  3-N ) :  -0.1466
B(  0-C ,  4-N ) :   0.8782 B(  0-C ,  5-N ) :  -0.1591 B(  0-C , 10-H ) :  -0.1440
B(  0-C , 11-H ) :  -0.1037 B(  1-S ,  2-N ) :  -0.1448 B(  2-N ,  3-N ) :   1.3447
B(  2-N , 10-H ) :   1.0761 B(  3-N ,  8-H ) :   0.9914 B(  3-N ,  9-H ) :   0.9978
B(  4-N ,  5-N ) :   1.0202 B(  4-N , 11-H ) :   1.0885 B(  5-N ,  6-H ) :   1.0466
B(  5-N ,  7-H ) :   1.0285

MP2 TOTAL ENERGY:     -657.652957888 Eh
FINAL SINGLE POINT ENERGY      -657.652957888092

DIPOLE MOMENT
-------------
                                X             Y             Z
Electronic contribution:     -2.71971      -3.37058      -0.10675
Nuclear contribution   :      4.92259       5.04873       0.20606
                        -----------------------------------------
Total Dipole Moment    :      2.20288       1.67814       0.09932
                        -----------------------------------------
Magnitude (a.u.)       :      2.77105
Magnitude (Debye)      :      7.04345

Rotational constants in cm-1:     0.116660     0.081681     0.048871
Rotational constants in MHz :  3497.380060  2448.726057  1465.102985

                             ****ORCA TERMINATED NORMALLY****
TOTAL RUN TIME: 0 days 0 hours 0 minutes 33 seconds 277 msec
