                         Program Version 5.0.3 -  RELEASE  -
|  1> !ri-mp2 aug-cc-pvdz aug-cc-pvdz/c tightscf
|  2> %pal nprocs 16 end
|  3>
|  4> * xyz 0 1
|  5> N     -1.392026    0.964971    0.000000
|  6> H     -1.686104    1.489839    0.815536
|  7> H     -1.686104    1.489839   -0.815536
|  8> C      0.483446   -0.254439   -1.082525
|  9> H     -0.198668   -0.373542   -1.923807
| 10> H      1.483527   -0.047564   -1.463346
| 11> C      0.483446   -0.254439    1.082525
| 12> H     -0.198668   -0.373542    1.923807
| 13> H      1.483527   -0.047564    1.463346
| 14> C      0.057064    0.770920    0.000000
| 15> H      0.619951    1.711232    0.000000
| 16> C      0.483446   -1.364057    0.000000
| 17> H      1.324266   -2.055871    0.000000
| 18> H     -0.441946   -1.935530    0.000000
| 19> *
| 20>
| 21>                          ****END OF INPUT****

CARTESIAN COORDINATES (ANGSTROEM)
---------------------------------
  N     -1.392026    0.964971    0.000000
  H     -1.686104    1.489839    0.815536
  H     -1.686104    1.489839   -0.815536
  C      0.483446   -0.254439   -1.082525
  H     -0.198668   -0.373542   -1.923807
  H      1.483527   -0.047564   -1.463346
  C      0.483446   -0.254439    1.082525
  H     -0.198668   -0.373542    1.923807
  H      1.483527   -0.047564    1.463346
  C      0.057064    0.770920    0.000000
  H      0.619951    1.711232    0.000000
  C      0.483446   -1.364057    0.000000
  H      1.324266   -2.055871    0.000000
  H     -0.441946   -1.935530    0.000000

 Total Charge           Charge          ....    0
 Multiplicity           Mult            ....    1
 Number of Electrons    NEL             ....   40
 Basis Dimension        Dim             ....  196

ORBITAL ENERGIES
----------------

  NO   OCC          E(Eh)            E(eV)
   0   2.0000     -15.545795      -423.0226
   1   2.0000     -11.253161      -306.2141
   2   2.0000     -11.217563      -305.2454
   3   2.0000     -11.217433      -305.2419
   4   2.0000     -11.216333      -305.2119
   5   2.0000      -1.190833       -32.4042
   6   2.0000      -1.083810       -29.4920
   7   2.0000      -0.896308       -24.3898
   8   2.0000      -0.869519       -23.6608
   9   2.0000      -0.733996       -19.9730
  10   2.0000      -0.663936       -18.0666
  11   2.0000      -0.646753       -17.5990
  12   2.0000      -0.632669       -17.2158
  13   2.0000      -0.563514       -15.3340
  14   2.0000      -0.531603       -14.4656
  15   2.0000      -0.475105       -12.9283
  16   2.0000      -0.463997       -12.6260
  17   2.0000      -0.455173       -12.3859
  18   2.0000      -0.427508       -11.6331
  19   2.0000      -0.377836       -10.2814
  20   0.0000       0.036559         0.9948
  21   0.0000       0.046342         1.2610
  22   0.0000       0.048496         1.3197
  23   0.0000       0.049999         1.3605
  24   0.0000       0.067794         1.8448

MULLIKEN ATOMIC CHARGES
-----------------------
   0 N :   -0.468715
   1 H :   -0.018783
   2 H :   -0.018783
   3 C :    0.591595
   4 H :   -0.219778
   5 H :   -0.221051
   6 C :    0.591595
   7 H :   -0.219778
   8 H :   -0.221051
   9 C :    0.431361
  10 H :   -0.223051
  11 C :    0.468325
  12 H :   -0.259522
  13 H :   -0.212363
Sum of atomic charges:    0.0000000

LOEWDIN ATOMIC CHARGES
----------------------
   0 N :    0.196434
   1 H :   -0.047448
   2 H :   -0.047448
   3 C :    0.036743
   4 H :    0.000556
   5 H :    0.004607
   6 C :    0.036743
   7 H :    0.000556
   8 H :    0.004607
   9 C :   -0.222792
  10 H :    0.019050
  11 C :    0.022186
  12 H :   -0.006481
  13 H :    0.002688

  Mayer bond orders larger than 0.100000
B(  0-N ,  1-H ) :   1.0410 B(  0-N ,  2-H ) :   1.0410 B(  0-N ,  9-C ) :   0.5581
B(  3-C ,  4-H ) :   0.8082 B(  3-C ,  5-H ) :   0.7284 B(  3-C ,  9-C ) :   1.0710
B(  3-C , 11-C ) :   1.1391 B(  4-H ,  5-H ) :  -0.1454 B(  6-C ,  7-H ) :   0.8082
B(  6-C ,  8-H ) :   0.7284 B(  6-C ,  9-C ) :   1.0710 B(  6-C , 11-C ) :   1.1391
B(  7-H ,  8-H ) :  -0.1454 B(  9-C , 10-H ) :   0.6793 B( 11-C , 12-H ) :   0.7995
B( 11-C , 13-H ) :   0.7583 B( 12-H , 13-H ) :  -0.1560

MP2 TOTAL ENERGY:     -211.918562722 Eh
FINAL SINGLE POINT ENERGY      -211.918562721618

DIPOLE MOMENT
-------------
                                X             Y             Z
Electronic contribution:     -0.54786       0.60235       0.00000
Nuclear contribution   :      0.73050      -0.14475      -0.00000
                        -----------------------------------------
Total Dipole Moment    :      0.18264       0.45760       0.00000
                        -----------------------------------------
Magnitude (a.u.)       :      0.49270
Magnitude (Debye)      :      1.25235

Rotational constants in cm-1:     0.282024     0.156047     0.128886
Rotational constants in MHz :  8454.873998  4678.170773  3863.913944

                             ****ORCA TERMINATED NORMALLY****
TOTAL RUN TIME: 0 days 0 hours 0 minutes 47 seconds 860 msec
