                         Program Version 5.0.3 -  RELEASE  -
|  1> !ri-mp2 aug-cc-pvdz aug-cc-pvdz/c tightscf
|  2> %pal nprocs 16 end
|  3>
|  4> * xyz 0 1
|  5> O      0.000000    0.000000    1.316315
|  6> C      0.000000    0.000000    0.145081
|  7> F      0.000000    1.065268   -0.633389
|  8> F      0.000000   -1.065268   -0.633389
|  9> *
| 10>
| 11>                          ****END OF INPUT****

CARTESIAN COORDINATES (ANGSTROEM)
---------------------------------
  O      0.000000    0.000000    1.316315
  C      0.000000    0.000000    0.145081
  F      0.000000    1.065268   -0.633389
  F      0.000000   -1.065268   -0.633389

 Total Charge           Charge          ....    0
 Multiplicity           Mult            ....    1
 Number of Electrons    NEL             ....   32
 Basis Dimension        Dim             ....   92

ORBITAL ENERGIES
----------------

  NO   OCC          E(Eh)            E(eV)
   0   2.0000     -26.403813      -718.4843
   1   2.0000     -26.403785      -718.4835
   2   2.0000     -20.635263      -561.5141
   3   2.0000     -11.550263      -314.2986
   4   2.0000      -1.764030       -48.0017
   5   2.0000      -1.688736       -45.9528
   6   2.0000      -1.487593       -40.4795
   7   2.0000      -0.959515       -26.1097
   8   2.0000      -0.865662       -23.5559
   9   2.0000      -0.815822       -22.1996
  10   2.0000      -0.806317       -21.9410
  11   2.0000      -0.725986       -19.7551
  12   2.0000      -0.708376       -19.2759
  13   2.0000      -0.704039       -19.1579
  14   2.0000      -0.579704       -15.7745
  15   2.0000      -0.560495       -15.2518
  16   0.0000       0.063821         1.7366
  17   0.0000       0.084292         2.2937
  18   0.0000       0.091509         2.4901
  19   0.0000       0.092586         2.5194
  20   0.0000       0.152764         4.1569

MULLIKEN ATOMIC CHARGES
-----------------------
   0 O :   -0.436748
   1 C :    1.369492
   2 F :   -0.466372
   3 F :   -0.466372
Sum of atomic charges:    0.0000000

LOEWDIN ATOMIC CHARGES
----------------------
   0 O :    0.095174
   1 C :   -0.306693
   2 F :    0.105759
   3 F :    0.105759

  Mayer bond orders larger than 0.100000
B(  0-O ,  1-C ) :   1.9279 B(  1-C ,  2-F ) :   0.6888 B(  1-C ,  3-F ) :   0.6888

MP2 TOTAL ENERGY:     -312.377684604 Eh
FINAL SINGLE POINT ENERGY      -312.377684604180

DIPOLE MOMENT
-------------
                                X             Y             Z
Electronic contribution:     -0.00000      -0.00000      -1.60146
Nuclear contribution   :      0.00000       0.00000       1.15798
                        -----------------------------------------
Total Dipole Moment    :     -0.00000      -0.00000      -0.44348
                        -----------------------------------------
Magnitude (a.u.)       :      0.44348
Magnitude (Debye)      :      1.12724

Rotational constants in cm-1:     0.390968     0.390285     0.195313
Rotational constants in MHz : 11720.927035 11700.457856  5855.341751

                             ****ORCA TERMINATED NORMALLY****
TOTAL RUN TIME: 0 days 0 hours 0 minutes 29 seconds 947 msec
