                         Program Version 5.0.3 -  RELEASE  -
|  1> !ri-mp2 aug-cc-pvdz aug-cc-pvdz/c tightscf
|  2> %pal nprocs 16 end
|  3>
|  4> * xyz 0 1
|  5> H     0.000000     2.213829    1.634446
|  6> H     0.877402     3.463699    0.738497
|  7> H    -0.877402     3.463699    0.738497
|  8> H     0.000000    -2.213829    1.634446
|  9> H     0.877402    -3.463699    0.738497
| 10> H    -0.877402    -3.463699    0.738497
| 11> C     0.000000     2.811524    0.725249
| 12> C     0.000000    -2.811524    0.725249
| 13> H     0.000000     2.459711   -1.459498
| 14> H     0.000000    -2.459711   -1.459498
| 15> C     0.000000    -0.631593   -0.499294
| 16> C     0.000000     0.631593   -0.499294
| 17> C     0.000000     1.946711   -0.501278
| 18> C     0.000000    -1.946711   -0.501278
| 19> *
| 20>
| 21>                          ****END OF INPUT****

CARTESIAN COORDINATES (ANGSTROEM)
---------------------------------
  H      0.000000    2.213829    1.634446
  H      0.877402    3.463699    0.738497
  H     -0.877402    3.463699    0.738497
  H      0.000000   -2.213829    1.634446
  H      0.877402   -3.463699    0.738497
  H     -0.877402   -3.463699    0.738497
  C      0.000000    2.811524    0.725249
  C      0.000000   -2.811524    0.725249
  H      0.000000    2.459711   -1.459498
  H      0.000000   -2.459711   -1.459498
  C      0.000000   -0.631593   -0.499294
  C      0.000000    0.631593   -0.499294
  C      0.000000    1.946711   -0.501278
  C      0.000000   -1.946711   -0.501278

 Total Charge           Charge          ....    0
 Multiplicity           Mult            ....    1
 Number of Electrons    NEL             ....   44
 Basis Dimension        Dim             ....  210

ORBITAL ENERGIES
----------------

  NO   OCC          E(Eh)            E(eV)
   0   2.0000     -11.257005      -306.3187
   1   2.0000     -11.256990      -306.3183
   2   2.0000     -11.248903      -306.0982
   3   2.0000     -11.246476      -306.0322
   4   2.0000     -11.235216      -305.7258
   5   2.0000     -11.235214      -305.7257
   6   2.0000      -1.101629       -29.9768
   7   2.0000      -1.058922       -28.8147
   8   2.0000      -0.980946       -26.6929
   9   2.0000      -0.905659       -24.6442
  10   2.0000      -0.836859       -22.7721
  11   2.0000      -0.679995       -18.5036
  12   2.0000      -0.659985       -17.9591
  13   2.0000      -0.581657       -15.8277
  14   2.0000      -0.575114       -15.6497
  15   2.0000      -0.573086       -15.5945
  16   2.0000      -0.570325       -15.5193
  17   2.0000      -0.528897       -14.3920
  18   2.0000      -0.527864       -14.3639
  19   2.0000      -0.452552       -12.3146
  20   2.0000      -0.363329        -9.8867
  21   2.0000      -0.308207        -8.3867
  22   0.0000       0.036143         0.9835
  23   0.0000       0.038843         1.0570
  24   0.0000       0.047557         1.2941
  25   0.0000       0.057796         1.5727
  26   0.0000       0.058941         1.6039

MULLIKEN ATOMIC CHARGES
-----------------------
   0 H :   -0.185984
   1 H :    0.019244
   2 H :    0.019244
   3 H :   -0.185984
   4 H :    0.019244
   5 H :    0.019244
   6 C :    0.183317
   7 C :    0.183317
   8 H :   -0.341404
   9 H :   -0.341404
  10 C :    0.041283
  11 C :    0.041283
  12 C :    0.264301
  13 C :    0.264301
Sum of atomic charges:   -0.0000000

LOEWDIN ATOMIC CHARGES
----------------------
   0 H :   -0.016685
   1 H :   -0.016553
   2 H :   -0.016553
   3 H :   -0.016685
   4 H :   -0.016553
   5 H :   -0.016553
   6 C :    0.134803
   7 C :    0.134803
   8 H :   -0.004835
   9 H :   -0.004835
  10 C :   -0.039087
  11 C :   -0.039087
  12 C :   -0.041091
  13 C :   -0.041091

  Mayer bond orders larger than 0.100000
B(  0-H ,  6-C ) :   0.9641 B(  0-H , 11-C ) :  -0.2009 B(  0-H , 12-C ) :   0.1272
B(  1-H ,  6-C ) :   0.9503 B(  2-H ,  6-C ) :   0.9503 B(  3-H ,  7-C ) :   0.9641
B(  3-H , 10-C ) :  -0.2009 B(  3-H , 13-C ) :   0.1272 B(  4-H ,  7-C ) :   0.9503
B(  5-H ,  7-C ) :   0.9503 B(  6-C , 12-C ) :   1.1361 B(  7-C , 13-C ) :   1.1361
B(  8-H , 11-C ) :   0.1922 B(  8-H , 12-C ) :   0.6597 B(  9-H , 10-C ) :   0.1922
B(  9-H , 13-C ) :   0.6597 B( 10-C , 11-C ) :   2.0243 B( 10-C , 12-C ) :   0.1332
B( 10-C , 13-C ) :   1.8311 B( 11-C , 12-C ) :   1.8311 B( 11-C , 13-C ) :   0.1332
B( 12-C , 13-C ) :   0.3197

MP2 TOTAL ENERGY:     -232.621684915 Eh
FINAL SINGLE POINT ENERGY      -232.621684914715

DIPOLE MOMENT
-------------
                                X             Y             Z
Electronic contribution:      0.00000      -0.00000      -3.24558
Nuclear contribution   :      0.00000       0.00000       3.40718
                        -----------------------------------------
Total Dipole Moment    :      0.00000      -0.00000       0.16160
                        -----------------------------------------
Magnitude (a.u.)       :      0.16160
Magnitude (Debye)      :      0.41075

Rotational constants in cm-1:     0.426686     0.046305     0.042424
Rotational constants in MHz : 12791.716911  1388.181353  1271.845804

                             ****ORCA TERMINATED NORMALLY****
TOTAL RUN TIME: 0 days 0 hours 0 minutes 35 seconds 942 msec
