                         Program Version 5.0.3 -  RELEASE  -
|  1> !ri-mp2 aug-cc-pvdz aug-cc-pvdz/c tightscf
|  2> %pal nprocs 16 end
|  3>
|  4> * xyz 0 1
|  5> C      1.868671    0.015665   -0.274924
|  6> C      1.165857   -1.254608    0.213738
|  7> C      1.143210    1.275650    0.207070
|  8> C     -0.316921   -1.266074   -0.173397
|  9> C     -0.338799    1.251562   -0.185476
| 10> C     -1.031529   -0.014315    0.318188
| 11> O     -2.389229   -0.097381   -0.127585
| 12> H      2.907050    0.026674    0.063303
| 13> H      1.897315    0.013456   -1.369367
| 14> H      1.659644   -2.140622   -0.189833
| 15> H      1.257836   -1.320104    1.302922
| 16> H      1.229487    1.346791    1.296330
| 17> H      1.621046    2.169628   -0.198474
| 18> H     -0.419613   -1.310640   -1.261741
| 19> H     -0.817792   -2.148289    0.228615
| 20> H     -0.850240    2.135483    0.207891
| 21> H     -0.437987    1.283978   -1.274557
| 22> H     -1.013629   -0.011453    1.417302
| 23> H     -2.862212    0.686872    0.167083
| 24> *
| 25>
| 26>                          ****END OF INPUT****

CARTESIAN COORDINATES (ANGSTROEM)
---------------------------------
  C      1.868671    0.015665   -0.274924
  C      1.165857   -1.254608    0.213738
  C      1.143210    1.275650    0.207070
  C     -0.316921   -1.266074   -0.173397
  C     -0.338799    1.251562   -0.185476
  C     -1.031529   -0.014315    0.318188
  O     -2.389229   -0.097381   -0.127585
  H      2.907050    0.026674    0.063303
  H      1.897315    0.013456   -1.369367
  H      1.659644   -2.140622   -0.189833
  H      1.257836   -1.320104    1.302922
  H      1.229487    1.346791    1.296330
  H      1.621046    2.169628   -0.198474
  H     -0.419613   -1.310640   -1.261741
  H     -0.817792   -2.148289    0.228615
  H     -0.850240    2.135483    0.207891
  H     -0.437987    1.283978   -1.274557
  H     -1.013629   -0.011453    1.417302
  H     -2.862212    0.686872    0.167083

 Total Charge           Charge          ....    0
 Multiplicity           Mult            ....    1
 Number of Electrons    NEL             ....   56
 Basis Dimension        Dim             ....  269

ORBITAL ENERGIES
----------------

  NO   OCC          E(Eh)            E(eV)
   0   2.0000     -20.560655      -559.4839
   1   2.0000     -11.278158      -306.8943
   2   2.0000     -11.226126      -305.4784
   3   2.0000     -11.223432      -305.4051
   4   2.0000     -11.223244      -305.4000
   5   2.0000     -11.222564      -305.3815
   6   2.0000     -11.217320      -305.2388
   7   2.0000      -1.355804       -36.8933
   8   2.0000      -1.112501       -30.2727
   9   2.0000      -1.007874       -27.4256
  10   2.0000      -0.993217       -27.0268
  11   2.0000      -0.841619       -22.9016
  12   2.0000      -0.824460       -22.4347
  13   2.0000      -0.758938       -20.6517
  14   2.0000      -0.685665       -18.6579
  15   2.0000      -0.649013       -17.6606
  16   2.0000      -0.612416       -16.6647
  17   2.0000      -0.606851       -16.5133
  18   2.0000      -0.585912       -15.9435
  19   2.0000      -0.546424       -14.8689
  20   2.0000      -0.528691       -14.3864
  21   2.0000      -0.526015       -14.3136
  22   2.0000      -0.489785       -13.3277
  23   2.0000      -0.484405       -13.1813
  24   2.0000      -0.460642       -12.5347
  25   2.0000      -0.457666       -12.4537
  26   2.0000      -0.435142       -11.8408
  27   2.0000      -0.419540       -11.4163
  28   0.0000       0.035251         0.9592
  29   0.0000       0.041279         1.1233
  30   0.0000       0.044339         1.2065
  31   0.0000       0.047190         1.2841
  32   0.0000       0.061259         1.6669

MULLIKEN ATOMIC CHARGES
-----------------------
   0 C :    0.299750
   1 C :    0.348043
   2 C :    0.279803
   3 C :    0.215897
   4 C :    0.292399
   5 C :    0.663905
   6 O :   -0.834047
   7 H :   -0.128828
   8 H :   -0.130616
   9 H :   -0.137683
  10 H :   -0.124799
  11 H :   -0.121677
  12 H :   -0.145506
  13 H :   -0.058951
  14 H :   -0.091193
  15 H :   -0.164328
  16 H :   -0.044460
  17 H :   -0.234256
  18 H :    0.116548
Sum of atomic charges:   -0.0000000

LOEWDIN ATOMIC CHARGES
----------------------
   0 C :   -0.026965
   1 C :   -0.020080
   2 C :   -0.021311
   3 C :    0.002054
   4 C :    0.000063
   5 C :   -0.232702
   6 O :    0.135807
   7 H :    0.014303
   8 H :    0.018424
   9 H :    0.014339
  10 H :    0.017218
  11 H :    0.017237
  12 H :    0.014116
  13 H :    0.025692
  14 H :    0.021438
  15 H :    0.015891
  16 H :    0.025940
  17 H :    0.038594
  18 H :   -0.060059

  Mayer bond orders larger than 0.100000
B(  0-C ,  1-C ) :   1.2725 B(  0-C ,  2-C ) :   1.2665 B(  0-C ,  7-H ) :   0.7677
B(  0-C ,  8-H ) :   0.7639 B(  1-C ,  3-C ) :   1.2580 B(  1-C ,  9-H ) :   0.7655
B(  1-C , 10-H ) :   0.7645 B(  2-C ,  4-C ) :   1.2188 B(  2-C , 11-H ) :   0.7724
B(  2-C , 12-H ) :   0.7785 B(  3-C ,  4-C ) :  -0.1367 B(  3-C ,  5-C ) :   1.4020
B(  3-C , 13-H ) :   0.7573 B(  3-C , 14-H ) :   0.7452 B(  4-C ,  5-C ) :   1.2865
B(  4-C ,  6-O ) :   0.1725 B(  4-C , 15-H ) :   0.7417 B(  4-C , 16-H ) :   0.7165
B(  5-C , 13-H ) :   0.1299 B(  5-C , 14-H ) :   0.1150 B(  5-C , 15-H ) :   0.1479
B(  5-C , 17-H ) :   0.5025 B(  6-O , 18-H ) :   1.1247 B(  7-H ,  8-H ) :  -0.1448
B(  9-H , 10-H ) :  -0.1342 B( 11-H , 12-H ) :  -0.1342 B( 13-H , 14-H ) :  -0.1660
B( 15-H , 16-H ) :  -0.1789

MP2 TOTAL ENERGY:     -310.189691066 Eh
FINAL SINGLE POINT ENERGY      -310.189691065716

DIPOLE MOMENT
-------------
                                X             Y             Z
Electronic contribution:     -3.94565      -0.28466      -0.08123
Nuclear contribution   :      4.34003       0.76677       0.40685
                        -----------------------------------------
Total Dipole Moment    :      0.39438       0.48211       0.32562
                        -----------------------------------------
Magnitude (a.u.)       :      0.70285
Magnitude (Debye)      :      1.78650

Rotational constants in cm-1:     0.143242     0.074175     0.053518
Rotational constants in MHz :  4294.274493  2223.698467  1604.423887

                             ****ORCA TERMINATED NORMALLY****
TOTAL RUN TIME: 0 days 0 hours 1 minutes 1 seconds 407 msec
