                         Program Version 5.0.3 -  RELEASE  -
|  1> !ri-mp2 aug-cc-pvdz aug-cc-pvdz/c tightscf
|  2> %pal nprocs 16 end
|  3>
|  4> * xyz 0 1
|  5> C     -1.730590   -2.882390        0.000000
|  6> O     -1.562058   -4.083390        0.000000
|  7> C     -0.655985   -1.894403        0.000000
|  8> C     -0.933573   -0.580286        0.000000
|  9> C      0.000000    0.539524        0.000000
| 10> C     -0.511516    1.844139        0.000000
| 11> C      0.333448    2.945067        0.000000
| 12> C      1.710603    2.761404        0.000000
| 13> C      2.236083    1.470696        0.000000
| 14> C      1.393141    0.372360        0.000000
| 15> H     -2.755406   -2.457004        0.000000
| 16> H      0.353546   -2.285206        0.000000
| 17> H     -1.983825   -0.299778        0.000000
| 18> H     -1.584212    1.989985        0.000000
| 19> H     -0.081742    3.943603        0.000000
| 20> H      2.373203    3.616136        0.000000
| 21> H      3.307662    1.324322        0.000000
| 22> H      1.817575   -0.621621        0.000000
| 23> *
| 24>
| 25>                          ****END OF INPUT****

CARTESIAN COORDINATES (ANGSTROEM)
---------------------------------
  C     -1.730590   -2.882390    0.000000
  O     -1.562058   -4.083390    0.000000
  C     -0.655985   -1.894403    0.000000
  C     -0.933573   -0.580286    0.000000
  C      0.000000    0.539524    0.000000
  C     -0.511516    1.844139    0.000000
  C      0.333448    2.945067    0.000000
  C      1.710603    2.761404    0.000000
  C      2.236083    1.470696    0.000000
  C      1.393141    0.372360    0.000000
  H     -2.755406   -2.457004    0.000000
  H      0.353546   -2.285206    0.000000
  H     -1.983825   -0.299778    0.000000
  H     -1.584212    1.989985    0.000000
  H     -0.081742    3.943603    0.000000
  H      2.373203    3.616136    0.000000
  H      3.307662    1.324322    0.000000
  H      1.817575   -0.621621    0.000000

 Total Charge           Charge          ....    0
 Multiplicity           Mult            ....    1
 Number of Electrons    NEL             ....   70
 Basis Dimension        Dim             ....  302

ORBITAL ENERGIES
----------------

  NO   OCC          E(Eh)            E(eV)
   0   2.0000     -20.559316      -559.4474
   1   2.0000     -11.337539      -308.5101
   2   2.0000     -11.283797      -307.0477
   3   2.0000     -11.268882      -306.6419
   4   2.0000     -11.262560      -306.4698
   5   2.0000     -11.261081      -306.4296
   6   2.0000     -11.260826      -306.4226
   7   2.0000     -11.257390      -306.3291
   8   2.0000     -11.257177      -306.3234
   9   2.0000     -11.252522      -306.1967
  10   2.0000      -1.388758       -37.7900
  11   2.0000      -1.184142       -32.2221
  12   2.0000      -1.109255       -30.1844
  13   2.0000      -1.040087       -28.3022
  14   2.0000      -1.030958       -28.0538
  15   2.0000      -0.904407       -24.6102
  16   2.0000      -0.853261       -23.2184
  17   2.0000      -0.819222       -22.2922
  18   2.0000      -0.781002       -21.2521
  19   2.0000      -0.724366       -19.7110
  20   2.0000      -0.679989       -18.5034
  21   2.0000      -0.670544       -18.2464
  22   2.0000      -0.637033       -17.3346
  23   2.0000      -0.628504       -17.1025
  24   2.0000      -0.606752       -16.5106
  25   2.0000      -0.601154       -16.3582
  26   2.0000      -0.557315       -15.1653
  27   2.0000      -0.545147       -14.8342
  28   2.0000      -0.526638       -14.3305
  29   2.0000      -0.522020       -14.2049
  30   2.0000      -0.507910       -13.8209
  31   2.0000      -0.426503       -11.6057
  32   2.0000      -0.424352       -11.5472
  33   2.0000      -0.356977        -9.7138
  34   2.0000      -0.325669        -8.8619
  35   0.0000       0.027934         0.7601
  36   0.0000       0.032922         0.8959
  37   0.0000       0.039893         1.0855
  38   0.0000       0.042985         1.1697
  39   0.0000       0.049566         1.3488

MULLIKEN ATOMIC CHARGES
-----------------------
   0 C :    0.744807
   1 O :   -0.765377
   2 C :    0.710907
   3 C :    0.452384
   4 C :    1.270025
   5 C :    0.164094
   6 C :    0.364915
   7 C :    0.326655
   8 C :    0.123164
   9 C :    0.492307
  10 H :   -0.214123
  11 H :   -0.553150
  12 H :   -0.573387
  13 H :   -0.599673
  14 H :   -0.447722
  15 H :   -0.438047
  16 H :   -0.480383
  17 H :   -0.577396
Sum of atomic charges:    0.0000000

LOEWDIN ATOMIC CHARGES
----------------------
   0 C :   -0.117716
   1 O :    0.008352
   2 C :    0.025125
   3 C :    0.044719
   4 C :   -0.178960
   5 C :    0.053323
   6 C :    0.016884
   7 C :    0.020860
   8 C :    0.019492
   9 C :    0.064357
  10 H :    0.011763
  11 H :    0.000081
  12 H :    0.011830
  13 H :    0.007284
  14 H :    0.002716
  15 H :    0.003158
  16 H :    0.003602
  17 H :    0.003130

  Mayer bond orders larger than 0.100000
B(  0-C ,  1-O ) :   1.4948 B(  0-C ,  2-C ) :   1.1703 B(  0-C ,  3-C ) :  -0.1483
B(  0-C , 10-H ) :   0.7352 B(  1-O ,  2-C ) :  -0.1174 B(  1-O ,  3-C ) :   0.1138
B(  2-C ,  3-C ) :   2.5433 B(  2-C ,  4-C ) :  -0.3447 B(  2-C ,  5-C ) :   0.2778
B(  2-C ,  6-C ) :   0.1728 B(  2-C , 10-H ) :   0.2177 B(  2-C , 11-H ) :  -0.1708
B(  2-C , 12-H ) :   0.3558 B(  3-C ,  4-C ) :   1.9534 B(  3-C ,  5-C ) :  -0.9794
B(  3-C ,  6-C ) :   0.3388 B(  3-C ,  8-C ) :   0.4505 B(  3-C ,  9-C ) :  -1.0597
B(  3-C , 11-H ) :   0.8183 B(  3-C , 12-H ) :  -0.1316 B(  4-C ,  5-C ) :   1.6318
B(  4-C ,  6-C ) :  -1.0022 B(  4-C ,  8-C ) :  -1.0975 B(  4-C ,  9-C ) :   2.4376
B(  4-C , 12-H ) :   0.5475 B(  4-C , 13-H ) :   0.6315 B(  4-C , 17-H ) :   0.4274
B(  5-C ,  6-C ) :   1.7950 B(  5-C ,  7-C ) :   0.1879 B(  5-C ,  8-C ) :   0.1411
B(  5-C ,  9-C ) :  -1.0308 B(  5-C , 11-H ) :   0.1194 B(  5-C , 12-H ) :  -0.1955
B(  5-C , 14-H ) :   0.4318 B(  6-C ,  7-C ) :   1.8075 B(  6-C ,  9-C ) :   0.2031
B(  6-C , 13-H ) :   0.1037 B(  6-C , 14-H ) :   0.2077 B(  6-C , 15-H ) :   0.2194
B(  6-C , 16-H ) :  -0.1418 B(  7-C ,  8-C ) :   1.9007 B(  7-C , 14-H ) :   0.1582
B(  7-C , 15-H ) :   0.3440 B(  7-C , 16-H ) :   0.1976 B(  8-C ,  9-C ) :   1.8301
B(  8-C , 14-H ) :  -0.1066 B(  8-C , 15-H ) :   0.1554 B(  8-C , 17-H ) :   0.3188
B(  9-C , 16-H ) :   0.6880 B(  9-C , 17-H ) :  -0.1499

MP2 TOTAL ENERGY:     -421.767248704 Eh
FINAL SINGLE POINT ENERGY      -421.767248704462

DIPOLE MOMENT
-------------
                                X             Y             Z
Electronic contribution:     -1.10341      -3.15433       0.00000
Nuclear contribution   :      1.41468       5.11893       0.00000
                        -----------------------------------------
Total Dipole Moment    :      0.31126       1.96461       0.00000
                        -----------------------------------------
Magnitude (a.u.)       :      1.98911
Magnitude (Debye)      :      5.05592

Rotational constants in cm-1:     0.164162     0.019311     0.017278
Rotational constants in MHz :  4921.447248   578.925990   517.992797

                             ****ORCA TERMINATED NORMALLY****
TOTAL RUN TIME: 0 days 0 hours 1 minutes 19 seconds 149 msec
