                         Program Version 5.0.3 -  RELEASE  -
|  1> !ri-mp2 aug-cc-pvdz aug-cc-pvdz/c tightscf
|  2> %pal nprocs 16 end
|  3>
|  4> * xyz 0 1
|  5> C      0.420637    2.644566    0.000000
|  6> C      0.421753    1.947096    1.203090
|  7> C      0.421753    1.947096   -1.203090
|  8> C      0.421753    0.558318    1.201822
|  9> C      0.421753    0.558318   -1.201822
| 10> C      0.421492   -0.150366    0.000000
| 11> C      0.426140   -1.643412    0.000000
| 12> Cl    -1.272788   -2.340959    0.000000
| 13> H      0.421639    3.726146    0.000000
| 14> H      0.424437    2.484779    2.141585
| 15> H      0.424437    2.484779   -2.141585
| 16> H      0.419754    0.018155    2.140045
| 17> H      0.419754    0.018155   -2.140045
| 18> H      0.897849   -2.052701    0.887296
| 19> H      0.897849   -2.052701   -0.887296
| 20> *
| 21>
| 22>                          ****END OF INPUT****

CARTESIAN COORDINATES (ANGSTROEM)
---------------------------------
  C      0.420637    2.644566    0.000000
  C      0.421753    1.947096    1.203090
  C      0.421753    1.947096   -1.203090
  C      0.421753    0.558318    1.201822
  C      0.421753    0.558318   -1.201822
  C      0.421492   -0.150366    0.000000
  C      0.426140   -1.643412    0.000000
  Cl    -1.272788   -2.340959    0.000000
  H      0.421639    3.726146    0.000000
  H      0.424437    2.484779    2.141585
  H      0.424437    2.484779   -2.141585
  H      0.419754    0.018155    2.140045
  H      0.419754    0.018155   -2.140045
  H      0.897849   -2.052701    0.887296
  H      0.897849   -2.052701   -0.887296

 Total Charge           Charge          ....    0
 Multiplicity           Mult            ....    1
 Number of Electrons    NEL             ....   66
 Basis Dimension        Dim             ....  251

ORBITAL ENERGIES
----------------

  NO   OCC          E(Eh)            E(eV)
   0   2.0000    -104.818316     -2852.2514
   1   2.0000     -11.309101      -307.7363
   2   2.0000     -11.259352      -306.3825
   3   2.0000     -11.250766      -306.1489
   4   2.0000     -11.250764      -306.1489
   5   2.0000     -11.250007      -306.1283
   6   2.0000     -11.248806      -306.0956
   7   2.0000     -11.248284      -306.0814
   8   2.0000     -10.543947      -286.9154
   9   2.0000      -8.011484      -218.0036
  10   2.0000      -8.008402      -217.9197
  11   2.0000      -8.008364      -217.9187
  12   2.0000      -1.177218       -32.0337
  13   2.0000      -1.121881       -30.5279
  14   2.0000      -1.037078       -28.2203
  15   2.0000      -1.029344       -28.0099
  16   2.0000      -0.920519       -25.0486
  17   2.0000      -0.842348       -22.9215
  18   2.0000      -0.811107       -22.0713
  19   2.0000      -0.710184       -19.3251
  20   2.0000      -0.662060       -18.0156
  21   2.0000      -0.651992       -17.7416
  22   2.0000      -0.600238       -16.3333
  23   2.0000      -0.598577       -16.2881
  24   2.0000      -0.587225       -15.9792
  25   2.0000      -0.559632       -15.2284
  26   2.0000      -0.512376       -13.9425
  27   2.0000      -0.502469       -13.6729
  28   2.0000      -0.499390       -13.5891
  29   2.0000      -0.434318       -11.8184
  30   2.0000      -0.432470       -11.7681
  31   2.0000      -0.346766        -9.4360
  32   2.0000      -0.340852        -9.2750
  33   0.0000       0.033304         0.9062
  34   0.0000       0.039684         1.0799
  35   0.0000       0.039910         1.0860
  36   0.0000       0.053997         1.4693
  37   0.0000       0.056193         1.5291

MULLIKEN ATOMIC CHARGES
-----------------------
   0 C :    0.314057
   1 C :    0.483212
   2 C :    0.483212
   3 C :    0.097964
   4 C :    0.097964
   5 C :    1.274629
   6 C :    0.114196
   7 Cl:   -0.147552
   8 H :   -0.436116
   9 H :   -0.446304
  10 H :   -0.446304
  11 H :   -0.554211
  12 H :   -0.554211
  13 H :   -0.140268
  14 H :   -0.140268
Sum of atomic charges:   -0.0000000

LOEWDIN ATOMIC CHARGES
----------------------
   0 C :    0.012772
   1 C :    0.014167
   2 C :    0.014167
   3 C :    0.040811
   4 C :    0.040811
   5 C :   -0.257027
   6 C :   -0.257589
   7 Cl:    0.428494
   8 H :    0.001020
   9 H :    0.001355
  10 H :    0.001355
  11 H :    0.008608
  12 H :    0.008608
  13 H :   -0.028776
  14 H :   -0.028776

  Mayer bond orders larger than 0.100000
B(  0-C ,  1-C ) :   1.7423 B(  0-C ,  2-C ) :   1.7423 B(  0-C ,  5-C ) :   0.1203
B(  0-C ,  8-H ) :   0.3561 B(  0-C ,  9-H ) :   0.1844 B(  0-C , 10-H ) :   0.1844
B(  1-C ,  2-C ) :  -0.1050 B(  1-C ,  3-C ) :   1.8163 B(  1-C ,  5-C ) :  -0.3622
B(  1-C ,  6-C ) :   0.1494 B(  1-C ,  8-H ) :   0.1921 B(  1-C ,  9-H ) :   0.2412
B(  1-C , 11-H ) :   0.1227 B(  2-C ,  4-C ) :   1.8163 B(  2-C ,  5-C ) :  -0.3622
B(  2-C ,  6-C ) :   0.1494 B(  2-C ,  8-H ) :   0.1921 B(  2-C , 10-H ) :   0.2412
B(  2-C , 12-H ) :   0.1227 B(  3-C ,  4-C ) :  -0.5146 B(  3-C ,  5-C ) :   1.7732
B(  3-C ,  6-C ) :  -0.1929 B(  3-C ,  7-Cl) :   0.1539 B(  3-C ,  9-H ) :   0.3530
B(  3-C , 11-H ) :   0.1704 B(  4-C ,  5-C ) :   1.7732 B(  4-C ,  6-C ) :  -0.1929
B(  4-C ,  7-Cl) :   0.1539 B(  4-C , 10-H ) :   0.3530 B(  4-C , 12-H ) :   0.1704
B(  5-C ,  6-C ) :   1.0187 B(  5-C ,  7-Cl) :  -0.4616 B(  5-C , 11-H ) :   0.4074
B(  5-C , 12-H ) :   0.4074 B(  6-C ,  7-Cl) :   1.1511 B(  6-C , 13-H ) :   0.9724
B(  6-C , 14-H ) :   0.9724

MP2 TOTAL ENERGY:     -729.795265494 Eh
FINAL SINGLE POINT ENERGY      -729.795265493575

DIPOLE MOMENT
-------------
                                X             Y             Z
Electronic contribution:     -4.81265      -7.26337      -0.00000
Nuclear contribution   :      5.60752       7.80981       0.00000
                        -----------------------------------------
Total Dipole Moment    :      0.79487       0.54644      -0.00000
                        -----------------------------------------
Magnitude (a.u.)       :      0.96458
Magnitude (Debye)      :      2.45177

Rotational constants in cm-1:     0.140227     0.032501     0.029189
Rotational constants in MHz :  4203.890297   974.346434   875.063489

                             ****ORCA TERMINATED NORMALLY****
TOTAL RUN TIME: 0 days 0 hours 0 minutes 56 seconds 62 msec
