                         Program Version 5.0.3 -  RELEASE  -
|  1> !ri-mp2 aug-cc-pvdz aug-cc-pvdz/c tightscf
|  2> %pal nprocs 16 end
|  3>
|  4> * xyz 0 1
|  5> Cl     0.682538   -0.843775    0.000000
|  6> F     -1.364381    0.762010    0.000000
|  7> C      0.000000    0.812042    0.000000
|  8> H      0.338141    1.306914    0.905061
|  9> H      0.338141    1.306914   -0.905061
| 10> *
| 11>
| 12>                          ****END OF INPUT****

CARTESIAN COORDINATES (ANGSTROEM)
---------------------------------
  Cl     0.682538   -0.843775    0.000000
  F     -1.364381    0.762010    0.000000
  C      0.000000    0.812042    0.000000
  H      0.338141    1.306914    0.905061
  H      0.338141    1.306914   -0.905061

 Total Charge           Charge          ....    0
 Multiplicity           Mult            ....    1
 Number of Electrons    NEL             ....   34
 Basis Dimension        Dim             ....   91

ORBITAL ENERGIES
----------------

  NO   OCC          E(Eh)            E(eV)
   0   2.0000    -104.844229     -2852.9565
   1   2.0000     -26.330983      -716.5025
   2   2.0000     -11.400121      -310.2131
   3   2.0000     -10.570806      -287.6463
   4   2.0000      -8.038450      -218.7374
   5   2.0000      -8.035159      -218.6478
   6   2.0000      -8.035019      -218.6440
   7   2.0000      -1.639295       -44.6075
   8   2.0000      -1.144917       -31.1548
   9   2.0000      -0.937453       -25.5094
  10   2.0000      -0.750518       -20.4226
  11   2.0000      -0.733651       -19.9637
  12   2.0000      -0.699454       -19.0331
  13   2.0000      -0.590224       -16.0608
  14   2.0000      -0.542368       -14.7586
  15   2.0000      -0.470325       -12.7982
  16   2.0000      -0.455820       -12.4035
  17   0.0000       0.034033         0.9261
  18   0.0000       0.051748         1.4081
  19   0.0000       0.076085         2.0704
  20   0.0000       0.092465         2.5161
  21   0.0000       0.130370         3.5476

MULLIKEN ATOMIC CHARGES
-----------------------
   0 Cl:   -0.157614
   1 F :   -0.521863
   2 C :    0.654415
   3 H :    0.012531
   4 H :    0.012531
Sum of atomic charges:   -0.0000000

LOEWDIN ATOMIC CHARGES
----------------------
   0 Cl:    0.430974
   1 F :   -0.030168
   2 C :   -0.302627
   3 H :   -0.049089
   4 H :   -0.049089

  Mayer bond orders larger than 0.100000
B(  0-Cl,  2-C ) :   1.1150 B(  1-F ,  2-C ) :   0.5256 B(  2-C ,  3-H ) :   0.9715
B(  2-C ,  4-H ) :   0.9715

MP2 TOTAL ENERGY:     -598.480931755 Eh
FINAL SINGLE POINT ENERGY      -598.480931755231

DIPOLE MOMENT
-------------
                                X             Y             Z
Electronic contribution:     -0.53436      -2.15616      -0.00000
Nuclear contribution   :      0.97655       2.86125       0.00000
                        -----------------------------------------
Total Dipole Moment    :      0.44218       0.70509      -0.00000
                        -----------------------------------------
Magnitude (a.u.)       :      0.83227
Magnitude (Debye)      :      2.11546

Rotational constants in cm-1:     1.398088     0.185572     0.169260
Rotational constants in MHz : 41913.612521  5563.314275  5074.278063

                             ****ORCA TERMINATED NORMALLY****
TOTAL RUN TIME: 0 days 0 hours 0 minutes 26 seconds 224 msec
