                         Program Version 5.0.3 -  RELEASE  -
|  1> !ri-mp2 aug-cc-pvdz aug-cc-pvdz/c tightscf
|  2> %pal nprocs 16 end
|  3>
|  4> * xyz 0 1
|  5> H      1.757205   -0.189555    1.463765
|  6> H      0.080822   -0.525541    1.928692
|  7> C      0.759101   -0.406803    1.087809
|  8> H     -0.167443   -2.080157    0.000000
|  9> H      1.596662   -2.202628    0.000000
| 10> C      0.759101   -1.508440    0.000000
| 11> H      0.080822   -0.525541   -1.928692
| 12> H      1.757205   -0.189555   -1.463765
| 13> C      0.759101   -0.406803   -1.087809
| 14> H      0.914383    1.569711    0.000000
| 15> C      0.347469    0.639812    0.000000
| 16> N     -2.193925    1.206944    0.000000
| 17> C     -1.068470    0.964678    0.000000
| 18> *
| 19>
| 20>                          ****END OF INPUT****

CARTESIAN COORDINATES (ANGSTROEM)
---------------------------------
  H      1.757205   -0.189555    1.463765
  H      0.080822   -0.525541    1.928692
  C      0.759101   -0.406803    1.087809
  H     -0.167443   -2.080157    0.000000
  H      1.596662   -2.202628    0.000000
  C      0.759101   -1.508440    0.000000
  H      0.080822   -0.525541   -1.928692
  H      1.757205   -0.189555   -1.463765
  C      0.759101   -0.406803   -1.087809
  H      0.914383    1.569711    0.000000
  C      0.347469    0.639812    0.000000
  N     -2.193925    1.206944    0.000000
  C     -1.068470    0.964678    0.000000

 Total Charge           Charge          ....    0
 Multiplicity           Mult            ....    1
 Number of Electrons    NEL             ....   44
 Basis Dimension        Dim             ....  201

ORBITAL ENERGIES
----------------

  NO   OCC          E(Eh)            E(eV)
   0   2.0000     -15.574454      -423.8024
   1   2.0000     -11.286637      -307.1250
   2   2.0000     -11.276881      -306.8595
   3   2.0000     -11.256209      -306.2970
   4   2.0000     -11.256199      -306.2967
   5   2.0000     -11.246438      -306.0311
   6   2.0000      -1.223955       -33.3055
   7   2.0000      -1.158839       -31.5336
   8   2.0000      -0.964507       -26.2456
   9   2.0000      -0.928646       -25.2697
  10   2.0000      -0.807374       -21.9698
  11   2.0000      -0.704356       -19.1665
  12   2.0000      -0.682132       -18.5618
  13   2.0000      -0.614794       -16.7294
  14   2.0000      -0.575231       -15.6528
  15   2.0000      -0.552352       -15.0303
  16   2.0000      -0.545240       -14.8367
  17   2.0000      -0.503371       -13.6974
  18   2.0000      -0.491451       -13.3731
  19   2.0000      -0.478272       -13.0144
  20   2.0000      -0.439548       -11.9607
  21   2.0000      -0.438215       -11.9244
  22   0.0000       0.028050         0.7633
  23   0.0000       0.040760         1.1091
  24   0.0000       0.044235         1.2037
  25   0.0000       0.049184         1.3384
  26   0.0000       0.064043         1.7427

MULLIKEN ATOMIC CHARGES
-----------------------
   0 H :   -0.201114
   1 H :   -0.263695
   2 C :    0.714131
   3 H :   -0.211146
   4 H :   -0.244707
   5 C :    0.485866
   6 H :   -0.263695
   7 H :   -0.201114
   8 C :    0.714131
   9 H :   -0.227875
  10 C :    0.440241
  11 N :   -0.318462
  12 C :   -0.422560
Sum of atomic charges:   -0.0000000

LOEWDIN ATOMIC CHARGES
----------------------
   0 H :    0.011181
   1 H :    0.007127
   2 C :    0.059418
   3 H :    0.009099
   4 H :    0.000019
   5 C :    0.029595
   6 H :    0.007127
   7 H :    0.011181
   8 C :    0.059418
   9 H :    0.035161
  10 C :   -0.176577
  11 N :    0.075213
  12 C :   -0.127962

  Mayer bond orders larger than 0.100000
B(  0-H ,  1-H ) :  -0.1600 B(  0-H ,  2-C ) :   0.7139 B(  1-H ,  2-C ) :   0.8439
B(  2-C ,  5-C ) :   1.1919 B(  2-C ,  8-C ) :  -0.1248 B(  2-C , 10-C ) :   1.0314
B(  3-H ,  4-H ) :  -0.1503 B(  3-H ,  5-C ) :   0.7944 B(  4-H ,  5-C ) :   0.7598
B(  5-C ,  8-C ) :   1.1919 B(  6-H ,  7-H ) :  -0.1600 B(  6-H ,  8-C ) :   0.8439
B(  7-H ,  8-C ) :   0.7139 B(  8-C , 10-C ) :   1.0314 B(  9-H , 10-C ) :   0.6535
B( 10-C , 12-C ) :   0.3150 B( 11-N , 12-C ) :   2.6432

MP2 TOTAL ENERGY:     -248.721300581 Eh
FINAL SINGLE POINT ENERGY      -248.721300580802

DIPOLE MOMENT
-------------
                                X             Y             Z
Electronic contribution:     -4.42086       3.63596      -0.00000
Nuclear contribution   :      6.11913      -4.21354      -0.00000
                        -----------------------------------------
Total Dipole Moment    :      1.69827      -0.57758      -0.00000
                        -----------------------------------------
Magnitude (a.u.)       :      1.79380
Magnitude (Debye)      :      4.55947

Rotational constants in cm-1:     0.261466     0.087551     0.080828
Rotational constants in MHz :  7838.551390  2624.727576  2423.171252

                             ****ORCA TERMINATED NORMALLY****
TOTAL RUN TIME: 0 days 0 hours 0 minutes 56 seconds 499 msec
