                         Program Version 5.0.3 -  RELEASE  -
|  1> !ri-mp2 aug-cc-pvdz aug-cc-pvdz/c tightscf
|  2> %pal nprocs 16 end
|  3>
|  4> * xyz 0 1
|  5> C      0.783809    0.783809    0.783809
|  6> C     -0.783809    0.783809    0.783809
|  7> C      0.783809    0.783809   -0.783809
|  8> C     -0.783809    0.783809   -0.783809
|  9> C      0.783809   -0.783809    0.783809
| 10> C     -0.783809   -0.783809    0.783809
| 11> C      0.783809   -0.783809   -0.783809
| 12> C     -0.783809   -0.783809   -0.783809
| 13> H      1.410999    1.410999    1.410999
| 14> H     -1.410999    1.410999    1.410999
| 15> H      1.410999    1.410999   -1.410999
| 16> H     -1.410999    1.410999   -1.410999
| 17> H      1.410999   -1.410999    1.410999
| 18> H     -1.410999   -1.410999    1.410999
| 19> H      1.410999   -1.410999   -1.410999
| 20> H     -1.410999   -1.410999   -1.410999
| 21> *
| 22>
| 23>                          ****END OF INPUT****

CARTESIAN COORDINATES (ANGSTROEM)
---------------------------------
  C      0.783809    0.783809    0.783809
  C     -0.783809    0.783809    0.783809
  C      0.783809    0.783809   -0.783809
  C     -0.783809    0.783809   -0.783809
  C      0.783809   -0.783809    0.783809
  C     -0.783809   -0.783809    0.783809
  C      0.783809   -0.783809   -0.783809
  C     -0.783809   -0.783809   -0.783809
  H      1.410999    1.410999    1.410999
  H     -1.410999    1.410999    1.410999
  H      1.410999    1.410999   -1.410999
  H     -1.410999    1.410999   -1.410999
  H      1.410999   -1.410999    1.410999
  H     -1.410999   -1.410999    1.410999
  H      1.410999   -1.410999   -1.410999
  H     -1.410999   -1.410999   -1.410999

 Total Charge           Charge          ....    0
 Multiplicity           Mult            ....    1
 Number of Electrons    NEL             ....   56
 Basis Dimension        Dim             ....  256

ORBITAL ENERGIES
----------------

  NO   OCC          E(Eh)            E(eV)
   0   2.0000     -11.225562      -305.4631
   1   2.0000     -11.225072      -305.4497
   2   2.0000     -11.225072      -305.4497
   3   2.0000     -11.225072      -305.4497
   4   2.0000     -11.224573      -305.4361
   5   2.0000     -11.224573      -305.4361
   6   2.0000     -11.224573      -305.4361
   7   2.0000     -11.224059      -305.4222
   8   2.0000      -1.245135       -33.8818
   9   2.0000      -0.978965       -26.6390
  10   2.0000      -0.978965       -26.6390
  11   2.0000      -0.978965       -26.6390
  12   2.0000      -0.767974       -20.8976
  13   2.0000      -0.767974       -20.8976
  14   2.0000      -0.767974       -20.8976
  15   2.0000      -0.709769       -19.3138
  16   2.0000      -0.641421       -17.4540
  17   2.0000      -0.579468       -15.7681
  18   2.0000      -0.579468       -15.7681
  19   2.0000      -0.579468       -15.7681
  20   2.0000      -0.578401       -15.7391
  21   2.0000      -0.578401       -15.7391
  22   2.0000      -0.389255       -10.5922
  23   2.0000      -0.389255       -10.5922
  24   2.0000      -0.389255       -10.5922
  25   2.0000      -0.382350       -10.4043
  26   2.0000      -0.382350       -10.4043
  27   2.0000      -0.382350       -10.4043
  28   0.0000       0.033664         0.9160
  29   0.0000       0.042744         1.1631
  30   0.0000       0.042744         1.1631
  31   0.0000       0.042744         1.1631
  32   0.0000       0.057955         1.5770

MULLIKEN ATOMIC CHARGES
-----------------------
   0 C :    0.478493
   1 C :    0.478493
   2 C :    0.478493
   3 C :    0.478493
   4 C :    0.478493
   5 C :    0.478493
   6 C :    0.478493
   7 C :    0.478493
   8 H :   -0.478493
   9 H :   -0.478493
  10 H :   -0.478493
  11 H :   -0.478493
  12 H :   -0.478493
  13 H :   -0.478493
  14 H :   -0.478493
  15 H :   -0.478493
Sum of atomic charges:    0.0000000

LOEWDIN ATOMIC CHARGES
----------------------
   0 C :   -0.008092
   1 C :   -0.008092
   2 C :   -0.008092
   3 C :   -0.008092
   4 C :   -0.008092
   5 C :   -0.008092
   6 C :   -0.008092
   7 C :   -0.008092
   8 H :    0.008092
   9 H :    0.008092
  10 H :    0.008092
  11 H :    0.008092
  12 H :    0.008092
  13 H :    0.008092
  14 H :    0.008092
  15 H :    0.008092

  Mayer bond orders larger than 0.100000
B(  0-C ,  1-C ) :   1.6625 B(  0-C ,  2-C ) :   1.6625 B(  0-C ,  3-C ) :  -0.4150
B(  0-C ,  4-C ) :   1.6625 B(  0-C ,  5-C ) :  -0.4150 B(  0-C ,  6-C ) :  -0.4150
B(  0-C ,  7-C ) :   0.2563 B(  0-C ,  8-H ) :  -0.2824 B(  0-C ,  9-H ) :   0.4676
B(  0-C , 10-H ) :   0.4676 B(  0-C , 11-H ) :  -0.1538 B(  0-C , 12-H ) :   0.4676
B(  0-C , 13-H ) :  -0.1538 B(  0-C , 14-H ) :  -0.1538 B(  1-C ,  2-C ) :  -0.4150
B(  1-C ,  3-C ) :   1.6625 B(  1-C ,  4-C ) :  -0.4150 B(  1-C ,  5-C ) :   1.6625
B(  1-C ,  6-C ) :   0.2563 B(  1-C ,  7-C ) :  -0.4150 B(  1-C ,  8-H ) :   0.4676
B(  1-C ,  9-H ) :  -0.2824 B(  1-C , 10-H ) :  -0.1538 B(  1-C , 11-H ) :   0.4676
B(  1-C , 12-H ) :  -0.1538 B(  1-C , 13-H ) :   0.4676 B(  1-C , 15-H ) :  -0.1538
B(  2-C ,  3-C ) :   1.6625 B(  2-C ,  4-C ) :  -0.4150 B(  2-C ,  5-C ) :   0.2563
B(  2-C ,  6-C ) :   1.6625 B(  2-C ,  7-C ) :  -0.4150 B(  2-C ,  8-H ) :   0.4676
B(  2-C ,  9-H ) :  -0.1538 B(  2-C , 10-H ) :  -0.2824 B(  2-C , 11-H ) :   0.4676
B(  2-C , 12-H ) :  -0.1538 B(  2-C , 14-H ) :   0.4676 B(  2-C , 15-H ) :  -0.1538
B(  3-C ,  4-C ) :   0.2563 B(  3-C ,  5-C ) :  -0.4150 B(  3-C ,  6-C ) :  -0.4150
B(  3-C ,  7-C ) :   1.6625 B(  3-C ,  8-H ) :  -0.1538 B(  3-C ,  9-H ) :   0.4676
B(  3-C , 10-H ) :   0.4676 B(  3-C , 11-H ) :  -0.2824 B(  3-C , 13-H ) :  -0.1538
B(  3-C , 14-H ) :  -0.1538 B(  3-C , 15-H ) :   0.4676 B(  4-C ,  5-C ) :   1.6625
B(  4-C ,  6-C ) :   1.6625 B(  4-C ,  7-C ) :  -0.4150 B(  4-C ,  8-H ) :   0.4676
B(  4-C ,  9-H ) :  -0.1538 B(  4-C , 10-H ) :  -0.1538 B(  4-C , 12-H ) :  -0.2824
B(  4-C , 13-H ) :   0.4676 B(  4-C , 14-H ) :   0.4676 B(  4-C , 15-H ) :  -0.1538
B(  5-C ,  6-C ) :  -0.4150 B(  5-C ,  7-C ) :   1.6625 B(  5-C ,  8-H ) :  -0.1538
B(  5-C ,  9-H ) :   0.4676 B(  5-C , 11-H ) :  -0.1538 B(  5-C , 12-H ) :   0.4676
B(  5-C , 13-H ) :  -0.2824 B(  5-C , 14-H ) :  -0.1538 B(  5-C , 15-H ) :   0.4676
B(  6-C ,  7-C ) :   1.6625 B(  6-C ,  8-H ) :  -0.1538 B(  6-C , 10-H ) :   0.4676
B(  6-C , 11-H ) :  -0.1538 B(  6-C , 12-H ) :   0.4676 B(  6-C , 13-H ) :  -0.1538
B(  6-C , 14-H ) :  -0.2824 B(  6-C , 15-H ) :   0.4676 B(  7-C ,  9-H ) :  -0.1538
B(  7-C , 10-H ) :  -0.1538 B(  7-C , 11-H ) :   0.4676 B(  7-C , 12-H ) :  -0.1538
B(  7-C , 13-H ) :   0.4676 B(  7-C , 14-H ) :   0.4676 B(  7-C , 15-H ) :  -0.2824

MP2 TOTAL ENERGY:     -308.527200432 Eh
FINAL SINGLE POINT ENERGY      -308.527200432386

DIPOLE MOMENT
-------------
                                X             Y             Z
Electronic contribution:     -0.00000       0.00000      -0.00000
Nuclear contribution   :      0.00000       0.00000       0.00000
                        -----------------------------------------
Total Dipole Moment    :     -0.00000       0.00000      -0.00000
                        -----------------------------------------
Magnitude (a.u.)       :      0.00000
Magnitude (Debye)      :      0.00000

Rotational constants in cm-1:     0.112254     0.112254     0.112254
Rotational constants in MHz :  3365.290272  3365.290272  3365.290272

                             ****ORCA TERMINATED NORMALLY****
TOTAL RUN TIME: 0 days 0 hours 1 minutes 0 seconds 16 msec
