                         Program Version 5.0.3 -  RELEASE  -
|  1> !ri-mp2 aug-cc-pvdz aug-cc-pvdz/c tightscf
|  2> %pal nprocs 16 end
|  3>
|  4> * xyz 0 1
|  5> C     0.000000     0.000000   -0.355296
|  6> Cl    0.000000     0.000000    1.420171
|  7> F     0.000000     1.248182   -0.815227
|  8> F     1.080957    -0.624091   -0.815227
|  9> F    -1.080957    -0.624091   -0.815227
| 10> *
| 11>
| 12>                          ****END OF INPUT****

CARTESIAN COORDINATES (ANGSTROEM)
---------------------------------
  C      0.000000    0.000000   -0.355296
  Cl     0.000000    0.000000    1.420171
  F      0.000000    1.248182   -0.815227
  F      1.080957   -0.624091   -0.815227
  F     -1.080957   -0.624091   -0.815227

 Total Charge           Charge          ....    0
 Multiplicity           Mult            ....    1
 Number of Electrons    NEL             ....   50
 Basis Dimension        Dim             ....  119

ORBITAL ENERGIES
----------------

  NO   OCC          E(Eh)            E(eV)
   0   2.0000    -104.884314     -2854.0473
   1   2.0000     -26.387406      -718.0378
   2   2.0000     -26.387406      -718.0378
   3   2.0000     -26.387374      -718.0369
   4   2.0000     -11.597115      -315.5735
   5   2.0000     -10.611166      -288.7445
   6   2.0000      -8.078925      -219.8387
   7   2.0000      -8.075119      -219.7352
   8   2.0000      -8.075119      -219.7352
   9   2.0000      -1.776834       -48.3501
  10   2.0000      -1.678622       -45.6776
  11   2.0000      -1.678622       -45.6776
  12   2.0000      -1.183488       -32.2043
  13   2.0000      -0.983234       -26.7552
  14   2.0000      -0.865660       -23.5558
  15   2.0000      -0.865660       -23.5558
  16   2.0000      -0.827238       -22.5103
  17   2.0000      -0.743597       -20.2343
  18   2.0000      -0.743597       -20.2343
  19   2.0000      -0.698743       -19.0138
  20   2.0000      -0.698743       -19.0138
  21   2.0000      -0.681709       -18.5503
  22   2.0000      -0.597627       -16.2623
  23   2.0000      -0.507444       -13.8082
  24   2.0000      -0.507444       -13.8082
  25   0.0000       0.068537         1.8650
  26   0.0000       0.086281         2.3478
  27   0.0000       0.098184         2.6717
  28   0.0000       0.098184         2.6717
  29   0.0000       0.113836         3.0976

MULLIKEN ATOMIC CHARGES
-----------------------
   0 C :    1.545604
   1 Cl:   -0.121868
   2 F :   -0.474579
   3 F :   -0.474579
   4 F :   -0.474579
Sum of atomic charges:    0.0000000

LOEWDIN ATOMIC CHARGES
----------------------
   0 C :   -0.696610
   1 Cl:    0.537260
   2 F :    0.053117
   3 F :    0.053117
   4 F :    0.053117

  Mayer bond orders larger than 0.100000
B(  0-C ,  1-Cl) :   1.1954 B(  0-C ,  2-F ) :   0.5830 B(  0-C ,  3-F ) :   0.5830
B(  0-C ,  4-F ) :   0.5830

MP2 TOTAL ENERGY:     -796.617353740 Eh
FINAL SINGLE POINT ENERGY      -796.617353740455

DIPOLE MOMENT
-------------
                                X             Y             Z
Electronic contribution:     -0.00000      -0.00000      -0.14308
Nuclear contribution   :      0.00000       0.00000       0.34480
                        -----------------------------------------
Total Dipole Moment    :     -0.00000      -0.00000       0.20172
                        -----------------------------------------
Magnitude (a.u.)       :      0.20172
Magnitude (Debye)      :      0.51272

Rotational constants in cm-1:     0.189851     0.108553     0.108553
Rotational constants in MHz :  5691.578944  3254.329324  3254.328772

                             ****ORCA TERMINATED NORMALLY****
TOTAL RUN TIME: 0 days 0 hours 0 minutes 16 seconds 339 msec
