                         Program Version 5.0.3 -  RELEASE  -
|  1> !ri-mp2 aug-cc-pvdz aug-cc-pvdz/c tightscf
|  2> %pal nprocs 16 end
|  3>
|  4> * xyz 0 1
|  5> C      0.570687   -0.092261    0.000000
|  6> F      0.570687   -0.879813    1.088316
|  7> F      0.570687   -0.879813   -1.088316
|  8> Cl    -0.890989    0.932054    0.000000
|  9> H      1.450337    0.545289    0.000000
| 10> *
| 11>
| 12>                          ****END OF INPUT****

CARTESIAN COORDINATES (ANGSTROEM)
---------------------------------
  C      0.570687   -0.092261    0.000000
  F      0.570687   -0.879813    1.088316
  F      0.570687   -0.879813   -1.088316
  Cl    -0.890989    0.932054    0.000000
  H      1.450337    0.545289    0.000000

 Total Charge           Charge          ....    0
 Multiplicity           Mult            ....    1
 Number of Electrons    NEL             ....   42
 Basis Dimension        Dim             ....  105

ORBITAL ENERGIES
----------------

  NO   OCC          E(Eh)            E(eV)
   0   2.0000    -104.863076     -2853.4694
   1   2.0000     -26.361342      -717.3286
   2   2.0000     -26.361324      -717.3281
   3   2.0000     -11.499865      -312.9272
   4   2.0000     -10.590036      -288.1695
   5   2.0000      -8.057693      -219.2610
   6   2.0000      -8.054171      -219.1651
   7   2.0000      -8.054147      -219.1645
   8   2.0000      -1.711553       -46.5737
   9   2.0000      -1.645922       -44.7878
  10   2.0000      -1.162467       -31.6323
  11   2.0000      -0.961508       -26.1640
  12   2.0000      -0.823083       -22.3972
  13   2.0000      -0.802203       -21.8291
  14   2.0000      -0.772641       -21.0246
  15   2.0000      -0.701009       -19.0754
  16   2.0000      -0.666621       -18.1397
  17   2.0000      -0.653821       -17.7914
  18   2.0000      -0.553739       -15.0680
  19   2.0000      -0.488839       -13.3020
  20   2.0000      -0.484806       -13.1922
  21   0.0000       0.035207         0.9580
  22   0.0000       0.075629         2.0580
  23   0.0000       0.094118         2.5611
  24   0.0000       0.094462         2.5705
  25   0.0000       0.123105         3.3498

MULLIKEN ATOMIC CHARGES
-----------------------
   0 C :    1.153733
   1 F :   -0.492663
   2 F :   -0.492663
   3 Cl:   -0.136471
   4 H :   -0.031935
Sum of atomic charges:   -0.0000000

LOEWDIN ATOMIC CHARGES
----------------------
   0 C :   -0.484840
   1 F :    0.013651
   2 F :    0.013651
   3 Cl:    0.480389
   4 H :   -0.022850

  Mayer bond orders larger than 0.100000
B(  0-C ,  1-F ) :   0.5560 B(  0-C ,  2-F ) :   0.5560 B(  0-C ,  3-Cl) :   1.1588
B(  0-C ,  4-H ) :   0.9792

MP2 TOTAL ENERGY:     -697.548495207 Eh
FINAL SINGLE POINT ENERGY      -697.548495207172

DIPOLE MOMENT
-------------
                                X             Y             Z
Electronic contribution:     -0.96468      -0.42833      -0.00000
Nuclear contribution   :      1.45759       0.86629       0.00000
                        -----------------------------------------
Total Dipole Moment    :      0.49292       0.43796      -0.00000
                        -----------------------------------------
Magnitude (a.u.)       :      0.65937
Magnitude (Debye)      :      1.67600

Rotational constants in cm-1:     0.339296     0.157365     0.114330
Rotational constants in MHz : 10171.849170  4717.682365  3427.516198

                             ****ORCA TERMINATED NORMALLY****
TOTAL RUN TIME: 0 days 0 hours 0 minutes 26 seconds 454 msec
