                         Program Version 5.0.3 -  RELEASE  -
|  1> !ri-mp2 aug-cc-pvdz aug-cc-pvdz/c tightscf
|  2> %pal nprocs 16 end
|  3>
|  4> * xyz 0 1
|  5> C      0.028542    0.674903    0.133473
|  6> C      1.166085   -0.321837    0.199900
|  7> Cl    -1.550178   -0.167557   -0.077281
|  8> O      2.264073   -0.071400   -0.217240
|  9> H     -0.023974    1.228514    1.070602
| 10> H      0.172885    1.363727   -0.692610
| 11> H      0.923765   -1.290966    0.673464
| 12> *
| 13>
| 14>                          ****END OF INPUT****

CARTESIAN COORDINATES (ANGSTROEM)
---------------------------------
  C      0.028542    0.674903    0.133473
  C      1.166085   -0.321837    0.199900
  Cl    -1.550178   -0.167557   -0.077281
  O      2.264073   -0.071400   -0.217240
  H     -0.023974    1.228514    1.070602
  H      0.172885    1.363727   -0.692610
  H      0.923765   -1.290966    0.673464

 Total Charge           Charge          ....    0
 Multiplicity           Mult            ....    1
 Number of Electrons    NEL             ....   40
 Basis Dimension        Dim             ....  123

ORBITAL ENERGIES
----------------

  NO   OCC          E(Eh)            E(eV)
   0   2.0000    -104.848766     -2853.0800
   1   2.0000     -20.595413      -560.4297
   2   2.0000     -11.367746      -309.3321
   3   2.0000     -11.328200      -308.2560
   4   2.0000     -10.574587      -287.7491
   5   2.0000      -8.042249      -218.8407
   6   2.0000      -8.039018      -218.7528
   7   2.0000      -8.038910      -218.7499
   8   2.0000      -1.428950       -38.8837
   9   2.0000      -1.159686       -31.5567
  10   2.0000      -0.983901       -26.7733
  11   2.0000      -0.828714       -22.5504
  12   2.0000      -0.695496       -18.9254
  13   2.0000      -0.665493       -18.1090
  14   2.0000      -0.649612       -17.6769
  15   2.0000      -0.573040       -15.5932
  16   2.0000      -0.535619       -14.5749
  17   2.0000      -0.480056       -13.0630
  18   2.0000      -0.459216       -12.4959
  19   2.0000      -0.439423       -11.9573
  20   0.0000       0.035825         0.9749
  21   0.0000       0.046488         1.2650
  22   0.0000       0.054127         1.4729
  23   0.0000       0.071709         1.9513
  24   0.0000       0.090810         2.4711

MULLIKEN ATOMIC CHARGES
-----------------------
   0 C :   -0.264322
   1 C :    0.791152
   2 Cl:   -0.088484
   3 O :   -0.643788
   4 H :    0.131218
   5 H :    0.092251
   6 H :   -0.018027
Sum of atomic charges:    0.0000000

LOEWDIN ATOMIC CHARGES
----------------------
   0 C :   -0.295916
   1 C :   -0.142943
   2 Cl:    0.458348
   3 O :    0.032941
   4 H :   -0.027643
   5 H :   -0.026280
   6 H :    0.001492

  Mayer bond orders larger than 0.100000
B(  0-C ,  1-C ) :   1.1312 B(  0-C ,  2-Cl) :   1.2018 B(  0-C ,  4-H ) :   0.9157
B(  0-C ,  5-H ) :   0.8707 B(  1-C ,  2-Cl) :  -0.1178 B(  1-C ,  3-O ) :   1.5857
B(  1-C ,  6-H ) :   0.8829

MP2 TOTAL ENERGY:     -612.476089443 Eh
FINAL SINGLE POINT ENERGY      -612.476089442839

DIPOLE MOMENT
-------------
                                X             Y             Z
Electronic contribution:     -3.59725      -1.22798      -0.63608
Nuclear contribution   :      3.18313       1.47366       1.10878
                        -----------------------------------------
Total Dipole Moment    :     -0.41412       0.24567       0.47270
                        -----------------------------------------
Magnitude (a.u.)       :      0.67476
Magnitude (Debye)      :      1.71510

Rotational constants in cm-1:     1.017507     0.089657     0.085500
Rotational constants in MHz : 30504.104372  2687.860136  2563.224068

                             ****ORCA TERMINATED NORMALLY****
TOTAL RUN TIME: 0 days 0 hours 0 minutes 28 seconds 876 msec
