                         Program Version 5.0.3 -  RELEASE  -
|  1> !ri-mp2 aug-cc-pvdz aug-cc-pvdz/c tightscf
|  2> %pal nprocs 16 end
|  3>
|  4> * xyz 0 1
|  5> C      2.273854    0.274215   -0.203952
|  6> C      1.762908   -1.084479    0.283467
|  7> C      0.328202   -1.357217   -0.186256
|  8> C     -0.603815   -0.222061    0.229009
|  9> C     -0.109581    1.129030   -0.279562
| 10> C      1.321941    1.404284    0.197425
| 11> O     -1.885928   -0.581152   -0.300631
| 12> O     -2.882481    0.292841    0.300204
| 13> H      3.273677    0.463179    0.192478
| 14> H      2.369370    0.253715   -1.294443
| 15> H      1.795630   -1.111497    1.377231
| 16> H      2.418338   -1.885041   -0.064459
| 17> H     -0.041640   -2.299048    0.220652
| 18> H      0.306159   -1.447044   -1.276226
| 19> H     -0.688027   -0.199332    1.321058
| 20> H     -0.139153    1.116756   -1.373872
| 21> H     -0.781503    1.918852    0.057557
| 22> H      1.326109    1.510541    1.287156
| 23> H      1.670130    2.357427   -0.205005
| 24> H     -3.202874    0.765346   -0.479497
| 25> *
| 26>
| 27>                          ****END OF INPUT****

CARTESIAN COORDINATES (ANGSTROEM)
---------------------------------
  C      2.273854    0.274215   -0.203952
  C      1.762908   -1.084479    0.283467
  C      0.328202   -1.357217   -0.186256
  C     -0.603815   -0.222061    0.229009
  C     -0.109581    1.129030   -0.279562
  C      1.321941    1.404284    0.197425
  O     -1.885928   -0.581152   -0.300631
  O     -2.882481    0.292841    0.300204
  H      3.273677    0.463179    0.192478
  H      2.369370    0.253715   -1.294443
  H      1.795630   -1.111497    1.377231
  H      2.418338   -1.885041   -0.064459
  H     -0.041640   -2.299048    0.220652
  H      0.306159   -1.447044   -1.276226
  H     -0.688027   -0.199332    1.321058
  H     -0.139153    1.116756   -1.373872
  H     -0.781503    1.918852    0.057557
  H      1.326109    1.510541    1.287156
  H      1.670130    2.357427   -0.205005
  H     -3.202874    0.765346   -0.479497

 Total Charge           Charge          ....    0
 Multiplicity           Mult            ....    1
 Number of Electrons    NEL             ....   64
 Basis Dimension        Dim             ....  292

ORBITAL ENERGIES
----------------

  NO   OCC          E(Eh)            E(eV)
   0   2.0000     -20.626081      -561.2642
   1   2.0000     -20.625531      -561.2492
   2   2.0000     -11.284276      -307.0608
   3   2.0000     -11.228811      -305.5515
   4   2.0000     -11.228706      -305.5486
   5   2.0000     -11.226888      -305.4992
   6   2.0000     -11.226135      -305.4787
   7   2.0000     -11.225043      -305.4490
   8   2.0000      -1.466833       -39.9146
   9   2.0000      -1.230611       -33.4866
  10   2.0000      -1.111466       -30.2445
  11   2.0000      -1.012447       -27.5501
  12   2.0000      -0.990156       -26.9435
  13   2.0000      -0.843998       -22.9664
  14   2.0000      -0.826328       -22.4855
  15   2.0000      -0.768558       -20.9135
  16   2.0000      -0.708496       -19.2792
  17   2.0000      -0.669287       -18.2122
  18   2.0000      -0.635642       -17.2967
  19   2.0000      -0.627796       -17.0832
  20   2.0000      -0.610124       -16.6023
  21   2.0000      -0.596260       -16.2251
  22   2.0000      -0.568995       -15.4831
  23   2.0000      -0.533768       -14.5246
  24   2.0000      -0.522269       -14.2117
  25   2.0000      -0.505653       -13.7595
  26   2.0000      -0.490403       -13.3445
  27   2.0000      -0.481320       -13.0974
  28   2.0000      -0.463768       -12.6198
  29   2.0000      -0.462619       -12.5885
  30   2.0000      -0.442609       -12.0440
  31   2.0000      -0.423115       -11.5135
  32   0.0000       0.035086         0.9547
  33   0.0000       0.040245         1.0951
  34   0.0000       0.044332         1.2063
  35   0.0000       0.046143         1.2556
  36   0.0000       0.059172         1.6102

MULLIKEN ATOMIC CHARGES
-----------------------
   0 C :    0.299171
   1 C :    0.326226
   2 C :    0.306162
   3 C :    0.758281
   4 C :    0.242607
   5 C :    0.301726
   6 O :   -0.738088
   7 O :   -0.330626
   8 H :   -0.127609
   9 H :   -0.133423
  10 H :   -0.121728
  11 H :   -0.133225
  12 H :   -0.111372
  13 H :   -0.067814
  14 H :   -0.255743
  15 H :   -0.038513
  16 H :   -0.144074
  17 H :   -0.116619
  18 H :   -0.141200
  19 H :    0.225861
Sum of atomic charges:    0.0000000

LOEWDIN ATOMIC CHARGES
----------------------
   0 C :   -0.026282
   1 C :   -0.017750
   2 C :    0.003842
   3 C :   -0.229250
   4 C :    0.000364
   5 C :   -0.018519
   6 O :    0.023221
   7 O :    0.118487
   8 H :    0.015026
   9 H :    0.018575
  10 H :    0.018604
  11 H :    0.015310
  12 H :    0.021190
  13 H :    0.024050
  14 H :    0.040414
  15 H :    0.025484
  16 H :    0.011839
  17 H :    0.018776
  18 H :    0.014849
  19 H :   -0.078229

  Mayer bond orders larger than 0.100000
B(  0-C ,  1-C ) :   1.2748 B(  0-C ,  5-C ) :   1.2796 B(  0-C ,  8-H ) :   0.7642
B(  0-C ,  9-H ) :   0.7597 B(  1-C ,  2-C ) :   1.2575 B(  1-C , 10-H ) :   0.7549
B(  1-C , 11-H ) :   0.7656 B(  2-C ,  3-C ) :   1.2993 B(  2-C ,  4-C ) :  -0.1179
B(  2-C , 12-H ) :   0.7219 B(  2-C , 13-H ) :   0.7679 B(  3-C ,  4-C ) :   1.3272
B(  3-C ,  7-O ) :  -0.2116 B(  3-C , 12-H ) :   0.1357 B(  3-C , 13-H ) :   0.1102
B(  3-C , 14-H ) :   0.5453 B(  3-C , 16-H ) :   0.1312 B(  4-C ,  5-C ) :   1.2210
B(  4-C ,  6-O ) :   0.1887 B(  4-C , 14-H ) :   0.1226 B(  4-C , 15-H ) :   0.7072
B(  4-C , 16-H ) :   0.7692 B(  5-C , 17-H ) :   0.7760 B(  5-C , 18-H ) :   0.7808
B(  6-O ,  7-O ) :   0.9584 B(  7-O , 19-H ) :   0.9766 B(  8-H ,  9-H ) :  -0.1444
B( 10-H , 11-H ) :  -0.1364 B( 12-H , 13-H ) :  -0.1659 B( 15-H , 16-H ) :  -0.1855
B( 17-H , 18-H ) :  -0.1347

MP2 TOTAL ENERGY:     -385.160263995 Eh
FINAL SINGLE POINT ENERGY      -385.160263995193

DIPOLE MOMENT
-------------
                                X             Y             Z
Electronic contribution:     -7.90790      -1.01593      -0.02502
Nuclear contribution   :      8.51708       1.48933      -0.24563
                        -----------------------------------------
Total Dipole Moment    :      0.60918       0.47339      -0.27064
                        -----------------------------------------
Magnitude (a.u.)       :      0.81759
Magnitude (Debye)      :      2.07815

Rotational constants in cm-1:     0.132466     0.044953     0.036113
Rotational constants in MHz :  3971.239947  1347.664271  1082.645882

                             ****ORCA TERMINATED NORMALLY****
TOTAL RUN TIME: 0 days 0 hours 1 minutes 45 seconds 595 msec
