                         Program Version 5.0.3 -  RELEASE  -
|  1> !ri-mp2 aug-cc-pvdz aug-cc-pvdz/c tightscf
|  2> %pal nprocs 16 end
|  3>
|  4> * xyz 0 1
|  5> C      0.000000    0.000000   -0.043798
|  6> C      0.000000    0.000000    1.304624
|  7> C      0.000000    0.659873    2.562756
|  8> C      0.000000   -0.659873    2.562756
|  9> C      0.000000    1.167314   -0.908995
| 10> C      0.000000   -1.167314   -0.908995
| 11> C      0.000000    0.725289   -2.197208
| 12> C      0.000000   -0.725289   -2.197208
| 13> H      0.000000    1.574226    3.129175
| 14> H      0.000000   -1.574226    3.129175
| 15> H      0.000000    2.191202   -0.569441
| 16> H      0.000000   -2.191202   -0.569441
| 17> H      0.000000    1.344285   -3.081535
| 18> H      0.000000   -1.344285   -3.081535
| 19> *
| 20>
| 21>                          ****END OF INPUT****

CARTESIAN COORDINATES (ANGSTROEM)
---------------------------------
  C      0.000000    0.000000   -0.043798
  C      0.000000    0.000000    1.304624
  C      0.000000    0.659873    2.562756
  C      0.000000   -0.659873    2.562756
  C      0.000000    1.167314   -0.908995
  C      0.000000   -1.167314   -0.908995
  C      0.000000    0.725289   -2.197208
  C      0.000000   -0.725289   -2.197208
  H      0.000000    1.574226    3.129175
  H      0.000000   -1.574226    3.129175
  H      0.000000    2.191202   -0.569441
  H      0.000000   -2.191202   -0.569441
  H      0.000000    1.344285   -3.081535
  H      0.000000   -1.344285   -3.081535

 Total Charge           Charge          ....    0
 Multiplicity           Mult            ....    1
 Number of Electrons    NEL             ....   54
 Basis Dimension        Dim             ....  238

ORBITAL ENERGIES
----------------

  NO   OCC          E(Eh)            E(eV)
   0   2.0000     -11.315522      -307.9110
   1   2.0000     -11.313528      -307.8567
   2   2.0000     -11.312439      -307.8271
   3   2.0000     -11.212127      -305.0975
   4   2.0000     -11.207089      -304.9604
   5   2.0000     -11.206996      -304.9579
   6   2.0000     -11.201620      -304.8116
   7   2.0000     -11.200755      -304.7880
   8   2.0000      -1.251197       -34.0468
   9   2.0000      -1.135338       -30.8941
  10   2.0000      -0.975463       -26.5437
  11   2.0000      -0.940160       -25.5831
  12   2.0000      -0.829484       -22.5714
  13   2.0000      -0.814535       -22.1646
  14   2.0000      -0.760892       -20.7049
  15   2.0000      -0.713535       -19.4163
  16   2.0000      -0.689956       -18.7747
  17   2.0000      -0.599573       -16.3152
  18   2.0000      -0.547811       -14.9067
  19   2.0000      -0.546643       -14.8749
  20   2.0000      -0.533651       -14.5214
  21   2.0000      -0.528761       -14.3883
  22   2.0000      -0.495461       -13.4822
  23   2.0000      -0.461327       -12.5533
  24   2.0000      -0.456371       -12.4185
  25   2.0000      -0.282423        -7.6851
  26   2.0000      -0.275795        -7.5048
  27   0.0000       0.024745         0.6733
  28   0.0000       0.032826         0.8932
  29   0.0000       0.047989         1.3059
  30   0.0000       0.055832         1.5193
  31   0.0000       0.059405         1.6165

MULLIKEN ATOMIC CHARGES
-----------------------
   0 C :    0.313463
   1 C :    1.380648
   2 C :    0.207759
   3 C :    0.207759
   4 C :    0.148971
   5 C :    0.148971
   6 C :    0.153426
   7 C :    0.153426
   8 H :   -0.401699
   9 H :   -0.401699
  10 H :   -0.593449
  11 H :   -0.593449
  12 H :   -0.362064
  13 H :   -0.362064
Sum of atomic charges:    0.0000000

LOEWDIN ATOMIC CHARGES
----------------------
   0 C :   -0.229081
   1 C :   -0.107873
   2 C :    0.192593
   3 C :    0.192593
   4 C :    0.022085
   5 C :    0.022085
   6 C :   -0.014400
   7 C :   -0.014400
   8 H :    0.002642
   9 H :    0.002642
  10 H :   -0.014454
  11 H :   -0.014454
  12 H :   -0.019988
  13 H :   -0.019988

  Mayer bond orders larger than 0.100000
B(  0-C ,  1-C ) :   2.1754 B(  0-C ,  2-C ) :   0.1214 B(  0-C ,  3-C ) :   0.1214
B(  0-C ,  4-C ) :   1.2451 B(  0-C ,  5-C ) :   1.2451 B(  0-C ,  6-C ) :   0.1072
B(  0-C ,  7-C ) :   0.1072 B(  0-C , 10-H ) :   0.6119 B(  0-C , 11-H ) :   0.6119
B(  1-C ,  2-C ) :   0.8058 B(  1-C ,  3-C ) :   0.8058 B(  1-C ,  4-C ) :  -0.8765
B(  1-C ,  5-C ) :  -0.8765 B(  1-C ,  8-H ) :   0.3622 B(  1-C ,  9-H ) :   0.3622
B(  1-C , 10-H ) :  -0.3602 B(  1-C , 11-H ) :  -0.3602 B(  2-C ,  3-C ) :   2.2674
B(  2-C ,  5-C ) :   0.1465 B(  2-C ,  8-H ) :   0.2712 B(  2-C ,  9-H ) :   0.2088
B(  3-C ,  4-C ) :   0.1465 B(  3-C ,  8-H ) :   0.2088 B(  3-C ,  9-H ) :   0.2712
B(  4-C ,  6-C ) :   2.1128 B(  4-C ,  7-C ) :  -0.1753 B(  4-C , 10-H ) :   0.1134
B(  4-C , 11-H ) :   0.1124 B(  5-C ,  6-C ) :  -0.1753 B(  5-C ,  7-C ) :   2.1128
B(  5-C , 10-H ) :   0.1124 B(  5-C , 11-H ) :   0.1134 B(  6-C ,  7-C ) :   1.5002
B(  6-C , 10-H ) :   0.1946 B(  6-C , 12-H ) :   0.6419 B(  7-C , 11-H ) :   0.1946
B(  7-C , 13-H ) :   0.6419

MP2 TOTAL ENERGY:     -307.383203044 Eh
FINAL SINGLE POINT ENERGY      -307.383203044200

DIPOLE MOMENT
-------------
                                X             Y             Z
Electronic contribution:     -0.00000       0.00000       3.08018
Nuclear contribution   :      0.00000       0.00000      -1.03624
                        -----------------------------------------
Total Dipole Moment    :     -0.00000       0.00000       2.04393
                        -----------------------------------------
Magnitude (a.u.)       :      2.04393
Magnitude (Debye)      :      5.19527

Rotational constants in cm-1:     0.227351     0.047677     0.039412
Rotational constants in MHz :  6815.803137  1429.308294  1181.534542

                             ****ORCA TERMINATED NORMALLY****
TOTAL RUN TIME: 0 days 0 hours 0 minutes 50 seconds 954 msec
