                         Program Version 5.0.3 -  RELEASE  -
|  1> !ri-mp2 aug-cc-pvdz aug-cc-pvdz/c tightscf
|  2> %pal nprocs 16 end
|  3>
|  4> * xyz 0 1
|  5> C      1.602438    0.009053   -0.031364
|  6> C     -1.371859    0.746330   -0.653168
|  7> C     -1.307418   -0.806205   -0.645590
|  8> C     -0.501396    1.220231    0.531175
|  9> C     -0.485334   -1.190374    0.598276
| 10> C      0.432357    0.028014    0.847230
| 11> N      2.515785   -0.006019   -0.731269
| 12> H     -0.984080    1.137519   -1.592694
| 13> H     -2.392524    1.113594   -0.555555
| 14> H     -2.295941   -1.262646   -0.625195
| 15> H     -0.810388   -1.165675   -1.546124
| 16> H      0.045306    2.137508    0.322211
| 17> H     -1.117683    1.398437    1.413455
| 18> H     -1.132932   -1.299095    1.469966
| 19> H      0.067826   -2.119975    0.478891
| 20> H      0.797203    0.060175    1.874581
| 21> *
| 22>
| 23>                          ****END OF INPUT****

CARTESIAN COORDINATES (ANGSTROEM)
---------------------------------
  C      1.602438    0.009053   -0.031364
  C     -1.371859    0.746330   -0.653168
  C     -1.307418   -0.806205   -0.645590
  C     -0.501396    1.220231    0.531175
  C     -0.485334   -1.190374    0.598276
  C      0.432357    0.028014    0.847230
  N      2.515785   -0.006019   -0.731269
  H     -0.984080    1.137519   -1.592694
  H     -2.392524    1.113594   -0.555555
  H     -2.295941   -1.262646   -0.625195
  H     -0.810388   -1.165675   -1.546124
  H      0.045306    2.137508    0.322211
  H     -1.117683    1.398437    1.413455
  H     -1.132932   -1.299095    1.469966
  H      0.067826   -2.119975    0.478891
  H      0.797203    0.060175    1.874581

 Total Charge           Charge          ....    0
 Multiplicity           Mult            ....    1
 Number of Electrons    NEL             ....   52
 Basis Dimension        Dim             ....  242

ORBITAL ENERGIES
----------------

  NO   OCC          E(Eh)            E(eV)
   0   2.0000     -15.573518      -423.7770
   1   2.0000     -11.284285      -307.0610
   2   2.0000     -11.274924      -306.8063
   3   2.0000     -11.250187      -306.1332
   4   2.0000     -11.250163      -306.1325
   5   2.0000     -11.238013      -305.8019
   6   2.0000     -11.237410      -305.7855
   7   2.0000      -1.222968       -33.2787
   8   2.0000      -1.148931       -31.2640
   9   2.0000      -1.006728       -27.3945
  10   2.0000      -0.987771       -26.8786
  11   2.0000      -0.846700       -23.0399
  12   2.0000      -0.795916       -21.6580
  13   2.0000      -0.700783       -19.0693
  14   2.0000      -0.680074       -18.5057
  15   2.0000      -0.632483       -17.2107
  16   2.0000      -0.604451       -16.4480
  17   2.0000      -0.558320       -15.1927
  18   2.0000      -0.527958       -14.3665
  19   2.0000      -0.521851       -14.2003
  20   2.0000      -0.511716       -13.9245
  21   2.0000      -0.498010       -13.5515
  22   2.0000      -0.489030       -13.3072
  23   2.0000      -0.474858       -12.9216
  24   2.0000      -0.449812       -12.2400
  25   2.0000      -0.443225       -12.0608
  26   0.0000       0.028012         0.7622
  27   0.0000       0.041049         1.1170
  28   0.0000       0.043728         1.1899
  29   0.0000       0.048386         1.3167
  30   0.0000       0.062678         1.7056

MULLIKEN ATOMIC CHARGES
-----------------------
   0 C :   -0.418782
   1 C :    0.325714
   2 C :    0.345568
   3 C :    0.641384
   4 C :    0.655615
   5 C :    0.135305
   6 N :   -0.330182
   7 H :   -0.123794
   8 H :   -0.136768
   9 H :   -0.147614
  10 H :   -0.158872
  11 H :   -0.203313
  12 H :   -0.146391
  13 H :   -0.142155
  14 H :   -0.188942
  15 H :   -0.106774
Sum of atomic charges:    0.0000000

LOEWDIN ATOMIC CHARGES
----------------------
   0 C :   -0.117585
   1 C :    0.017313
   2 C :    0.012897
   3 C :    0.028138
   4 C :    0.023674
   5 C :   -0.206524
   6 N :    0.081318
   7 H :    0.010932
   8 H :    0.007007
   9 H :    0.007808
  10 H :    0.011851
  11 H :    0.017626
  12 H :    0.018958
  13 H :    0.020918
  14 H :    0.019048
  15 H :    0.046621

  Mayer bond orders larger than 0.100000
B(  0-C ,  5-C ) :   0.3340 B(  0-C ,  6-N ) :   2.6398 B(  1-C ,  2-C ) :   1.2797
B(  1-C ,  3-C ) :   1.2345 B(  1-C ,  7-H ) :   0.7642 B(  1-C ,  8-H ) :   0.7538
B(  1-C , 10-H ) :   0.1022 B(  2-C ,  4-C ) :   1.2087 B(  2-C ,  9-H ) :   0.7788
B(  2-C , 10-H ) :   0.7516 B(  3-C ,  5-C ) :   0.9767 B(  3-C , 11-H ) :   0.7973
B(  3-C , 12-H ) :   0.6708 B(  4-C ,  5-C ) :   0.9952 B(  4-C , 13-H ) :   0.6796
B(  4-C , 14-H ) :   0.7980 B(  5-C , 12-H ) :   0.1530 B(  5-C , 13-H ) :   0.1515
B(  5-C , 15-H ) :   0.6292 B(  7-H ,  8-H ) :  -0.1476 B(  9-H , 10-H ) :  -0.1603
B( 11-H , 12-H ) :  -0.1886 B( 13-H , 14-H ) :  -0.1817

MP2 TOTAL ENERGY:     -287.943257939 Eh
FINAL SINGLE POINT ENERGY      -287.943257939385

DIPOLE MOMENT
-------------
                                X             Y             Z
Electronic contribution:      6.49893       0.01581      -0.38161
Nuclear contribution   :     -8.01483      -0.00020       1.26789
                        -----------------------------------------
Total Dipole Moment    :     -1.51591       0.01561       0.88628
                        -----------------------------------------
Magnitude (a.u.)       :      1.75605
Magnitude (Debye)      :      4.46352

Rotational constants in cm-1:     0.146181     0.072140     0.066403
Rotational constants in MHz :  4382.395183  2162.690934  1990.711728

                             ****ORCA TERMINATED NORMALLY****
TOTAL RUN TIME: 0 days 0 hours 0 minutes 59 seconds 442 msec
