                         Program Version 5.0.3 -  RELEASE  -
|  1> !ri-mp2 aug-cc-pvdz aug-cc-pvdz/c tightscf
|  2> %pal nprocs 16 end
|  3>
|  4> * xyz 0 1
|  5> C      0.000000    0.510905        0.000000
|  6> O     -0.797403    1.370426        0.000000
|  7> Cl    -0.321200   -1.202070        0.000000
|  8> F      1.315513    0.711817        0.000000
|  9> *
| 10>
| 11>                          ****END OF INPUT****

CARTESIAN COORDINATES (ANGSTROEM)
---------------------------------
  C      0.000000    0.510905    0.000000
  O     -0.797403    1.370426    0.000000
  Cl    -0.321200   -1.202070    0.000000
  F      1.315513    0.711817    0.000000

 Total Charge           Charge          ....    0
 Multiplicity           Mult            ....    1
 Number of Electrons    NEL             ....   40
 Basis Dimension        Dim             ....   96

ORBITAL ENERGIES
----------------

  NO   OCC          E(Eh)            E(eV)
   0   2.0000    -104.897093     -2854.3950
   1   2.0000     -26.391720      -718.1552
   2   2.0000     -20.636082      -561.5363
   3   2.0000     -11.516588      -313.3823
   4   2.0000     -10.623425      -289.0781
   5   2.0000      -8.091196      -220.1726
   6   2.0000      -8.087514      -220.0724
   7   2.0000      -8.087250      -220.0653
   8   2.0000      -1.714027       -46.6410
   9   2.0000      -1.488163       -40.4950
  10   2.0000      -1.185330       -32.2545
  11   2.0000      -0.904292       -24.6070
  12   2.0000      -0.786829       -21.4107
  13   2.0000      -0.770176       -20.9576
  14   2.0000      -0.761309       -20.7163
  15   2.0000      -0.656844       -17.8736
  16   2.0000      -0.603348       -16.4179
  17   2.0000      -0.543883       -14.7998
  18   2.0000      -0.508498       -13.8369
  19   2.0000      -0.503904       -13.7119
  20   0.0000       0.059579         1.6212
  21   0.0000       0.085356         2.3227
  22   0.0000       0.095405         2.5961
  23   0.0000       0.099677         2.7124
  24   0.0000       0.116360         3.1663

MULLIKEN ATOMIC CHARGES
-----------------------
   0 C :    0.828422
   1 O :   -0.392812
   2 Cl:    0.002610
   3 F :   -0.438220
Sum of atomic charges:   -0.0000000

LOEWDIN ATOMIC CHARGES
----------------------
   0 C :   -0.641520
   1 O :    0.041830
   2 Cl:    0.560052
   3 F :    0.039638

  Mayer bond orders larger than 0.100000
B(  0-C ,  1-O ) :   1.8313 B(  0-C ,  2-Cl) :   1.0805 B(  0-C ,  3-F ) :   0.6423

MP2 TOTAL ENERGY:     -672.372065906 Eh
FINAL SINGLE POINT ENERGY      -672.372065905921

DIPOLE MOMENT
-------------
                                X             Y             Z
Electronic contribution:      0.95986      -1.49821       0.00000
Nuclear contribution   :     -0.77639       0.94597       0.00000
                        -----------------------------------------
Total Dipole Moment    :      0.18347      -0.55225       0.00000
                        -----------------------------------------
Magnitude (a.u.)       :      0.58192
Magnitude (Debye)      :      1.47913

Rotational constants in cm-1:     0.393272     0.172266     0.119793
Rotational constants in MHz : 11789.983597  5164.402210  3591.295965

                             ****ORCA TERMINATED NORMALLY****
TOTAL RUN TIME: 0 days 0 hours 0 minutes 28 seconds 327 msec
