                         Program Version 5.0.3 -  RELEASE  -
|  1> !ri-mp2 aug-cc-pvdz aug-cc-pvdz/c tightscf
|  2> %pal nprocs 16 end
|  3>
|  4> * xyz 0 1
|  5> Cl     0.000000    0.000000    0.978264
|  6> C      0.000000    0.000000   -0.658524
|  7> N      0.000000    0.000000   -1.811335
|  8> *
|  9>
| 10>                          ****END OF INPUT****

CARTESIAN COORDINATES (ANGSTROEM)
---------------------------------
  Cl     0.000000    0.000000    0.978264
  C      0.000000    0.000000   -0.658524
  N      0.000000    0.000000   -1.811335

 Total Charge           Charge          ....    0
 Multiplicity           Mult            ....    1
 Number of Electrons    NEL             ....   30
 Basis Dimension        Dim             ....   73

ORBITAL ENERGIES
----------------

  NO   OCC          E(Eh)            E(eV)
   0   2.0000    -104.934227     -2855.4055
   1   2.0000     -15.617118      -424.9634
   2   2.0000     -11.355812      -309.0074
   3   2.0000     -10.659017      -290.0466
   4   2.0000      -8.127263      -221.1541
   5   2.0000      -8.122882      -221.0348
   6   2.0000      -8.122882      -221.0348
   7   2.0000      -1.279167       -34.8079
   8   2.0000      -1.200435       -32.6655
   9   2.0000      -0.756057       -20.5733
  10   2.0000      -0.599921       -16.3247
  11   2.0000      -0.599921       -16.3247
  12   2.0000      -0.587954       -15.9990
  13   2.0000      -0.469100       -12.7649
  14   2.0000      -0.469100       -12.7649
  15   0.0000       0.047948         1.3047
  16   0.0000       0.085372         2.3231
  17   0.0000       0.106453         2.8967
  18   0.0000       0.106453         2.8967
  19   0.0000       0.124602         3.3906

MULLIKEN ATOMIC CHARGES
-----------------------
   0 Cl:    0.228122
   1 C :   -0.025826
   2 N :   -0.202296
Sum of atomic charges:   -0.0000000

LOEWDIN ATOMIC CHARGES
----------------------
   0 Cl:    0.651235
   1 C :   -0.647237
   2 N :   -0.003998

  Mayer bond orders larger than 0.100000
B(  0-Cl,  1-C ) :   1.0802 B(  1-C ,  2-N ) :   2.5784

MP2 TOTAL ENERGY:     -552.232212238 Eh
FINAL SINGLE POINT ENERGY      -552.232212238312

DIPOLE MOMENT
-------------
                                X             Y             Z
Electronic contribution:     -0.00000      -0.00000       2.49211
Nuclear contribution   :      0.00000       0.00000      -1.29253
                        -----------------------------------------
Total Dipole Moment    :     -0.00000      -0.00000       1.19958
                        -----------------------------------------
Magnitude (a.u.)       :      1.19958
Magnitude (Debye)      :      3.04908

Rotational constants in cm-1:     0.000000     0.198182     0.198182
Rotational constants in MHz :     0.000000  5941.359671  5941.359671

                             ****ORCA TERMINATED NORMALLY****
TOTAL RUN TIME: 0 days 0 hours 0 minutes 29 seconds 546 msec
