                         Program Version 5.0.3 -  RELEASE  -
|  1> !ri-mp2 aug-cc-pvdz aug-cc-pvdz/c tightscf
|  2> %pal nprocs 16 end
|  3>
|  4> * xyz 0 1
|  5> C     -2.749597   -0.147991    0.000003
|  6> C     -1.333822    0.314316    0.000006
|  7> C     -0.264018   -0.479484   -0.000015
|  8> C      1.099386    0.081029   -0.000004
|  9> O      1.398388    1.251758   -0.000006
| 10> O      2.037208   -0.903645    0.000010
| 11> H     -2.827857   -1.234217   -0.000022
| 12> H     -3.278292    0.239886    0.874582
| 13> H     -3.278303    0.239927   -0.874551
| 14> H     -1.161440    1.385990    0.000028
| 15> H     -0.351243   -1.557948   -0.000032
| 16> H      2.900674   -0.465762    0.000017
| 17> *
| 18>
| 19>                          ****END OF INPUT****

CARTESIAN COORDINATES (ANGSTROEM)
---------------------------------
  C     -2.749597   -0.147991    0.000003
  C     -1.333822    0.314316    0.000006
  C     -0.264018   -0.479484   -0.000015
  C      1.099386    0.081029   -0.000004
  O      1.398388    1.251758   -0.000006
  O      2.037208   -0.903645    0.000010
  H     -2.827857   -1.234217   -0.000022
  H     -3.278292    0.239886    0.874582
  H     -3.278303    0.239927   -0.874551
  H     -1.161440    1.385990    0.000028
  H     -0.351243   -1.557948   -0.000032
  H      2.900674   -0.465762    0.000017

 Total Charge           Charge          ....    0
 Multiplicity           Mult            ....    1
 Number of Electrons    NEL             ....   46
 Basis Dimension        Dim             ....  192

ORBITAL ENERGIES
----------------

  NO   OCC          E(Eh)            E(eV)
   0   2.0000     -20.617369      -561.0271
   1   2.0000     -20.552104      -559.2512
   2   2.0000     -11.393249      -310.0261
   3   2.0000     -11.274827      -306.8036
   4   2.0000     -11.248932      -306.0990
   5   2.0000     -11.247174      -306.0512
   6   2.0000      -1.462654       -39.8008
   7   2.0000      -1.359103       -36.9831
   8   2.0000      -1.105407       -30.0796
   9   2.0000      -0.988692       -26.9037
  10   2.0000      -0.867784       -23.6136
  11   2.0000      -0.758444       -20.6383
  12   2.0000      -0.707222       -19.2445
  13   2.0000      -0.699419       -19.0322
  14   2.0000      -0.627218       -17.0675
  15   2.0000      -0.613024       -16.6812
  16   2.0000      -0.601207       -16.3597
  17   2.0000      -0.585817       -15.9409
  18   2.0000      -0.554062       -15.0768
  19   2.0000      -0.525250       -14.2928
  20   2.0000      -0.485103       -13.2003
  21   2.0000      -0.451322       -12.2811
  22   2.0000      -0.382941       -10.4204
  23   0.0000       0.032892         0.8950
  24   0.0000       0.041966         1.1419
  25   0.0000       0.049175         1.3381
  26   0.0000       0.055602         1.5130
  27   0.0000       0.062604         1.7035

MULLIKEN ATOMIC CHARGES
-----------------------
   0 C :    0.274810
   1 C :    0.210330
   2 C :    0.787443
   3 C :    0.806335
   4 O :   -0.786459
   5 O :   -0.745623
   6 H :   -0.112501
   7 H :    0.084709
   8 H :    0.084709
   9 H :   -0.423507
  10 H :   -0.425667
  11 H :    0.245422
Sum of atomic charges:   -0.0000000

LOEWDIN ATOMIC CHARGES
----------------------
   0 C :    0.152801
   1 C :    0.002723
   2 C :    0.032165
   3 C :   -0.363474
   4 O :    0.026677
   5 O :    0.190509
   6 H :   -0.013313
   7 H :   -0.008757
   8 H :   -0.008758
   9 H :    0.014900
  10 H :   -0.002038
  11 H :   -0.023436

  Mayer bond orders larger than 0.100000
B(  0-C ,  1-C ) :   1.3004 B(  0-C ,  6-H ) :   0.9620 B(  0-C ,  7-H ) :   0.8748
B(  0-C ,  8-H ) :   0.8748 B(  1-C ,  2-C ) :   2.0099 B(  1-C ,  7-H ) :   0.1078
B(  1-C ,  8-H ) :   0.1078 B(  1-C ,  9-H ) :   0.6677 B(  1-C , 10-H ) :   0.1148
B(  2-C ,  3-C ) :   0.5799 B(  2-C ,  5-O ) :   0.1254 B(  2-C ,  9-H ) :   0.1393
B(  2-C , 10-H ) :   0.5392 B(  3-C ,  4-O ) :   1.4196 B(  3-C ,  5-O ) :   0.4081
B(  4-O ,  5-O ) :   0.1158 B(  5-O , 11-H ) :   0.9739

MP2 TOTAL ENERGY:     -305.684562096 Eh
FINAL SINGLE POINT ENERGY      -305.684562095635

DIPOLE MOMENT
-------------
                                X             Y             Z
Electronic contribution:      7.22159       0.85006      -0.00001
Nuclear contribution   :     -7.97010      -1.39149       0.00002
                        -----------------------------------------
Total Dipole Moment    :     -0.74852      -0.54143       0.00001
                        -----------------------------------------
Magnitude (a.u.)       :      0.92381
Magnitude (Debye)      :      2.34814

Rotational constants in cm-1:     0.335840     0.063440     0.053886
Rotational constants in MHz : 10068.219343  1901.882021  1615.469298

                             ****ORCA TERMINATED NORMALLY****
TOTAL RUN TIME: 0 days 0 hours 0 minutes 35 seconds 403 msec
