                         Program Version 5.0.3 -  RELEASE  -
|  1> !ri-mp2 aug-cc-pvdz aug-cc-pvdz/c tightscf
|  2> %pal nprocs 16 end
|  3>
|  4> * xyz 0 1
|  5> C     -0.252782   -1.416887    0.679421
|  6> C     -0.252782   -1.416887   -0.679421
|  7> C      0.246301   -0.359998    1.524391
|  8> C      0.246301   -0.359998   -1.524391
|  9> C      0.246301    0.949673    1.219657
| 10> C      0.246301    0.949673   -1.219657
| 11> C     -0.452117    1.486050    0.000000
| 12> H     -0.530553   -2.340484    1.174711
| 13> H     -0.530553   -2.340484   -1.174711
| 14> H      0.673266   -0.666831    2.473189
| 15> H      0.673266   -0.666831   -2.473189
| 16> H      0.749061    1.649053    1.876836
| 17> H      0.749061    1.649053   -1.876836
| 18> H     -1.495770    1.152463    0.000000
| 19> H     -0.452905    2.574307    0.000000
| 20> *
| 21>
| 22>                          ****END OF INPUT****

CARTESIAN COORDINATES (ANGSTROEM)
---------------------------------
  C     -0.252782   -1.416887    0.679421
  C     -0.252782   -1.416887   -0.679421
  C      0.246301   -0.359998    1.524391
  C      0.246301   -0.359998   -1.524391
  C      0.246301    0.949673    1.219657
  C      0.246301    0.949673   -1.219657
  C     -0.452117    1.486050    0.000000
  H     -0.530553   -2.340484    1.174711
  H     -0.530553   -2.340484   -1.174711
  H      0.673266   -0.666831    2.473189
  H      0.673266   -0.666831   -2.473189
  H      0.749061    1.649053    1.876836
  H      0.749061    1.649053   -1.876836
  H     -1.495770    1.152463    0.000000
  H     -0.452905    2.574307    0.000000

 Total Charge           Charge          ....    0
 Multiplicity           Mult            ....    1
 Number of Electrons    NEL             ....   50
 Basis Dimension        Dim             ....  233

ORBITAL ENERGIES
----------------

  NO   OCC          E(Eh)            E(eV)
   0   2.0000     -11.243216      -305.9435
   1   2.0000     -11.243181      -305.9425
   2   2.0000     -11.241478      -305.8962
   3   2.0000     -11.240025      -305.8566
   4   2.0000     -11.236544      -305.7619
   5   2.0000     -11.232136      -305.6419
   6   2.0000     -11.232132      -305.6418
   7   2.0000      -1.136645       -30.9297
   8   2.0000      -1.043597       -28.3977
   9   2.0000      -1.039974       -28.2991
  10   2.0000      -0.905399       -24.6372
  11   2.0000      -0.859538       -23.3892
  12   2.0000      -0.736068       -20.0294
  13   2.0000      -0.695799       -18.9337
  14   2.0000      -0.690535       -18.7904
  15   2.0000      -0.617884       -16.8135
  16   2.0000      -0.615670       -16.7532
  17   2.0000      -0.588415       -16.0116
  18   2.0000      -0.530062       -14.4237
  19   2.0000      -0.526599       -14.3295
  20   2.0000      -0.503442       -13.6994
  21   2.0000      -0.485468       -13.2103
  22   2.0000      -0.437015       -11.8918
  23   2.0000      -0.351537        -9.5658
  24   2.0000      -0.302511        -8.2317
  25   0.0000       0.035371         0.9625
  26   0.0000       0.041087         1.1180
  27   0.0000       0.043630         1.1872
  28   0.0000       0.052722         1.4346
  29   0.0000       0.056978         1.5505

MULLIKEN ATOMIC CHARGES
-----------------------
   0 C :    0.165489
   1 C :    0.165489
   2 C :    0.432393
   3 C :    0.432393
   4 C :    0.573057
   5 C :    0.573057
   6 C :    0.360133
   7 H :   -0.443489
   8 H :   -0.443489
   9 H :   -0.454356
  10 H :   -0.454356
  11 H :   -0.406823
  12 H :   -0.406823
  13 H :    0.009661
  14 H :   -0.102335
Sum of atomic charges:   -0.0000000

LOEWDIN ATOMIC CHARGES
----------------------
   0 C :   -0.002727
   1 C :   -0.002727
   2 C :   -0.019307
   3 C :   -0.019307
   4 C :    0.029213
   5 C :    0.029213
   6 C :   -0.034687
   7 H :   -0.003433
   8 H :   -0.003433
   9 H :   -0.001668
  10 H :   -0.001668
  11 H :   -0.003449
  12 H :   -0.003449
  13 H :    0.025119
  14 H :    0.012309

  Mayer bond orders larger than 0.100000
B(  0-C ,  1-C ) :   2.0899 B(  0-C ,  2-C ) :   1.4655 B(  0-C ,  4-C ) :  -0.1141
B(  0-C ,  7-H ) :   0.4674 B(  0-C ,  8-H ) :   0.1844 B(  0-C ,  9-H ) :   0.2779
B(  1-C ,  3-C ) :   1.4655 B(  1-C ,  5-C ) :  -0.1141 B(  1-C ,  7-H ) :   0.1844
B(  1-C ,  8-H ) :   0.4674 B(  1-C , 10-H ) :   0.2779 B(  2-C ,  3-C ) :   0.1128
B(  2-C ,  4-C ) :   1.9355 B(  2-C ,  9-H ) :   0.4572 B(  2-C , 11-H ) :   0.2242
B(  3-C ,  5-C ) :   1.9355 B(  3-C , 10-H ) :   0.4572 B(  3-C , 12-H ) :   0.2242
B(  4-C ,  5-C ) :   0.2669 B(  4-C ,  6-C ) :   1.0965 B(  4-C , 11-H ) :   0.5847
B(  5-C ,  6-C ) :   1.0965 B(  5-C , 12-H ) :   0.5847 B(  6-C , 11-H ) :  -0.1123
B(  6-C , 12-H ) :  -0.1123 B(  6-C , 13-H ) :   0.8706 B(  6-C , 14-H ) :   0.6375

MP2 TOTAL ENERGY:     -270.674234211 Eh
FINAL SINGLE POINT ENERGY      -270.674234210902

DIPOLE MOMENT
-------------
                                X             Y             Z
Electronic contribution:      0.21298      -0.87932       0.00000
Nuclear contribution   :     -0.16829       1.02957       0.00000
                        -----------------------------------------
Total Dipole Moment    :      0.04469       0.15025       0.00000
                        -----------------------------------------
Magnitude (a.u.)       :      0.15676
Magnitude (Debye)      :      0.39845

Rotational constants in cm-1:     0.123410     0.123105     0.067415
Rotational constants in MHz :  3699.724860  3690.591503  2021.061337

                             ****ORCA TERMINATED NORMALLY****
TOTAL RUN TIME: 0 days 0 hours 1 minutes 0 seconds 954 msec
