                         Program Version 5.0.3 -  RELEASE  -
|  1> !ri-mp2 aug-cc-pvdz aug-cc-pvdz/c tightscf
|  2> %pal nprocs 16 end
|  3> %maxcore 3800
|  4>
|  5> * xyz 0 1
|  6> C      1.927322    0.636513   -0.258294
|  7> C      1.743892   -0.637759    0.593827
|  8> C      0.967529    1.802826    0.029936
|  9> C      1.010427   -1.805008   -0.082822
| 10> C     -0.389151   -1.492307   -0.630603
| 11> C     -2.508959   -0.040026   -0.047710
| 12> C     -1.316135    0.696622    0.507138
| 13> C     -1.283474   -0.807165    0.375253
| 14> C     -0.501762    1.619138   -0.377467
| 15> H      1.877073    0.382557   -1.322304
| 16> H      2.940001    1.013596   -0.097779
| 17> H      1.232847   -0.376497    1.523302
| 18> H      2.727826   -1.006927    0.892208
| 19> H      1.350022    2.683406   -0.493672
| 20> H      1.017205    2.045069    1.097068
| 21> H      0.931656   -2.621757    0.641307
| 22> H      1.627908   -2.187488   -0.901162
| 23> H     -0.854124   -2.427139   -0.957440
| 24> H     -2.696494    0.053458   -1.110254
| 25> H     -1.427595    1.064908    1.521416
| 26> H     -0.986303    2.600318   -0.368695
| 27> H     -0.546416    1.282133   -1.416116
| 28> H     -3.404364   -0.117946    0.553456
| 29> H     -0.305848   -0.875995   -1.527448
| 30> H     -1.381530   -1.348693    1.310563
| 31> *
| 32>
| 33>                          ****END OF INPUT****

CARTESIAN COORDINATES (ANGSTROEM)
---------------------------------
  C      1.927322    0.636513   -0.258294
  C      1.743892   -0.637759    0.593827
  C      0.967529    1.802826    0.029936
  C      1.010427   -1.805008   -0.082822
  C     -0.389151   -1.492307   -0.630603
  C     -2.508959   -0.040026   -0.047710
  C     -1.316135    0.696622    0.507138
  C     -1.283474   -0.807165    0.375253
  C     -0.501762    1.619138   -0.377467
  H      1.877073    0.382557   -1.322304
  H      2.940001    1.013596   -0.097779
  H      1.232847   -0.376497    1.523302
  H      2.727826   -1.006927    0.892208
  H      1.350022    2.683406   -0.493672
  H      1.017205    2.045069    1.097068
  H      0.931656   -2.621757    0.641307
  H      1.627908   -2.187488   -0.901162
  H     -0.854124   -2.427139   -0.957440
  H     -2.696494    0.053458   -1.110254
  H     -1.427595    1.064908    1.521416
  H     -0.986303    2.600318   -0.368695
  H     -0.546416    1.282133   -1.416116
  H     -3.404364   -0.117946    0.553456
  H     -0.305848   -0.875995   -1.527448
  H     -1.381530   -1.348693    1.310563

 Total Charge           Charge          ....    0
 Multiplicity           Mult            ....    1
 Number of Electrons    NEL             ....   70
 Basis Dimension        Dim             ....  351

ORBITAL ENERGIES
----------------

  NO   OCC          E(Eh)            E(eV)
   0   2.0000     -11.225580      -305.4636
   1   2.0000     -11.224773      -305.4416
   2   2.0000     -11.220662      -305.3297
   3   2.0000     -11.219081      -305.2867
   4   2.0000     -11.218968      -305.2836
   5   2.0000     -11.218700      -305.2763
   6   2.0000     -11.217819      -305.2524
   7   2.0000     -11.217497      -305.2436
   8   2.0000     -11.215294      -305.1837
   9   2.0000      -1.151888       -31.3445
  10   2.0000      -1.072893       -29.1949
  11   2.0000      -1.042093       -28.3568
  12   2.0000      -0.957304       -26.0496
  13   2.0000      -0.913121       -24.8473
  14   2.0000      -0.824981       -22.4489
  15   2.0000      -0.793891       -21.6029
  16   2.0000      -0.778923       -21.1956
  17   2.0000      -0.724290       -19.7089
  18   2.0000      -0.667399       -18.1609
  19   2.0000      -0.628179       -17.0936
  20   2.0000      -0.621465       -16.9109
  21   2.0000      -0.590136       -16.0584
  22   2.0000      -0.578608       -15.7447
  23   2.0000      -0.565170       -15.3791
  24   2.0000      -0.543887       -14.7999
  25   2.0000      -0.519788       -14.1442
  26   2.0000      -0.503705       -13.7065
  27   2.0000      -0.494001       -13.4425
  28   2.0000      -0.476910       -12.9774
  29   2.0000      -0.474867       -12.9218
  30   2.0000      -0.448644       -12.2082
  31   2.0000      -0.445756       -12.1296
  32   2.0000      -0.435393       -11.8476
  33   2.0000      -0.389236       -10.5917
  34   2.0000      -0.382332       -10.4038
  35   0.0000       0.036645         0.9972
  36   0.0000       0.041167         1.1202
  37   0.0000       0.041464         1.1283
  38   0.0000       0.043216         1.1760
  39   0.0000       0.057404         1.5620

MULLIKEN ATOMIC CHARGES
-----------------------
   0 C :    0.429047
   1 C :    0.495442
   2 C :    0.307462
   3 C :    0.300873
   4 C :    0.103222
   5 C :    1.099597
   6 C :    0.321345
   7 C :    0.448556
   8 C :    0.220038
   9 H :   -0.187841
  10 H :   -0.185623
  11 H :   -0.153426
  12 H :   -0.173222
  13 H :   -0.132610
  14 H :   -0.160301
  15 H :   -0.121752
  16 H :   -0.110345
  17 H :   -0.150699
  18 H :   -0.387124
  19 H :   -0.529200
  20 H :   -0.170718
  21 H :   -0.132259
  22 H :   -0.412381
  23 H :   -0.134355
  24 H :   -0.583726
Sum of atomic charges:    0.0000000

LOEWDIN ATOMIC CHARGES
----------------------
   0 C :   -0.010161
   1 C :   -0.013074
   2 C :   -0.020811
   3 C :   -0.021911
   4 C :   -0.002367
   5 C :    0.097937
   6 C :   -0.129682
   7 C :   -0.133733
   8 C :   -0.001283
   9 H :    0.014196
  10 H :    0.008271
  11 H :    0.011214
  12 H :    0.009386
  13 H :    0.012349
  14 H :    0.016907
  15 H :    0.015171
  16 H :    0.015601
  17 H :    0.021105
  18 H :    0.005664
  19 H :    0.033901
  20 H :    0.019851
  21 H :    0.011719
  22 H :   -0.002289
  23 H :    0.006035
  24 H :    0.036002

  Mayer bond orders larger than 0.100000
B(  0-C ,  1-C ) :   1.1942 B(  0-C ,  2-C ) :   1.2922 B(  0-C ,  9-H ) :   0.8164
B(  0-C , 10-H ) :   0.8136 B(  0-C , 11-H ) :  -0.1246 B(  1-C ,  3-C ) :   1.2805
B(  1-C ,  9-H ) :  -0.1200 B(  1-C , 11-H ) :   0.7508 B(  1-C , 12-H ) :   0.7549
B(  2-C ,  5-C ) :   0.1019 B(  2-C ,  8-C ) :   1.2261 B(  2-C , 13-H ) :   0.7538
B(  2-C , 14-H ) :   0.7597 B(  3-C ,  4-C ) :   1.3034 B(  3-C , 15-H ) :   0.7610
B(  3-C , 16-H ) :   0.7552 B(  4-C ,  7-C ) :   1.1522 B(  4-C ,  9-H ) :   0.1077
B(  4-C , 17-H ) :   0.7442 B(  4-C , 23-H ) :   0.6751 B(  5-C ,  6-C ) :   1.0148
B(  5-C ,  7-C ) :   1.0168 B(  5-C , 18-H ) :   0.5949 B(  5-C , 22-H ) :   0.4976
B(  6-C ,  7-C ) :   0.8558 B(  6-C ,  8-C ) :   1.2255 B(  6-C , 19-H ) :   0.3479
B(  6-C , 21-H ) :   0.1449 B(  6-C , 22-H ) :   0.1510 B(  6-C , 24-H ) :   0.1057
B(  7-C , 22-H ) :   0.1502 B(  7-C , 23-H ) :   0.1782 B(  7-C , 24-H ) :   0.3053
B(  8-C , 20-H ) :   0.6907 B(  8-C , 21-H ) :   0.7549 B(  9-H , 10-H ) :  -0.1619
B( 11-H , 12-H ) :  -0.1700 B( 13-H , 14-H ) :  -0.1520 B( 15-H , 16-H ) :  -0.1494
B( 17-H , 23-H ) :  -0.1760 B( 18-H , 22-H ) :  -0.1892 B( 20-H , 21-H ) :  -0.1660

MP2 TOTAL ENERGY:     -351.455770117 Eh
FINAL SINGLE POINT ENERGY      -351.455770117467

DIPOLE MOMENT
-------------
                                X             Y             Z
Electronic contribution:     -2.16703      -0.15798       0.71633
Nuclear contribution   :      2.22433       0.17250      -0.69375
                        -----------------------------------------
Total Dipole Moment    :      0.05730       0.01452       0.02258
                        -----------------------------------------
Magnitude (a.u.)       :      0.06327
Magnitude (Debye)      :      0.16083

Rotational constants in cm-1:     0.070635     0.053762     0.034970
Rotational constants in MHz :  2117.580178  1611.756988  1048.360863

                             ****ORCA TERMINATED NORMALLY****
TOTAL RUN TIME: 0 days 0 hours 2 minutes 6 seconds 565 msec
