                         Program Version 5.0.3 -  RELEASE  -
|  1> !ri-mp2 aug-cc-pvdz aug-cc-pvdz/c tightscf
|  2> %pal nprocs 16 end
|  3>
|  4> * xyz 0 1
|  5> C     0.000000     0.667446    0.812417
|  6> C     0.000000    -0.667446    0.812417
|  7> C     0.000000     0.784886   -0.698476
|  8> C     0.000000    -0.784886   -0.698476
|  9> H     0.000000     1.411038    1.598258
| 10> H     0.000000    -1.411038    1.598258
| 11> H     0.886543     1.242452   -1.140953
| 12> H    -0.886543    -1.242452   -1.140953
| 13> H    -0.886543     1.242452   -1.140953
| 14> H     0.886543    -1.242452   -1.140953
| 15> *
| 16>
| 17>                          ****END OF INPUT****

CARTESIAN COORDINATES (ANGSTROEM)
---------------------------------
  C      0.000000    0.667446    0.812417
  C      0.000000   -0.667446    0.812417
  C      0.000000    0.784886   -0.698476
  C      0.000000   -0.784886   -0.698476
  H      0.000000    1.411038    1.598258
  H      0.000000   -1.411038    1.598258
  H      0.886543    1.242452   -1.140953
  H     -0.886543   -1.242452   -1.140953
  H     -0.886543    1.242452   -1.140953
  H      0.886543   -1.242452   -1.140953

 Total Charge           Charge          ....    0
 Multiplicity           Mult            ....    1
 Number of Electrons    NEL             ....   30
 Basis Dimension        Dim             ....  146

ORBITAL ENERGIES
----------------

  NO   OCC          E(Eh)            E(eV)
   0   2.0000     -11.232931      -305.6636
   1   2.0000     -11.231402      -305.6220
   2   2.0000     -11.231316      -305.6196
   3   2.0000     -11.230694      -305.6027
   4   2.0000      -1.148101       -31.2414
   5   2.0000      -0.899257       -24.4700
   6   2.0000      -0.878033       -23.8925
   7   2.0000      -0.707714       -19.2579
   8   2.0000      -0.674813       -18.3626
   9   2.0000      -0.622008       -16.9257
  10   2.0000      -0.533062       -14.5053
  11   2.0000      -0.505228       -13.7480
  12   2.0000      -0.462130       -12.5752
  13   2.0000      -0.454880       -12.3779
  14   2.0000      -0.350337        -9.5332
  15   0.0000       0.038547         1.0489
  16   0.0000       0.045801         1.2463
  17   0.0000       0.048618         1.3230
  18   0.0000       0.053196         1.4475
  19   0.0000       0.065659         1.7867

MULLIKEN ATOMIC CHARGES
-----------------------
   0 C :    0.091487
   1 C :    0.091487
   2 C :    0.445027
   3 C :    0.445027
   4 H :   -0.217454
   5 H :   -0.217454
   6 H :   -0.159530
   7 H :   -0.159530
   8 H :   -0.159530
   9 H :   -0.159530
Sum of atomic charges:   -0.0000000

LOEWDIN ATOMIC CHARGES
----------------------
   0 C :    0.022579
   1 C :    0.022579
   2 C :    0.006430
   3 C :    0.006430
   4 H :   -0.021373
   5 H :   -0.021373
   6 H :   -0.003817
   7 H :   -0.003817
   8 H :   -0.003817
   9 H :   -0.003817

  Mayer bond orders larger than 0.100000
B(  0-C ,  1-C ) :   2.3329 B(  0-C ,  2-C ) :   1.1998 B(  0-C ,  3-C ) :  -0.1163
B(  0-C ,  4-H ) :   0.7307 B(  0-C ,  5-H ) :   0.1462 B(  1-C ,  2-C ) :  -0.1163
B(  1-C ,  3-C ) :   1.1998 B(  1-C ,  4-H ) :   0.1462 B(  1-C ,  5-H ) :   0.7307
B(  2-C ,  3-C ) :   1.1693 B(  2-C ,  6-H ) :   0.8292 B(  2-C ,  8-H ) :   0.8292
B(  3-C ,  7-H ) :   0.8292 B(  3-C ,  9-H ) :   0.8292 B(  6-H ,  8-H ) :  -0.1284
B(  7-H ,  9-H ) :  -0.1284

MP2 TOTAL ENERGY:     -155.477728315 Eh
FINAL SINGLE POINT ENERGY      -155.477728314816

DIPOLE MOMENT
-------------
                                X             Y             Z
Electronic contribution:      0.00000       0.00000       1.38177
Nuclear contribution   :      0.00000       0.00000      -1.42417
                        -----------------------------------------
Total Dipole Moment    :      0.00000       0.00000      -0.04240
                        -----------------------------------------
Magnitude (a.u.)       :      0.04240
Magnitude (Debye)      :      0.10777

Rotational constants in cm-1:     0.433279     0.410082     0.228804
Rotational constants in MHz : 12989.382311 12293.961324  6859.383718

                             ****ORCA TERMINATED NORMALLY****
TOTAL RUN TIME: 0 days 0 hours 0 minutes 34 seconds 832 msec
