                         Program Version 5.0.3 -  RELEASE  -
|  1> !ri-mp2 aug-cc-pvdz aug-cc-pvdz/c tightscf
|  2> %pal nprocs 16 end
|  3> %maxcore 3800
|  4>
|  5> * xyz 0 1
|  6> C    -1.366891    0.474228   -0.146969
|  7> C     0.275353   -1.434457   -0.131432
|  8> C     1.099759    0.948113   -0.139858
|  9> C    -1.098479   -0.958309    0.321858
| 10> C    -0.269625    1.432558    0.319250
| 11> C     1.373754   -0.482882    0.325882
| 12> O    -2.056536   -1.879394   -0.204100
| 13> O    -0.446869    2.750757   -0.204758
| 14> O     2.605127   -0.984857   -0.196602
| 15> H    -1.412028    0.488864   -1.238475
| 16> H    -2.339459    0.812617    0.226852
| 17> H     0.466279   -2.436160    0.253202
| 18> H     0.288581   -1.495060   -1.222313
| 19> H     1.141058    0.982010   -1.231171
| 20> H     1.867909    1.627151    0.238193
| 21> H    -1.139106   -0.987591    1.419260
| 22> H    -0.278931    1.479268    1.416737
| 23> H     1.418949   -0.497589    1.423644
| 24> H    -2.934028   -1.628557    0.100071
| 25> H    -1.297930    3.093159    0.085131
| 26> H     3.321704   -0.405651    0.080163
| 27> *
| 28>
| 29>                          ****END OF INPUT****

CARTESIAN COORDINATES (ANGSTROEM)
---------------------------------
  C     -1.366891    0.474228   -0.146969
  C      0.275353   -1.434457   -0.131432
  C      1.099759    0.948113   -0.139858
  C     -1.098479   -0.958309    0.321858
  C     -0.269625    1.432558    0.319250
  C      1.373754   -0.482882    0.325882
  O     -2.056536   -1.879394   -0.204100
  O     -0.446869    2.750757   -0.204758
  O      2.605127   -0.984857   -0.196602
  H     -1.412028    0.488864   -1.238475
  H     -2.339459    0.812617    0.226852
  H      0.466279   -2.436160    0.253202
  H      0.288581   -1.495060   -1.222313
  H      1.141058    0.982010   -1.231171
  H      1.867909    1.627151    0.238193
  H     -1.139106   -0.987591    1.419260
  H     -0.278931    1.479268    1.416737
  H      1.418949   -0.497589    1.423644
  H     -2.934028   -1.628557    0.100071
  H     -1.297930    3.093159    0.085131
  H      3.321704   -0.405651    0.080163

 Total Charge           Charge          ....    0
 Multiplicity           Mult            ....    1
 Number of Electrons    NEL             ....   72
 Basis Dimension        Dim             ....  315

ORBITAL ENERGIES
----------------

  NO   OCC          E(Eh)            E(eV)
   0   2.0000     -20.573998      -559.8470
   1   2.0000     -20.571325      -559.7742
   2   2.0000     -20.568311      -559.6922
   3   2.0000     -11.295740      -307.3727
   4   2.0000     -11.293145      -307.3021
   5   2.0000     -11.290137      -307.2203
   6   2.0000     -11.234315      -305.7013
   7   2.0000     -11.228727      -305.5492
   8   2.0000     -11.222989      -305.3931
   9   2.0000      -1.370781       -37.3009
  10   2.0000      -1.366586       -37.1867
  11   2.0000      -1.363627       -37.1062
  12   2.0000      -1.113006       -30.2864
  13   2.0000      -1.005069       -27.3493
  14   2.0000      -1.002169       -27.2704
  15   2.0000      -0.849811       -23.1245
  16   2.0000      -0.835804       -22.7434
  17   2.0000      -0.778743       -21.1907
  18   2.0000      -0.710429       -19.3318
  19   2.0000      -0.695455       -18.9243
  20   2.0000      -0.684618       -18.6294
  21   2.0000      -0.657937       -17.9034
  22   2.0000      -0.642149       -17.4738
  23   2.0000      -0.613654       -16.6984
  24   2.0000      -0.573113       -15.5952
  25   2.0000      -0.569500       -15.4969
  26   2.0000      -0.556558       -15.1447
  27   2.0000      -0.544384       -14.8134
  28   2.0000      -0.530660       -14.4400
  29   2.0000      -0.514505       -14.0004
  30   2.0000      -0.479352       -13.0438
  31   2.0000      -0.472236       -12.8502
  32   2.0000      -0.469729       -12.7820
  33   2.0000      -0.458493       -12.4762
  34   2.0000      -0.437073       -11.8934
  35   2.0000      -0.428477       -11.6594
  36   0.0000       0.028085         0.7642
  37   0.0000       0.037566         1.0222
  38   0.0000       0.042927         1.1681
  39   0.0000       0.045869         1.2481
  40   0.0000       0.059392         1.6161

MULLIKEN ATOMIC CHARGES
-----------------------
   0 C :    0.312704
   1 C :    0.146716
   2 C :    0.218378
   3 C :    0.762984
   4 C :    0.652624
   5 C :    0.881875
   6 O :   -0.835775
   7 O :   -0.824844
   8 O :   -0.849083
   9 H :    0.028869
  10 H :   -0.150297
  11 H :   -0.041381
  12 H :    0.025918
  13 H :    0.028094
  14 H :   -0.100545
  15 H :   -0.206782
  16 H :   -0.200426
  17 H :   -0.207920
  18 H :    0.118603
  19 H :    0.114617
  20 H :    0.125672
Sum of atomic charges:   -0.0000000

LOEWDIN ATOMIC CHARGES
----------------------
   0 C :    0.032751
   1 C :    0.034714
   2 C :    0.033127
   3 C :   -0.219069
   4 C :   -0.221340
   5 C :   -0.218239
   6 O :    0.142715
   7 O :    0.141720
   8 O :    0.142596
   9 H :    0.035724
  10 H :    0.019591
  11 H :    0.030793
  12 H :    0.035827
  13 H :    0.035903
  14 H :    0.025334
  15 H :    0.038993
  16 H :    0.039164
  17 H :    0.038870
  18 H :   -0.056829
  19 H :   -0.056362
  20 H :   -0.055983

  Mayer bond orders larger than 0.100000
B(  0-C ,  1-C ) :  -0.1032 B(  0-C ,  3-C ) :   1.2423 B(  0-C ,  4-C ) :   1.2501
B(  0-C ,  6-O ) :   0.1686 B(  0-C ,  7-O ) :   0.1641 B(  0-C ,  9-H ) :   0.6409
B(  0-C , 10-H ) :   0.7071 B(  1-C ,  2-C ) :  -0.1079 B(  1-C ,  3-C ) :   1.3707
B(  1-C ,  5-C ) :   1.3578 B(  1-C , 11-H ) :   0.7131 B(  1-C , 12-H ) :   0.7444
B(  2-C ,  4-C ) :   1.3566 B(  2-C ,  5-C ) :   1.2307 B(  2-C ,  8-O ) :   0.1975
B(  2-C , 13-H ) :   0.7068 B(  2-C , 14-H ) :   0.7085 B(  2-C , 17-H ) :   0.1095
B(  3-C , 10-H ) :   0.1457 B(  3-C , 11-H ) :   0.1037 B(  3-C , 15-H ) :   0.5263
B(  4-C , 10-H ) :   0.1405 B(  4-C , 13-H ) :   0.1351 B(  4-C , 14-H ) :   0.1178
B(  4-C , 16-H ) :   0.5419 B(  5-C , 14-H ) :   0.1322 B(  5-C , 17-H ) :   0.5180
B(  6-O , 18-H ) :   1.1334 B(  7-O , 19-H ) :   1.1308 B(  8-O , 20-H ) :   1.1295
B(  9-H , 10-H ) :  -0.2077 B( 11-H , 12-H ) :  -0.1777 B( 13-H , 14-H ) :  -0.1910

MP2 TOTAL ENERGY:     -460.324404580 Eh
FINAL SINGLE POINT ENERGY      -460.324404579870

DIPOLE MOMENT
-------------
                                X             Y             Z
Electronic contribution:      0.29589      -0.34057      -0.50306
Nuclear contribution   :     -0.91615       1.05455       1.57747
                        -----------------------------------------
Total Dipole Moment    :     -0.62026       0.71398       1.07441
                        -----------------------------------------
Magnitude (a.u.)       :      1.43138
Magnitude (Debye)      :      3.63828

Rotational constants in cm-1:     0.054359     0.053382     0.028505
Rotational constants in MHz :  1629.639277  1600.341188   854.552551

                             ****ORCA TERMINATED NORMALLY****
TOTAL RUN TIME: 0 days 0 hours 1 minutes 36 seconds 175 msec
