                         Program Version 5.0.3 -  RELEASE  -
|  1> !ri-mp2 aug-cc-pvdz aug-cc-pvdz/c tightscf
|  2> %pal nprocs 16 end
|  3>
|  4> * xyz 0 1
|  5> C     0.667787     1.563913    0.371103
|  6> C    -0.667787     1.563913    0.371103
|  7> C     0.667787    -1.563913    0.371103
|  8> C    -0.667787    -1.563913    0.371103
|  9> C     1.563913     0.667787   -0.371103
| 10> C    -1.563913     0.667787   -0.371103
| 11> C     1.563913    -0.667787   -0.371103
| 12> C    -1.563913    -0.667787   -0.371103
| 13> H     1.166556     2.358559    0.918777
| 14> H    -1.166556     2.358559    0.918777
| 15> H     1.166556    -2.358559    0.918777
| 16> H    -1.166556    -2.358559    0.918777
| 17> H     2.358559     1.166556   -0.918777
| 18> H    -2.358559     1.166556   -0.918777
| 19> H     2.358559    -1.166556   -0.918777
| 20> H    -2.358559    -1.166556   -0.918777
| 21> *
| 22>
| 23>                          ****END OF INPUT****

CARTESIAN COORDINATES (ANGSTROEM)
---------------------------------
  C      0.667787    1.563913    0.371103
  C     -0.667787    1.563913    0.371103
  C      0.667787   -1.563913    0.371103
  C     -0.667787   -1.563913    0.371103
  C      1.563913    0.667787   -0.371103
  C     -1.563913    0.667787   -0.371103
  C      1.563913   -0.667787   -0.371103
  C     -1.563913   -0.667787   -0.371103
  H      1.166556    2.358559    0.918777
  H     -1.166556    2.358559    0.918777
  H      1.166556   -2.358559    0.918777
  H     -1.166556   -2.358559    0.918777
  H      2.358559    1.166556   -0.918777
  H     -2.358559    1.166556   -0.918777
  H      2.358559   -1.166556   -0.918777
  H     -2.358559   -1.166556   -0.918777

 Total Charge           Charge          ....    0
 Multiplicity           Mult            ....    1
 Number of Electrons    NEL             ....   56
 Basis Dimension        Dim             ....  256

ORBITAL ENERGIES
----------------

  NO   OCC          E(Eh)            E(eV)
   0   2.0000     -11.243577      -305.9533
   1   2.0000     -11.243302      -305.9458
   2   2.0000     -11.243302      -305.9458
   3   2.0000     -11.242840      -305.9332
   4   2.0000     -11.241962      -305.9093
   5   2.0000     -11.241470      -305.8959
   6   2.0000     -11.241470      -305.8959
   7   2.0000     -11.241158      -305.8875
   8   2.0000      -1.131784       -30.7974
   9   2.0000      -1.063494       -28.9391
  10   2.0000      -1.063494       -28.9391
  11   2.0000      -0.957546       -26.0561
  12   2.0000      -0.898558       -24.4510
  13   2.0000      -0.777125       -21.1466
  14   2.0000      -0.777125       -21.1466
  15   2.0000      -0.690656       -18.7937
  16   2.0000      -0.633874       -17.2486
  17   2.0000      -0.628420       -17.1002
  18   2.0000      -0.628420       -17.1002
  19   2.0000      -0.624202       -16.9854
  20   2.0000      -0.586967       -15.9722
  21   2.0000      -0.513066       -13.9612
  22   2.0000      -0.513066       -13.9612
  23   2.0000      -0.478197       -13.0124
  24   2.0000      -0.440629       -11.9901
  25   2.0000      -0.375165       -10.2088
  26   2.0000      -0.375165       -10.2088
  27   2.0000      -0.299046        -8.1375
  28   0.0000       0.035225         0.9585
  29   0.0000       0.041641         1.1331
  30   0.0000       0.041641         1.1331
  31   0.0000       0.048629         1.3233
  32   0.0000       0.054798         1.4911

MULLIKEN ATOMIC CHARGES
-----------------------
   0 C :    0.421701
   1 C :    0.421701
   2 C :    0.421701
   3 C :    0.421701
   4 C :    0.421701
   5 C :    0.421701
   6 C :    0.421701
   7 C :    0.421701
   8 H :   -0.421701
   9 H :   -0.421701
  10 H :   -0.421701
  11 H :   -0.421701
  12 H :   -0.421701
  13 H :   -0.421701
  14 H :   -0.421701
  15 H :   -0.421701
Sum of atomic charges:    0.0000000

LOEWDIN ATOMIC CHARGES
----------------------
   0 C :   -0.000360
   1 C :   -0.000360
   2 C :   -0.000360
   3 C :   -0.000360
   4 C :   -0.000360
   5 C :   -0.000360
   6 C :   -0.000360
   7 C :   -0.000360
   8 H :    0.000360
   9 H :    0.000360
  10 H :    0.000360
  11 H :    0.000360
  12 H :    0.000360
  13 H :    0.000360
  14 H :    0.000360
  15 H :    0.000360

  Mayer bond orders larger than 0.100000
B(  0-C ,  1-C ) :   1.9968 B(  0-C ,  4-C ) :   1.4874 B(  0-C ,  5-C ) :  -0.1140
B(  0-C ,  6-C ) :  -0.1140 B(  0-C ,  7-C ) :   0.1110 B(  0-C ,  8-H ) :   0.4284
B(  0-C , 12-H ) :   0.2358 B(  1-C ,  4-C ) :  -0.1140 B(  1-C ,  5-C ) :   1.4874
B(  1-C ,  6-C ) :   0.1110 B(  1-C ,  7-C ) :  -0.1140 B(  1-C ,  9-H ) :   0.4284
B(  1-C , 13-H ) :   0.2358 B(  2-C ,  3-C ) :   1.9968 B(  2-C ,  4-C ) :  -0.1140
B(  2-C ,  5-C ) :   0.1110 B(  2-C ,  6-C ) :   1.4874 B(  2-C ,  7-C ) :  -0.1140
B(  2-C , 10-H ) :   0.4284 B(  2-C , 14-H ) :   0.2358 B(  3-C ,  4-C ) :   0.1110
B(  3-C ,  5-C ) :  -0.1140 B(  3-C ,  6-C ) :  -0.1140 B(  3-C ,  7-C ) :   1.4874
B(  3-C , 11-H ) :   0.4284 B(  3-C , 15-H ) :   0.2358 B(  4-C ,  6-C ) :   1.9968
B(  4-C ,  8-H ) :   0.2358 B(  4-C , 12-H ) :   0.4284 B(  5-C ,  7-C ) :   1.9968
B(  5-C ,  9-H ) :   0.2358 B(  5-C , 13-H ) :   0.4284 B(  6-C , 10-H ) :   0.2358
B(  6-C , 14-H ) :   0.4284 B(  7-C , 11-H ) :   0.2358 B(  7-C , 15-H ) :   0.4284

MP2 TOTAL ENERGY:     -308.636171377 Eh
FINAL SINGLE POINT ENERGY      -308.636171377120

DIPOLE MOMENT
-------------
                                X             Y             Z
Electronic contribution:      0.00000       0.00000       0.00000
Nuclear contribution   :      0.00000       0.00000      -0.00000
                        -----------------------------------------
Total Dipole Moment    :      0.00000       0.00000       0.00000
                        -----------------------------------------
Magnitude (a.u.)       :      0.00000
Magnitude (Debye)      :      0.00000

Rotational constants in cm-1:     0.090202     0.090202     0.050518
Rotational constants in MHz :  2704.179669  2704.179669  1514.490228

                             ****ORCA TERMINATED NORMALLY****
TOTAL RUN TIME: 0 days 0 hours 1 minutes 8 seconds 982 msec
