                         Program Version 5.0.3 -  RELEASE  -
|  1> !ri-mp2 aug-cc-pvdz aug-cc-pvdz/c tightscf
|  2> %pal nprocs 16 end
|  3>
|  4> * xyz 0 1
|  5> C      0.000000    0.664652    0.787189
|  6> C      0.000000    0.664652   -0.787189
|  7> C      0.000000   -0.664652    0.787189
|  8> C      0.000000   -0.664652   -0.787189
|  9> H      0.000000    1.428618    1.548923
| 10> H      0.000000    1.428618   -1.548923
| 11> H      0.000000   -1.428618    1.548923
| 12> H      0.000000   -1.428618   -1.548923
| 13> *
| 14>
| 15>                          ****END OF INPUT****

CARTESIAN COORDINATES (ANGSTROEM)
---------------------------------
  C      0.000000    0.664652    0.787189
  C      0.000000    0.664652   -0.787189
  C      0.000000   -0.664652    0.787189
  C      0.000000   -0.664652   -0.787189
  H      0.000000    1.428618    1.548923
  H      0.000000    1.428618   -1.548923
  H      0.000000   -1.428618    1.548923
  H      0.000000   -1.428618   -1.548923

 Total Charge           Charge          ....    0
 Multiplicity           Mult            ....    1
 Number of Electrons    NEL             ....   28
 Basis Dimension        Dim             ....  128

ORBITAL ENERGIES
----------------

  NO   OCC          E(Eh)            E(eV)
   0   2.0000     -11.249958      -306.1269
   1   2.0000     -11.249509      -306.1147
   2   2.0000     -11.248253      -306.0805
   3   2.0000     -11.247797      -306.0681
   4   2.0000      -1.164272       -31.6814
   5   2.0000      -0.920396       -25.0453
   6   2.0000      -0.824963       -22.4484
   7   2.0000      -0.702123       -19.1057
   8   2.0000      -0.697905       -18.9910
   9   2.0000      -0.559251       -15.2180
  10   2.0000      -0.540445       -14.7063
  11   2.0000      -0.477176       -12.9846
  12   2.0000      -0.453129       -12.3303
  13   2.0000      -0.280626        -7.6362
  14   0.0000       0.037999         1.0340
  15   0.0000       0.042902         1.1674
  16   0.0000       0.044402         1.2082
  17   0.0000       0.057829         1.5736
  18   0.0000       0.066923         1.8211

MULLIKEN ATOMIC CHARGES
-----------------------
   0 C :    0.208278
   1 C :    0.208278
   2 C :    0.208278
   3 C :    0.208278
   4 H :   -0.208278
   5 H :   -0.208278
   6 H :   -0.208278
   7 H :   -0.208278
Sum of atomic charges:    0.0000000

LOEWDIN ATOMIC CHARGES
----------------------
   0 C :    0.034228
   1 C :    0.034228
   2 C :    0.034228
   3 C :    0.034228
   4 H :   -0.034228
   5 H :   -0.034228
   6 H :   -0.034228
   7 H :   -0.034228

  Mayer bond orders larger than 0.100000
B(  0-C ,  1-C ) :   1.1741 B(  0-C ,  2-C ) :   2.4154 B(  0-C ,  3-C ) :  -0.2490
B(  0-C ,  4-H ) :   0.7539 B(  0-C ,  6-H ) :   0.1515 B(  1-C ,  2-C ) :  -0.2490
B(  1-C ,  3-C ) :   2.4154 B(  1-C ,  5-H ) :   0.7539 B(  1-C ,  7-H ) :   0.1515
B(  2-C ,  3-C ) :   1.1741 B(  2-C ,  4-H ) :   0.1515 B(  2-C ,  6-H ) :   0.7539
B(  3-C ,  5-H ) :   0.1515 B(  3-C ,  7-H ) :   0.7539

MP2 TOTAL ENERGY:     -154.199324629 Eh
FINAL SINGLE POINT ENERGY      -154.199324628809

DIPOLE MOMENT
-------------
                                X             Y             Z
Electronic contribution:     -0.00000       0.00000       0.00000
Nuclear contribution   :      0.00000       0.00000       0.00000
                        -----------------------------------------
Total Dipole Moment    :     -0.00000       0.00000       0.00000
                        -----------------------------------------
Magnitude (a.u.)       :      0.00000
Magnitude (Debye)      :      0.00000

Rotational constants in cm-1:     0.572355     0.427374     0.244676
Rotational constants in MHz : 17158.766975 12812.360543  7335.203149

                             ****ORCA TERMINATED NORMALLY****
TOTAL RUN TIME: 0 days 0 hours 0 minutes 40 seconds 531 msec
