                         Program Version 5.0.3 -  RELEASE  -
|  1> !ri-mp2 aug-cc-pvdz aug-cc-pvdz/c tightscf
|  2> %pal nprocs 16 end
|  3>
|  4> * xyz 0 1
|  5> C     -0.270459   -0.778426    0.000000
|  6> C      0.336510    1.596630    0.743093
|  7> C      0.336510    1.596630   -0.743093
|  8> C      0.710072    0.327080    0.000000
|  9> O     -1.472192   -0.658476    0.000000
| 10> O      0.336510   -1.992090    0.000000
| 11> H      1.135578    2.100682    1.266594
| 12> H     -0.620002    1.590351    1.244203
| 13> H     -0.620002    1.590351   -1.244203
| 14> H      1.135578    2.100682   -1.266594
| 15> H      1.746444    0.027754    0.000000
| 16> H     -0.367938   -2.656783    0.000000
| 17> *
| 18>
| 19>                          ****END OF INPUT****

CARTESIAN COORDINATES (ANGSTROEM)
---------------------------------
  C     -0.270459   -0.778426    0.000000
  C      0.336510    1.596630    0.743093
  C      0.336510    1.596630   -0.743093
  C      0.710072    0.327080    0.000000
  O     -1.472192   -0.658476    0.000000
  O      0.336510   -1.992090    0.000000
  H      1.135578    2.100682    1.266594
  H     -0.620002    1.590351    1.244203
  H     -0.620002    1.590351   -1.244203
  H      1.135578    2.100682   -1.266594
  H      1.746444    0.027754    0.000000
  H     -0.367938   -2.656783    0.000000

 Total Charge           Charge          ....    0
 Multiplicity           Mult            ....    1
 Number of Electrons    NEL             ....   46
 Basis Dimension        Dim             ....  192

ORBITAL ENERGIES
----------------

  NO   OCC          E(Eh)            E(eV)
   0   2.0000     -20.620835      -561.1215
   1   2.0000     -20.555121      -559.3333
   2   2.0000     -11.395186      -310.0788
   3   2.0000     -11.258403      -306.3567
   4   2.0000     -11.252476      -306.1954
   5   2.0000     -11.251774      -306.1763
   6   2.0000      -1.466673       -39.9102
   7   2.0000      -1.363201       -37.0946
   8   2.0000      -1.166833       -31.7511
   9   2.0000      -0.936995       -25.4969
  10   2.0000      -0.840310       -22.8660
  11   2.0000      -0.782792       -21.3009
  12   2.0000      -0.724830       -19.7236
  13   2.0000      -0.702138       -19.1061
  14   2.0000      -0.649675       -17.6786
  15   2.0000      -0.629781       -17.1372
  16   2.0000      -0.616407       -16.7733
  17   2.0000      -0.560660       -15.2563
  18   2.0000      -0.533119       -14.5069
  19   2.0000      -0.487606       -13.2684
  20   2.0000      -0.459150       -12.4941
  21   2.0000      -0.445527       -12.1234
  22   2.0000      -0.430090       -11.7033
  23   0.0000       0.034278         0.9327
  24   0.0000       0.042459         1.1554
  25   0.0000       0.049029         1.3342
  26   0.0000       0.051703         1.4069
  27   0.0000       0.066065         1.7977

MULLIKEN ATOMIC CHARGES
-----------------------
   0 C :    0.753980
   1 C :    0.746057
   2 C :    0.746057
   3 C :    0.710654
   4 O :   -0.761880
   5 O :   -0.695098
   6 H :   -0.340716
   7 H :   -0.329196
   8 H :   -0.329196
   9 H :   -0.340716
  10 H :   -0.377162
  11 H :    0.217217
Sum of atomic charges:   -0.0000000

LOEWDIN ATOMIC CHARGES
----------------------
   0 C :   -0.329460
   1 C :    0.083028
   2 C :    0.083028
   3 C :   -0.099547
   4 O :    0.037120
   5 O :    0.201351
   6 H :    0.003032
   7 H :    0.006759
   8 H :    0.006759
   9 H :    0.003032
  10 H :    0.025728
  11 H :   -0.020829

  Mayer bond orders larger than 0.100000
B(  0-C ,  3-C ) :   0.6140 B(  0-C ,  4-O ) :   1.4020 B(  0-C ,  5-O ) :   0.4855
B(  0-C , 10-H ) :   0.1185 B(  1-C ,  2-C ) :   1.1037 B(  1-C ,  3-C ) :   0.8172
B(  1-C ,  6-H ) :   0.7876 B(  1-C ,  7-H ) :   0.8383 B(  2-C ,  3-C ) :   0.8172
B(  2-C ,  8-H ) :   0.8383 B(  2-C ,  9-H ) :   0.7876 B(  3-C , 10-H ) :   0.6020
B(  5-O , 11-H ) :   0.9830 B(  6-H ,  7-H ) :  -0.1490 B(  8-H ,  9-H ) :  -0.1490

MP2 TOTAL ENERGY:     -305.677152753 Eh
FINAL SINGLE POINT ENERGY      -305.677152753367

DIPOLE MOMENT
-------------
                                X             Y             Z
Electronic contribution:     -1.66762      -4.54075       0.00000
Nuclear contribution   :      2.40013       4.72775       0.00000
                        -----------------------------------------
Total Dipole Moment    :      0.73251       0.18700       0.00000
                        -----------------------------------------
Magnitude (a.u.)       :      0.75600
Magnitude (Debye)      :      1.92160

Rotational constants in cm-1:     0.255236     0.090177     0.078867
Rotational constants in MHz :  7651.768849  2703.453404  2364.386855

                             ****ORCA TERMINATED NORMALLY****
TOTAL RUN TIME: 0 days 0 hours 0 minutes 55 seconds 75 msec
