                         Program Version 5.0.3 -  RELEASE  -
|  1> !ri-mp2 aug-cc-pvdz aug-cc-pvdz/c tightscf
|  2> %pal nprocs 16 end
|  3>
|  4> * xyz 0 1
|  5> C      0.000000    0.000000    0.687813
|  6> C      0.000000    0.000000   -0.687813
|  7> N      0.000000    0.000000    1.839967
|  8> N      0.000000    0.000000   -1.839967
|  9> *
| 10>
| 11>                          ****END OF INPUT****

CARTESIAN COORDINATES (ANGSTROEM)
---------------------------------
  C      0.000000    0.000000    0.687813
  C      0.000000    0.000000   -0.687813
  N      0.000000    0.000000    1.839967
  N      0.000000    0.000000   -1.839967

 Total Charge           Charge          ....    0
 Multiplicity           Mult            ....    1
 Number of Electrons    NEL             ....   26
 Basis Dimension        Dim             ....   92

ORBITAL ENERGIES
----------------

  NO   OCC          E(Eh)            E(eV)
   0   2.0000     -15.666378      -426.3038
   1   2.0000     -15.666369      -426.3036
   2   2.0000     -11.363624      -309.2199
   3   2.0000     -11.362514      -309.1897
   4   2.0000      -1.308689       -35.6113
   5   2.0000      -1.283173       -34.9169
   6   2.0000      -0.985744       -26.8235
   7   2.0000      -0.640099       -17.4180
   8   2.0000      -0.624347       -16.9894
   9   2.0000      -0.602863       -16.4047
  10   2.0000      -0.602863       -16.4047
  11   2.0000      -0.498407       -13.5623
  12   2.0000      -0.498407       -13.5623
  13   0.0000       0.052048         1.4163
  14   0.0000       0.052048         1.4163
  15   0.0000       0.054653         1.4872
  16   0.0000       0.072508         1.9730
  17   0.0000       0.098267         2.6740

MULLIKEN ATOMIC CHARGES
-----------------------
   0 C :    0.296898
   1 C :    0.296898
   2 N :   -0.296898
   3 N :   -0.296898
Sum of atomic charges:    0.0000000

LOEWDIN ATOMIC CHARGES
----------------------
   0 C :   -0.141393
   1 C :   -0.141393
   2 N :    0.141393
   3 N :    0.141393

  Mayer bond orders larger than 0.100000
B(  0-C ,  1-C ) :   0.5730 B(  0-C ,  2-N ) :   2.8044 B(  1-C ,  3-N ) :   2.8044

MP2 TOTAL ENERGY:     -185.184809820 Eh
FINAL SINGLE POINT ENERGY      -185.184809820418

DIPOLE MOMENT
-------------
                                X             Y             Z
Electronic contribution:     -0.00000       0.00000      -0.00000
Nuclear contribution   :      0.00000       0.00000       0.00000
                        -----------------------------------------
Total Dipole Moment    :     -0.00000       0.00000      -0.00000
                        -----------------------------------------
Magnitude (a.u.)       :      0.00000
Magnitude (Debye)      :      0.00000

Rotational constants in cm-1:     0.000000     0.158727     0.158727
Rotational constants in MHz :     0.000000  4758.515327  4758.515327

                             ****ORCA TERMINATED NORMALLY****
TOTAL RUN TIME: 0 days 0 hours 0 minutes 30 seconds 241 msec
