                         Program Version 5.0.3 -  RELEASE  -
|  1> !ri-mp2 aug-cc-pvdz aug-cc-pvdz/c tightscf
|  2> %pal nprocs 16 end
|  3>
|  4> * xyz 0 1
|  5> C      0.000000    0.000000   -0.615871
|  6> C      0.000000    0.000000   -1.813601
|  7> Cl     0.000000    0.000000    1.026530
|  8> H      0.000000    0.000000   -2.874172
|  9> *
| 10>
| 11>                          ****END OF INPUT****

CARTESIAN COORDINATES (ANGSTROEM)
---------------------------------
  C      0.000000    0.000000   -0.615871
  C      0.000000    0.000000   -1.813601
  Cl     0.000000    0.000000    1.026530
  H      0.000000    0.000000   -2.874172

 Total Charge           Charge          ....    0
 Multiplicity           Mult            ....    1
 Number of Electrons    NEL             ....   30
 Basis Dimension        Dim             ....   82

ORBITAL ENERGIES
----------------

  NO   OCC          E(Eh)            E(eV)
   0   2.0000    -104.891960     -2854.2553
   1   2.0000     -11.305554      -307.6398
   2   2.0000     -11.259665      -306.3911
   3   2.0000     -10.616637      -288.8934
   4   2.0000      -8.084885      -220.0009
   5   2.0000      -8.080815      -219.8901
   6   2.0000      -8.080815      -219.8901
   7   2.0000      -1.196924       -32.5699
   8   2.0000      -1.028853       -27.9965
   9   2.0000      -0.749108       -20.3843
  10   2.0000      -0.671940       -18.2844
  11   2.0000      -0.551500       -15.0071
  12   2.0000      -0.551500       -15.0071
  13   2.0000      -0.397470       -10.8157
  14   2.0000      -0.397470       -10.8157
  15   0.0000       0.036080         0.9818
  16   0.0000       0.067494         1.8366
  17   0.0000       0.101754         2.7689
  18   0.0000       0.103878         2.8267
  19   0.0000       0.103878         2.8267

MULLIKEN ATOMIC CHARGES
-----------------------
   0 C :   -0.641884
   1 C :    0.984780
   2 Cl:   -0.077174
   3 H :   -0.265722
Sum of atomic charges:   -0.0000000

LOEWDIN ATOMIC CHARGES
----------------------
   0 C :   -0.610559
   1 C :    0.121373
   2 Cl:    0.601223
   3 H :   -0.112036

  Mayer bond orders larger than 0.100000
B(  0-C ,  1-C ) :   2.2591 B(  0-C ,  2-Cl) :   1.2305 B(  1-C ,  2-Cl) :  -0.2667
B(  1-C ,  3-H ) :   0.5436

MP2 TOTAL ENERGY:     -536.144029763 Eh
FINAL SINGLE POINT ENERGY      -536.144029763465

DIPOLE MOMENT
-------------
                                X             Y             Z
Electronic contribution:      0.00000      -0.00000       3.80011
Nuclear contribution   :      0.00000       0.00000      -4.04547
                        -----------------------------------------
Total Dipole Moment    :      0.00000      -0.00000      -0.24535
                        -----------------------------------------
Magnitude (a.u.)       :      0.24535
Magnitude (Debye)      :      0.62363

Rotational constants in cm-1:     0.000000     0.188480     0.188480
Rotational constants in MHz :     0.000000  5650.501610  5650.501610

                             ****ORCA TERMINATED NORMALLY****
TOTAL RUN TIME: 0 days 0 hours 0 minutes 28 seconds 370 msec
