                         Program Version 5.0.3 -  RELEASE  -
|  1> !ri-mp2 aug-cc-pvdz aug-cc-pvdz/c tightscf
|  2> %pal nprocs 16 end
|  3>
|  4> * xyz 0 1
|  5> C      0.000000    0.000000    0.018127
|  6> N      0.000000    1.215003   -0.079246
|  7> N      0.000000   -1.215003   -0.079246
|  8> H      0.613213    1.770339    0.500341
|  9> H     -0.613213   -1.770339    0.500341
| 10> *
| 11>
| 12>                          ****END OF INPUT****

CARTESIAN COORDINATES (ANGSTROEM)
---------------------------------
  C      0.000000    0.000000    0.018127
  N      0.000000    1.215003   -0.079246
  N      0.000000   -1.215003   -0.079246
  H      0.613213    1.770339    0.500341
  H     -0.613213   -1.770339    0.500341

 Total Charge           Charge          ....    0
 Multiplicity           Mult            ....    1
 Number of Electrons    NEL             ....   22
 Basis Dimension        Dim             ....   87

ORBITAL ENERGIES
----------------

  NO   OCC          E(Eh)            E(eV)
   0   2.0000     -15.589325      -424.2071
   1   2.0000     -15.589292      -424.2062
   2   2.0000     -11.379012      -309.6387
   3   2.0000      -1.293515       -35.1983
   4   2.0000      -1.208318       -32.8800
   5   2.0000      -0.803193       -21.8560
   6   2.0000      -0.743614       -20.2348
   7   2.0000      -0.588023       -16.0009
   8   2.0000      -0.579759       -15.7761
   9   2.0000      -0.426701       -11.6111
  10   2.0000      -0.426060       -11.5937
  11   0.0000       0.030407         0.8274
  12   0.0000       0.044419         1.2087
  13   0.0000       0.094330         2.5669
  14   0.0000       0.094665         2.5760
  15   0.0000       0.110661         3.0112

MULLIKEN ATOMIC CHARGES
-----------------------
   0 C :    0.273416
   1 N :   -0.211020
   2 N :   -0.211020
   3 H :    0.074312
   4 H :    0.074312
Sum of atomic charges:   -0.0000000

LOEWDIN ATOMIC CHARGES
----------------------
   0 C :   -0.238824
   1 N :    0.183514
   2 N :    0.183514
   3 H :   -0.064102
   4 H :   -0.064102

  Mayer bond orders larger than 0.100000
B(  0-C ,  1-N ) :   1.9471 B(  0-C ,  2-N ) :   1.9471 B(  1-N ,  2-N ) :   0.1290
B(  1-N ,  3-H ) :   0.9679 B(  2-N ,  4-H ) :   0.9679

MP2 TOTAL ENERGY:     -148.395112946 Eh
FINAL SINGLE POINT ENERGY      -148.395112946338

DIPOLE MOMENT
-------------
                                X             Y             Z
Electronic contribution:      0.00000      -0.00000      -0.13299
Nuclear contribution   :      0.00000       0.00000       0.98255
                        -----------------------------------------
Total Dipole Moment    :      0.00000      -0.00000       0.84956
                        -----------------------------------------
Magnitude (a.u.)       :      0.84956
Magnitude (Debye)      :      2.15941

Rotational constants in cm-1:    12.797294     0.348071     0.348036
Rotational constants in MHz : 383653.215203 10434.913166 10433.863095

                             ****ORCA TERMINATED NORMALLY****
TOTAL RUN TIME: 0 days 0 hours 0 minutes 24 seconds 426 msec
