                         Program Version 5.0.3 -  RELEASE  -
|  1> !ri-mp2 aug-cc-pvdz aug-cc-pvdz/c tightscf
|  2> %pal nprocs 16 end
|  3>
|  4> * xyz 0 1
|  5> C     0.000000     0.868264    0.000000
|  6> C    -0.751939    -0.434132    0.000000
|  7> C     0.751939    -0.434132    0.000000
|  8> H     1.260331    -0.727653    0.907443
|  9> H     0.000000     1.455305    0.907443
| 10> H     1.260331    -0.727653   -0.907443
| 11> H    -1.260331    -0.727653    0.907443
| 12> H    -1.260331    -0.727653   -0.907443
| 13> H     0.000000     1.455305   -0.907443
| 14> *
| 15>
| 16>                          ****END OF INPUT****

CARTESIAN COORDINATES (ANGSTROEM)
---------------------------------
  C      0.000000    0.868264    0.000000
  C     -0.751939   -0.434132    0.000000
  C      0.751939   -0.434132    0.000000
  H      1.260331   -0.727653    0.907443
  H      0.000000    1.455305    0.907443
  H      1.260331   -0.727653   -0.907443
  H     -1.260331   -0.727653    0.907443
  H     -1.260331   -0.727653   -0.907443
  H      0.000000    1.455305   -0.907443

 Total Charge           Charge          ....    0
 Multiplicity           Mult            ....    1
 Number of Electrons    NEL             ....   24
 Basis Dimension        Dim             ....  123

ORBITAL ENERGIES
----------------

  NO   OCC          E(Eh)            E(eV)
   0   2.0000     -11.228460      -305.5419
   1   2.0000     -11.227451      -305.5145
   2   2.0000     -11.227451      -305.5145
   3   2.0000      -1.133600       -30.8468
   4   2.0000      -0.818693       -22.2778
   5   2.0000      -0.818693       -22.2778
   6   2.0000      -0.666963       -18.1490
   7   2.0000      -0.627651       -17.0793
   8   2.0000      -0.510818       -13.9001
   9   2.0000      -0.510818       -13.9001
  10   2.0000      -0.418774       -11.3954
  11   2.0000      -0.418774       -11.3954
  12   0.0000       0.040948         1.1143
  13   0.0000       0.048453         1.3185
  14   0.0000       0.051500         1.4014
  15   0.0000       0.051500         1.4014
  16   0.0000       0.074126         2.0171

MULLIKEN ATOMIC CHARGES
-----------------------
   0 C :    0.676300
   1 C :    0.676300
   2 C :    0.676300
   3 H :   -0.338150
   4 H :   -0.338150
   5 H :   -0.338150
   6 H :   -0.338150
   7 H :   -0.338150
   8 H :   -0.338150
Sum of atomic charges:    0.0000000

LOEWDIN ATOMIC CHARGES
----------------------
   0 C :    0.021953
   1 C :    0.021953
   2 C :    0.021953
   3 H :   -0.010977
   4 H :   -0.010977
   5 H :   -0.010977
   6 H :   -0.010977
   7 H :   -0.010977
   8 H :   -0.010977

  Mayer bond orders larger than 0.100000
B(  0-C ,  1-C ) :   1.0112 B(  0-C ,  2-C ) :   1.0112 B(  0-C ,  4-H ) :   0.8065
B(  0-C ,  8-H ) :   0.8065 B(  1-C ,  2-C ) :   1.0112 B(  1-C ,  6-H ) :   0.8065
B(  1-C ,  7-H ) :   0.8065 B(  2-C ,  3-H ) :   0.8065 B(  2-C ,  5-H ) :   0.8065
B(  3-H ,  5-H ) :  -0.1289 B(  4-H ,  8-H ) :  -0.1289 B(  6-H ,  7-H ) :  -0.1289

MP2 TOTAL ENERGY:     -117.509478720 Eh
FINAL SINGLE POINT ENERGY      -117.509478719633

DIPOLE MOMENT
-------------
                                X             Y             Z
Electronic contribution:      0.00000       0.00000       0.00000
Nuclear contribution   :      0.00000      -0.00000       0.00000
                        -----------------------------------------
Total Dipole Moment    :      0.00000       0.00000       0.00000
                        -----------------------------------------
Magnitude (a.u.)       :      0.00000
Magnitude (Debye)      :      0.00000

Rotational constants in cm-1:     0.675193     0.675193     0.421717
Rotational constants in MHz : 20241.788982 20241.782849 12642.770324

                             ****ORCA TERMINATED NORMALLY****
TOTAL RUN TIME: 0 days 0 hours 0 minutes 40 seconds 973 msec
