                         Program Version 5.0.3 -  RELEASE  -
|  1> !ri-mp2 aug-cc-pvdz aug-cc-pvdz/c tightscf
|  2> %pal nprocs 16 end
|  3>
|  4> * xyz 0 1
|  5> C      0.000000    0.000000    1.772157
|  6> C      0.703601    1.107660    0.968327
|  7> C     -0.703601   -1.107660    0.968327
|  8> C      0.000000    1.576287   -0.314065
|  9> C      0.000000   -1.576287   -0.314065
| 10> C      0.302469    0.703389   -1.539522
| 11> C     -0.302469   -0.703389   -1.539522
| 12> H     -0.742021    0.456246    2.433052
| 13> H      0.742021   -0.456246    2.433052
| 14> H      1.710243    0.776893    0.696626
| 15> H     -1.710243   -0.776893    0.696626
| 16> H      0.847619    1.961484    1.634661
| 17> H     -0.847619   -1.961484    1.634661
| 18> H      0.331829    2.593009   -0.538454
| 19> H     -0.331829   -2.593009   -0.538454
| 20> H     -1.081166    1.642958   -0.154172
| 21> H      1.081166   -1.642958   -0.154172
| 22> H      1.390576    0.624307   -1.637984
| 23> H     -1.390576   -0.624307   -1.637984
| 24> H     -0.042785    1.221357   -2.438645
| 25> H      0.042785   -1.221357   -2.438645
| 26> *
| 27>
| 28>                          ****END OF INPUT****

CARTESIAN COORDINATES (ANGSTROEM)
---------------------------------
  C      0.000000    0.000000    1.772157
  C      0.703601    1.107660    0.968327
  C     -0.703601   -1.107660    0.968327
  C      0.000000    1.576287   -0.314065
  C      0.000000   -1.576287   -0.314065
  C      0.302469    0.703389   -1.539522
  C     -0.302469   -0.703389   -1.539522
  H     -0.742021    0.456246    2.433052
  H      0.742021   -0.456246    2.433052
  H      1.710243    0.776893    0.696626
  H     -1.710243   -0.776893    0.696626
  H      0.847619    1.961484    1.634661
  H     -0.847619   -1.961484    1.634661
  H      0.331829    2.593009   -0.538454
  H     -0.331829   -2.593009   -0.538454
  H     -1.081166    1.642958   -0.154172
  H      1.081166   -1.642958   -0.154172
  H      1.390576    0.624307   -1.637984
  H     -1.390576   -0.624307   -1.637984
  H     -0.042785    1.221357   -2.438645
  H      0.042785   -1.221357   -2.438645

 Total Charge           Charge          ....    0
 Multiplicity           Mult            ....    1
 Number of Electrons    NEL             ....   56
 Basis Dimension        Dim             ....  287

ORBITAL ENERGIES
----------------

  NO   OCC          E(Eh)            E(eV)
   0   2.0000     -11.217601      -305.2465
   1   2.0000     -11.217470      -305.2429
   2   2.0000     -11.217240      -305.2366
   3   2.0000     -11.216997      -305.2300
   4   2.0000     -11.216612      -305.2195
   5   2.0000     -11.216333      -305.2120
   6   2.0000     -11.216174      -305.2076
   7   2.0000      -1.102603       -30.0033
   8   2.0000      -1.023405       -27.8483
   9   2.0000      -1.022689       -27.8288
  10   2.0000      -0.878867       -23.9152
  11   2.0000      -0.878270       -23.8990
  12   2.0000      -0.763889       -20.7865
  13   2.0000      -0.746291       -20.3076
  14   2.0000      -0.643231       -17.5032
  15   2.0000      -0.618284       -16.8244
  16   2.0000      -0.607126       -16.5207
  17   2.0000      -0.585568       -15.9341
  18   2.0000      -0.553123       -15.0513
  19   2.0000      -0.548441       -14.9238
  20   2.0000      -0.518423       -14.1070
  21   2.0000      -0.513672       -13.9777
  22   2.0000      -0.459681       -12.5086
  23   2.0000      -0.458151       -12.4669
  24   2.0000      -0.452756       -12.3201
  25   2.0000      -0.438744       -11.9388
  26   2.0000      -0.431460       -11.7406
  27   2.0000      -0.430900       -11.7254
  28   0.0000       0.037584         1.0227
  29   0.0000       0.042417         1.1542
  30   0.0000       0.044042         1.1984
  31   0.0000       0.045859         1.2479
  32   0.0000       0.061429         1.6716

MULLIKEN ATOMIC CHARGES
-----------------------
   0 C :    0.093130
   1 C :    0.233371
   2 C :    0.233371
   3 C :    0.511463
   4 C :    0.511463
   5 C :    0.178962
   6 C :    0.178962
   7 H :   -0.098150
   8 H :   -0.098150
   9 H :   -0.164672
  10 H :   -0.164672
  11 H :   -0.153571
  12 H :   -0.153571
  13 H :   -0.165234
  14 H :   -0.165234
  15 H :   -0.147126
  16 H :   -0.147126
  17 H :   -0.104100
  18 H :   -0.104100
  19 H :   -0.137508
  20 H :   -0.137508
Sum of atomic charges:   -0.0000000

LOEWDIN ATOMIC CHARGES
----------------------
   0 C :   -0.021869
   1 C :   -0.023933
   2 C :   -0.023933
   3 C :   -0.020848
   4 C :   -0.020848
   5 C :   -0.031967
   6 C :   -0.031967
   7 H :    0.011540
   8 H :    0.011540
   9 H :    0.009007
  10 H :    0.009007
  11 H :    0.010027
  12 H :    0.010027
  13 H :    0.010865
  14 H :    0.010865
  15 H :    0.017701
  16 H :    0.017701
  17 H :    0.015321
  18 H :    0.015321
  19 H :    0.013221
  20 H :    0.013221

  Mayer bond orders larger than 0.100000
B(  0-C ,  1-C ) :   1.3344 B(  0-C ,  2-C ) :   1.3344 B(  0-C ,  3-C ) :  -0.1114
B(  0-C ,  4-C ) :  -0.1114 B(  0-C ,  7-H ) :   0.7748 B(  0-C ,  8-H ) :   0.7748
B(  1-C ,  3-C ) :   1.1646 B(  1-C ,  9-H ) :   0.7758 B(  1-C , 11-H ) :   0.7983
B(  2-C ,  4-C ) :   1.1646 B(  2-C , 10-H ) :   0.7758 B(  2-C , 12-H ) :   0.7983
B(  3-C ,  5-C ) :   1.2454 B(  3-C ,  9-H ) :  -0.1226 B(  3-C , 13-H ) :   0.7668
B(  3-C , 15-H ) :   0.8026 B(  4-C ,  6-C ) :   1.2454 B(  4-C , 10-H ) :  -0.1226
B(  4-C , 14-H ) :   0.7668 B(  4-C , 16-H ) :   0.8026 B(  5-C ,  6-C ) :   1.3102
B(  5-C , 17-H ) :   0.7957 B(  5-C , 19-H ) :   0.7862 B(  6-C , 18-H ) :   0.7957
B(  6-C , 20-H ) :   0.7862 B(  7-H ,  8-H ) :  -0.1234 B(  9-H , 11-H ) :  -0.1395
B( 10-H , 12-H ) :  -0.1395 B( 13-H , 15-H ) :  -0.1629 B( 14-H , 16-H ) :  -0.1629
B( 17-H , 19-H ) :  -0.1324 B( 18-H , 20-H ) :  -0.1324

MP2 TOTAL ENERGY:     -274.298155334 Eh
FINAL SINGLE POINT ENERGY      -274.298155333581

DIPOLE MOMENT
-------------
                                X             Y             Z
Electronic contribution:     -0.00000       0.00000       0.00787
Nuclear contribution   :      0.00000       0.00000      -0.01053
                        -----------------------------------------
Total Dipole Moment    :     -0.00000       0.00000      -0.00266
                        -----------------------------------------
Magnitude (a.u.)       :      0.00266
Magnitude (Debye)      :      0.00676

Rotational constants in cm-1:     0.103897     0.095032     0.056832
Rotational constants in MHz :  3114.760494  2848.991878  1703.769191

                             ****ORCA TERMINATED NORMALLY****
TOTAL RUN TIME: 0 days 0 hours 1 minutes 21 seconds 401 msec
