                         Program Version 5.0.3 -  RELEASE  -
|  1> !ri-mp2 aug-cc-pvdz aug-cc-pvdz/c tightscf
|  2> %pal nprocs 16 end
|  3>
|  4> * xyz 0 1
|  5> C     0.000000     0.000000   -1.138108
|  6> Cl    0.000000     0.000000    0.662444
|  7> H     0.000000     1.030124   -1.477634
|  8> H     0.892114    -0.515062   -1.477634
|  9> H    -0.892114    -0.515062   -1.477634
| 10> *
| 11>
| 12>                          ****END OF INPUT****

CARTESIAN COORDINATES (ANGSTROEM)
---------------------------------
  C      0.000000    0.000000   -1.138108
  Cl     0.000000    0.000000    0.662444
  H      0.000000    1.030124   -1.477634
  H      0.892114   -0.515062   -1.477634
  H     -0.892114   -0.515062   -1.477634

 Total Charge           Charge          ....    0
 Multiplicity           Mult            ....    1
 Number of Electrons    NEL             ....   26
 Basis Dimension        Dim             ....   77

ORBITAL ENERGIES
----------------

  NO   OCC          E(Eh)            E(eV)
   0   2.0000    -104.824167     -2852.4106
   1   2.0000     -11.300584      -307.5045
   2   2.0000     -10.550088      -287.0825
   3   2.0000      -8.017775      -218.1748
   4   2.0000      -8.014520      -218.0862
   5   2.0000      -8.014520      -218.0862
   6   2.0000      -1.125912       -30.6376
   7   2.0000      -0.918801       -25.0019
   8   2.0000      -0.618572       -16.8322
   9   2.0000      -0.618572       -16.8322
  10   2.0000      -0.543014       -14.7762
  11   2.0000      -0.436261       -11.8713
  12   2.0000      -0.436261       -11.8713
  13   0.0000       0.033535         0.9125
  14   0.0000       0.057443         1.5631
  15   0.0000       0.057443         1.5631
  16   0.0000       0.076506         2.0818
  17   0.0000       0.138433         3.7669

MULLIKEN ATOMIC CHARGES
-----------------------
   0 C :    0.141202
   1 Cl:   -0.198024
   2 H :    0.018940
   3 H :    0.018941
   4 H :    0.018941
Sum of atomic charges:   -0.0000000

LOEWDIN ATOMIC CHARGES
----------------------
   0 C :   -0.159694
   1 Cl:    0.377006
   2 H :   -0.072438
   3 H :   -0.072438
   4 H :   -0.072438

  Mayer bond orders larger than 0.100000
B(  0-C ,  1-Cl) :   1.0851 B(  0-C ,  2-H ) :   0.9724 B(  0-C ,  3-H ) :   0.9724
B(  0-C ,  4-H ) :   0.9724

MP2 TOTAL ENERGY:     -499.425020180 Eh
FINAL SINGLE POINT ENERGY      -499.425020179770

DIPOLE MOMENT
-------------
                                X             Y             Z
Electronic contribution:     -0.00000       0.00000       4.32387
Nuclear contribution   :      0.00000       0.00000      -5.20392
                        -----------------------------------------
Total Dipole Moment    :     -0.00000       0.00000      -0.88005
                        -----------------------------------------
Magnitude (a.u.)       :      0.88005
Magnitude (Debye)      :      2.23691

Rotational constants in cm-1:     5.253345     0.434965     0.434965
Rotational constants in MHz : 157491.307458 13039.918156 13039.917615

                             ****ORCA TERMINATED NORMALLY****
TOTAL RUN TIME: 0 days 0 hours 0 minutes 30 seconds 732 msec
