                         Program Version 5.0.3 -  RELEASE  -
|  1> !ri-mp2 aug-cc-pvdz aug-cc-pvdz/c tightscf
|  2> %pal nprocs 16 end
|  3>
|  4> * xyz 0 1
|  5> C      0.611276    0.150433    0.000000
|  6> C     -0.558771    0.979132    0.000000
|  7> H      1.547692    0.693190    0.000000
|  8> C      0.611276   -1.169532    0.748025
|  9> C      0.611276   -1.169532   -0.748025
| 10> C     -1.538704    1.673681    0.000000
| 11> H     -2.403449    2.288355    0.000000
| 12> H      1.520070   -1.440716    1.265675
| 13> H     -0.301248   -1.442601    1.256473
| 14> H      1.520070   -1.440716   -1.265675
| 15> H     -0.301248   -1.442601   -1.256473
| 16> *
| 17>
| 18>                          ****END OF INPUT****

CARTESIAN COORDINATES (ANGSTROEM)
---------------------------------
  C      0.611276    0.150433    0.000000
  C     -0.558771    0.979132    0.000000
  H      1.547692    0.693190    0.000000
  C      0.611276   -1.169532    0.748025
  C      0.611276   -1.169532   -0.748025
  C     -1.538704    1.673681    0.000000
  H     -2.403449    2.288355    0.000000
  H      1.520070   -1.440716    1.265675
  H     -0.301248   -1.442601    1.256473
  H      1.520070   -1.440716   -1.265675
  H     -0.301248   -1.442601   -1.256473

 Total Charge           Charge          ....    0
 Multiplicity           Mult            ....    1
 Number of Electrons    NEL             ....   36
 Basis Dimension        Dim             ....  169

ORBITAL ENERGIES
----------------

  NO   OCC          E(Eh)            E(eV)
   0   2.0000     -11.263742      -306.5020
   1   2.0000     -11.245682      -306.0106
   2   2.0000     -11.244995      -305.9919
   3   2.0000     -11.240954      -305.8819
   4   2.0000     -11.226551      -305.4900
   5   2.0000      -1.164211       -31.6798
   6   2.0000      -1.024920       -27.8895
   7   2.0000      -0.870136       -23.6776
   8   2.0000      -0.835169       -22.7261
   9   2.0000      -0.723816       -19.6960
  10   2.0000      -0.685319       -18.6485
  11   2.0000      -0.652638       -17.7592
  12   2.0000      -0.558725       -15.2037
  13   2.0000      -0.527880       -14.3643
  14   2.0000      -0.478173       -13.0118
  15   2.0000      -0.459161       -12.4944
  16   2.0000      -0.380931       -10.3657
  17   2.0000      -0.359224        -9.7750
  18   0.0000       0.036353         0.9892
  19   0.0000       0.040643         1.1060
  20   0.0000       0.049748         1.3537
  21   0.0000       0.051143         1.3917
  22   0.0000       0.062985         1.7139

MULLIKEN ATOMIC CHARGES
-----------------------
   0 C :    0.478519
   1 C :   -0.768109
   2 H :   -0.328028
   3 C :    0.767023
   4 C :    0.767023
   5 C :    0.994106
   6 H :   -0.550131
   7 H :   -0.315776
   8 H :   -0.364427
   9 H :   -0.315776
  10 H :   -0.364427
Sum of atomic charges:   -0.0000000

LOEWDIN ATOMIC CHARGES
----------------------
   0 C :   -0.197258
   1 C :   -0.089497
   2 H :    0.028449
   3 C :    0.075109
   4 C :    0.075109
   5 C :    0.210978
   6 H :   -0.108294
   7 H :   -0.000293
   8 H :    0.002995
   9 H :   -0.000293
  10 H :    0.002995

  Mayer bond orders larger than 0.100000
B(  0-C ,  1-C ) :   1.2274 B(  0-C ,  2-H ) :   0.6340 B(  0-C ,  3-C ) :   0.8993
B(  0-C ,  4-C ) :   0.8993 B(  0-C ,  6-H ) :   0.1111 B(  1-C ,  2-H ) :   0.1180
B(  1-C ,  5-C ) :   2.8377 B(  1-C ,  6-H ) :   0.7054 B(  3-C ,  4-C ) :   1.0625
B(  3-C ,  7-H ) :   0.7677 B(  3-C ,  8-H ) :   0.8478 B(  4-C ,  9-H ) :   0.7677
B(  4-C , 10-H ) :   0.8478 B(  5-C ,  6-H ) :  -0.3995 B(  7-H ,  8-H ) :  -0.1567
B(  9-H , 10-H ) :  -0.1567

MP2 TOTAL ENERGY:     -193.436337220 Eh
FINAL SINGLE POINT ENERGY      -193.436337220042

DIPOLE MOMENT
-------------
                                X             Y             Z
Electronic contribution:     -1.37562       2.54883      -0.00000
Nuclear contribution   :      1.61796      -2.84861       0.00000
                        -----------------------------------------
Total Dipole Moment    :      0.24235      -0.29978      -0.00000
                        -----------------------------------------
Magnitude (a.u.)       :      0.38549
Magnitude (Debye)      :      0.97983

Rotational constants in cm-1:     0.533572     0.111633     0.105942
Rotational constants in MHz : 15996.096487  3346.684486  3176.048453

                             ****ORCA TERMINATED NORMALLY****
TOTAL RUN TIME: 0 days 0 hours 0 minutes 55 seconds 304 msec
