                         Program Version 5.0.3 -  RELEASE  -
|  1> !ri-mp2 aug-cc-pvdz aug-cc-pvdz/c tightscf
|  2> %pal nprocs 16 end
|  3>
|  4> * xyz 0 1
|  5> C     -0.974235    1.501801    0.000000
|  6> C     -0.313710    0.943702    1.264192
|  7> C     -0.313710    0.943702   -1.264192
|  8> C     -0.313710   -0.588507    1.262787
|  9> C     -0.313710   -0.588507   -1.262787
| 10> C      0.322144   -1.187508    0.000000
| 11> N      1.768888   -0.919814    0.000000
| 12> H     -2.037859    1.237524    0.000000
| 13> H     -0.926534    2.593057    0.000000
| 14> H      0.714983    1.305090    1.322149
| 15> H     -0.829805    1.310092    2.154594
| 16> H     -0.829805    1.310092   -2.154594
| 17> H      0.714983    1.305090   -1.322149
| 18> H      0.204080   -0.970114    2.147778
| 19> H     -1.343580   -0.952418    1.329721
| 20> H     -1.343580   -0.952418   -1.329721
| 21> H      0.204080   -0.970114   -2.147778
| 22> H      0.112103   -2.266434    0.000000
| 23> H      2.210148   -1.329430   -0.814645
| 24> H      2.210148   -1.329430    0.814645
| 25> *
| 26>
| 27>                          ****END OF INPUT****

CARTESIAN COORDINATES (ANGSTROEM)
---------------------------------
  C     -0.974235    1.501801    0.000000
  C     -0.313710    0.943702    1.264192
  C     -0.313710    0.943702   -1.264192
  C     -0.313710   -0.588507    1.262787
  C     -0.313710   -0.588507   -1.262787
  C      0.322144   -1.187508    0.000000
  N      1.768888   -0.919814    0.000000
  H     -2.037859    1.237524    0.000000
  H     -0.926534    2.593057    0.000000
  H      0.714983    1.305090    1.322149
  H     -0.829805    1.310092    2.154594
  H     -0.829805    1.310092   -2.154594
  H      0.714983    1.305090   -1.322149
  H      0.204080   -0.970114    2.147778
  H     -1.343580   -0.952418    1.329721
  H     -1.343580   -0.952418   -1.329721
  H      0.204080   -0.970114   -2.147778
  H      0.112103   -2.266434    0.000000
  H      2.210148   -1.329430   -0.814645
  H      2.210148   -1.329430    0.814645

 Total Charge           Charge          ....    0
 Multiplicity           Mult            ....    1
 Number of Electrons    NEL             ....   56
 Basis Dimension        Dim             ....  278

ORBITAL ENERGIES
----------------

  NO   OCC          E(Eh)            E(eV)
   0   2.0000     -15.541580      -422.9079
   1   2.0000     -11.252013      -306.1828
   2   2.0000     -11.216918      -305.2278
   3   2.0000     -11.216900      -305.2274
   4   2.0000     -11.212956      -305.1201
   5   2.0000     -11.211147      -305.0708
   6   2.0000     -11.211037      -305.0678
   7   2.0000      -1.184699       -32.2373
   8   2.0000      -1.084604       -29.5136
   9   2.0000      -0.998660       -27.1749
  10   2.0000      -0.975004       -26.5312
  11   2.0000      -0.829500       -22.5718
  12   2.0000      -0.815325       -22.1861
  13   2.0000      -0.733174       -19.9507
  14   2.0000      -0.651937       -17.7401
  15   2.0000      -0.650262       -17.6945
  16   2.0000      -0.617346       -16.7988
  17   2.0000      -0.597589       -16.2612
  18   2.0000      -0.574274       -15.6268
  19   2.0000      -0.533408       -14.5148
  20   2.0000      -0.518715       -14.1150
  21   2.0000      -0.504615       -13.7313
  22   2.0000      -0.498260       -13.5584
  23   2.0000      -0.472661       -12.8617
  24   2.0000      -0.454025       -12.3547
  25   2.0000      -0.431866       -11.7517
  26   2.0000      -0.421289       -11.4638
  27   2.0000      -0.378582       -10.3018
  28   0.0000       0.035146         0.9564
  29   0.0000       0.044183         1.2023
  30   0.0000       0.044885         1.2214
  31   0.0000       0.045799         1.2462
  32   0.0000       0.061470         1.6727

MULLIKEN ATOMIC CHARGES
-----------------------
   0 C :    0.319156
   1 C :    0.374698
   2 C :    0.374698
   3 C :    0.484745
   4 C :    0.484745
   5 C :   -0.098641
   6 N :   -0.311767
   7 H :   -0.148795
   8 H :   -0.151535
   9 H :   -0.125002
  10 H :   -0.129761
  11 H :   -0.129761
  12 H :   -0.125002
  13 H :   -0.162014
  14 H :   -0.118552
  15 H :   -0.118552
  16 H :   -0.162014
  17 H :   -0.152633
  18 H :   -0.052006
  19 H :   -0.052006
Sum of atomic charges:    0.0000000

LOEWDIN ATOMIC CHARGES
----------------------
   0 C :   -0.026004
   1 C :   -0.018702
   2 C :   -0.018702
   3 C :    0.002230
   4 C :    0.002230
   5 C :   -0.247965
   6 N :    0.207514
   7 H :    0.016402
   8 H :    0.013358
   9 H :    0.015301
  10 H :    0.012924
  11 H :    0.012924
  12 H :    0.015301
  13 H :    0.015714
  14 H :    0.021628
  15 H :    0.021628
  16 H :    0.015714
  17 H :    0.033334
  18 H :   -0.047415
  19 H :   -0.047415

  Mayer bond orders larger than 0.100000
B(  0-C ,  1-C ) :   1.2475 B(  0-C ,  2-C ) :   1.2475 B(  0-C ,  7-H ) :   0.7355
B(  0-C ,  8-H ) :   0.7621 B(  1-C ,  3-C ) :   1.2162 B(  1-C ,  9-H ) :   0.7616
B(  1-C , 10-H ) :   0.7677 B(  2-C ,  4-C ) :   1.2162 B(  2-C , 11-H ) :   0.7677
B(  2-C , 12-H ) :   0.7616 B(  3-C ,  4-C ) :  -0.1280 B(  3-C ,  5-C ) :   1.1979
B(  3-C , 13-H ) :   0.7543 B(  3-C , 14-H ) :   0.7005 B(  4-C ,  5-C ) :   1.1979
B(  4-C , 15-H ) :   0.7005 B(  4-C , 16-H ) :   0.7543 B(  5-C ,  6-N ) :   0.6480
B(  5-C , 14-H ) :   0.1356 B(  5-C , 15-H ) :   0.1356 B(  5-C , 17-H ) :   0.7047
B(  6-N , 18-H ) :   1.0323 B(  6-N , 19-H ) :   1.0323 B(  7-H ,  8-H ) :  -0.1463
B(  9-H , 10-H ) :  -0.1462 B( 11-H , 12-H ) :  -0.1462 B( 13-H , 14-H ) :  -0.1589
B( 15-H , 16-H ) :  -0.1589

MP2 TOTAL ENERGY:     -290.337778224 Eh
FINAL SINGLE POINT ENERGY      -290.337778223987

DIPOLE MOMENT
-------------
                                X             Y             Z
Electronic contribution:      0.97248      -0.76698      -0.00000
Nuclear contribution   :     -0.98649       0.30243       0.00000
                        -----------------------------------------
Total Dipole Moment    :     -0.01400      -0.46455      -0.00000
                        -----------------------------------------
Magnitude (a.u.)       :      0.46476
Magnitude (Debye)      :      1.18133

Rotational constants in cm-1:     0.118249     0.086220     0.064706
Rotational constants in MHz :  3545.011284  2584.798379  1939.850476

                             ****ORCA TERMINATED NORMALLY****
TOTAL RUN TIME: 0 days 0 hours 1 minutes 17 seconds 532 msec
