                         Program Version 5.0.3 -  RELEASE  -
|  1> !ri-mp2 aug-cc-pvdz aug-cc-pvdz/c tightscf
|  2> %pal nprocs 16 end
|  3>
|  4> * xyz 0 1
|  5> C     -1.186192    0.423794   -0.243636
|  6> C     -0.796090   -0.975769    0.244802
|  7> C      0.027367    1.287285    0.136896
|  8> C      0.687806   -1.087600   -0.139625
|  9> C      1.257252    0.349375    0.001362
| 10> H     -2.118589    0.788232    0.188807
| 11> H      1.226616   -1.811506    0.471854
| 12> H     -1.407585   -1.769785   -0.185074
| 13> H      0.115243    2.182391   -0.478872
| 14> H     -1.314699    0.411348   -1.329698
| 15> H      1.864002    0.612109   -0.865357
| 16> H      1.906597    0.434583    0.872795
| 17> H     -0.909311   -1.030087    1.331284
| 18> H     -0.074596    1.623613    1.170697
| 19> H      0.771463   -1.423403   -1.175226
| 20> *
| 21>
| 22>                          ****END OF INPUT****

CARTESIAN COORDINATES (ANGSTROEM)
---------------------------------
  C     -1.186192    0.423794   -0.243636
  C     -0.796090   -0.975769    0.244802
  C      0.027367    1.287285    0.136896
  C      0.687806   -1.087600   -0.139625
  C      1.257252    0.349375    0.001362
  H     -2.118589    0.788232    0.188807
  H      1.226616   -1.811506    0.471854
  H     -1.407585   -1.769785   -0.185074
  H      0.115243    2.182391   -0.478872
  H     -1.314699    0.411348   -1.329698
  H      1.864002    0.612109   -0.865357
  H      1.906597    0.434583    0.872795
  H     -0.909311   -1.030087    1.331284
  H     -0.074596    1.623613    1.170697
  H      0.771463   -1.423403   -1.175226

 Total Charge           Charge          ....    0
 Multiplicity           Mult            ....    1
 Number of Electrons    NEL             ....   40
 Basis Dimension        Dim             ....  205

ORBITAL ENERGIES
----------------

  NO   OCC          E(Eh)            E(eV)
   0   2.0000     -11.217216      -305.2360
   1   2.0000     -11.216857      -305.2262
   2   2.0000     -11.216832      -305.2255
   3   2.0000     -11.216232      -305.2092
   4   2.0000     -11.216140      -305.2067
   5   2.0000      -1.112720       -30.2787
   6   2.0000      -0.956874       -26.0379
   7   2.0000      -0.956225       -26.0202
   8   2.0000      -0.775904       -21.1134
   9   2.0000      -0.768413       -20.9096
  10   2.0000      -0.647166       -17.6103
  11   2.0000      -0.641733       -17.4624
  12   2.0000      -0.567937       -15.4543
  13   2.0000      -0.566743       -15.4219
  14   2.0000      -0.473251       -12.8778
  15   2.0000      -0.472242       -12.8504
  16   2.0000      -0.462719       -12.5912
  17   2.0000      -0.459548       -12.5049
  18   2.0000      -0.457193       -12.4408
  19   2.0000      -0.447897       -12.1879
  20   0.0000       0.038353         1.0436
  21   0.0000       0.046560         1.2670
  22   0.0000       0.048619         1.3230
  23   0.0000       0.049071         1.3353
  24   0.0000       0.067814         1.8453

MULLIKEN ATOMIC CHARGES
-----------------------
   0 C :    0.321693
   1 C :    0.321718
   2 C :    0.295287
   3 C :    0.294948
   4 C :    0.309494
   5 H :   -0.118703
   6 H :   -0.154129
   7 H :   -0.118184
   8 H :   -0.154676
   9 H :   -0.187538
  10 H :   -0.126533
  11 H :   -0.127187
  12 H :   -0.188074
  13 H :   -0.183825
  14 H :   -0.184291
Sum of atomic charges:   -0.0000000

LOEWDIN ATOMIC CHARGES
----------------------
   0 C :   -0.025241
   1 C :   -0.025312
   2 C :   -0.010162
   3 C :   -0.010796
   4 C :    0.002800
   5 H :    0.008069
   6 H :    0.004289
   7 H :    0.008139
   8 H :    0.004120
   9 H :    0.012845
  10 H :    0.002206
  11 H :    0.002196
  12 H :    0.012933
  13 H :    0.006886
  14 H :    0.007028

  Mayer bond orders larger than 0.100000
B(  0-C ,  1-C ) :   1.1561 B(  0-C ,  2-C ) :   1.1944 B(  0-C ,  5-H ) :   0.8198
B(  0-C ,  9-H ) :   0.7731 B(  1-C ,  3-C ) :   1.1929 B(  1-C ,  7-H ) :   0.8198
B(  1-C , 12-H ) :   0.7744 B(  2-C ,  4-C ) :   1.2555 B(  2-C ,  8-H ) :   0.8094
B(  2-C , 13-H ) :   0.7282 B(  3-C ,  4-C ) :   1.2554 B(  3-C ,  6-H ) :   0.8101
B(  3-C , 14-H ) :   0.7279 B(  4-C , 10-H ) :   0.7551 B(  4-C , 11-H ) :   0.7539
B(  4-C , 13-H ) :   0.1031 B(  4-C , 14-H ) :   0.1027 B(  5-H ,  9-H ) :  -0.1288
B(  6-H , 14-H ) :  -0.1583 B(  7-H , 12-H ) :  -0.1284 B(  8-H , 13-H ) :  -0.1584
B( 10-H , 11-H ) :  -0.1382

MP2 TOTAL ENERGY:     -195.921773825 Eh
FINAL SINGLE POINT ENERGY      -195.921773824566

DIPOLE MOMENT
-------------
                                X             Y             Z
Electronic contribution:     -0.06895      -0.02036      -0.00123
Nuclear contribution   :      0.06335       0.01874       0.00129
                        -----------------------------------------
Total Dipole Moment    :     -0.00560      -0.00162       0.00006
                        -----------------------------------------
Magnitude (a.u.)       :      0.00583
Magnitude (Debye)      :      0.01482

Rotational constants in cm-1:     0.216532     0.216480     0.124725
Rotational constants in MHz :  6491.476505  6489.902990  3739.167743

                             ****ORCA TERMINATED NORMALLY****
TOTAL RUN TIME: 0 days 0 hours 0 minutes 51 seconds 626 msec
