                         Program Version 5.0.3 -  RELEASE  -
|  1> !ri-mp2 aug-cc-pvdz aug-cc-pvdz/c tightscf
|  2> %pal nprocs 16 end
|  3>
|  4> * xyz 0 1
|  5> C      1.478824    0.602081   -0.167602
|  6> C      1.131874   -0.871035   -0.441609
|  7> C      0.138007    1.266828    0.236745
|  8> C     -0.007005   -1.147497    0.545787
|  9> C     -0.865878    0.122768    0.481642
| 10> O     -1.764277    0.100355   -0.639892
| 11> H      2.191316    0.663706    0.657603
| 12> H      1.942541    1.089472   -1.024485
| 13> H      0.768396   -0.991211   -1.463462
| 14> H      1.983364   -1.539018   -0.312244
| 15> H      0.250934    1.884221    1.127542
| 16> H     -0.256769    1.906427   -0.551166
| 17> H     -0.583006   -2.047024    0.320771
| 18> H      0.393171   -1.259290    1.558075
| 19> H     -1.443380    0.274160    1.398057
| 20> H     -2.387285   -0.623160   -0.521332
| 21> *
| 22>
| 23>                          ****END OF INPUT****

CARTESIAN COORDINATES (ANGSTROEM)
---------------------------------
  C      1.478824    0.602081   -0.167602
  C      1.131874   -0.871035   -0.441609
  C      0.138007    1.266828    0.236745
  C     -0.007005   -1.147497    0.545787
  C     -0.865878    0.122768    0.481642
  O     -1.764277    0.100355   -0.639892
  H      2.191316    0.663706    0.657603
  H      1.942541    1.089472   -1.024485
  H      0.768396   -0.991211   -1.463462
  H      1.983364   -1.539018   -0.312244
  H      0.250934    1.884221    1.127542
  H     -0.256769    1.906427   -0.551166
  H     -0.583006   -2.047024    0.320771
  H      0.393171   -1.259290    1.558075
  H     -1.443380    0.274160    1.398057
  H     -2.387285   -0.623160   -0.521332

 Total Charge           Charge          ....    0
 Multiplicity           Mult            ....    1
 Number of Electrons    NEL             ....   48
 Basis Dimension        Dim             ....  228

ORBITAL ENERGIES
----------------

  NO   OCC          E(Eh)            E(eV)
   0   2.0000     -20.561001      -559.4933
   1   2.0000     -11.279363      -306.9271
   2   2.0000     -11.222923      -305.3913
   3   2.0000     -11.219585      -305.3004
   4   2.0000     -11.218588      -305.2733
   5   2.0000     -11.217118      -305.2333
   6   2.0000      -1.355254       -36.8783
   7   2.0000      -1.110172       -30.2093
   8   2.0000      -0.965114       -26.2621
   9   2.0000      -0.950726       -25.8706
  10   2.0000      -0.787983       -21.4421
  11   2.0000      -0.769653       -20.9433
  12   2.0000      -0.687569       -18.7097
  13   2.0000      -0.654068       -17.7981
  14   2.0000      -0.638854       -17.3841
  15   2.0000      -0.583712       -15.8836
  16   2.0000      -0.545183       -14.8352
  17   2.0000      -0.531096       -14.4519
  18   2.0000      -0.497247       -13.5308
  19   2.0000      -0.475092       -12.9279
  20   2.0000      -0.468529       -12.7493
  21   2.0000      -0.461524       -12.5587
  22   2.0000      -0.450873       -12.2689
  23   2.0000      -0.428316       -11.6551
  24   0.0000       0.035355         0.9620
  25   0.0000       0.045260         1.2316
  26   0.0000       0.046206         1.2573
  27   0.0000       0.050445         1.3727
  28   0.0000       0.065785         1.7901

MULLIKEN ATOMIC CHARGES
-----------------------
   0 C :    0.353663
   1 C :    0.371116
   2 C :    0.292339
   3 C :    0.371433
   4 C :    0.563645
   5 O :   -0.776640
   6 H :   -0.185048
   7 H :   -0.143996
   8 H :   -0.176238
   9 H :   -0.117665
  10 H :   -0.083281
  11 H :   -0.092384
  12 H :   -0.137839
  13 H :   -0.151770
  14 H :   -0.201198
  15 H :    0.113864
Sum of atomic charges:    0.0000000

LOEWDIN ATOMIC CHARGES
----------------------
   0 C :   -0.000510
   1 C :   -0.012039
   2 C :    0.029698
   3 C :    0.002485
   4 C :   -0.203632
   5 O :    0.128938
   6 H :    0.007358
   7 H :    0.006599
   8 H :    0.014527
   9 H :    0.008474
  10 H :    0.009058
  11 H :    0.010744
  12 H :    0.012120
  13 H :    0.020083
  14 H :    0.026708
  15 H :   -0.060610

  Mayer bond orders larger than 0.100000
B(  0-C ,  1-C ) :   1.2110 B(  0-C ,  2-C ) :   1.2481 B(  0-C ,  6-H ) :   0.7310
B(  0-C ,  7-H ) :   0.7903 B(  1-C ,  3-C ) :   1.1056 B(  1-C ,  8-H ) :   0.7603
B(  1-C ,  9-H ) :   0.8155 B(  2-C ,  4-C ) :   1.2643 B(  2-C ,  6-H ) :   0.1006
B(  2-C , 10-H ) :   0.7635 B(  2-C , 11-H ) :   0.6897 B(  3-C ,  4-C ) :   1.2116
B(  3-C ,  5-O ) :   0.1524 B(  3-C , 12-H ) :   0.7697 B(  3-C , 13-H ) :   0.7893
B(  4-C ,  5-O ) :   0.1698 B(  4-C , 11-H ) :   0.2098 B(  4-C , 14-H ) :   0.6192
B(  5-O , 15-H ) :   1.1091 B(  6-H ,  7-H ) :  -0.1547 B(  8-H ,  9-H ) :  -0.1322
B( 10-H , 11-H ) :  -0.1186 B( 12-H , 13-H ) :  -0.1301

MP2 TOTAL ENERGY:     -270.990854443 Eh
FINAL SINGLE POINT ENERGY      -270.990854442902

DIPOLE MOMENT
-------------
                                X             Y             Z
Electronic contribution:     -2.90014       0.26117      -0.73959
Nuclear contribution   :      2.96341      -0.66996       1.23422
                        -----------------------------------------
Total Dipole Moment    :      0.06326      -0.40880       0.49463
                        -----------------------------------------
Magnitude (a.u.)       :      0.64481
Magnitude (Debye)      :      1.63897

Rotational constants in cm-1:     0.179830     0.113368     0.088831
Rotational constants in MHz :  5391.163138  3398.690656  2663.093716

                             ****ORCA TERMINATED NORMALLY****
TOTAL RUN TIME: 0 days 0 hours 0 minutes 45 seconds 955 msec
