                         Program Version 5.0.3 -  RELEASE  -
|  1> !ri-mp2 aug-cc-pvdz aug-cc-pvdz/c tightscf
|  2> %pal nprocs 16 end
|  3>
|  4> * xyz 0 1
|  5> N      0.137512    2.151652    0.000000
|  6> C      0.448122    0.721591    0.000000
|  7> H      1.532762    0.530144    0.000000
|  8> H      0.533560    2.608259    0.813100
|  9> H      0.533560    2.608259   -0.813100
| 10> C     -0.167084   -1.496898    0.778524
| 11> C     -0.167084   -1.496898   -0.778524
| 12> C     -0.167084   -0.013012   -1.194728
| 13> C     -0.167084   -0.013012    1.194728
| 14> H     -1.025406   -2.027487   -1.189237
| 15> H     -1.025406   -2.027487    1.189237
| 16> H      0.721946   -2.002668    1.157019
| 17> H      0.721946   -2.002668   -1.157019
| 18> H     -1.187175    0.355253   -1.326931
| 19> H     -1.187175    0.355253    1.326931
| 20> H      0.370046    0.165478   -2.127734
| 21> H      0.370046    0.165478    2.127734
| 22> *
| 23>
| 24>                          ****END OF INPUT****

CARTESIAN COORDINATES (ANGSTROEM)
---------------------------------
  N      0.137512    2.151652    0.000000
  C      0.448122    0.721591    0.000000
  H      1.532762    0.530144    0.000000
  H      0.533560    2.608259    0.813100
  H      0.533560    2.608259   -0.813100
  C     -0.167084   -1.496898    0.778524
  C     -0.167084   -1.496898   -0.778524
  C     -0.167084   -0.013012   -1.194728
  C     -0.167084   -0.013012    1.194728
  H     -1.025406   -2.027487   -1.189237
  H     -1.025406   -2.027487    1.189237
  H      0.721946   -2.002668    1.157019
  H      0.721946   -2.002668   -1.157019
  H     -1.187175    0.355253   -1.326931
  H     -1.187175    0.355253    1.326931
  H      0.370046    0.165478   -2.127734
  H      0.370046    0.165478    2.127734

 Total Charge           Charge          ....    0
 Multiplicity           Mult            ....    1
 Number of Electrons    NEL             ....   48
 Basis Dimension        Dim             ....  237

ORBITAL ENERGIES
----------------

  NO   OCC          E(Eh)            E(eV)
   0   2.0000     -15.544066      -422.9756
   1   2.0000     -11.250340      -306.1373
   2   2.0000     -11.218947      -305.2831
   3   2.0000     -11.218417      -305.2686
   4   2.0000     -11.214593      -305.1646
   5   2.0000     -11.214578      -305.1642
   6   2.0000      -1.185755       -32.2660
   7   2.0000      -1.090555       -29.6755
   8   2.0000      -0.960200       -26.1284
   9   2.0000      -0.932103       -25.3638
  10   2.0000      -0.776003       -21.1161
  11   2.0000      -0.765845       -20.8397
  12   2.0000      -0.660632       -17.9767
  13   2.0000      -0.638719       -17.3804
  14   2.0000      -0.637168       -17.3382
  15   2.0000      -0.591159       -16.0862
  16   2.0000      -0.565234       -15.3808
  17   2.0000      -0.497758       -13.5447
  18   2.0000      -0.475221       -12.9314
  19   2.0000      -0.473571       -12.8865
  20   2.0000      -0.465627       -12.6704
  21   2.0000      -0.451943       -12.2980
  22   2.0000      -0.448531       -12.2051
  23   2.0000      -0.383942       -10.4476
  24   0.0000       0.035878         0.9763
  25   0.0000       0.044571         1.2128
  26   0.0000       0.046528         1.2661
  27   0.0000       0.047974         1.3054
  28   0.0000       0.064073         1.7435

MULLIKEN ATOMIC CHARGES
-----------------------
   0 N :   -0.339241
   1 C :    0.015890
   2 H :   -0.187209
   3 H :   -0.032875
   4 H :   -0.032875
   5 C :    0.357146
   6 C :    0.357146
   7 C :    0.474813
   8 C :    0.474813
   9 H :   -0.139018
  10 H :   -0.139018
  11 H :   -0.152337
  12 H :   -0.152337
  13 H :   -0.102453
  14 H :   -0.102453
  15 H :   -0.149995
  16 H :   -0.149995
Sum of atomic charges:   -0.0000000

LOEWDIN ATOMIC CHARGES
----------------------
   0 N :    0.203298
   1 C :   -0.259498
   2 H :    0.040291
   3 H :   -0.048154
   4 H :   -0.048154
   5 C :    0.005913
   6 C :    0.005913
   7 C :    0.011497
   8 C :    0.011497
   9 H :    0.003388
  10 H :    0.003388
  11 H :    0.004077
  12 H :    0.004077
  13 H :    0.019285
  14 H :    0.019285
  15 H :    0.011948
  16 H :    0.011948

  Mayer bond orders larger than 0.100000
B(  0-N ,  1-C ) :   0.7406 B(  0-N ,  3-H ) :   1.0354 B(  0-N ,  4-H ) :   1.0354
B(  1-C ,  2-H ) :   0.6386 B(  1-C ,  7-C ) :   1.2220 B(  1-C ,  8-C ) :   1.2220
B(  1-C , 13-H ) :   0.1060 B(  1-C , 14-H ) :   0.1060 B(  1-C , 15-H ) :   0.1044
B(  1-C , 16-H ) :   0.1044 B(  5-C ,  6-C ) :   1.2906 B(  5-C ,  8-C ) :   1.2168
B(  5-C , 10-H ) :   0.7764 B(  5-C , 11-H ) :   0.7402 B(  6-C ,  7-C ) :   1.2168
B(  6-C ,  9-H ) :   0.7764 B(  6-C , 12-H ) :   0.7402 B(  7-C , 13-H ) :   0.7247
B(  7-C , 15-H ) :   0.7571 B(  8-C , 14-H ) :   0.7247 B(  8-C , 16-H ) :   0.7571
B(  9-H , 12-H ) :  -0.1545 B( 10-H , 11-H ) :  -0.1545 B( 13-H , 15-H ) :  -0.1593
B( 14-H , 16-H ) :  -0.1593

MP2 TOTAL ENERGY:     -251.139229493 Eh
FINAL SINGLE POINT ENERGY      -251.139229492953

DIPOLE MOMENT
-------------
                                X             Y             Z
Electronic contribution:      0.11246       1.28084       0.00000
Nuclear contribution   :      0.38061      -1.33348       0.00000
                        -----------------------------------------
Total Dipole Moment    :      0.49307      -0.05264       0.00000
                        -----------------------------------------
Magnitude (a.u.)       :      0.49587
Magnitude (Debye)      :      1.26040

Rotational constants in cm-1:     0.212455     0.099844     0.074490
Rotational constants in MHz :  6369.229396  2993.247706  2233.149391

                             ****ORCA TERMINATED NORMALLY****
TOTAL RUN TIME: 0 days 0 hours 0 minutes 54 seconds 251 msec
