                         Program Version 5.0.3 -  RELEASE  -
|  1> !ri-mp2 aug-cc-pvdz aug-cc-pvdz/c tightscf
|  2> %pal nprocs 16 end
|  3>
|  4> * xyz 0 1
|  5> H      0.336332    2.019953    1.266776
|  6> H      0.336332    2.019953   -1.266776
|  7> H     -1.118471    0.924048   -1.256429
|  8> H     -1.118471    0.924048    1.256429
|  9> H      1.651115    0.325415    0.000000
| 10> C      0.575980    0.213094    0.000000
| 11> N     -0.228299   -2.244511    0.000000
| 12> C      0.132495   -1.150808    0.000000
| 13> C     -0.228299    1.260370    0.746697
| 14> C     -0.228299    1.260370   -0.746697
| 15> *
| 16>
| 17>                          ****END OF INPUT****

CARTESIAN COORDINATES (ANGSTROEM)
---------------------------------
  H      0.336332    2.019953    1.266776
  H      0.336332    2.019953   -1.266776
  H     -1.118471    0.924048   -1.256429
  H     -1.118471    0.924048    1.256429
  H      1.651115    0.325415    0.000000
  C      0.575980    0.213094    0.000000
  N     -0.228299   -2.244511    0.000000
  C      0.132495   -1.150808    0.000000
  C     -0.228299    1.260370    0.746697
  C     -0.228299    1.260370   -0.746697

 Total Charge           Charge          ....    0
 Multiplicity           Mult            ....    1
 Number of Electrons    NEL             ....   36
 Basis Dimension        Dim             ....  160

ORBITAL ENERGIES
----------------

  NO   OCC          E(Eh)            E(eV)
   0   2.0000     -15.576404      -423.8555
   1   2.0000     -11.293511      -307.3121
   2   2.0000     -11.281641      -306.9891
   3   2.0000     -11.270718      -306.6918
   4   2.0000     -11.270016      -306.6727
   5   2.0000      -1.228422       -33.4271
   6   2.0000      -1.179016       -32.0827
   7   2.0000      -0.920500       -25.0481
   8   2.0000      -0.858743       -23.3676
   9   2.0000      -0.739161       -20.1136
  10   2.0000      -0.684968       -18.6389
  11   2.0000      -0.600006       -16.3270
  12   2.0000      -0.551564       -15.0088
  13   2.0000      -0.550411       -14.9775
  14   2.0000      -0.522809       -14.2264
  15   2.0000      -0.497671       -13.5423
  16   2.0000      -0.443576       -12.0703
  17   2.0000      -0.418570       -11.3899
  18   0.0000       0.028124         0.7653
  19   0.0000       0.043132         1.1737
  20   0.0000       0.043771         1.1911
  21   0.0000       0.052059         1.4166
  22   0.0000       0.068735         1.8704

MULLIKEN ATOMIC CHARGES
-----------------------
   0 H :   -0.319459
   1 H :   -0.319459
   2 H :   -0.332586
   3 H :   -0.332586
   4 H :   -0.311247
   5 C :    0.940189
   6 N :   -0.289406
   7 C :   -0.653062
   8 C :    0.808808
   9 C :    0.808808
Sum of atomic charges:   -0.0000000

LOEWDIN ATOMIC CHARGES
----------------------
   0 H :    0.005088
   1 H :    0.005088
   2 H :    0.007797
   3 H :    0.007797
   4 H :    0.032201
   5 C :   -0.172293
   6 N :    0.074213
   7 C :   -0.132307
   8 C :    0.086208
   9 C :    0.086208

  Mayer bond orders larger than 0.100000
B(  0-H ,  3-H ) :  -0.1479 B(  0-H ,  8-C ) :   0.7711 B(  1-H ,  2-H ) :  -0.1479
B(  1-H ,  9-C ) :   0.7711 B(  2-H ,  9-C ) :   0.8732 B(  3-H ,  8-C ) :   0.8732
B(  4-H ,  5-C ) :   0.6786 B(  4-H ,  7-C ) :   0.1465 B(  5-C ,  8-C ) :   0.9033
B(  5-C ,  9-C ) :   0.9033 B(  6-N ,  7-C ) :   2.6153 B(  8-C ,  9-C ) :   1.0444

MP2 TOTAL ENERGY:     -209.529346925 Eh
FINAL SINGLE POINT ENERGY      -209.529346924632

DIPOLE MOMENT
-------------
                                X             Y             Z
Electronic contribution:      0.28361      -4.46286      -0.00000
Nuclear contribution   :      0.08616       6.24826       0.00000
                        -----------------------------------------
Total Dipole Moment    :      0.36977       1.78540      -0.00000
                        -----------------------------------------
Magnitude (a.u.)       :      1.82329
Magnitude (Debye)      :      4.63445

Rotational constants in cm-1:     0.535399     0.115195     0.109127
Rotational constants in MHz : 16050.850954  3453.453855  3271.560068

                             ****ORCA TERMINATED NORMALLY****
TOTAL RUN TIME: 0 days 0 hours 0 minutes 42 seconds 589 msec
