                         Program Version 5.0.3 -  RELEASE  -
|  1> !ri-mp2 aug-cc-pvdz aug-cc-pvdz/c tightscf
|  2> %pal nprocs 16 end
|  3> %maxcore 3800
|  4>
|  5> * xyz 0 1
|  6> C     -0.924984    1.455665    0.000000
|  7> C     -0.134405    1.385461    1.310207
|  8> C     -0.134405    1.385461   -1.310207
|  9> C      0.629237    0.082662    1.610338
| 10> C      0.629237    0.082662   -1.610338
| 11> C     -0.134405   -1.227318    1.323869
| 12> C     -0.134405   -1.227318   -1.323869
| 13> C      0.207639   -1.929091    0.000000
| 14> H     -1.479369    2.398329    0.000000
| 15> H      0.570283    2.221967    1.352098
| 16> H      0.570283    2.221967   -1.352098
| 17> H     -0.845053    1.554786    2.124992
| 18> H     -0.845053    1.554786   -2.124992
| 19> H     -1.689785    0.675570    0.000000
| 20> H      0.902756    0.108766    2.667617
| 21> H      0.902756    0.108766   -2.667617
| 22> H      1.576536    0.069346    1.069122
| 23> H      1.576536    0.069346   -1.069122
| 24> H     -1.212799   -1.052435    1.383389
| 25> H     -1.212799   -1.052435   -1.383389
| 26> H      0.088126   -1.939415    2.121981
| 27> H      0.088126   -1.939415   -2.121981
| 28> H      1.281288   -2.147303    0.000000
| 29> H     -0.292875   -2.901727    0.000000
| 30> *
| 31>
| 32>                          ****END OF INPUT****

CARTESIAN COORDINATES (ANGSTROEM)
---------------------------------
  C     -0.924984    1.455665    0.000000
  C     -0.134405    1.385461    1.310207
  C     -0.134405    1.385461   -1.310207
  C      0.629237    0.082662    1.610338
  C      0.629237    0.082662   -1.610338
  C     -0.134405   -1.227318    1.323869
  C     -0.134405   -1.227318   -1.323869
  C      0.207639   -1.929091    0.000000
  H     -1.479369    2.398329    0.000000
  H      0.570283    2.221967    1.352098
  H      0.570283    2.221967   -1.352098
  H     -0.845053    1.554786    2.124992
  H     -0.845053    1.554786   -2.124992
  H     -1.689785    0.675570    0.000000
  H      0.902756    0.108766    2.667617
  H      0.902756    0.108766   -2.667617
  H      1.576536    0.069346    1.069122
  H      1.576536    0.069346   -1.069122
  H     -1.212799   -1.052435    1.383389
  H     -1.212799   -1.052435   -1.383389
  H      0.088126   -1.939415    2.121981
  H      0.088126   -1.939415   -2.121981
  H      1.281288   -2.147303    0.000000
  H     -0.292875   -2.901727    0.000000

 Total Charge           Charge          ....    0
 Multiplicity           Mult            ....    1
 Number of Electrons    NEL             ....   64
 Basis Dimension        Dim             ....  328

ORBITAL ENERGIES
----------------

  NO   OCC          E(Eh)            E(eV)
   0   2.0000     -11.218404      -305.2683
   1   2.0000     -11.217419      -305.2415
   2   2.0000     -11.217365      -305.2400
   3   2.0000     -11.217238      -305.2366
   4   2.0000     -11.217103      -305.2329
   5   2.0000     -11.215810      -305.1977
   6   2.0000     -11.215801      -305.1975
   7   2.0000     -11.215337      -305.1848
   8   2.0000      -1.100827       -29.9550
   9   2.0000      -1.038691       -28.2642
  10   2.0000      -1.036626       -28.2080
  11   2.0000      -0.919223       -25.0133
  12   2.0000      -0.915493       -24.9118
  13   2.0000      -0.793761       -21.5993
  14   2.0000      -0.791384       -21.5346
  15   2.0000      -0.736324       -20.0364
  16   2.0000      -0.643322       -17.5057
  17   2.0000      -0.629194       -17.1212
  18   2.0000      -0.596154       -16.2222
  19   2.0000      -0.589771       -16.0485
  20   2.0000      -0.572626       -15.5820
  21   2.0000      -0.566628       -15.4187
  22   2.0000      -0.549741       -14.9592
  23   2.0000      -0.506834       -13.7916
  24   2.0000      -0.484549       -13.1853
  25   2.0000      -0.480780       -13.0827
  26   2.0000      -0.467769       -12.7286
  27   2.0000      -0.464377       -12.6364
  28   2.0000      -0.459359       -12.4998
  29   2.0000      -0.432802       -11.7771
  30   2.0000      -0.425230       -11.5711
  31   2.0000      -0.416670       -11.3382
  32   0.0000       0.037229         1.0131
  33   0.0000       0.042010         1.1432
  34   0.0000       0.042661         1.1609
  35   0.0000       0.044183         1.2023
  36   0.0000       0.059422         1.6170

MULLIKEN ATOMIC CHARGES
-----------------------
   0 C :    0.116787
   1 C :    0.313303
   2 C :    0.313303
   3 C :    0.307343
   4 C :    0.307343
   5 C :    0.462737
   6 C :    0.462737
   7 C :    0.068038
   8 H :   -0.185638
   9 H :   -0.119310
  10 H :   -0.119310
  11 H :   -0.119126
  12 H :   -0.119126
  13 H :   -0.106899
  14 H :   -0.158538
  15 H :   -0.158538
  16 H :   -0.189228
  17 H :   -0.189228
  18 H :   -0.139816
  19 H :   -0.139816
  20 H :   -0.200887
  21 H :   -0.200887
  22 H :   -0.068130
  23 H :   -0.137112
Sum of atomic charges:    0.0000000

LOEWDIN ATOMIC CHARGES
----------------------
   0 C :   -0.035595
   1 C :   -0.019528
   2 C :   -0.019528
   3 C :   -0.013591
   4 C :   -0.013591
   5 C :   -0.013358
   6 C :   -0.013358
   7 C :   -0.030847
   8 H :    0.015551
   9 H :    0.015952
  10 H :    0.015952
  11 H :    0.014572
  12 H :    0.014572
  13 H :   -0.002165
  14 H :    0.009399
  15 H :    0.009399
  16 H :   -0.001799
  17 H :   -0.001799
  18 H :    0.011093
  19 H :    0.011093
  20 H :    0.009334
  21 H :    0.009334
  22 H :    0.016673
  23 H :    0.012236

  Mayer bond orders larger than 0.100000
B(  0-C ,  1-C ) :   1.2663 B(  0-C ,  2-C ) :   1.2663 B(  0-C ,  8-H ) :   0.7705
B(  0-C , 11-H ) :   0.1162 B(  0-C , 12-H ) :   0.1162 B(  0-C , 13-H ) :   0.7463
B(  1-C ,  3-C ) :   1.3222 B(  1-C ,  9-H ) :   0.7716 B(  1-C , 11-H ) :   0.7511
B(  2-C ,  4-C ) :   1.3222 B(  2-C , 10-H ) :   0.7716 B(  2-C , 12-H ) :   0.7511
B(  3-C ,  5-C ) :   1.1900 B(  3-C , 14-H ) :   0.8278 B(  3-C , 16-H ) :   0.7672
B(  4-C ,  6-C ) :   1.1900 B(  4-C , 15-H ) :   0.8278 B(  4-C , 17-H ) :   0.7672
B(  5-C ,  7-C ) :   1.2888 B(  5-C , 18-H ) :   0.7567 B(  5-C , 20-H ) :   0.8102
B(  6-C ,  7-C ) :   1.2888 B(  6-C , 19-H ) :   0.7567 B(  6-C , 21-H ) :   0.8102
B(  7-C , 22-H ) :   0.8393 B(  7-C , 23-H ) :   0.7969 B(  8-H , 13-H ) :  -0.1484
B(  9-H , 11-H ) :  -0.1391 B( 10-H , 12-H ) :  -0.1391 B( 14-H , 16-H ) :  -0.1717
B( 15-H , 17-H ) :  -0.1717 B( 18-H , 20-H ) :  -0.1655 B( 19-H , 21-H ) :  -0.1655
B( 22-H , 23-H ) :  -0.1447

MP2 TOTAL ENERGY:     -313.481137433 Eh
FINAL SINGLE POINT ENERGY      -313.481137432836

DIPOLE MOMENT
-------------
                                X             Y             Z
Electronic contribution:      0.01675       0.03980       0.00000
Nuclear contribution   :     -0.02254      -0.05259       0.00000
                        -----------------------------------------
Total Dipole Moment    :     -0.00579      -0.01279       0.00000
                        -----------------------------------------
Magnitude (a.u.)       :      0.01404
Magnitude (Debye)      :      0.03569

Rotational constants in cm-1:     0.075241     0.071308     0.043406
Rotational constants in MHz :  2255.654299  2137.763426  1301.279410

                             ****ORCA TERMINATED NORMALLY****
TOTAL RUN TIME: 0 days 0 hours 1 minutes 38 seconds 756 msec
