                         Program Version 5.0.3 -  RELEASE  -
|  1> !ri-mp2 aug-cc-pvdz aug-cc-pvdz/c tightscf
|  2> %pal nprocs 16 end
|  3>
|  4> * xyz 0 1
|  5> Cl    -0.142353    1.682318    0.000006
|  6> S      0.908059   -1.112252   -0.000003
|  7> S     -1.983399   -0.651574   -0.000005
|  8> C     -0.475009   -0.060877    0.000000
|  9> C      2.395894   -0.059942    0.000003
| 10> H      2.437172    0.555719    0.893120
| 11> H      3.225785   -0.764724    0.000001
| 12> H      2.437174    0.555726   -0.893110
| 13> *
| 14>
| 15>                          ****END OF INPUT****

CARTESIAN COORDINATES (ANGSTROEM)
---------------------------------
  Cl    -0.142353    1.682318    0.000006
  S      0.908059   -1.112252   -0.000003
  S     -1.983399   -0.651574   -0.000005
  C     -0.475009   -0.060877    0.000000
  C      2.395894   -0.059942    0.000003
  H      2.437172    0.555719    0.893120
  H      3.225785   -0.764724    0.000001
  H      2.437174    0.555726   -0.893110

 Total Charge           Charge          ....    0
 Multiplicity           Mult            ....    1
 Number of Electrons    NEL             ....   64
 Basis Dimension        Dim             ....  154

ORBITAL ENERGIES
----------------

  NO   OCC          E(Eh)            E(eV)
   0   2.0000    -104.870963     -2853.6840
   1   2.0000     -92.007596     -2503.6540
   2   2.0000     -91.953576     -2502.1840
   3   2.0000     -11.416410      -310.6563
   4   2.0000     -11.291249      -307.2505
   5   2.0000     -10.596987      -288.3587
   6   2.0000      -9.009637      -245.1647
   7   2.0000      -8.957184      -243.7374
   8   2.0000      -8.064599      -219.4489
   9   2.0000      -8.061107      -219.3539
  10   2.0000      -8.060987      -219.3506
  11   2.0000      -6.691579      -182.0871
  12   2.0000      -6.689528      -182.0313
  13   2.0000      -6.687926      -181.9877
  14   2.0000      -6.639100      -180.6591
  15   2.0000      -6.636841      -180.5976
  16   2.0000      -6.635132      -180.5511
  17   2.0000      -1.199416       -32.6378
  18   2.0000      -1.084172       -29.5018
  19   2.0000      -1.032918       -28.1071
  20   2.0000      -0.915905       -24.9231
  21   2.0000      -0.730864       -19.8878
  22   2.0000      -0.640508       -17.4291
  23   2.0000      -0.623795       -16.9743
  24   2.0000      -0.606698       -16.5091
  25   2.0000      -0.556040       -15.1306
  26   2.0000      -0.541785       -14.7427
  27   2.0000      -0.493323       -13.4240
  28   2.0000      -0.462116       -12.5748
  29   2.0000      -0.443425       -12.0662
  30   2.0000      -0.358914        -9.7665
  31   2.0000      -0.354266        -9.6401
  32   0.0000       0.029814         0.8113
  33   0.0000       0.034721         0.9448
  34   0.0000       0.051231         1.3941
  35   0.0000       0.055721         1.5163
  36   0.0000       0.067090         1.8256

MULLIKEN ATOMIC CHARGES
-----------------------
   0 Cl:   -0.131166
   1 S :    0.556691
   2 S :    0.259347
   3 C :   -0.585597
   4 C :    0.013289
   5 H :   -0.004201
   6 H :   -0.104166
   7 H :   -0.004198
Sum of atomic charges:   -0.0000000

LOEWDIN ATOMIC CHARGES
----------------------
   0 Cl:    0.476302
   1 S :    0.801660
   2 S :    0.513779
   3 C :   -1.445268
   4 C :   -0.136685
   5 H :   -0.071770
   6 H :   -0.066249
   7 H :   -0.071770

  Mayer bond orders larger than 0.100000
B(  0-Cl,  3-C ) :   0.9456 B(  1-S ,  3-C ) :   1.0826 B(  1-S ,  4-C ) :   1.0693
B(  2-S ,  3-C ) :   1.7714 B(  4-C ,  5-H ) :   0.9762 B(  4-C ,  6-H ) :   1.0177
B(  4-C ,  7-H ) :   0.9762

MP2 TOTAL ENERGY:    -1332.754540684 Eh
FINAL SINGLE POINT ENERGY     -1332.754540684142

DIPOLE MOMENT
-------------
                                X             Y             Z
Electronic contribution:     -6.46413       2.16601       0.00000
Nuclear contribution   :      7.91410      -1.90394       0.00000
                        -----------------------------------------
Total Dipole Moment    :      1.44998       0.26207       0.00000
                        -----------------------------------------
Magnitude (a.u.)       :      1.47347
Magnitude (Debye)      :      3.74527

Rotational constants in cm-1:     0.107726     0.067848     0.041962
Rotational constants in MHz :  3229.555309  2034.026039  1258.000685

                             ****ORCA TERMINATED NORMALLY****
TOTAL RUN TIME: 0 days 0 hours 0 minutes 34 seconds 828 msec
