                         Program Version 5.0.3 -  RELEASE  -
|  1> !ri-mp2 aug-cc-pvdz aug-cc-pvdz/c tightscf
|  2> %pal nprocs 16 end
|  3>
|  4> * xyz 0 1
|  5> C     -0.063692    1.072090    0.664505
|  6> C     -0.063692    1.072090   -0.664505
|  7> C     -0.063692   -0.324395    1.233989
|  8> C     -0.063692   -0.324395   -1.233989
|  9> C      0.247090   -1.207905    0.000000
| 10> H     -0.098837    1.958513    1.283789
| 11> H     -0.098837    1.958513   -1.283789
| 12> H      0.667358   -0.455946    2.034338
| 13> H     -1.041041   -0.560191    1.669221
| 14> H     -1.041041   -0.560191   -1.669221
| 15> H      0.667358   -0.455946   -2.034338
| 16> H      1.305988   -1.468869    0.000000
| 17> H     -0.314874   -2.140795    0.000000
| 18> *
| 19>
| 20>                          ****END OF INPUT****

CARTESIAN COORDINATES (ANGSTROEM)
---------------------------------
  C     -0.063692    1.072090    0.664505
  C     -0.063692    1.072090   -0.664505
  C     -0.063692   -0.324395    1.233989
  C     -0.063692   -0.324395   -1.233989
  C      0.247090   -1.207905    0.000000
  H     -0.098837    1.958513    1.283789
  H     -0.098837    1.958513   -1.283789
  H      0.667358   -0.455946    2.034338
  H     -1.041041   -0.560191    1.669221
  H     -1.041041   -0.560191   -1.669221
  H      0.667358   -0.455946   -2.034338
  H      1.305988   -1.468869    0.000000
  H     -0.314874   -2.140795    0.000000

 Total Charge           Charge          ....    0
 Multiplicity           Mult            ....    1
 Number of Electrons    NEL             ....   38
 Basis Dimension        Dim             ....  187

ORBITAL ENERGIES
----------------

  NO   OCC          E(Eh)            E(eV)
   0   2.0000     -11.225803      -305.4696
   1   2.0000     -11.225574      -305.4634
   2   2.0000     -11.225151      -305.4519
   3   2.0000     -11.223603      -305.4098
   4   2.0000     -11.223060      -305.3950
   5   2.0000      -1.129057       -30.7232
   6   2.0000      -0.963860       -26.2280
   7   2.0000      -0.955785       -26.0082
   8   2.0000      -0.786369       -21.3982
   9   2.0000      -0.722374       -19.6568
  10   2.0000      -0.671806       -18.2808
  11   2.0000      -0.632397       -17.2084
  12   2.0000      -0.548346       -14.9213
  13   2.0000      -0.531732       -14.4692
  14   2.0000      -0.488144       -13.2831
  15   2.0000      -0.486551       -13.2397
  16   2.0000      -0.482555       -13.1310
  17   2.0000      -0.471730       -12.8364
  18   2.0000      -0.339677        -9.2431
  19   0.0000       0.037657         1.0247
  20   0.0000       0.047256         1.2859
  21   0.0000       0.047540         1.2936
  22   0.0000       0.050827         1.3831
  23   0.0000       0.065074         1.7708

MULLIKEN ATOMIC CHARGES
-----------------------
   0 C :    0.137740
   1 C :    0.137740
   2 C :    0.225015
   3 C :    0.225015
   4 C :    0.355635
   5 H :   -0.287786
   6 H :   -0.287786
   7 H :   -0.070795
   8 H :   -0.058509
   9 H :   -0.058509
  10 H :   -0.070795
  11 H :   -0.150196
  12 H :   -0.096767
Sum of atomic charges:    0.0000000

LOEWDIN ATOMIC CHARGES
----------------------
   0 C :   -0.000557
   1 C :   -0.000557
   2 C :   -0.015381
   3 C :   -0.015381
   4 C :    0.008133
   5 H :   -0.008547
   6 H :   -0.008547
   7 H :    0.004963
   8 H :    0.009124
   9 H :    0.009124
  10 H :    0.004963
  11 H :    0.008656
  12 H :    0.004006

  Mayer bond orders larger than 0.100000
B(  0-C ,  1-C ) :   2.2637 B(  0-C ,  2-C ) :   1.1801 B(  0-C ,  5-H ) :   0.6842
B(  0-C ,  6-H ) :   0.1298 B(  1-C ,  3-C ) :   1.1801 B(  1-C ,  5-H ) :   0.1298
B(  1-C ,  6-H ) :   0.6842 B(  2-C ,  4-C ) :   1.2125 B(  2-C ,  7-H ) :   0.7867
B(  2-C ,  8-H ) :   0.7778 B(  3-C ,  4-C ) :   1.2125 B(  3-C ,  9-H ) :   0.7778
B(  3-C , 10-H ) :   0.7867 B(  4-C , 11-H ) :   0.8012 B(  4-C , 12-H ) :   0.8260
B(  7-H ,  8-H ) :  -0.1101 B(  9-H , 10-H ) :  -0.1101 B( 11-H , 12-H ) :  -0.1196

MP2 TOTAL ENERGY:     -194.707655091 Eh
FINAL SINGLE POINT ENERGY      -194.707655091271

DIPOLE MOMENT
-------------
                                X             Y             Z
Electronic contribution:     -0.07489       1.71957      -0.00000
Nuclear contribution   :      0.04827      -1.80715      -0.00000
                        -----------------------------------------
Total Dipole Moment    :     -0.02662      -0.08758      -0.00000
                        -----------------------------------------
Magnitude (a.u.)       :      0.09154
Magnitude (Debye)      :      0.23268

Rotational constants in cm-1:     0.244142     0.241733     0.131443
Rotational constants in MHz :  7319.194736  7246.985568  3940.558187

                             ****ORCA TERMINATED NORMALLY****
TOTAL RUN TIME: 0 days 0 hours 0 minutes 34 seconds 795 msec
