                         Program Version 5.0.3 -  RELEASE  -
|  1> !ri-mp2 aug-cc-pvdz aug-cc-pvdz/c tightscf
|  2> %pal nprocs 16 end
|  3>
|  4> * xyz 0 1
|  5> C     -0.320050    0.416085    0.000000
|  6> H     -1.260116    0.962973    0.000000
|  7> N      0.903346    1.179214    0.000000
|  8> C     -0.320050   -0.882833    0.753840
|  9> C     -0.320050   -0.882833   -0.753840
| 10> H      0.970739    1.771825    0.818204
| 11> H      0.970739    1.771825   -0.818204
| 12> H     -1.223024   -1.176047    1.270152
| 13> H     -1.223024   -1.176047   -1.270152
| 14> H      0.601086   -1.155773    1.247962
| 15> H      0.601086   -1.155773   -1.247962
| 16> *
| 17>
| 18>                          ****END OF INPUT****

CARTESIAN COORDINATES (ANGSTROEM)
---------------------------------
  C     -0.320050    0.416085    0.000000
  H     -1.260116    0.962973    0.000000
  N      0.903346    1.179214    0.000000
  C     -0.320050   -0.882833    0.753840
  C     -0.320050   -0.882833   -0.753840
  H      0.970739    1.771825    0.818204
  H      0.970739    1.771825   -0.818204
  H     -1.223024   -1.176047    1.270152
  H     -1.223024   -1.176047   -1.270152
  H      0.601086   -1.155773    1.247962
  H      0.601086   -1.155773   -1.247962

 Total Charge           Charge          ....    0
 Multiplicity           Mult            ....    1
 Number of Electrons    NEL             ....   32
 Basis Dimension        Dim             ....  155

ORBITAL ENERGIES
----------------

  NO   OCC          E(Eh)            E(eV)
   0   2.0000     -15.550409      -423.1481
   1   2.0000     -11.258332      -306.3548
   2   2.0000     -11.223542      -305.4081
   3   2.0000     -11.222889      -305.3903
   4   2.0000      -1.201047       -32.6821
   5   2.0000      -1.089153       -29.6374
   6   2.0000      -0.820829       -22.3359
   7   2.0000      -0.791420       -21.5356
   8   2.0000      -0.680574       -18.5194
   9   2.0000      -0.646704       -17.5977
  10   2.0000      -0.622736       -16.9455
  11   2.0000      -0.547794       -14.9062
  12   2.0000      -0.509028       -13.8514
  13   2.0000      -0.442567       -12.0429
  14   2.0000      -0.409107       -11.1324
  15   2.0000      -0.380988       -10.3672
  16   0.0000       0.037105         1.0097
  17   0.0000       0.047852         1.3021
  18   0.0000       0.049683         1.3519
  19   0.0000       0.051471         1.4006
  20   0.0000       0.070217         1.9107

MULLIKEN ATOMIC CHARGES
-----------------------
   0 C :    0.830048
   1 H :   -0.296363
   2 N :   -0.490723
   3 C :    0.638992
   4 C :    0.638992
   5 H :   -0.005594
   6 H :   -0.005594
   7 H :   -0.339731
   8 H :   -0.339731
   9 H :   -0.315148
  10 H :   -0.315148
Sum of atomic charges:    0.0000000

LOEWDIN ATOMIC CHARGES
----------------------
   0 C :   -0.225909
   1 H :    0.019675
   2 N :    0.198730
   3 C :    0.059351
   4 C :    0.059351
   5 H :   -0.045869
   6 H :   -0.045869
   7 H :   -0.007553
   8 H :   -0.007553
   9 H :   -0.002176
  10 H :   -0.002176

  Mayer bond orders larger than 0.100000
B(  0-C ,  1-H ) :   0.6160 B(  0-C ,  2-N ) :   0.6727 B(  0-C ,  3-C ) :   1.0237
B(  0-C ,  4-C ) :   1.0237 B(  2-N ,  5-H ) :   1.0589 B(  2-N ,  6-H ) :   1.0589
B(  3-C ,  4-C ) :   1.0456 B(  3-C ,  7-H ) :   0.7856 B(  3-C ,  9-H ) :   0.7963
B(  4-C ,  8-H ) :   0.7856 B(  4-C , 10-H ) :   0.7963 B(  7-H ,  9-H ) :  -0.1358
B(  8-H , 10-H ) :  -0.1358

MP2 TOTAL ENERGY:     -172.726333182 Eh
FINAL SINGLE POINT ENERGY      -172.726333182182

DIPOLE MOMENT
-------------
                                X             Y             Z
Electronic contribution:      0.25476       0.54057       0.00000
Nuclear contribution   :     -0.58651      -0.15799       0.00000
                        -----------------------------------------
Total Dipole Moment    :     -0.33176       0.38258       0.00000
                        -----------------------------------------
Magnitude (a.u.)       :      0.50639
Magnitude (Debye)      :      1.28715

Rotational constants in cm-1:     0.548551     0.223624     0.192794
Rotational constants in MHz : 16445.152267  6704.068889  5779.829964

                             ****ORCA TERMINATED NORMALLY****
TOTAL RUN TIME: 0 days 0 hours 0 minutes 39 seconds 894 msec
