                         Program Version 5.0.3 -  RELEASE  -
|  1> !ri-mp2 aug-cc-pvdz aug-cc-pvdz/c tightscf
|  2> %pal nprocs 16 end
|  3>
|  4> * xyz 0 1
|  5> C      1.506018    0.680611    0.000000
|  6> C      0.000000    0.820714    0.000000
|  7> H      1.961216    1.673866    0.000000
|  8> H      1.851632    0.145961    0.883624
|  9> H      1.851632    0.145961   -0.883624
| 10> Cl    -0.821829   -0.802430    0.000000
| 11> H     -0.364745    1.333788    0.885068
| 12> H     -0.364745    1.333788   -0.885068
| 13> *
| 14>
| 15>                          ****END OF INPUT****

CARTESIAN COORDINATES (ANGSTROEM)
---------------------------------
  C      1.506018    0.680611    0.000000
  C      0.000000    0.820714    0.000000
  H      1.961216    1.673866    0.000000
  H      1.851632    0.145961    0.883624
  H      1.851632    0.145961   -0.883624
  Cl    -0.821829   -0.802430    0.000000
  H     -0.364745    1.333788    0.885068
  H     -0.364745    1.333788   -0.885068

 Total Charge           Charge          ....    0
 Multiplicity           Mult            ....    1
 Number of Electrons    NEL             ....   34
 Basis Dimension        Dim             ....  118

ORBITAL ENERGIES
----------------

  NO   OCC          E(Eh)            E(eV)
   0   2.0000    -104.816908     -2852.2131
   1   2.0000     -11.303380      -307.5806
   2   2.0000     -11.242235      -305.9168
   3   2.0000     -10.542937      -286.8879
   4   2.0000      -8.010514      -217.9772
   5   2.0000      -8.007462      -217.8941
   6   2.0000      -8.007411      -217.8927
   7   2.0000      -1.131692       -30.7949
   8   2.0000      -1.003901       -27.3175
   9   2.0000      -0.846256       -23.0278
  10   2.0000      -0.650947       -17.7132
  11   2.0000      -0.609671       -16.5900
  12   2.0000      -0.562493       -15.3062
  13   2.0000      -0.530049       -14.4234
  14   2.0000      -0.502990       -13.6871
  15   2.0000      -0.431494       -11.7416
  16   2.0000      -0.430474       -11.7138
  17   0.0000       0.034237         0.9316
  18   0.0000       0.048722         1.3258
  19   0.0000       0.050483         1.3737
  20   0.0000       0.060209         1.6384
  21   0.0000       0.077403         2.1063

MULLIKEN ATOMIC CHARGES
-----------------------
   0 C :    0.383936
   1 C :   -0.203159
   2 H :   -0.037076
   3 H :   -0.023644
   4 H :   -0.023644
   5 Cl:   -0.167812
   6 H :    0.035699
   7 H :    0.035699
Sum of atomic charges:   -0.0000000

LOEWDIN ATOMIC CHARGES
----------------------
   0 C :    0.070192
   1 C :   -0.350342
   2 H :   -0.017135
   3 H :   -0.021206
   4 H :   -0.021206
   5 Cl:    0.415989
   6 H :   -0.038147
   7 H :   -0.038147

  Mayer bond orders larger than 0.100000
B(  0-C ,  1-C ) :   1.2394 B(  0-C ,  2-H ) :   0.9096 B(  0-C ,  3-H ) :   0.9565
B(  0-C ,  4-H ) :   0.9565 B(  1-C ,  5-Cl) :   1.1564 B(  1-C ,  6-H ) :   0.9315
B(  1-C ,  7-H ) :   0.9315

MP2 TOTAL ENERGY:     -538.616339992 Eh
FINAL SINGLE POINT ENERGY      -538.616339992029

DIPOLE MOMENT
-------------
                                X             Y             Z
Electronic contribution:     -5.53545      -4.89409      -0.00000
Nuclear contribution   :      6.04818       5.72217       0.00000
                        -----------------------------------------
Total Dipole Moment    :      0.51273       0.82808      -0.00000
                        -----------------------------------------
Magnitude (a.u.)       :      0.97396
Magnitude (Debye)      :      2.47562

Rotational constants in cm-1:     1.054989     0.178531     0.161942
Rotational constants in MHz : 31627.776416  5352.215512  4854.902626

                             ****ORCA TERMINATED NORMALLY****
TOTAL RUN TIME: 0 days 0 hours 0 minutes 35 seconds 209 msec
