                         Program Version 5.0.3 -  RELEASE  -
|  1> !ri-mp2 aug-cc-pvdz aug-cc-pvdz/c tightscf
|  2> %pal nprocs 16 end
|  3>
|  4> * xyz 0 1
|  5> C      0.005646    0.665273    1.302124
|  6> C     -0.005646   -0.665273    1.302124
|  7> C     -0.005646    1.497566    0.048624
|  8> C      0.005646   -1.497566    0.048624
|  9> C     -0.367769    0.670959   -1.190000
| 10> C      0.367769   -0.670959   -1.190000
| 11> H      0.020501    1.196537    2.247558
| 12> H     -0.020501   -1.196537    2.247558
| 13> H     -0.708445    2.326979    0.166811
| 14> H      0.977019    1.965639   -0.085347
| 15> H      0.708445   -2.326979    0.166811
| 16> H     -0.977019   -1.965639   -0.085347
| 17> H     -1.446378    0.487192   -1.195721
| 18> H     -0.141259    1.233380   -2.097788
| 19> H      1.446378   -0.487192   -1.195721
| 20> H      0.141259   -1.233380   -2.097788
| 21> *
| 22>
| 23>                          ****END OF INPUT****

CARTESIAN COORDINATES (ANGSTROEM)
---------------------------------
  C      0.005646    0.665273    1.302124
  C     -0.005646   -0.665273    1.302124
  C     -0.005646    1.497566    0.048624
  C      0.005646   -1.497566    0.048624
  C     -0.367769    0.670959   -1.190000
  C      0.367769   -0.670959   -1.190000
  H      0.020501    1.196537    2.247558
  H     -0.020501   -1.196537    2.247558
  H     -0.708445    2.326979    0.166811
  H      0.977019    1.965639   -0.085347
  H      0.708445   -2.326979    0.166811
  H     -0.977019   -1.965639   -0.085347
  H     -1.446378    0.487192   -1.195721
  H     -0.141259    1.233380   -2.097788
  H      1.446378   -0.487192   -1.195721
  H      0.141259   -1.233380   -2.097788

 Total Charge           Charge          ....    0
 Multiplicity           Mult            ....    1
 Number of Electrons    NEL             ....   46
 Basis Dimension        Dim             ....  228

ORBITAL ENERGIES
----------------

  NO   OCC          E(Eh)            E(eV)
   0   2.0000     -11.225399      -305.4586
   1   2.0000     -11.225276      -305.4553
   2   2.0000     -11.224650      -305.4382
   3   2.0000     -11.223070      -305.3953
   4   2.0000     -11.221572      -305.3545
   5   2.0000     -11.220974      -305.3382
   6   2.0000      -1.118959       -30.4484
   7   2.0000      -1.005681       -27.3660
   8   2.0000      -1.002116       -27.2690
   9   2.0000      -0.846351       -23.0304
  10   2.0000      -0.816030       -22.2053
  11   2.0000      -0.696805       -18.9610
  12   2.0000      -0.666449       -18.1350
  13   2.0000      -0.612610       -16.6700
  14   2.0000      -0.581709       -15.8291
  15   2.0000      -0.565627       -15.3915
  16   2.0000      -0.537301       -14.6207
  17   2.0000      -0.527377       -14.3506
  18   2.0000      -0.522793       -14.2259
  19   2.0000      -0.462135       -12.5753
  20   2.0000      -0.449402       -12.2289
  21   2.0000      -0.435005       -11.8371
  22   2.0000      -0.340226        -9.2580
  23   0.0000       0.036981         1.0063
  24   0.0000       0.044588         1.2133
  25   0.0000       0.044970         1.2237
  26   0.0000       0.048847         1.3292
  27   0.0000       0.060399         1.6436

MULLIKEN ATOMIC CHARGES
-----------------------
   0 C :    0.101855
   1 C :    0.101855
   2 C :    0.178710
   3 C :    0.178710
   4 C :    0.434077
   5 C :    0.434077
   6 H :   -0.424527
   7 H :   -0.424527
   8 H :   -0.017765
   9 H :   -0.008312
  10 H :   -0.017765
  11 H :   -0.008312
  12 H :   -0.188542
  13 H :   -0.075495
  14 H :   -0.188542
  15 H :   -0.075495
Sum of atomic charges:   -0.0000000

LOEWDIN ATOMIC CHARGES
----------------------
   0 C :   -0.007234
   1 C :   -0.007234
   2 C :   -0.028647
   3 C :   -0.028647
   4 C :   -0.022689
   5 C :   -0.022689
   6 H :   -0.005183
   7 H :   -0.005183
   8 H :    0.013857
   9 H :    0.016699
  10 H :    0.013857
  11 H :    0.016699
  12 H :    0.019651
  13 H :    0.013547
  14 H :    0.019651
  15 H :    0.013547

  Mayer bond orders larger than 0.100000
B(  0-C ,  1-C ) :   2.3619 B(  0-C ,  2-C ) :   1.1544 B(  0-C ,  3-C ) :  -0.1495
B(  0-C ,  6-H ) :   0.5911 B(  0-C ,  7-H ) :   0.1863 B(  1-C ,  2-C ) :  -0.1495
B(  1-C ,  3-C ) :   1.1544 B(  1-C ,  6-H ) :   0.1863 B(  1-C ,  7-H ) :   0.5911
B(  2-C ,  3-C ) :   0.1132 B(  2-C ,  4-C ) :   1.2744 B(  2-C ,  8-H ) :   0.7365
B(  2-C ,  9-H ) :   0.7912 B(  3-C ,  5-C ) :   1.2744 B(  3-C , 10-H ) :   0.7365
B(  3-C , 11-H ) :   0.7912 B(  4-C ,  5-C ) :   1.1818 B(  4-C , 12-H ) :   0.8081
B(  4-C , 13-H ) :   0.7617 B(  5-C , 14-H ) :   0.8081 B(  5-C , 15-H ) :   0.7617
B(  8-H ,  9-H ) :  -0.1133 B( 10-H , 11-H ) :  -0.1133 B( 12-H , 13-H ) :  -0.1199
B( 14-H , 15-H ) :  -0.1199

MP2 TOTAL ENERGY:     -233.903367346 Eh
FINAL SINGLE POINT ENERGY      -233.903367346015

DIPOLE MOMENT
-------------
                                X             Y             Z
Electronic contribution:     -0.00000       0.00000       1.89347
Nuclear contribution   :      0.00000      -0.00000      -2.02866
                        -----------------------------------------
Total Dipole Moment    :     -0.00000       0.00000      -0.13520
                        -----------------------------------------
Magnitude (a.u.)       :      0.13520
Magnitude (Debye)      :      0.34364

Rotational constants in cm-1:     0.158081     0.152003     0.085225
Rotational constants in MHz :  4739.152944  4556.948365  2554.993737

                             ****ORCA TERMINATED NORMALLY****
TOTAL RUN TIME: 0 days 0 hours 0 minutes 48 seconds 539 msec
