                         Program Version 5.0.3 -  RELEASE  -
|  1> !ri-mp2 aug-cc-pvdz aug-cc-pvdz/c tightscf
|  2> %pal nprocs 16 end
|  3>
|  4> * xyz 0 1
|  5> O     -0.110702    1.322911   -0.000131
|  6> O      3.466618    0.112051   -0.000002
|  7> N      1.198390   -0.579867    0.000060
|  8> N     -3.543633    0.280825   -0.000038
|  9> C     -1.194850   -0.840419    0.000081
| 10> C     -0.022543    0.130129   -0.000013
| 11> C     -2.498057   -0.193546    0.000012
| 12> C      2.344250   -0.163499    0.000022
| 13> H     -1.101710   -1.491289   -0.872483
| 14> H     -1.101714   -1.491113    0.872777
| 15> *
| 16>
| 17>                          ****END OF INPUT****

CARTESIAN COORDINATES (ANGSTROEM)
---------------------------------
  O     -0.110702    1.322911   -0.000131
  O      3.466618    0.112051   -0.000002
  N      1.198390   -0.579867    0.000060
  N     -3.543633    0.280825   -0.000038
  C     -1.194850   -0.840419    0.000081
  C     -0.022543    0.130129   -0.000013
  C     -2.498057   -0.193546    0.000012
  C      2.344250   -0.163499    0.000022
  H     -1.101710   -1.491289   -0.872483
  H     -1.101714   -1.491113    0.872777

 Total Charge           Charge          ....    0
 Multiplicity           Mult            ....    1
 Number of Electrons    NEL             ....   56
 Basis Dimension        Dim             ....  202

ORBITAL ENERGIES
----------------

  NO   OCC          E(Eh)            E(eV)
   0   2.0000     -20.681313      -562.7671
   1   2.0000     -20.610044      -560.8278
   2   2.0000     -15.641171      -425.6179
   3   2.0000     -15.599459      -424.4829
   4   2.0000     -11.474623      -312.2404
   5   2.0000     -11.440712      -311.3176
   6   2.0000     -11.331050      -308.3335
   7   2.0000     -11.300980      -307.5153
   8   2.0000      -1.531082       -41.6629
   9   2.0000      -1.467928       -39.9444
  10   2.0000      -1.317719       -35.8570
  11   2.0000      -1.244785       -33.8723
  12   2.0000      -1.109025       -30.1781
  13   2.0000      -0.945938       -25.7403
  14   2.0000      -0.787348       -21.4248
  15   2.0000      -0.754164       -20.5218
  16   2.0000      -0.741923       -20.1888
  17   2.0000      -0.713696       -19.4207
  18   2.0000      -0.694858       -18.9080
  19   2.0000      -0.677421       -18.4336
  20   2.0000      -0.672749       -18.3064
  21   2.0000      -0.586509       -15.9597
  22   2.0000      -0.572873       -15.5887
  23   2.0000      -0.543387       -14.7863
  24   2.0000      -0.489898       -13.3308
  25   2.0000      -0.483285       -13.1509
  26   2.0000      -0.476485       -12.9658
  27   2.0000      -0.476466       -12.9653
  28   0.0000       0.022971         0.6251
  29   0.0000       0.042110         1.1459
  30   0.0000       0.053309         1.4506
  31   0.0000       0.071563         1.9473
  32   0.0000       0.082995         2.2584

MULLIKEN ATOMIC CHARGES
-----------------------
   0 O :   -0.634826
   1 O :   -0.382601
   2 N :   -0.292598
   3 N :   -0.334836
   4 C :    0.325457
   5 C :    0.751902
   6 C :    0.025332
   7 C :    0.257549
   8 H :    0.142310
   9 H :    0.142311
Sum of atomic charges:    0.0000000

LOEWDIN ATOMIC CHARGES
----------------------
   0 O :    0.097150
   1 O :    0.161186
   2 N :    0.088247
   3 N :    0.092785
   4 C :    0.028627
   5 C :   -0.309712
   6 C :   -0.128868
   7 C :   -0.109005
   8 H :    0.039795
   9 H :    0.039795

  Mayer bond orders larger than 0.100000
B(  0-O ,  5-C ) :   1.6819 B(  1-O ,  7-C ) :   2.0433 B(  2-N ,  4-C ) :  -0.1087
B(  2-N ,  5-C ) :   0.8481 B(  2-N ,  7-C ) :   1.8292 B(  3-N ,  6-C ) :   2.7458
B(  4-C ,  5-C ) :   1.0534 B(  4-C ,  6-C ) :   0.8106 B(  4-C ,  8-H ) :   0.9166
B(  4-C ,  9-H ) :   0.9166 B(  5-C ,  7-C ) :  -0.1890

MP2 TOTAL ENERGY:     -412.540779664 Eh
FINAL SINGLE POINT ENERGY      -412.540779664417

DIPOLE MOMENT
-------------
                                X             Y             Z
Electronic contribution:      3.08467       1.33558      -0.00013
Nuclear contribution   :     -2.06794      -2.82970       0.00028
                        -----------------------------------------
Total Dipole Moment    :      1.01673      -1.49412       0.00015
                        -----------------------------------------
Magnitude (a.u.)       :      1.80724
Magnitude (Debye)      :      4.59364

Rotational constants in cm-1:     0.341315     0.030620     0.028244
Rotational constants in MHz : 10232.363704   917.963548   846.724443

                             ****ORCA TERMINATED NORMALLY****
TOTAL RUN TIME: 0 days 0 hours 0 minutes 49 seconds 577 msec
