                         Program Version 5.0.3 -  RELEASE  -
|  1> !ri-mp2 aug-cc-pvdz aug-cc-pvdz/c tightscf
|  2> %pal nprocs 16 end
|  3>
|  4> * xyz 0 1
|  5> C      0.000000    0.000000    0.000000
|  6> S      0.000000    0.000000    1.557501
|  7> S      0.000000    0.000000   -1.557501
|  8> *
|  9>
| 10>                          ****END OF INPUT****

CARTESIAN COORDINATES (ANGSTROEM)
---------------------------------
  C      0.000000    0.000000    0.000000
  S      0.000000    0.000000    1.557501
  S      0.000000    0.000000   -1.557501

 Total Charge           Charge          ....    0
 Multiplicity           Mult            ....    1
 Number of Electrons    NEL             ....   38
 Basis Dimension        Dim             ....   77

ORBITAL ENERGIES
----------------

  NO   OCC          E(Eh)            E(eV)
   0   2.0000     -91.997370     -2503.3757
   1   2.0000     -91.997369     -2503.3757
   2   2.0000     -11.411071      -310.5110
   3   2.0000      -9.001297      -244.9377
   4   2.0000      -9.001264      -244.9368
   5   2.0000      -6.683447      -181.8658
   6   2.0000      -6.683438      -181.8656
   7   2.0000      -6.679992      -181.7718
   8   2.0000      -6.679992      -181.7718
   9   2.0000      -6.679991      -181.7718
  10   2.0000      -6.679991      -181.7718
  11   2.0000      -1.149510       -31.2797
  12   2.0000      -1.026355       -27.9285
  13   2.0000      -0.681043       -18.5321
  14   2.0000      -0.583687       -15.8829
  15   2.0000      -0.526767       -14.3341
  16   2.0000      -0.526767       -14.3341
  17   2.0000      -0.375104       -10.2071
  18   2.0000      -0.375104       -10.2071
  19   0.0000       0.041875         1.1395
  20   0.0000       0.041875         1.1395
  21   0.0000       0.064859         1.7649
  22   0.0000       0.067788         1.8446
  23   0.0000       0.106161         2.8888

MULLIKEN ATOMIC CHARGES
-----------------------
   0 C :   -0.490059
   1 S :    0.245029
   2 S :    0.245029
Sum of atomic charges:    0.0000000

LOEWDIN ATOMIC CHARGES
----------------------
   0 C :   -1.266897
   1 S :    0.633449
   2 S :    0.633449

  Mayer bond orders larger than 0.100000
B(  0-C ,  1-S ) :   1.8520 B(  0-C ,  2-S ) :   1.8520 B(  1-S ,  2-S ) :   0.2206

MP2 TOTAL ENERGY:     -833.342791361 Eh
FINAL SINGLE POINT ENERGY      -833.342791361233

DIPOLE MOMENT
-------------
                                X             Y             Z
Electronic contribution:      0.00000      -0.00000      -0.00000
Nuclear contribution   :      0.00000       0.00000       0.00000
                        -----------------------------------------
Total Dipole Moment    :      0.00000      -0.00000      -0.00000
                        -----------------------------------------
Magnitude (a.u.)       :      0.00000
Magnitude (Debye)      :      0.00000

Rotational constants in cm-1:     0.000000     0.108379     0.108379
Rotational constants in MHz :     0.000000  3249.132497  3249.132497

                             ****ORCA TERMINATED NORMALLY****
TOTAL RUN TIME: 0 days 0 hours 0 minutes 26 seconds 508 msec
