                         Program Version 5.0.3 -  RELEASE  -
|  1> !ri-mp2 aug-cc-pvdz aug-cc-pvdz/c tightscf
|  2> %pal nprocs 16 end
|  3>
|  4> * xyz 0 1
|  5> C      1.289018    1.047846        0.000000
|  6> C      0.000000    0.763426        0.000000
|  7> Cl    -0.623753   -0.866823        0.000000
|  8> H      1.603767    2.082310        0.000000
|  9> H      2.051033    0.282196        0.000000
| 10> H     -0.785113    1.503855        0.000000
| 11> *
| 12>
| 13>                          ****END OF INPUT****

CARTESIAN COORDINATES (ANGSTROEM)
---------------------------------
  C      1.289018    1.047846    0.000000
  C      0.000000    0.763426    0.000000
  Cl    -0.623753   -0.866823    0.000000
  H      1.603767    2.082310    0.000000
  H      2.051033    0.282196    0.000000
  H     -0.785113    1.503855    0.000000

 Total Charge           Charge          ....    0
 Multiplicity           Mult            ....    1
 Number of Electrons    NEL             ....   32
 Basis Dimension        Dim             ....  100

ORBITAL ENERGIES
----------------

  NO   OCC          E(Eh)            E(eV)
   0   2.0000    -104.840180     -2852.8463
   1   2.0000     -11.310711      -307.7801
   2   2.0000     -11.256263      -306.2985
   3   2.0000     -10.566358      -287.5252
   4   2.0000      -8.034136      -218.6200
   5   2.0000      -8.030759      -218.5281
   6   2.0000      -8.030734      -218.5274
   7   2.0000      -1.158347       -31.5202
   8   2.0000      -1.021169       -27.7874
   9   2.0000      -0.796152       -21.6644
  10   2.0000      -0.664754       -18.0889
  11   2.0000      -0.618369       -16.8267
  12   2.0000      -0.529588       -14.4108
  13   2.0000      -0.510309       -13.8862
  14   2.0000      -0.455270       -12.3885
  15   2.0000      -0.375404       -10.2153
  16   0.0000       0.036357         0.9893
  17   0.0000       0.048129         1.3097
  18   0.0000       0.056008         1.5241
  19   0.0000       0.091646         2.4938
  20   0.0000       0.094039         2.5589

MULLIKEN ATOMIC CHARGES
-----------------------
   0 C :    0.817185
   1 C :    0.077242
   2 Cl:   -0.247762
   3 H :   -0.209635
   4 H :   -0.181849
   5 H :   -0.255181
Sum of atomic charges:    0.0000000

LOEWDIN ATOMIC CHARGES
----------------------
   0 C :    0.095727
   1 C :   -0.438914
   2 Cl:    0.487165
   3 H :   -0.042083
   4 H :   -0.043313
   5 H :   -0.058582

  Mayer bond orders larger than 0.100000
B(  0-C ,  1-C ) :   1.8139 B(  0-C ,  2-Cl) :  -0.1534 B(  0-C ,  3-H ) :   0.8567
B(  0-C ,  4-H ) :   0.9307 B(  1-C ,  2-Cl) :   0.9958 B(  1-C ,  5-H ) :   1.0278
B(  3-H ,  4-H ) :  -0.1504

MP2 TOTAL ENERGY:     -537.393046029 Eh
FINAL SINGLE POINT ENERGY      -537.393046029276

DIPOLE MOMENT
-------------
                                X             Y             Z
Electronic contribution:     -3.31525      -4.29006       0.00000
Nuclear contribution   :      3.61756       4.91226       0.00000
                        -----------------------------------------
Total Dipole Moment    :      0.30231       0.62220       0.00000
                        -----------------------------------------
Magnitude (a.u.)       :      0.69175
Magnitude (Debye)      :      1.75829

Rotational constants in cm-1:     1.931031     0.197404     0.179096
Rotational constants in MHz : 57890.841622  5918.027423  5369.153119

                             ****ORCA TERMINATED NORMALLY****
TOTAL RUN TIME: 0 days 0 hours 0 minutes 37 seconds 768 msec
