                         Program Version 5.0.3 -  RELEASE  -
|  1> !ri-mp2 aug-cc-pvdz aug-cc-pvdz/c tightscf
|  2> %pal nprocs 16 end
|  3>
|  4> * xyz 0 1
|  5> N     -1.278679    0.891680    0.000794
|  6> C     -1.183279   -0.527836   -0.000005
|  7> O     -2.212368   -1.174968    0.000543
|  8> N      0.081477   -1.045063    0.000860
|  9> C      1.129520   -0.251037   -0.001356
| 10> N      2.350160   -0.839822   -0.016923
| 11> C      1.044869    1.182278   -0.000701
| 12> C     -0.202442    1.706311    0.000829
| 13> H     -2.216305    1.259538    0.001831
| 14> H      2.393103   -1.842117    0.040782
| 15> H      3.193278   -0.305790    0.070447
| 16> H      1.919772    1.812089   -0.004556
| 17> H     -0.393620    2.770157    0.001442
| 18> *
| 19>
| 20>                          ****END OF INPUT****

CARTESIAN COORDINATES (ANGSTROEM)
---------------------------------
  N     -1.278679    0.891680    0.000794
  C     -1.183279   -0.527836   -0.000005
  O     -2.212368   -1.174968    0.000543
  N      0.081477   -1.045063    0.000860
  C      1.129520   -0.251037   -0.001356
  N      2.350160   -0.839822   -0.016923
  C      1.044869    1.182278   -0.000701
  C     -0.202442    1.706311    0.000829
  H     -2.216305    1.259538    0.001831
  H      2.393103   -1.842117    0.040782
  H      3.193278   -0.305790    0.070447
  H      1.919772    1.812089   -0.004556
  H     -0.393620    2.770157    0.001442

 Total Charge           Charge          ....    0
 Multiplicity           Mult            ....    1
 Number of Electrons    NEL             ....   58
 Basis Dimension        Dim             ....  229

ORBITAL ENERGIES
----------------

  NO   OCC          E(Eh)            E(eV)
   0   2.0000     -20.512558      -558.1751
   1   2.0000     -15.627213      -425.2381
   2   2.0000     -15.604335      -424.6155
   3   2.0000     -15.547456      -423.0678
   4   2.0000     -11.377917      -309.6089
   5   2.0000     -11.360612      -309.1380
   6   2.0000     -11.335781      -308.4623
   7   2.0000     -11.250496      -306.1416
   8   2.0000      -1.391954       -37.8770
   9   2.0000      -1.304707       -35.5029
  10   2.0000      -1.268570       -34.5195
  11   2.0000      -1.176969       -32.0269
  12   2.0000      -1.069195       -29.0943
  13   2.0000      -0.905395       -24.6371
  14   2.0000      -0.882468       -24.0132
  15   2.0000      -0.766502       -20.8576
  16   2.0000      -0.764078       -20.7916
  17   2.0000      -0.724038       -19.7021
  18   2.0000      -0.683582       -18.6012
  19   2.0000      -0.629148       -17.1200
  20   2.0000      -0.626339       -17.0436
  21   2.0000      -0.611042       -16.6273
  22   2.0000      -0.596211       -16.2237
  23   2.0000      -0.538451       -14.6520
  24   2.0000      -0.492633       -13.4052
  25   2.0000      -0.443287       -12.0624
  26   2.0000      -0.418613       -11.3910
  27   2.0000      -0.384657       -10.4671
  28   2.0000      -0.342937        -9.3318
  29   0.0000       0.020306         0.5526
  30   0.0000       0.029209         0.7948
  31   0.0000       0.044324         1.2061
  32   0.0000       0.060268         1.6400
  33   0.0000       0.070180         1.9097

MULLIKEN ATOMIC CHARGES
-----------------------
   0 N :   -0.562125
   1 C :    1.049546
   2 O :   -0.777347
   3 N :   -0.756157
   4 C :    0.475981
   5 N :   -0.297903
   6 C :    1.217771
   7 C :    0.622245
   8 H :   -0.082139
   9 H :   -0.022606
  10 H :   -0.041257
  11 H :   -0.527293
  12 H :   -0.298716
Sum of atomic charges:   -0.0000000

LOEWDIN ATOMIC CHARGES
----------------------
   0 N :    0.133985
   1 C :   -0.381774
   2 O :    0.007550
   3 N :    0.093401
   4 C :   -0.278181
   5 N :    0.284440
   6 C :    0.058671
   7 C :    0.047357
   8 H :    0.029372
   9 H :   -0.003581
  10 H :   -0.014182
  11 H :   -0.006762
  12 H :    0.029705

  Mayer bond orders larger than 0.100000
B(  0-N ,  1-C ) :   0.8169 B(  0-N ,  7-C ) :   0.9686 B(  0-N ,  8-H ) :   1.2209
B(  1-C ,  2-O ) :   1.3838 B(  1-C ,  3-N ) :   1.1734 B(  3-N ,  4-C ) :   1.2821
B(  4-C ,  5-N ) :   0.9053 B(  4-C ,  6-C ) :   0.6068 B(  4-C ,  7-C ) :   0.2993
B(  4-C ,  9-H ) :  -0.1037 B(  4-C , 11-H ) :   0.2938 B(  5-N ,  9-H ) :   1.1190
B(  5-N , 10-H ) :   1.1560 B(  6-C ,  7-C ) :   1.3869 B(  6-C , 11-H ) :   0.3324
B(  7-C ,  8-H ) :  -0.1526 B(  7-C , 11-H ) :   0.1332 B(  7-C , 12-H ) :   0.7599

MP2 TOTAL ENERGY:     -393.909124735 Eh
FINAL SINGLE POINT ENERGY      -393.909124734920

DIPOLE MOMENT
-------------
                                X             Y             Z
Electronic contribution:     -2.91754      -1.43606      -0.02291
Nuclear contribution   :      4.77279       3.59766       0.10771
                        -----------------------------------------
Total Dipole Moment    :      1.85524       2.16160       0.08480
                        -----------------------------------------
Magnitude (a.u.)       :      2.84985
Magnitude (Debye)      :      7.24375

Rotational constants in cm-1:     0.129622     0.067607     0.044435
Rotational constants in MHz :  3885.974705  2026.804172  1332.120386

                             ****ORCA TERMINATED NORMALLY****
TOTAL RUN TIME: 0 days 0 hours 1 minutes 3 seconds 730 msec
