                         Program Version 5.0.3 -  RELEASE  -
|  1> !ri-mp2 aug-cc-pvdz aug-cc-pvdz/c tightscf
|  2> %pal nprocs 16 end
|  3>
|  4> * xyz 0 1
|  5> Cl    -1.452562   -0.235201    0.000013
|  6> O      2.214395   -0.375124    0.000033
|  7> C      0.002567    0.726842   -0.000115
|  8> C      1.175372    0.139924   -0.000030
|  9> H     -0.089246    1.798809    0.000383
| 10> *
| 11>
| 12>                          ****END OF INPUT****

CARTESIAN COORDINATES (ANGSTROEM)
---------------------------------
  Cl    -1.452562   -0.235201    0.000013
  O      2.214395   -0.375124    0.000033
  C      0.002567    0.726842   -0.000115
  C      1.175372    0.139924   -0.000030
  H     -0.089246    1.798809    0.000383

 Total Charge           Charge          ....    0
 Multiplicity           Mult            ....    1
 Number of Electrons    NEL             ....   38
 Basis Dimension        Dim             ....  105

ORBITAL ENERGIES
----------------

  NO   OCC          E(Eh)            E(eV)
   0   2.0000    -104.863862     -2853.4907
   1   2.0000     -20.663173      -562.2735
   2   2.0000     -11.414877      -310.6146
   3   2.0000     -11.314526      -307.8839
   4   2.0000     -10.588690      -288.1329
   5   2.0000      -8.056647      -219.2325
   6   2.0000      -8.053033      -219.1342
   7   2.0000      -8.052728      -219.1259
   8   2.0000      -1.501206       -40.8499
   9   2.0000      -1.177666       -32.0459
  10   2.0000      -1.024123       -27.8678
  11   2.0000      -0.777475       -21.1562
  12   2.0000      -0.718994       -19.5648
  13   2.0000      -0.667846       -18.1730
  14   2.0000      -0.649675       -17.6785
  15   2.0000      -0.576373       -15.6839
  16   2.0000      -0.520307       -14.1583
  17   2.0000      -0.477133       -12.9835
  18   2.0000      -0.363968        -9.9041
  19   0.0000       0.032353         0.8804
  20   0.0000       0.059132         1.6091
  21   0.0000       0.072609         1.9758
  22   0.0000       0.101037         2.7494
  23   0.0000       0.106636         2.9017

MULLIKEN ATOMIC CHARGES
-----------------------
   0 Cl:   -0.170939
   1 O :   -0.342735
   2 C :    0.443975
   3 C :    0.278234
   4 H :   -0.208536
Sum of atomic charges:    0.0000000

LOEWDIN ATOMIC CHARGES
----------------------
   0 Cl:    0.505805
   1 O :    0.119401
   2 C :   -0.396636
   3 C :   -0.163831
   4 H :   -0.064739

  Mayer bond orders larger than 0.100000
B(  0-Cl,  2-C ) :   0.9797 B(  0-Cl,  3-C ) :  -0.1224 B(  1-O ,  2-C ) :  -0.1322
B(  1-O ,  3-C ) :   2.1207 B(  2-C ,  3-C ) :   1.4743 B(  2-C ,  4-H ) :   0.9475

MP2 TOTAL ENERGY:     -611.249496579 Eh
FINAL SINGLE POINT ENERGY      -611.249496578685

DIPOLE MOMENT
-------------
                                X             Y             Z
Electronic contribution:     -1.97260      -1.40140      -0.00012
Nuclear contribution   :      1.88842       1.98697       0.00034
                        -----------------------------------------
Total Dipole Moment    :     -0.08418       0.58557       0.00022
                        -----------------------------------------
Magnitude (a.u.)       :      0.59159
Magnitude (Debye)      :      1.50370

Rotational constants in cm-1:     1.204645     0.099276     0.091717
Rotational constants in MHz : 36114.361304  2976.214606  2749.616434

                             ****ORCA TERMINATED NORMALLY****
TOTAL RUN TIME: 0 days 0 hours 0 minutes 26 seconds 962 msec
