                         Program Version 5.0.3 -  RELEASE  -
|  1> !ri-mp2 aug-cc-pvdz aug-cc-pvdz/c tightscf
|  2> %pal nprocs 16 end
|  3>
|  4> * xyz 0 1
|  5> C      0.000000    0.000000   -0.151984
|  6> F      0.000000    0.000000    1.114358
|  7> N      0.000000    0.000000   -1.302474
|  8> *
|  9>
| 10>                          ****END OF INPUT****

CARTESIAN COORDINATES (ANGSTROEM)
---------------------------------
  C      0.000000    0.000000   -0.151984
  F      0.000000    0.000000    1.114358
  N      0.000000    0.000000   -1.302474

 Total Charge           Charge          ....    0
 Multiplicity           Mult            ....    1
 Number of Electrons    NEL             ....   22
 Basis Dimension        Dim             ....   69

ORBITAL ENERGIES
----------------

  NO   OCC          E(Eh)            E(eV)
   0   2.0000     -26.451751      -719.7887
   1   2.0000     -15.621447      -425.0812
   2   2.0000     -11.408364      -310.4374
   3   2.0000      -1.770288       -48.1720
   4   2.0000      -1.266261       -34.4567
   5   2.0000      -0.929815       -25.3016
   6   2.0000      -0.813916       -22.1478
   7   2.0000      -0.813916       -22.1478
   8   2.0000      -0.601160       -16.3584
   9   2.0000      -0.505411       -13.7529
  10   2.0000      -0.505411       -13.7529
  11   0.0000       0.050229         1.3668
  12   0.0000       0.089738         2.4419
  13   0.0000       0.089738         2.4419
  14   0.0000       0.089824         2.4442
  15   0.0000       0.176091         4.7917

MULLIKEN ATOMIC CHARGES
-----------------------
   0 C :    0.466239
   1 F :   -0.290160
   2 N :   -0.176079
Sum of atomic charges:    0.0000000

LOEWDIN ATOMIC CHARGES
----------------------
   0 C :   -0.207272
   1 F :    0.141806
   2 N :    0.065466

  Mayer bond orders larger than 0.100000
B(  0-C ,  1-F ) :   0.8983 B(  0-C ,  2-N ) :   2.7411

MP2 TOTAL ENERGY:     -192.210880749 Eh
FINAL SINGLE POINT ENERGY      -192.210880749310

DIPOLE MOMENT
-------------
                                X             Y             Z
Electronic contribution:     -0.00000      -0.00000       1.91346
Nuclear contribution   :      0.00000       0.00000      -1.01713
                        -----------------------------------------
Total Dipole Moment    :     -0.00000      -0.00000       0.89633
                        -----------------------------------------
Magnitude (a.u.)       :      0.89633
Magnitude (Debye)      :      2.27829

Rotational constants in cm-1:     0.000000     0.354122     0.354122
Rotational constants in MHz :     0.000000 10616.299095 10616.299095

                             ****ORCA TERMINATED NORMALLY****
TOTAL RUN TIME: 0 days 0 hours 0 minutes 44 seconds 306 msec
