                         Program Version 5.0.3 -  RELEASE  -
|  1> !ri-mp2 aug-cc-pvdz aug-cc-pvdz/c tightscf
|  2> %pal nprocs 16 end
|  3>
|  4> * xyz 0 1
|  5> C     0.000000     0.000000    0.381094
|  6> O     0.000000     0.000000    1.576449
|  7> C     0.000000     0.785897   -0.855963
|  8> C     0.000000    -0.785897   -0.855963
|  9> H     0.911746     1.287106   -1.156649
| 10> H    -0.911746     1.287106   -1.156649
| 11> H    -0.911746    -1.287106   -1.156649
| 12> H     0.911746    -1.287106   -1.156649
| 13> *
| 14>
| 15>                          ****END OF INPUT****

CARTESIAN COORDINATES (ANGSTROEM)
---------------------------------
  C      0.000000    0.000000    0.381094
  O      0.000000    0.000000    1.576449
  C      0.000000    0.785897   -0.855963
  C      0.000000   -0.785897   -0.855963
  H      0.911746    1.287106   -1.156649
  H     -0.911746    1.287106   -1.156649
  H     -0.911746   -1.287106   -1.156649
  H      0.911746   -1.287106   -1.156649

 Total Charge           Charge          ....    0
 Multiplicity           Mult            ....    1
 Number of Electrons    NEL             ....   30
 Basis Dimension        Dim             ....  128

ORBITAL ENERGIES
----------------

  NO   OCC          E(Eh)            E(eV)
   0   2.0000     -20.579226      -559.9892
   1   2.0000     -11.358296      -309.0750
   2   2.0000     -11.262542      -306.4693
   3   2.0000     -11.262066      -306.4564
   4   2.0000      -1.409610       -38.3574
   5   2.0000      -1.158459       -31.5233
   6   2.0000      -0.868889       -23.6437
   7   2.0000      -0.761664       -20.7259
   8   2.0000      -0.677533       -18.4366
   9   2.0000      -0.675514       -18.3817
  10   2.0000      -0.613437       -16.6925
  11   2.0000      -0.550982       -14.9930
  12   2.0000      -0.518851       -14.1186
  13   2.0000      -0.467197       -12.7131
  14   2.0000      -0.389747       -10.6056
  15   0.0000       0.032587         0.8867
  16   0.0000       0.043890         1.1943
  17   0.0000       0.046052         1.2531
  18   0.0000       0.068661         1.8684
  19   0.0000       0.075460         2.0534

MULLIKEN ATOMIC CHARGES
-----------------------
   0 C :    0.247313
   1 O :   -0.599878
   2 C :    0.600202
   3 C :    0.600202
   4 H :   -0.211960
   5 H :   -0.211960
   6 H :   -0.211960
   7 H :   -0.211960
Sum of atomic charges:   -0.0000000

LOEWDIN ATOMIC CHARGES
----------------------
   0 C :   -0.285975
   1 O :    0.064637
   2 C :    0.113581
   3 C :    0.113581
   4 H :   -0.001456
   5 H :   -0.001456
   6 H :   -0.001456
   7 H :   -0.001456

  Mayer bond orders larger than 0.100000
B(  0-C ,  1-O ) :   1.6337 B(  0-C ,  2-C ) :   0.8941 B(  0-C ,  3-C ) :   0.8941
B(  2-C ,  3-C ) :   0.9784 B(  2-C ,  4-H ) :   0.9131 B(  2-C ,  5-H ) :   0.9131
B(  3-C ,  6-H ) :   0.9131 B(  3-C ,  7-H ) :   0.9131 B(  4-H ,  5-H ) :  -0.1302
B(  6-H ,  7-H ) :  -0.1302

MP2 TOTAL ENERGY:     -191.355732188 Eh
FINAL SINGLE POINT ENERGY      -191.355732187536

DIPOLE MOMENT
-------------
                                X             Y             Z
Electronic contribution:     -0.00000      -0.00000       3.26601
Nuclear contribution   :      0.00000       0.00000      -4.62458
                        -----------------------------------------
Total Dipole Moment    :     -0.00000      -0.00000      -1.35857
                        -----------------------------------------
Magnitude (a.u.)       :      1.35857
Magnitude (Debye)      :      3.45320

Rotational constants in cm-1:     0.677882     0.249824     0.196837
Rotational constants in MHz : 20322.391803  7489.539687  5901.021926

                             ****ORCA TERMINATED NORMALLY****
TOTAL RUN TIME: 0 days 0 hours 0 minutes 51 seconds 657 msec
