                         Program Version 5.0.3 -  RELEASE  -
|  1> !ri-mp2 aug-cc-pvdz aug-cc-pvdz/c tightscf
|  2> %pal nprocs 16 end
|  3>
|  4> * xyz 0 1
|  5> C      0.000000    0.771638   -1.378323
|  6> H     -0.624422    1.190682   -2.165746
|  7> H      1.015837    1.139927   -1.539367
|  8> C      0.000000   -0.771638   -1.378323
|  9> H      0.624422   -1.190682   -2.165746
| 10> H     -1.015837   -1.139927   -1.539367
| 11> C      0.473205   -1.145341    0.031186
| 12> H      1.566143   -1.166083    0.089614
| 13> H      0.115834   -2.102523    0.407428
| 14> C     -0.473205    1.145341    0.031186
| 15> H     -0.115834    2.102523    0.407428
| 16> H     -1.566143    1.166083    0.089614
| 17> C      0.000000    0.000000    0.924314
| 18> O      0.000000    0.000000    2.129486
| 19> *
| 20>
| 21>                          ****END OF INPUT****

CARTESIAN COORDINATES (ANGSTROEM)
---------------------------------
  C      0.000000    0.771638   -1.378323
  H     -0.624422    1.190682   -2.165746
  H      1.015837    1.139927   -1.539367
  C      0.000000   -0.771638   -1.378323
  H      0.624422   -1.190682   -2.165746
  H     -1.015837   -1.139927   -1.539367
  C      0.473205   -1.145341    0.031186
  H      1.566143   -1.166083    0.089614
  H      0.115834   -2.102523    0.407428
  C     -0.473205    1.145341    0.031186
  H     -0.115834    2.102523    0.407428
  H     -1.566143    1.166083    0.089614
  C      0.000000    0.000000    0.924314
  O      0.000000    0.000000    2.129486

 Total Charge           Charge          ....    0
 Multiplicity           Mult            ....    1
 Number of Electrons    NEL             ....   46
 Basis Dimension        Dim             ....  210

ORBITAL ENERGIES
----------------

  NO   OCC          E(Eh)            E(eV)
   0   2.0000     -20.553356      -559.2852
   1   2.0000     -11.334294      -308.4218
   2   2.0000     -11.242590      -305.9264
   3   2.0000     -11.242069      -305.9123
   4   2.0000     -11.241162      -305.8876
   5   2.0000     -11.241137      -305.8869
   6   2.0000      -1.390504       -37.8375
   7   2.0000      -1.131959       -30.8022
   8   2.0000      -0.993102       -27.0237
   9   2.0000      -0.941136       -25.6096
  10   2.0000      -0.811282       -22.0761
  11   2.0000      -0.734668       -19.9913
  12   2.0000      -0.670933       -18.2570
  13   2.0000      -0.665151       -18.0997
  14   2.0000      -0.595870       -16.2144
  15   2.0000      -0.593159       -16.1407
  16   2.0000      -0.567375       -15.4391
  17   2.0000      -0.557859       -15.1801
  18   2.0000      -0.506644       -13.7865
  19   2.0000      -0.492070       -13.3899
  20   2.0000      -0.480924       -13.0866
  21   2.0000      -0.476926       -12.9778
  22   2.0000      -0.394160       -10.7256
  23   0.0000       0.032377         0.8810
  24   0.0000       0.042231         1.1492
  25   0.0000       0.043998         1.1972
  26   0.0000       0.049586         1.3493
  27   0.0000       0.066577         1.8117

MULLIKEN ATOMIC CHARGES
-----------------------
   0 C :    0.447132
   1 H :   -0.097757
   2 H :   -0.176058
   3 C :    0.447132
   4 H :   -0.097757
   5 H :   -0.176058
   6 C :    0.145810
   7 H :   -0.009955
   8 H :   -0.062295
   9 C :    0.145810
  10 H :   -0.062295
  11 H :   -0.009955
  12 C :    0.317640
  13 O :   -0.811393
Sum of atomic charges:    0.0000000

LOEWDIN ATOMIC CHARGES
----------------------
   0 C :   -0.009305
   1 H :    0.010059
   2 H :    0.014096
   3 C :   -0.009305
   4 H :    0.010059
   5 H :    0.014096
   6 C :    0.044018
   7 H :    0.027001
   8 H :    0.020412
   9 C :    0.044018
  10 H :    0.020412
  11 H :    0.027001
  12 C :   -0.253960
  13 O :    0.041398

  Mayer bond orders larger than 0.100000
B(  0-C ,  1-H ) :   0.8038 B(  0-C ,  2-H ) :   0.7825 B(  0-C ,  3-C ) :   1.1683
B(  0-C ,  9-C ) :   1.2306 B(  1-H ,  2-H ) :  -0.1214 B(  3-C ,  4-H ) :   0.8038
B(  3-C ,  5-H ) :   0.7825 B(  3-C ,  6-C ) :   1.2306 B(  4-H ,  5-H ) :  -0.1214
B(  6-C ,  7-H ) :   0.8280 B(  6-C ,  8-H ) :   0.8030 B(  6-C , 12-C ) :   1.0684
B(  7-H ,  8-H ) :  -0.1049 B(  8-H , 12-C ) :   0.1011 B(  9-C , 10-H ) :   0.8030
B(  9-C , 11-H ) :   0.8280 B(  9-C , 12-C ) :   1.0684 B( 10-H , 11-H ) :  -0.1049
B( 10-H , 12-C ) :   0.1011 B( 12-C , 13-O ) :   1.3209

MP2 TOTAL ENERGY:     -269.801327941 Eh
FINAL SINGLE POINT ENERGY      -269.801327941497

DIPOLE MOMENT
-------------
                                X             Y             Z
Electronic contribution:     -0.00000       0.00000       5.12209
Nuclear contribution   :     -0.00000      -0.00000      -6.55506
                        -----------------------------------------
Total Dipole Moment    :     -0.00000       0.00000      -1.43297
                        -----------------------------------------
Magnitude (a.u.)       :      1.43297
Magnitude (Debye)      :      3.64232

Rotational constants in cm-1:     0.221334     0.111716     0.080114
Rotational constants in MHz :  6635.422607  3349.151502  2401.742791

                             ****ORCA TERMINATED NORMALLY****
TOTAL RUN TIME: 0 days 0 hours 0 minutes 52 seconds 734 msec
