                         Program Version 5.0.3 -  RELEASE  -
|  1> !ri-mp2 aug-cc-pvdz aug-cc-pvdz/c tightscf
|  2> %pal nprocs 16 end
|  3>
|  4> * xyz 0 1
|  5> S    -0.536792   -0.543833   -0.276416
|  6> O     0.866478    1.705968    0.049598
|  7> O     2.489216   -1.419387    0.583107
|  8> O     2.845768    0.218453   -0.891343
|  9> N    -4.192497   -0.407208   -0.402880
| 10> C     0.859914    0.349946    0.489306
| 11> C     2.146941   -0.391213    0.076767
| 12> C    -1.899041    0.431745    0.492309
| 13> C    -3.177957   -0.037706   -0.008686
| 14> H     1.217959    2.266909    0.750986
| 15> H     2.393223    1.045651   -1.126008
| 16> H     0.773010    0.288303    1.574137
| 17> H    -1.868393    0.311523    1.575605
| 18> H    -1.770497    1.482491    0.239021
| 19> *
| 20>
| 21>                          ****END OF INPUT****

CARTESIAN COORDINATES (ANGSTROEM)
---------------------------------
  S     -0.536792   -0.543833   -0.276416
  O      0.866478    1.705968    0.049598
  O      2.489216   -1.419387    0.583107
  O      2.845768    0.218453   -0.891343
  N     -4.192497   -0.407208   -0.402880
  C      0.859914    0.349946    0.489306
  C      2.146941   -0.391213    0.076767
  C     -1.899041    0.431745    0.492309
  C     -3.177957   -0.037706   -0.008686
  H      1.217959    2.266909    0.750986
  H      2.393223    1.045651   -1.126008
  H      0.773010    0.288303    1.574137
  H     -1.868393    0.311523    1.575605
  H     -1.770497    1.482491    0.239021

 Total Charge           Charge          ....    0
 Multiplicity           Mult            ....    1
 Number of Electrons    NEL             ....   76
 Basis Dimension        Dim             ....  256

ORBITAL ENERGIES
----------------

  NO   OCC          E(Eh)            E(eV)
   0   2.0000     -92.006560     -2503.6258
   1   2.0000     -20.646505      -561.8200
   2   2.0000     -20.641114      -561.6733
   3   2.0000     -20.581254      -560.0444
   4   2.0000     -15.601498      -424.5383
   5   2.0000     -11.421629      -310.7983
   6   2.0000     -11.384112      -309.7774
   7   2.0000     -11.341014      -308.6047
   8   2.0000     -11.304117      -307.6007
   9   2.0000      -9.007611      -245.1096
  10   2.0000      -6.689372      -182.0271
  11   2.0000      -6.687903      -181.9871
  12   2.0000      -6.685549      -181.9230
  13   2.0000      -1.493990       -40.6535
  14   2.0000      -1.439248       -39.1639
  15   2.0000      -1.395641       -37.9773
  16   2.0000      -1.247206       -33.9382
  17   2.0000      -1.124490       -30.5989
  18   2.0000      -1.042144       -28.3582
  19   2.0000      -0.909337       -24.7443
  20   2.0000      -0.846457       -23.0333
  21   2.0000      -0.784333       -21.3428
  22   2.0000      -0.777047       -21.1445
  23   2.0000      -0.722070       -19.6485
  24   2.0000      -0.688214       -18.7273
  25   2.0000      -0.670789       -18.2531
  26   2.0000      -0.667327       -18.1589
  27   2.0000      -0.627497       -17.0751
  28   2.0000      -0.605553       -16.4779
  29   2.0000      -0.586435       -15.9577
  30   2.0000      -0.570710       -15.5298
  31   2.0000      -0.565676       -15.3928
  32   2.0000      -0.510276       -13.8853
  33   2.0000      -0.496097       -13.4995
  34   2.0000      -0.483096       -13.1457
  35   2.0000      -0.473390       -12.8816
  36   2.0000      -0.457886       -12.4597
  37   2.0000      -0.396467       -10.7884
  38   0.0000       0.011654         0.3171
  39   0.0000       0.034175         0.9300
  40   0.0000       0.041100         1.1184
  41   0.0000       0.050272         1.3680
  42   0.0000       0.064935         1.7670

MULLIKEN ATOMIC CHARGES
-----------------------
   0 S :    0.430821
   1 O :   -0.745227
   2 O :   -0.724255
   3 O :   -0.689491
   4 N :   -0.249212
   5 C :    0.377960
   6 C :    1.224844
   7 C :    0.357401
   8 C :   -0.358178
   9 H :    0.160132
  10 H :    0.257685
  11 H :   -0.100352
  12 H :   -0.002720
  13 H :    0.060592
Sum of atomic charges:   -0.0000000

LOEWDIN ATOMIC CHARGES
----------------------
   0 S :    0.936898
   1 O :    0.110303
   2 O :    0.059135
   3 O :    0.221184
   4 N :    0.080256
   5 C :   -0.402965
   6 C :   -0.391232
   7 C :   -0.266131
   8 C :   -0.219161
   9 H :   -0.034966
  10 H :   -0.061382
  11 H :    0.001243
  12 H :   -0.013546
  13 H :   -0.019636

  Mayer bond orders larger than 0.100000
B(  0-S ,  5-C ) :   1.1802 B(  0-S ,  7-C ) :   1.0180 B(  1-O ,  5-C ) :   0.5011
B(  1-O ,  9-H ) :   1.0744 B(  2-O ,  6-C ) :   1.4711 B(  3-O ,  5-C ) :   0.1557
B(  3-O ,  6-C ) :   0.4288 B(  3-O , 10-H ) :   0.9357 B(  4-N ,  7-C ) :  -0.1157
B(  4-N ,  8-C ) :   2.7023 B(  5-C ,  6-C ) :   0.9852 B(  5-C , 11-H ) :   0.8816
B(  7-C ,  8-C ) :   0.6241 B(  7-C , 12-H ) :   0.9266 B(  7-C , 13-H ) :   0.9437

MP2 TOTAL ENERGY:     -832.442294317 Eh
FINAL SINGLE POINT ENERGY      -832.442294317402

DIPOLE MOMENT
-------------
                                X             Y             Z
Electronic contribution:     -0.23550      -2.99523      -1.78466
Nuclear contribution   :      0.80997       5.25471       2.92535
                        -----------------------------------------
Total Dipole Moment    :      0.57447       2.25948       1.14069
                        -----------------------------------------
Magnitude (a.u.)       :      2.59547
Magnitude (Debye)      :      6.59715

Rotational constants in cm-1:     0.119562     0.021748     0.019949
Rotational constants in MHz :  3584.371602   651.991687   598.052055

                             ****ORCA TERMINATED NORMALLY****
TOTAL RUN TIME: 0 days 0 hours 1 minutes 24 seconds 908 msec
