                         Program Version 5.0.3 -  RELEASE  -
|  1> !ri-mp2 aug-cc-pvdz aug-cc-pvdz/c tightscf
|  2> %pal nprocs 16 end
|  3>
|  4> * xyz 0 1
|  5> C    -1.077960     0.000000   -0.148679
|  6> C     1.077960     0.000000   -0.148679
|  7> C     0.000000     1.086408   -0.403813
|  8> C     0.000000    -1.086408   -0.403813
|  9> C     0.000000     2.344796    0.443912
| 10> C     0.000000    -2.344796    0.443912
| 11> H    -1.394186     0.000000    0.897568
| 12> H    -1.966460     0.000000   -0.780419
| 13> H     1.394186     0.000000    0.897568
| 14> H     1.966460     0.000000   -0.780419
| 15> H     0.000000     1.356060   -1.462683
| 16> H     0.000000    -1.356060   -1.462683
| 17> H     0.000000     2.098731    1.508187
| 18> H     0.000000    -2.098731    1.508187
| 19> H     0.881667     2.958111    0.244413
| 20> H    -0.881667     2.958111    0.244413
| 21> H    -0.881667    -2.958111    0.244413
| 22> H     0.881667    -2.958111    0.244413
| 23> *
| 24>
| 25>                          ****END OF INPUT****

CARTESIAN COORDINATES (ANGSTROEM)
---------------------------------
  C     -1.077960    0.000000   -0.148679
  C      1.077960    0.000000   -0.148679
  C      0.000000    1.086408   -0.403813
  C      0.000000   -1.086408   -0.403813
  C      0.000000    2.344796    0.443912
  C      0.000000   -2.344796    0.443912
  H     -1.394186    0.000000    0.897568
  H     -1.966460    0.000000   -0.780419
  H      1.394186    0.000000    0.897568
  H      1.966460    0.000000   -0.780419
  H      0.000000    1.356060   -1.462683
  H      0.000000   -1.356060   -1.462683
  H      0.000000    2.098731    1.508187
  H      0.000000   -2.098731    1.508187
  H      0.881667    2.958111    0.244413
  H     -0.881667    2.958111    0.244413
  H     -0.881667   -2.958111    0.244413
  H      0.881667   -2.958111    0.244413

 Total Charge           Charge          ....    0
 Multiplicity           Mult            ....    1
 Number of Electrons    NEL             ....   48
 Basis Dimension        Dim             ....  246

ORBITAL ENERGIES
----------------

  NO   OCC          E(Eh)            E(eV)
   0   2.0000     -11.224942      -305.4462
   1   2.0000     -11.224911      -305.4453
   2   2.0000     -11.215578      -305.1914
   3   2.0000     -11.215546      -305.1905
   4   2.0000     -11.214379      -305.1588
   5   2.0000     -11.214377      -305.1587
   6   2.0000      -1.135089       -30.8873
   7   2.0000      -1.004917       -27.3452
   8   2.0000      -0.936524       -25.4841
   9   2.0000      -0.893044       -24.3010
  10   2.0000      -0.795612       -21.6497
  11   2.0000      -0.740840       -20.1593
  12   2.0000      -0.651779       -17.7358
  13   2.0000      -0.588836       -16.0230
  14   2.0000      -0.582623       -15.8540
  15   2.0000      -0.578239       -15.7347
  16   2.0000      -0.550954       -14.9922
  17   2.0000      -0.531488       -14.4625
  18   2.0000      -0.526800       -14.3350
  19   2.0000      -0.487180       -13.2568
  20   2.0000      -0.444847       -12.1049
  21   2.0000      -0.443771       -12.0756
  22   2.0000      -0.421383       -11.4664
  23   2.0000      -0.414283       -11.2732
  24   0.0000       0.037142         1.0107
  25   0.0000       0.044354         1.2069
  26   0.0000       0.045916         1.2494
  27   0.0000       0.046935         1.2772
  28   0.0000       0.064911         1.7663

MULLIKEN ATOMIC CHARGES
-----------------------
   0 C :    0.951311
   1 C :    0.951311
   2 C :   -0.778998
   3 C :   -0.778998
   4 C :    0.617480
   5 C :    0.617480
   6 H :   -0.230522
   7 H :   -0.185759
   8 H :   -0.230522
   9 H :   -0.185759
  10 H :   -0.306547
  11 H :   -0.306547
  12 H :   -0.070735
  13 H :   -0.070735
  14 H :    0.001885
  15 H :    0.001885
  16 H :    0.001885
  17 H :    0.001885
Sum of atomic charges:   -0.0000000

LOEWDIN ATOMIC CHARGES
----------------------
   0 C :    0.057175
   1 C :    0.057175
   2 C :   -0.212536
   3 C :   -0.212536
   4 C :    0.153449
   5 C :    0.153449
   6 H :    0.011348
   7 H :    0.005346
   8 H :    0.011348
   9 H :    0.005346
  10 H :    0.033047
  11 H :    0.033047
  12 H :   -0.016369
  13 H :   -0.016369
  14 H :   -0.015730
  15 H :   -0.015730
  16 H :   -0.015730
  17 H :   -0.015730

  Mayer bond orders larger than 0.100000
B(  0-C ,  2-C ) :   0.9477 B(  0-C ,  3-C ) :   0.9477 B(  0-C ,  4-C ) :  -0.1681
B(  0-C ,  5-C ) :  -0.1681 B(  0-C ,  6-H ) :   0.7019 B(  0-C ,  7-H ) :   0.7792
B(  0-C , 12-H ) :  -0.1080 B(  0-C , 13-H ) :  -0.1080 B(  1-C ,  2-C ) :   0.9477
B(  1-C ,  3-C ) :   0.9477 B(  1-C ,  4-C ) :  -0.1681 B(  1-C ,  5-C ) :  -0.1681
B(  1-C ,  8-H ) :   0.7019 B(  1-C ,  9-H ) :   0.7792 B(  1-C , 12-H ) :  -0.1080
B(  1-C , 13-H ) :  -0.1080 B(  2-C ,  3-C ) :   0.1530 B(  2-C ,  4-C ) :   1.3364
B(  2-C ,  6-H ) :   0.1308 B(  2-C ,  8-H ) :   0.1308 B(  2-C , 10-H ) :   0.6119
B(  2-C , 12-H ) :   0.2448 B(  3-C ,  5-C ) :   1.3364 B(  3-C ,  6-H ) :   0.1308
B(  3-C ,  8-H ) :   0.1308 B(  3-C , 11-H ) :   0.6119 B(  3-C , 13-H ) :   0.2448
B(  4-C , 12-H ) :   0.8919 B(  4-C , 14-H ) :   0.8446 B(  4-C , 15-H ) :   0.8446
B(  5-C , 13-H ) :   0.8919 B(  5-C , 16-H ) :   0.8446 B(  5-C , 17-H ) :   0.8446
B(  6-H ,  7-H ) :  -0.1542 B(  8-H ,  9-H ) :  -0.1542

MP2 TOTAL ENERGY:     -235.085031131 Eh
FINAL SINGLE POINT ENERGY      -235.085031131406

DIPOLE MOMENT
-------------
                                X             Y             Z
Electronic contribution:      0.00000       0.00000      -1.46464
Nuclear contribution   :      0.00000       0.00000       1.39562
                        -----------------------------------------
Total Dipole Moment    :      0.00000       0.00000      -0.06902
                        -----------------------------------------
Magnitude (a.u.)       :      0.06902
Magnitude (Debye)      :      0.17544

Rotational constants in cm-1:     0.263748     0.073470     0.067146
Rotational constants in MHz :  7906.965452  2202.572342  2012.997180

                             ****ORCA TERMINATED NORMALLY****
TOTAL RUN TIME: 0 days 0 hours 0 minutes 47 seconds 571 msec
