                         Program Version 5.0.3 -  RELEASE  -
|  1> !ri-mp2 aug-cc-pvdz aug-cc-pvdz/c tightscf
|  2> %pal nprocs 16 end
|  3>
|  4> * xyz 0 1
|  5> C     -1.267259    0.731652    0.227515
|  6> C      0.000000    1.463304   -0.227515
|  7> C     -1.267259   -0.731652   -0.227515
|  8> C      0.000000   -1.463304    0.227515
|  9> C      1.267259   -0.731652   -0.227515
| 10> C      1.267259    0.731652    0.227515
| 11> H      2.155238    1.244327   -0.149267
| 12> H     -2.155238    1.244327   -0.149267
| 13> H      0.000000    2.488655    0.149267
| 14> H      2.155238   -1.244327    0.149267
| 15> H      1.329045   -0.767324   -1.320511
| 16> H     -1.329045   -0.767324   -1.320511
| 17> H      0.000000    1.534649   -1.320511
| 18> H      0.000000   -2.488655   -0.149267
| 19> H      0.000000   -1.534649    1.320511
| 20> H     -2.155238   -1.244327    0.149267
| 21> H     -1.329045    0.767324    1.320511
| 22> H      1.329045    0.767324    1.320511
| 23> *
| 24>
| 25>                          ****END OF INPUT****

CARTESIAN COORDINATES (ANGSTROEM)
---------------------------------
  C     -1.267259    0.731652    0.227515
  C      0.000000    1.463304   -0.227515
  C     -1.267259   -0.731652   -0.227515
  C      0.000000   -1.463304    0.227515
  C      1.267259   -0.731652   -0.227515
  C      1.267259    0.731652    0.227515
  H      2.155238    1.244327   -0.149267
  H     -2.155238    1.244327   -0.149267
  H      0.000000    2.488655    0.149267
  H      2.155238   -1.244327    0.149267
  H      1.329045   -0.767324   -1.320511
  H     -1.329045   -0.767324   -1.320511
  H      0.000000    1.534649   -1.320511
  H      0.000000   -2.488655   -0.149267
  H      0.000000   -1.534649    1.320511
  H     -2.155238   -1.244327    0.149267
  H     -1.329045    0.767324    1.320511
  H      1.329045    0.767324    1.320511

 Total Charge           Charge          ....    0
 Multiplicity           Mult            ....    1
 Number of Electrons    NEL             ....   48
 Basis Dimension        Dim             ....  246

ORBITAL ENERGIES
----------------

  NO   OCC          E(Eh)            E(eV)
   0   2.0000     -11.217455      -305.2425
   1   2.0000     -11.217183      -305.2351
   2   2.0000     -11.217183      -305.2351
   3   2.0000     -11.216585      -305.2188
   4   2.0000     -11.216584      -305.2188
   5   2.0000     -11.216273      -305.2103
   6   2.0000      -1.110345       -30.2140
   7   2.0000      -0.999108       -27.1871
   8   2.0000      -0.999108       -27.1871
   9   2.0000      -0.826323       -22.4854
  10   2.0000      -0.826323       -22.4854
  11   2.0000      -0.747434       -20.3387
  12   2.0000      -0.644697       -17.5431
  13   2.0000      -0.604702       -16.4548
  14   2.0000      -0.592634       -16.1264
  15   2.0000      -0.592634       -16.1264
  16   2.0000      -0.521827       -14.1996
  17   2.0000      -0.521827       -14.1996
  18   2.0000      -0.510513       -13.8918
  19   2.0000      -0.477273       -12.9873
  20   2.0000      -0.477273       -12.9873
  21   2.0000      -0.446081       -12.1385
  22   2.0000      -0.423703       -11.5295
  23   2.0000      -0.423702       -11.5295
  24   0.0000       0.037849         1.0299
  25   0.0000       0.045009         1.2247
  26   0.0000       0.045009         1.2247
  27   0.0000       0.046351         1.2613
  28   0.0000       0.063994         1.7414

MULLIKEN ATOMIC CHARGES
-----------------------
   0 C :    0.277997
   1 C :    0.277994
   2 C :    0.277997
   3 C :    0.277994
   4 C :    0.277997
   5 C :    0.277997
   6 H :   -0.143222
   7 H :   -0.143222
   8 H :   -0.143220
   9 H :   -0.143222
  10 H :   -0.134775
  11 H :   -0.134775
  12 H :   -0.134775
  13 H :   -0.143220
  14 H :   -0.134775
  15 H :   -0.143222
  16 H :   -0.134775
  17 H :   -0.134775
Sum of atomic charges:    0.0000000

LOEWDIN ATOMIC CHARGES
----------------------
   0 C :   -0.029650
   1 C :   -0.029650
   2 C :   -0.029650
   3 C :   -0.029650
   4 C :   -0.029650
   5 C :   -0.029650
   6 H :    0.012785
   7 H :    0.012785
   8 H :    0.012785
   9 H :    0.012785
  10 H :    0.016865
  11 H :    0.016865
  12 H :    0.016865
  13 H :    0.012785
  14 H :    0.016865
  15 H :    0.012785
  16 H :    0.016865
  17 H :    0.016865

  Mayer bond orders larger than 0.100000
B(  0-C ,  1-C ) :   1.2631 B(  0-C ,  2-C ) :   1.2631 B(  0-C ,  7-H ) :   0.7747
B(  0-C , 16-H ) :   0.7643 B(  1-C ,  5-C ) :   1.2631 B(  1-C ,  8-H ) :   0.7747
B(  1-C , 12-H ) :   0.7643 B(  2-C ,  3-C ) :   1.2631 B(  2-C , 11-H ) :   0.7643
B(  2-C , 15-H ) :   0.7747 B(  3-C ,  4-C ) :   1.2631 B(  3-C , 13-H ) :   0.7747
B(  3-C , 14-H ) :   0.7643 B(  4-C ,  5-C ) :   1.2631 B(  4-C ,  9-H ) :   0.7747
B(  4-C , 10-H ) :   0.7643 B(  5-C ,  6-H ) :   0.7747 B(  5-C , 17-H ) :   0.7643
B(  6-H , 17-H ) :  -0.1419 B(  7-H , 16-H ) :  -0.1419 B(  8-H , 12-H ) :  -0.1419
B(  9-H , 10-H ) :  -0.1419 B( 11-H , 15-H ) :  -0.1419 B( 13-H , 14-H ) :  -0.1419

MP2 TOTAL ENERGY:     -235.120248434 Eh
FINAL SINGLE POINT ENERGY      -235.120248434029

DIPOLE MOMENT
-------------
                                X             Y             Z
Electronic contribution:     -0.00000       0.00000      -0.00000
Nuclear contribution   :      0.00000       0.00000       0.00000
                        -----------------------------------------
Total Dipole Moment    :     -0.00000       0.00000      -0.00000
                        -----------------------------------------
Magnitude (a.u.)       :      0.00000
Magnitude (Debye)      :      0.00000

Rotational constants in cm-1:     0.143569     0.143569     0.081828
Rotational constants in MHz :  4304.102418  4304.099905  2453.136105

                             ****ORCA TERMINATED NORMALLY****
TOTAL RUN TIME: 0 days 0 hours 1 minutes 16 seconds 969 msec
