                         Program Version 5.0.3 -  RELEASE  -
|  1> !ri-mp2 aug-cc-pvdz aug-cc-pvdz/c tightscf
|  2> %pal nprocs 16 end
|  3>
|  4> * xyz 0 1
|  5> C      0.000000    0.000000   -2.265776
|  6> C      0.000000    1.202168   -1.568121
|  7> C      0.000000   -1.202168   -1.568121
|  8> C      0.000000    1.209985   -0.178204
|  9> C      0.000000   -1.209985   -0.178204
| 10> C      0.000000    0.000000    0.501800
| 11> Cl     0.000000    0.000000    2.255827
| 12> H      0.000000    0.000000   -3.347036
| 13> H      0.000000    2.141915   -2.103741
| 14> H      0.000000   -2.141915   -2.103741
| 15> H      0.000000    2.139131    0.372605
| 16> H      0.000000   -2.139131    0.372605
| 17> *
| 18>
| 19>                          ****END OF INPUT****

CARTESIAN COORDINATES (ANGSTROEM)
---------------------------------
  C      0.000000    0.000000   -2.265776
  C      0.000000    1.202168   -1.568121
  C      0.000000   -1.202168   -1.568121
  C      0.000000    1.209985   -0.178204
  C      0.000000   -1.209985   -0.178204
  C      0.000000    0.000000    0.501800
  Cl     0.000000    0.000000    2.255827
  H      0.000000    0.000000   -3.347036
  H      0.000000    2.141915   -2.103741
  H      0.000000   -2.141915   -2.103741
  H      0.000000    2.139131    0.372605
  H      0.000000   -2.139131    0.372605

 Total Charge           Charge          ....    0
 Multiplicity           Mult            ....    1
 Number of Electrons    NEL             ....   58
 Basis Dimension        Dim             ....  210

ORBITAL ENERGIES
----------------

  NO   OCC          E(Eh)            E(eV)
   0   2.0000    -104.839216     -2852.8201
   1   2.0000     -11.310655      -307.7786
   2   2.0000     -11.257415      -306.3298
   3   2.0000     -11.257412      -306.3298
   4   2.0000     -11.256186      -306.2964
   5   2.0000     -11.256049      -306.2927
   6   2.0000     -11.252204      -306.1880
   7   2.0000     -10.565189      -287.4934
   8   2.0000      -8.032980      -218.5885
   9   2.0000      -8.029693      -218.4991
  10   2.0000      -8.029563      -218.4955
  11   2.0000      -1.194900       -32.5149
  12   2.0000      -1.122177       -30.5360
  13   2.0000      -1.037773       -28.2392
  14   2.0000      -1.002442       -27.2778
  15   2.0000      -0.850603       -23.1461
  16   2.0000      -0.824306       -22.4305
  17   2.0000      -0.715333       -19.4652
  18   2.0000      -0.651208       -17.7203
  19   2.0000      -0.649702       -17.6793
  20   2.0000      -0.606799       -16.5118
  21   2.0000      -0.590856       -16.0780
  22   2.0000      -0.545610       -14.8468
  23   2.0000      -0.518598       -14.1118
  24   2.0000      -0.512345       -13.9416
  25   2.0000      -0.470273       -12.7968
  26   2.0000      -0.455891       -12.4054
  27   2.0000      -0.353855        -9.6289
  28   2.0000      -0.339289        -9.2325
  29   0.0000       0.033246         0.9047
  30   0.0000       0.040095         1.0910
  31   0.0000       0.046270         1.2591
  32   0.0000       0.058989         1.6052
  33   0.0000       0.063320         1.7230

MULLIKEN ATOMIC CHARGES
-----------------------
   0 C :    0.171749
   1 C :    0.858689
   2 C :    0.858689
   3 C :    0.339851
   4 C :    0.339851
   5 C :   -0.129877
   6 Cl:   -0.380332
   7 H :   -0.433917
   8 H :   -0.436243
   9 H :   -0.436243
  10 H :   -0.376108
  11 H :   -0.376108
Sum of atomic charges:   -0.0000000

LOEWDIN ATOMIC CHARGES
----------------------
   0 C :    0.008249
   1 C :    0.008830
   2 C :    0.008830
   3 C :   -0.018129
   4 C :   -0.018129
   5 C :   -0.546269
   6 Cl:    0.554670
   7 H :    0.000370
   8 H :    0.002804
   9 H :    0.002804
  10 H :   -0.002014
  11 H :   -0.002014

  Mayer bond orders larger than 0.100000
B(  0-C ,  1-C ) :   1.6347 B(  0-C ,  2-C ) :   1.6347 B(  0-C ,  3-C ) :   0.1934
B(  0-C ,  4-C ) :   0.1934 B(  0-C ,  5-C ) :   0.1191 B(  0-C ,  7-H ) :   0.4301
B(  0-C ,  8-H ) :   0.2313 B(  0-C ,  9-H ) :   0.2313 B(  1-C ,  3-C ) :   1.5324
B(  1-C ,  5-C ) :  -0.1967 B(  1-C ,  7-H ) :   0.1483 B(  1-C ,  8-H ) :   0.3005
B(  2-C ,  4-C ) :   1.5324 B(  2-C ,  5-C ) :  -0.1967 B(  2-C ,  7-H ) :   0.1483
B(  2-C ,  9-H ) :   0.3005 B(  3-C ,  4-C ) :   0.3467 B(  3-C ,  5-C ) :   1.4950
B(  3-C ,  6-Cl) :  -0.2495 B(  3-C ,  8-H ) :   0.2849 B(  3-C , 10-H ) :   0.4229
B(  4-C ,  5-C ) :   1.4950 B(  4-C ,  6-Cl) :  -0.2495 B(  4-C ,  9-H ) :   0.2849
B(  4-C , 11-H ) :   0.4229 B(  5-C ,  6-Cl) :   1.0242 B(  5-C ,  8-H ) :  -0.1277
B(  5-C ,  9-H ) :  -0.1277 B(  5-C , 10-H ) :   0.3147 B(  5-C , 11-H ) :   0.3147

MP2 TOTAL ENERGY:     -690.605363286 Eh
FINAL SINGLE POINT ENERGY      -690.605363285901

DIPOLE MOMENT
-------------
                                X             Y             Z
Electronic contribution:     -0.00000      -0.00000       8.91077
Nuclear contribution   :      0.00000       0.00000      -9.71287
                        -----------------------------------------
Total Dipole Moment    :     -0.00000      -0.00000      -0.80210
                        -----------------------------------------
Magnitude (a.u.)       :      0.80210
Magnitude (Debye)      :      2.03878

Rotational constants in cm-1:     0.190783     0.051943     0.040827
Rotational constants in MHz :  5719.517855  1557.213303  1223.971189

                             ****ORCA TERMINATED NORMALLY****
TOTAL RUN TIME: 0 days 0 hours 0 minutes 37 seconds 873 msec
