                         Program Version 5.0.3 -  RELEASE  -
|  1> !ri-mp2 aug-cc-pvdz aug-cc-pvdz/c tightscf
|  2> %pal nprocs 16 end
|  3>
|  4> * xyz 0 1
|  5> C      0.636065    0.415283    0.571630
|  6> C     -0.713037   -0.368475    0.430685
|  7> C      1.364965   -0.856683    0.052791
|  8> C      0.013200   -1.382989   -0.489869
|  9> C      0.802735    1.630562   -0.331113
| 10> C     -1.968744    0.323549   -0.068200
| 11> H      0.880376    0.697694    1.597241
| 12> H     -0.928293   -0.850203    1.387512
| 13> H      2.167047   -0.700311   -0.668994
| 14> H     -0.125626   -1.141655   -1.544800
| 15> H      1.747856   -1.473016    0.866030
| 16> H     -0.212001   -2.439705   -0.348512
| 17> H      0.603423    1.391862   -1.377604
| 18> H     -1.805638    0.816530   -1.027783
| 19> H      0.132470    2.442392   -0.042514
| 20> H      1.825302    2.008700   -0.271645
| 21> H     -2.318826    1.078652    0.639323
| 22> H     -2.777199   -0.398427   -0.203797
| 23> *
| 24>
| 25>                          ****END OF INPUT****

CARTESIAN COORDINATES (ANGSTROEM)
---------------------------------
  C      0.636065    0.415283    0.571630
  C     -0.713037   -0.368475    0.430685
  C      1.364965   -0.856683    0.052791
  C      0.013200   -1.382989   -0.489869
  C      0.802735    1.630562   -0.331113
  C     -1.968744    0.323549   -0.068200
  H      0.880376    0.697694    1.597241
  H     -0.928293   -0.850203    1.387512
  H      2.167047   -0.700311   -0.668994
  H     -0.125626   -1.141655   -1.544800
  H      1.747856   -1.473016    0.866030
  H     -0.212001   -2.439705   -0.348512
  H      0.603423    1.391862   -1.377604
  H     -1.805638    0.816530   -1.027783
  H      0.132470    2.442392   -0.042514
  H      1.825302    2.008700   -0.271645
  H     -2.318826    1.078652    0.639323
  H     -2.777199   -0.398427   -0.203797

 Total Charge           Charge          ....    0
 Multiplicity           Mult            ....    1
 Number of Electrons    NEL             ....   48
 Basis Dimension        Dim             ....  246

ORBITAL ENERGIES
----------------

  NO   OCC          E(Eh)            E(eV)
   0   2.0000     -11.223778      -305.4145
   1   2.0000     -11.223192      -305.3986
   2   2.0000     -11.216835      -305.2256
   3   2.0000     -11.216158      -305.2072
   4   2.0000     -11.215277      -305.1832
   5   2.0000     -11.213887      -305.1454
   6   2.0000      -1.133733       -30.8504
   7   2.0000      -0.986024       -26.8311
   8   2.0000      -0.969320       -26.3765
   9   2.0000      -0.848690       -23.0940
  10   2.0000      -0.838433       -22.8149
  11   2.0000      -0.712315       -19.3831
  12   2.0000      -0.661235       -17.9931
  13   2.0000      -0.607819       -16.5396
  14   2.0000      -0.588295       -16.0083
  15   2.0000      -0.565306       -15.3828
  16   2.0000      -0.541299       -14.7295
  17   2.0000      -0.530958       -14.4481
  18   2.0000      -0.516419       -14.0525
  19   2.0000      -0.501846       -13.6559
  20   2.0000      -0.451922       -12.2974
  21   2.0000      -0.439368       -11.9558
  22   2.0000      -0.414496       -11.2790
  23   2.0000      -0.412434       -11.2229
  24   0.0000       0.036916         1.0045
  25   0.0000       0.044291         1.2052
  26   0.0000       0.046101         1.2545
  27   0.0000       0.046762         1.2725
  28   0.0000       0.064878         1.7654

MULLIKEN ATOMIC CHARGES
-----------------------
   0 C :   -0.338596
   1 C :   -0.475434
   2 C :    0.796547
   3 C :    0.672611
   4 C :    0.628479
   5 C :    0.601028
   6 H :   -0.334373
   7 H :   -0.262375
   8 H :   -0.266221
   9 H :   -0.271137
  10 H :   -0.254469
  11 H :   -0.234626
  12 H :   -0.046152
  13 H :   -0.027658
  14 H :   -0.037456
  15 H :   -0.106731
  16 H :   -0.000926
  17 H :   -0.042513
Sum of atomic charges:    0.0000000

LOEWDIN ATOMIC CHARGES
----------------------
   0 C :   -0.179718
   1 C :   -0.186233
   2 C :    0.040475
   3 C :    0.040305
   4 C :    0.148602
   5 C :    0.154064
   6 H :    0.026648
   7 H :    0.034516
   8 H :    0.000690
   9 H :    0.005394
  10 H :    0.004833
  11 H :   -0.000048
  12 H :   -0.013565
  13 H :   -0.020150
  14 H :   -0.013877
  15 H :   -0.013647
  16 H :   -0.013637
  17 H :   -0.014653

  Mayer bond orders larger than 0.100000
B(  0-C ,  1-C ) :   0.9928 B(  0-C ,  2-C ) :   1.0705 B(  0-C ,  4-C ) :   1.4296
B(  0-C ,  6-H ) :   0.4812 B(  0-C ,  7-H ) :   0.1604 B(  0-C , 10-H ) :   0.1003
B(  0-C , 12-H ) :   0.3183 B(  0-C , 14-H ) :   0.1058 B(  1-C ,  3-C ) :   1.0560
B(  1-C ,  4-C ) :  -0.1177 B(  1-C ,  5-C ) :   1.3399 B(  1-C ,  6-H ) :   0.1483
B(  1-C ,  7-H ) :   0.5859 B(  1-C , 12-H ) :  -0.1095 B(  1-C , 13-H ) :   0.2524
B(  2-C ,  3-C ) :   1.1448 B(  2-C ,  4-C ) :  -0.1240 B(  2-C ,  8-H ) :   0.7958
B(  2-C , 10-H ) :   0.6866 B(  2-C , 12-H ) :  -0.1419 B(  3-C ,  5-C ) :  -0.1393
B(  3-C ,  9-H ) :   0.7428 B(  3-C , 11-H ) :   0.7903 B(  3-C , 13-H ) :  -0.1103
B(  4-C , 12-H ) :   0.8242 B(  4-C , 14-H ) :   0.8172 B(  4-C , 15-H ) :   0.8462
B(  5-C , 13-H ) :   0.8622 B(  5-C , 16-H ) :   0.8200 B(  5-C , 17-H ) :   0.8549
B(  8-H , 10-H ) :  -0.1850 B(  9-H , 11-H ) :  -0.1859 B( 14-H , 15-H ) :  -0.1054

MP2 TOTAL ENERGY:     -235.083338985 Eh
FINAL SINGLE POINT ENERGY      -235.083338985074

DIPOLE MOMENT
-------------
                                X             Y             Z
Electronic contribution:      0.85739      -1.52890       1.12521
Nuclear contribution   :     -0.86879       1.53439      -1.06635
                        -----------------------------------------
Total Dipole Moment    :     -0.01140       0.00549       0.05887
                        -----------------------------------------
Magnitude (a.u.)       :      0.06021
Magnitude (Debye)      :      0.15304

Rotational constants in cm-1:     0.145207     0.120797     0.079780
Rotational constants in MHz :  4353.198859  3621.393576  2391.746047

                             ****ORCA TERMINATED NORMALLY****
TOTAL RUN TIME: 0 days 0 hours 0 minutes 45 seconds 769 msec
