                         Program Version 5.0.3 -  RELEASE  -
|  1> !ri-mp2 aug-cc-pvdz aug-cc-pvdz/c tightscf
|  2> %pal nprocs 16 end
|  3> %maxcore 3800
|  4>
|  5> * xyz 0 1
|  6> C      1.737280    0.792495   -0.479503
|  7> C      2.019870   -0.672323   -0.100223
|  8> C      0.725512    1.538451    0.401741
|  9> C      0.827926   -1.495424    0.414755
| 10> C     -0.739200    1.302862    0.010037
| 11> C     -0.519506   -1.262644   -0.283540
| 12> C     -1.315360   -0.085645    0.291439
| 13> O     -2.684418   -0.139555   -0.132940
| 14> H      2.688253    1.329635   -0.472454
| 15> H      1.383423    0.840676   -1.513335
| 16> H      2.448382   -1.170470   -0.973960
| 17> H      2.799085   -0.698261    0.666057
| 18> H      0.880078    1.290425    1.456387
| 19> H      0.917245    2.610333    0.318106
| 20> H      1.092130   -2.551954    0.338093
| 21> H      0.690935   -1.308620    1.483722
| 22> H     -1.377340    2.026147    0.521809
| 23> H     -0.844172    1.505605   -1.063458
| 24> H     -0.381135   -1.129922   -1.362564
| 25> H     -1.146124   -2.147322   -0.159163
| 26> H     -1.374227   -0.226165    1.374425
| 27> H     -2.720326    0.039705   -1.078385
| 28> *
| 29>
| 30>                          ****END OF INPUT****

CARTESIAN COORDINATES (ANGSTROEM)
---------------------------------
  C      1.737280    0.792495   -0.479503
  C      2.019870   -0.672323   -0.100223
  C      0.725512    1.538451    0.401741
  C      0.827926   -1.495424    0.414755
  C     -0.739200    1.302862    0.010037
  C     -0.519506   -1.262644   -0.283540
  C     -1.315360   -0.085645    0.291439
  O     -2.684418   -0.139555   -0.132940
  H      2.688253    1.329635   -0.472454
  H      1.383423    0.840676   -1.513335
  H      2.448382   -1.170470   -0.973960
  H      2.799085   -0.698261    0.666057
  H      0.880078    1.290425    1.456387
  H      0.917245    2.610333    0.318106
  H      1.092130   -2.551954    0.338093
  H      0.690935   -1.308620    1.483722
  H     -1.377340    2.026147    0.521809
  H     -0.844172    1.505605   -1.063458
  H     -0.381135   -1.129922   -1.362564
  H     -1.146124   -2.147322   -0.159163
  H     -1.374227   -0.226165    1.374425
  H     -2.720326    0.039705   -1.078385

 Total Charge           Charge          ....    0
 Multiplicity           Mult            ....    1
 Number of Electrons    NEL             ....   64
 Basis Dimension        Dim             ....  310

ORBITAL ENERGIES
----------------

  NO   OCC          E(Eh)            E(eV)
   0   2.0000     -20.559017      -559.4393
   1   2.0000     -11.278313      -306.8985
   2   2.0000     -11.226632      -305.4922
   3   2.0000     -11.224874      -305.4443
   4   2.0000     -11.223870      -305.4170
   5   2.0000     -11.223749      -305.4137
   6   2.0000     -11.223286      -305.4011
   7   2.0000     -11.221834      -305.3616
   8   2.0000      -1.354165       -36.8487
   9   2.0000      -1.105517       -30.0826
  10   2.0000      -1.032178       -28.0870
  11   2.0000      -1.018329       -27.7101
  12   2.0000      -0.890689       -24.2369
  13   2.0000      -0.877577       -23.8801
  14   2.0000      -0.788535       -21.4571
  15   2.0000      -0.756980       -20.5985
  16   2.0000      -0.673827       -18.3358
  17   2.0000      -0.634386       -17.2625
  18   2.0000      -0.628200       -17.0942
  19   2.0000      -0.611536       -16.6408
  20   2.0000      -0.603850       -16.4316
  21   2.0000      -0.560441       -15.2504
  22   2.0000      -0.551645       -15.0110
  23   2.0000      -0.528834       -14.3903
  24   2.0000      -0.523481       -14.2446
  25   2.0000      -0.511684       -13.9236
  26   2.0000      -0.481919       -13.1137
  27   2.0000      -0.460320       -12.5259
  28   2.0000      -0.448219       -12.1967
  29   2.0000      -0.444426       -12.0934
  30   2.0000      -0.441457       -12.0127
  31   2.0000      -0.421405       -11.4670
  32   0.0000       0.035439         0.9643
  33   0.0000       0.040780         1.1097
  34   0.0000       0.041572         1.1312
  35   0.0000       0.046130         1.2553
  36   0.0000       0.060766         1.6535

MULLIKEN ATOMIC CHARGES
-----------------------
   0 C :    0.282338
   1 C :    0.114910
   2 C :    0.509177
   3 C :    0.215548
   4 C :    0.169949
   5 C :    0.529498
   6 C :    0.700906
   7 O :   -0.846954
   8 H :   -0.153368
   9 H :   -0.153477
  10 H :   -0.102389
  11 H :   -0.092998
  12 H :   -0.129156
  13 H :   -0.157692
  14 H :   -0.154834
  15 H :   -0.152632
  16 H :   -0.088995
  17 H :   -0.107524
  18 H :   -0.120858
  19 H :   -0.100660
  20 H :   -0.278518
  21 H :    0.117729
Sum of atomic charges:   -0.0000000

LOEWDIN ATOMIC CHARGES
----------------------
   0 C :   -0.021699
   1 C :   -0.019968
   2 C :   -0.013385
   3 C :   -0.017407
   4 C :   -0.000174
   5 C :    0.009914
   6 C :   -0.222830
   7 O :    0.133752
   8 H :    0.011004
   9 H :    0.009501
  10 H :    0.012589
  11 H :    0.012681
  12 H :    0.018872
  13 H :    0.012685
  14 H :    0.011976
  15 H :    0.010523
  16 H :    0.020799
  17 H :    0.018778
  18 H :    0.021445
  19 H :    0.018003
  20 H :    0.034284
  21 H :   -0.061343

  Mayer bond orders larger than 0.100000
B(  0-C ,  1-C ) :   1.3245 B(  0-C ,  2-C ) :   1.1762 B(  0-C ,  8-H ) :   0.7937
B(  0-C ,  9-H ) :   0.7582 B(  1-C ,  2-C ) :  -0.1057 B(  1-C ,  3-C ) :   1.3570
B(  1-C ,  5-C ) :  -0.1195 B(  1-C , 10-H ) :   0.7762 B(  1-C , 11-H ) :   0.7724
B(  2-C ,  4-C ) :   1.2204 B(  2-C ,  9-H ) :  -0.1080 B(  2-C , 12-H ) :   0.8195
B(  2-C , 13-H ) :   0.7548 B(  3-C ,  5-C ) :   1.1064 B(  3-C , 14-H ) :   0.7985
B(  3-C , 15-H ) :   0.7616 B(  4-C ,  6-C ) :   1.3107 B(  4-C , 16-H ) :   0.7540
B(  4-C , 17-H ) :   0.7707 B(  4-C , 20-H ) :   0.1383 B(  5-C ,  6-C ) :   1.3140
B(  5-C , 18-H ) :   0.7754 B(  5-C , 19-H ) :   0.7391 B(  6-C ,  7-O ) :   0.2408
B(  6-C , 20-H ) :   0.4695 B(  7-O , 21-H ) :   1.1258 B(  8-H ,  9-H ) :  -0.1418
B( 10-H , 11-H ) :  -0.1244 B( 12-H , 13-H ) :  -0.1573 B( 14-H , 15-H ) :  -0.1378
B( 16-H , 17-H ) :  -0.1609 B( 18-H , 19-H ) :  -0.1856

MP2 TOTAL ENERGY:     -349.367122305 Eh
FINAL SINGLE POINT ENERGY      -349.367122305169

DIPOLE MOMENT
-------------
                                X             Y             Z
Electronic contribution:     -4.59807      -0.29624       0.16220
Nuclear contribution   :      5.27773       0.42906      -0.49138
                        -----------------------------------------
Total Dipole Moment    :      0.67965       0.13282      -0.32917
                        -----------------------------------------
Magnitude (a.u.)       :      0.76676
Magnitude (Debye)      :      1.94896

Rotational constants in cm-1:     0.101643     0.054474     0.039459
Rotational constants in MHz :  3047.174656  1633.096691  1182.964033

                             ****ORCA TERMINATED NORMALLY****
TOTAL RUN TIME: 0 days 0 hours 1 minutes 48 seconds 261 msec
