                         Program Version 5.0.3 -  RELEASE  -
|  1> !ri-mp2 aug-cc-pvdz aug-cc-pvdz/c tightscf
|  2> %pal nprocs 16 end
|  3>
|  4> * xyz 0 1
|  5> C      0.340762    3.287075    0.629973
|  6> C     -0.340762   -3.287075    0.629973
|  7> C      0.695762    1.806304    0.586711
|  8> C     -0.695762   -1.806304    0.586711
|  9> S     -0.340762    0.974925   -0.694192
| 10> S      0.340762   -0.974925   -0.694192
| 11> H      0.525276    3.767942   -0.330968
| 12> H     -0.707346    3.438737    0.889650
| 13> H      0.949124    3.792561    1.381474
| 14> H     -0.525276   -3.767942   -0.330968
| 15> H      0.707346   -3.438737    0.889650
| 16> H     -0.949124   -3.792561    1.381474
| 17> H      0.508220    1.330131    1.547298
| 18> H      1.739469    1.654869    0.319514
| 19> H     -0.508220   -1.330131    1.547298
| 20> H     -1.739469   -1.654869    0.319514
| 21> *
| 22>
| 23>                          ****END OF INPUT****

CARTESIAN COORDINATES (ANGSTROEM)
---------------------------------
  C      0.340762    3.287075    0.629973
  C     -0.340762   -3.287075    0.629973
  C      0.695762    1.806304    0.586711
  C     -0.695762   -1.806304    0.586711
  S     -0.340762    0.974925   -0.694192
  S      0.340762   -0.974925   -0.694192
  H      0.525276    3.767942   -0.330968
  H     -0.707346    3.438737    0.889650
  H      0.949124    3.792561    1.381474
  H     -0.525276   -3.767942   -0.330968
  H      0.707346   -3.438737    0.889650
  H     -0.949124   -3.792561    1.381474
  H      0.508220    1.330131    1.547298
  H      1.739469    1.654869    0.319514
  H     -0.508220   -1.330131    1.547298
  H     -1.739469   -1.654869    0.319514

 Total Charge           Charge          ....    0
 Multiplicity           Mult            ....    1
 Number of Electrons    NEL             ....   66
 Basis Dimension        Dim             ....  236

ORBITAL ENERGIES
----------------

  NO   OCC          E(Eh)            E(eV)
   0   2.0000     -91.968721     -2502.5961
   1   2.0000     -91.968719     -2502.5961
   2   2.0000     -11.267885      -306.6147
   3   2.0000     -11.267885      -306.6147
   4   2.0000     -11.236458      -305.7596
   5   2.0000     -11.236458      -305.7596
   6   2.0000      -8.968810      -244.0537
   7   2.0000      -8.968655      -244.0495
   8   2.0000      -6.650809      -180.9777
   9   2.0000      -6.650486      -180.9689
  10   2.0000      -6.648787      -180.9227
  11   2.0000      -6.648735      -180.9213
  12   2.0000      -6.646799      -180.8686
  13   2.0000      -6.646798      -180.8686
  14   2.0000      -1.093371       -29.7521
  15   2.0000      -1.059402       -28.8278
  16   2.0000      -0.985501       -26.8168
  17   2.0000      -0.892223       -24.2786
  18   2.0000      -0.832650       -22.6576
  19   2.0000      -0.776543       -21.1308
  20   2.0000      -0.633424       -17.2363
  21   2.0000      -0.631286       -17.1782
  22   2.0000      -0.613445       -16.6927
  23   2.0000      -0.574131       -15.6229
  24   2.0000      -0.544609       -14.8196
  25   2.0000      -0.540761       -14.7149
  26   2.0000      -0.517475       -14.0812
  27   2.0000      -0.514871       -14.0103
  28   2.0000      -0.487017       -13.2524
  29   2.0000      -0.464489       -12.6394
  30   2.0000      -0.432272       -11.7627
  31   2.0000      -0.348393        -9.4803
  32   2.0000      -0.345019        -9.3885
  33   0.0000       0.035134         0.9561
  34   0.0000       0.039292         1.0692
  35   0.0000       0.047704         1.2981
  36   0.0000       0.051277         1.3953
  37   0.0000       0.060828         1.6552

MULLIKEN ATOMIC CHARGES
-----------------------
   0 C :    0.340718
   1 C :    0.340718
   2 C :   -0.072948
   3 C :   -0.072948
   4 S :    0.083933
   5 S :    0.083933
   6 H :   -0.061426
   7 H :   -0.060312
   8 H :   -0.065353
   9 H :   -0.061426
  10 H :   -0.060312
  11 H :   -0.065353
  12 H :   -0.102074
  13 H :   -0.062537
  14 H :   -0.102074
  15 H :   -0.062537
Sum of atomic charges:   -0.0000000

LOEWDIN ATOMIC CHARGES
----------------------
   0 C :    0.059759
   1 C :    0.059759
   2 C :   -0.369983
   3 C :   -0.369983
   4 S :    0.473675
   5 S :    0.473675
   6 H :   -0.026051
   7 H :   -0.026508
   8 H :   -0.021362
   9 H :   -0.026051
  10 H :   -0.026508
  11 H :   -0.021362
  12 H :   -0.046144
  13 H :   -0.043387
  14 H :   -0.046144
  15 H :   -0.043387

  Mayer bond orders larger than 0.100000
B(  0-C ,  2-C ) :   1.2614 B(  0-C ,  6-H ) :   0.9551 B(  0-C ,  7-H ) :   0.9695
B(  0-C ,  8-H ) :   0.9162 B(  1-C ,  3-C ) :   1.2614 B(  1-C ,  9-H ) :   0.9551
B(  1-C , 10-H ) :   0.9695 B(  1-C , 11-H ) :   0.9162 B(  2-C ,  4-S ) :   1.0892
B(  2-C ,  5-S ) :  -0.1008 B(  2-C , 12-H ) :   0.9312 B(  2-C , 13-H ) :   0.9444
B(  3-C ,  4-S ) :  -0.1008 B(  3-C ,  5-S ) :   1.0892 B(  3-C , 14-H ) :   0.9312
B(  3-C , 15-H ) :   0.9444 B(  4-S ,  5-S ) :   1.1869 B(  4-S , 13-H ) :  -0.1048
B(  5-S , 15-H ) :  -0.1048

MP2 TOTAL ENERGY:     -953.270924248 Eh
FINAL SINGLE POINT ENERGY      -953.270924248133

DIPOLE MOMENT
-------------
                                X             Y             Z
Electronic contribution:     -0.00000       0.00000      -6.79138
Nuclear contribution   :      0.00000       0.00000       7.76381
                        -----------------------------------------
Total Dipole Moment    :     -0.00000       0.00000       0.97243
                        -----------------------------------------
Magnitude (a.u.)       :      0.97243
Magnitude (Debye)      :      2.47171

Rotational constants in cm-1:     0.197079     0.032338     0.030451
Rotational constants in MHz :  5908.280506   969.482863   912.896750

                             ****ORCA TERMINATED NORMALLY****
TOTAL RUN TIME: 0 days 0 hours 0 minutes 52 seconds 960 msec
