                         Program Version 5.0.3 -  RELEASE  -
|  1> !ri-mp2 aug-cc-pvdz aug-cc-pvdz/c tightscf
|  2> %pal nprocs 16 end
|  3>
|  4> * xyz 0 1
|  5> C      0.026505   -0.221412    1.216049
|  6> C      0.026505   -0.221412   -1.216049
|  7> N      0.026505    0.577608    0.000000
|  8> H     -0.798102   -0.949693    1.270491
|  9> H     -0.034174    0.431778    2.086295
| 10> H      0.962937   -0.778731    1.284180
| 11> H     -0.034174    0.431778   -2.086295
| 12> H     -0.798102   -0.949693   -1.270491
| 13> H      0.962937   -0.778731   -1.284180
| 14> H     -0.764915    1.206982    0.000000
| 15> *
| 16>
| 17>                          ****END OF INPUT****

CARTESIAN COORDINATES (ANGSTROEM)
---------------------------------
  C      0.026505   -0.221412    1.216049
  C      0.026505   -0.221412   -1.216049
  N      0.026505    0.577608    0.000000
  H     -0.798102   -0.949693    1.270491
  H     -0.034174    0.431778    2.086295
  H      0.962937   -0.778731    1.284180
  H     -0.034174    0.431778   -2.086295
  H     -0.798102   -0.949693   -1.270491
  H      0.962937   -0.778731   -1.284180
  H     -0.764915    1.206982    0.000000

 Total Charge           Charge          ....    0
 Multiplicity           Mult            ....    1
 Number of Electrons    NEL             ....   26
 Basis Dimension        Dim             ....  132

ORBITAL ENERGIES
----------------

  NO   OCC          E(Eh)            E(eV)
   0   2.0000     -15.547943      -423.0810
   1   2.0000     -11.246819      -306.0415
   2   2.0000     -11.246801      -306.0410
   3   2.0000      -1.198813       -32.6214
   4   2.0000      -0.947119       -25.7724
   5   2.0000      -0.853371       -23.2214
   6   2.0000      -0.659718       -17.9518
   7   2.0000      -0.610447       -16.6111
   8   2.0000      -0.590524       -16.0690
   9   2.0000      -0.537266       -14.6198
  10   2.0000      -0.509797       -13.8723
  11   2.0000      -0.506208       -13.7746
  12   2.0000      -0.365071        -9.9341
  13   0.0000       0.036353         0.9892
  14   0.0000       0.049170         1.3380
  15   0.0000       0.051074         1.3898
  16   0.0000       0.057510         1.5649
  17   0.0000       0.074766         2.0345

MULLIKEN ATOMIC CHARGES
-----------------------
   0 C :    0.734874
   1 C :    0.734874
   2 N :   -0.613209
   3 H :   -0.071048
   4 H :   -0.202473
   5 H :   -0.132958
   6 H :   -0.202473
   7 H :   -0.071048
   8 H :   -0.132958
   9 H :   -0.043580
Sum of atomic charges:    0.0000000

LOEWDIN ATOMIC CHARGES
----------------------
   0 C :    0.105346
   1 C :    0.105346
   2 N :   -0.038323
   3 H :   -0.022951
   4 H :   -0.023766
   5 H :   -0.022488
   6 H :   -0.023766
   7 H :   -0.022951
   8 H :   -0.022488
   9 H :   -0.033961

  Mayer bond orders larger than 0.100000
B(  0-C ,  2-N ) :   0.8944 B(  0-C ,  3-H ) :   0.8995 B(  0-C ,  4-H ) :   1.0297
B(  0-C ,  5-H ) :   0.9736 B(  1-C ,  2-N ) :   0.8944 B(  1-C ,  6-H ) :   1.0297
B(  1-C ,  7-H ) :   0.8995 B(  1-C ,  8-H ) :   0.9736 B(  2-N ,  9-H ) :   1.0814

MP2 TOTAL ENERGY:     -134.748943816 Eh
FINAL SINGLE POINT ENERGY      -134.748943815529

DIPOLE MOMENT
-------------
                                X             Y             Z
Electronic contribution:      0.16109       1.32821       0.00000
Nuclear contribution   :     -0.54526      -1.49779       0.00000
                        -----------------------------------------
Total Dipole Moment    :     -0.38416      -0.16958       0.00000
                        -----------------------------------------
Magnitude (a.u.)       :      0.41993
Magnitude (Debye)      :      1.06737

Rotational constants in cm-1:     1.165750     0.309133     0.273298
Rotational constants in MHz : 34948.293758  9267.570308  8193.266678

                             ****ORCA TERMINATED NORMALLY****
TOTAL RUN TIME: 0 days 0 hours 0 minutes 41 seconds 153 msec
