                         Program Version 5.0.3 -  RELEASE  -
|  1> !ri-mp2 aug-cc-pvdz aug-cc-pvdz/c tightscf
|  2> %pal nprocs 16 end
|  3>
|  4> * xyz 0 1
|  5> C     -0.008620   -0.371616    2.458950
|  6> C     -0.008620   -0.371616   -2.458950
|  7> C     -0.008620    0.517598    1.223905
|  8> C     -0.008620    0.517598   -1.223905
|  9> N     -0.059012   -0.273364    0.000000
| 10> H     -0.896650   -1.003443    2.479604
| 11> H      0.868669   -1.022627    2.474208
| 12> H      0.011382    0.229192    3.368838
| 13> H      0.868669   -1.022627   -2.474208
| 14> H     -0.896650   -1.003443   -2.479604
| 15> H      0.011382    0.229192   -3.368838
| 16> H      0.867606    1.187009    1.250354
| 17> H     -0.889411    1.165441    1.236824
| 18> H     -0.889411    1.165441   -1.236824
| 19> H      0.867606    1.187009   -1.250354
| 20> H      0.696784   -0.949384    0.000000
| 21> *
| 22>
| 23>                          ****END OF INPUT****

CARTESIAN COORDINATES (ANGSTROEM)
---------------------------------
  C     -0.008620   -0.371616    2.458950
  C     -0.008620   -0.371616   -2.458950
  C     -0.008620    0.517598    1.223905
  C     -0.008620    0.517598   -1.223905
  N     -0.059012   -0.273364    0.000000
  H     -0.896650   -1.003443    2.479604
  H      0.868669   -1.022627    2.474208
  H      0.011382    0.229192    3.368838
  H      0.868669   -1.022627   -2.474208
  H     -0.896650   -1.003443   -2.479604
  H      0.011382    0.229192   -3.368838
  H      0.867606    1.187009    1.250354
  H     -0.889411    1.165441    1.236824
  H     -0.889411    1.165441   -1.236824
  H      0.867606    1.187009   -1.250354
  H      0.696784   -0.949384    0.000000

 Total Charge           Charge          ....    0
 Multiplicity           Mult            ....    1
 Number of Electrons    NEL             ....   42
 Basis Dimension        Dim             ....  214

ORBITAL ENERGIES
----------------

  NO   OCC          E(Eh)            E(eV)
   0   2.0000     -15.543245      -422.9532
   1   2.0000     -11.249459      -306.1133
   2   2.0000     -11.249441      -306.1128
   3   2.0000     -11.217570      -305.2456
   4   2.0000     -11.217569      -305.2456
   5   2.0000      -1.204317       -32.7711
   6   2.0000      -1.028550       -27.9883
   7   2.0000      -0.963490       -26.2179
   8   2.0000      -0.831118       -22.6159
   9   2.0000      -0.820001       -22.3134
  10   2.0000      -0.658379       -17.9154
  11   2.0000      -0.626897       -17.0587
  12   2.0000      -0.596917       -16.2429
  13   2.0000      -0.588806       -16.0222
  14   2.0000      -0.552129       -15.0242
  15   2.0000      -0.519384       -14.1332
  16   2.0000      -0.506777       -13.7901
  17   2.0000      -0.488111       -13.2822
  18   2.0000      -0.481156       -13.0929
  19   2.0000      -0.474277       -12.9057
  20   2.0000      -0.362654        -9.8683
  21   0.0000       0.037095         1.0094
  22   0.0000       0.045314         1.2331
  23   0.0000       0.046360         1.2615
  24   0.0000       0.050139         1.3644
  25   0.0000       0.063056         1.7158

MULLIKEN ATOMIC CHARGES
-----------------------
   0 C :    0.371582
   1 C :    0.371582
   2 C :    0.609663
   3 C :    0.609663
   4 N :   -0.790725
   5 H :   -0.026466
   6 H :   -0.097069
   7 H :   -0.070915
   8 H :   -0.097069
   9 H :   -0.026466
  10 H :   -0.070915
  11 H :   -0.173799
  12 H :   -0.228384
  13 H :   -0.228384
  14 H :   -0.173799
  15 H :    0.021498
Sum of atomic charges:   -0.0000000

LOEWDIN ATOMIC CHARGES
----------------------
   0 C :    0.137212
   1 C :    0.137212
   2 C :   -0.093923
   3 C :   -0.093923
   4 N :    0.019375
   5 H :   -0.016456
   6 H :   -0.021952
   7 H :   -0.020137
   8 H :   -0.021952
   9 H :   -0.016456
  10 H :   -0.020137
  11 H :    0.008606
  12 H :    0.009451
  13 H :    0.009451
  14 H :    0.008606
  15 H :   -0.024979

  Mayer bond orders larger than 0.100000
B(  0-C ,  2-C ) :   1.2281 B(  0-C ,  5-H ) :   0.9486 B(  0-C ,  6-H ) :   0.9566
B(  0-C ,  7-H ) :   0.8933 B(  1-C ,  3-C ) :   1.2281 B(  1-C ,  8-H ) :   0.9566
B(  1-C ,  9-H ) :   0.9486 B(  1-C , 10-H ) :   0.8933 B(  2-C ,  4-N ) :   0.9727
B(  2-C , 11-H ) :   0.7881 B(  2-C , 12-H ) :   0.8710 B(  3-C ,  4-N ) :   0.9727
B(  3-C , 13-H ) :   0.8710 B(  3-C , 14-H ) :   0.7881 B(  4-N , 11-H ) :   0.1128
B(  4-N , 14-H ) :   0.1128 B(  4-N , 15-H ) :   1.0312

MP2 TOTAL ENERGY:     -213.129306522 Eh
FINAL SINGLE POINT ENERGY      -213.129306521936

DIPOLE MOMENT
-------------
                                X             Y             Z
Electronic contribution:     -0.32693      -0.00217       0.00000
Nuclear contribution   :      0.66826       0.17273      -0.00000
                        -----------------------------------------
Total Dipole Moment    :      0.34133       0.17056       0.00000
                        -----------------------------------------
Magnitude (a.u.)       :      0.38157
Magnitude (Debye)      :      0.96987

Rotational constants in cm-1:     0.595214     0.069700     0.065689
Rotational constants in MHz : 17844.066328  2089.552977  1969.306622

                             ****ORCA TERMINATED NORMALLY****
TOTAL RUN TIME: 0 days 0 hours 0 minutes 40 seconds 817 msec
