                         Program Version 5.0.3 -  RELEASE  -
|  1> !ri-mp2 aug-cc-pvdz aug-cc-pvdz/c tightscf
|  2> %pal nprocs 16 end
|  3>
|  4> * xyz 0 1
|  5> C     -0.975094    1.648785    0.791622
|  6> C      0.975094   -1.648785    0.791622
|  7> S     -0.975094    0.343346   -0.490829
|  8> S      0.975094   -0.343346   -0.490829
|  9> H     -0.781660    1.231798    1.776638
| 10> H     -1.975350    2.081790    0.775132
| 11> H     -0.243016    2.415025    0.551763
| 12> H      0.781660   -1.231798    1.776638
| 13> H      1.975350   -2.081790    0.775132
| 14> H      0.243016   -2.415025    0.551763
| 15> *
| 16>
| 17>                          ****END OF INPUT****

CARTESIAN COORDINATES (ANGSTROEM)
---------------------------------
  C     -0.975094    1.648785    0.791622
  C      0.975094   -1.648785    0.791622
  S     -0.975094    0.343346   -0.490829
  S      0.975094   -0.343346   -0.490829
  H     -0.781660    1.231798    1.776638
  H     -1.975350    2.081790    0.775132
  H     -0.243016    2.415025    0.551763
  H      0.781660   -1.231798    1.776638
  H      1.975350   -2.081790    0.775132
  H      0.243016   -2.415025    0.551763

 Total Charge           Charge          ....    0
 Multiplicity           Mult            ....    1
 Number of Electrons    NEL             ....   50
 Basis Dimension        Dim             ....  154

ORBITAL ENERGIES
----------------

  NO   OCC          E(Eh)            E(eV)
   0   2.0000     -91.975390     -2502.7776
   1   2.0000     -91.975388     -2502.7775
   2   2.0000     -11.266595      -306.5796
   3   2.0000     -11.266594      -306.5796
   4   2.0000      -8.975405      -244.2332
   5   2.0000      -8.975252      -244.2290
   6   2.0000      -6.657397      -181.1570
   7   2.0000      -6.657087      -181.1485
   8   2.0000      -6.655407      -181.1028
   9   2.0000      -6.655347      -181.1012
  10   2.0000      -6.653336      -181.0465
  11   2.0000      -6.653334      -181.0464
  12   2.0000      -1.080664       -29.4064
  13   2.0000      -1.008747       -27.4494
  14   2.0000      -0.904927       -24.6243
  15   2.0000      -0.787807       -21.4373
  16   2.0000      -0.608577       -16.5602
  17   2.0000      -0.597699       -16.2642
  18   2.0000      -0.595921       -16.2158
  19   2.0000      -0.580790       -15.8041
  20   2.0000      -0.526628       -14.3303
  21   2.0000      -0.487752       -13.2724
  22   2.0000      -0.436152       -11.8683
  23   2.0000      -0.355799        -9.6818
  24   2.0000      -0.350192        -9.5292
  25   0.0000       0.035470         0.9652
  26   0.0000       0.043306         1.1784
  27   0.0000       0.055356         1.5063
  28   0.0000       0.056813         1.5460
  29   0.0000       0.066788         1.8174

MULLIKEN ATOMIC CHARGES
-----------------------
   0 C :    0.063149
   1 C :    0.063149
   2 S :    0.077931
   3 S :    0.077931
   4 H :   -0.057404
   5 H :   -0.060866
   6 H :   -0.022809
   7 H :   -0.057404
   8 H :   -0.060866
   9 H :   -0.022809
Sum of atomic charges:   -0.0000000

LOEWDIN ATOMIC CHARGES
----------------------
   0 C :   -0.191133
   1 C :   -0.191133
   2 S :    0.421284
   3 S :    0.421284
   4 H :   -0.079497
   5 H :   -0.074922
   6 H :   -0.075731
   7 H :   -0.079497
   8 H :   -0.074922
   9 H :   -0.075731

  Mayer bond orders larger than 0.100000
B(  0-C ,  2-S ) :   1.0478 B(  0-C ,  4-H ) :   0.9959 B(  0-C ,  5-H ) :   0.9906
B(  0-C ,  6-H ) :   0.9977 B(  1-C ,  3-S ) :   1.0478 B(  1-C ,  7-H ) :   0.9959
B(  1-C ,  8-H ) :   0.9906 B(  1-C ,  9-H ) :   0.9977 B(  2-S ,  3-S ) :   1.1240

MP2 TOTAL ENERGY:     -874.890927799 Eh
FINAL SINGLE POINT ENERGY      -874.890927799300

DIPOLE MOMENT
-------------
                                X             Y             Z
Electronic contribution:      0.00000      -0.00000      -5.31438
Nuclear contribution   :      0.00000      -0.00000       6.21839
                        -----------------------------------------
Total Dipole Moment    :      0.00000      -0.00000       0.90401
                        -----------------------------------------
Magnitude (a.u.)       :      0.90401
Magnitude (Debye)      :      2.29781

Rotational constants in cm-1:     0.274201     0.088987     0.082424
Rotational constants in MHz :  8220.347137  2667.756444  2471.004427

                             ****ORCA TERMINATED NORMALLY****
TOTAL RUN TIME: 0 days 0 hours 0 minutes 56 seconds 802 msec
