                         Program Version 5.0.3 -  RELEASE  -
|  1> !ri-mp2 aug-cc-pvdz aug-cc-pvdz/c tightscf
|  2> %pal nprocs 16 end
|  3>
|  4> * xyz 0 1
|  5> S     -1.060866   -1.182537    0.010069
|  6> S      1.060865   -1.182537    0.010062
|  7> N     -2.426341    1.041613   -0.216817
|  8> N      2.426343    1.041611   -0.216812
|  9> C      0.000000    1.355502    0.314245
| 10> C     -1.267395    0.594687   -0.001788
| 11> C      1.267396    0.594686   -0.001787
| 12> H      0.000000    1.557660    1.390467
| 13> H      0.000000    2.314713   -0.204060
| 14> H     -2.461028    2.058497   -0.168561
| 15> H      2.461031    2.058496   -0.168554
| 16> *
| 17>
| 18>                          ****END OF INPUT****

CARTESIAN COORDINATES (ANGSTROEM)
---------------------------------
  S     -1.060866   -1.182537    0.010069
  S      1.060865   -1.182537    0.010062
  N     -2.426341    1.041613   -0.216817
  N      2.426343    1.041611   -0.216812
  C      0.000000    1.355502    0.314245
  C     -1.267395    0.594687   -0.001788
  C      1.267396    0.594686   -0.001787
  H      0.000000    1.557660    1.390467
  H      0.000000    2.314713   -0.204060
  H     -2.461028    2.058497   -0.168561
  H      2.461031    2.058496   -0.168554

 Total Charge           Charge          ....    0
 Multiplicity           Mult            ....    1
 Number of Electrons    NEL             ....   68
 Basis Dimension        Dim             ....  205

ORBITAL ENERGIES
----------------

  NO   OCC          E(Eh)            E(eV)
   0   2.0000     -92.004167     -2503.5607
   1   2.0000     -92.004165     -2503.5606
   2   2.0000     -15.585736      -424.1094
   3   2.0000     -15.585735      -424.1094
   4   2.0000     -11.358727      -309.0867
   5   2.0000     -11.358715      -309.0864
   6   2.0000     -11.299435      -307.4733
   7   2.0000      -9.005566      -245.0539
   8   2.0000      -9.005446      -245.0506
   9   2.0000      -6.687113      -181.9656
  10   2.0000      -6.686893      -181.9596
  11   2.0000      -6.685665      -181.9262
  12   2.0000      -6.685587      -181.9241
  13   2.0000      -6.682948      -181.8523
  14   2.0000      -6.682929      -181.8517
  15   2.0000      -1.270634       -34.5757
  16   2.0000      -1.250581       -34.0300
  17   2.0000      -1.103605       -30.0306
  18   2.0000      -1.029467       -28.0132
  19   2.0000      -0.948466       -25.8091
  20   2.0000      -0.787773       -21.4364
  21   2.0000      -0.765745       -20.8370
  22   2.0000      -0.698734       -19.0135
  23   2.0000      -0.692536       -18.8449
  24   2.0000      -0.663508       -18.0550
  25   2.0000      -0.576165       -15.6783
  26   2.0000      -0.539616       -14.6837
  27   2.0000      -0.510572       -13.8934
  28   2.0000      -0.507048       -13.7975
  29   2.0000      -0.472662       -12.8618
  30   2.0000      -0.462626       -12.5887
  31   2.0000      -0.424361       -11.5475
  32   2.0000      -0.419591       -11.4176
  33   2.0000      -0.333220        -9.0674
  34   0.0000       0.024038         0.6541
  35   0.0000       0.042343         1.1522
  36   0.0000       0.042931         1.1682
  37   0.0000       0.071168         1.9366
  38   0.0000       0.071708         1.9513

MULLIKEN ATOMIC CHARGES
-----------------------
   0 S :    0.271664
   1 S :    0.271665
   2 N :   -0.597319
   3 N :   -0.597321
   4 C :    0.006736
   5 C :    0.231593
   6 C :    0.231593
   7 H :    0.161976
   8 H :   -0.009245
   9 H :    0.014328
  10 H :    0.014330
Sum of atomic charges:    0.0000000

LOEWDIN ATOMIC CHARGES
----------------------
   0 S :    0.583032
   1 S :    0.583033
   2 N :    0.108421
   3 N :    0.108420
   4 C :   -0.038685
   5 C :   -0.626571
   6 C :   -0.626572
   7 H :    0.038236
   8 H :    0.027907
   9 H :   -0.078611
  10 H :   -0.078610

  Mayer bond orders larger than 0.100000
B(  0-S ,  1-S ) :   0.9307 B(  0-S ,  5-C ) :   0.9587 B(  1-S ,  6-C ) :   0.9587
B(  2-N ,  5-C ) :   1.6035 B(  2-N ,  9-H ) :   1.0189 B(  3-N ,  6-C ) :   1.6035
B(  3-N , 10-H ) :   1.0189 B(  4-C ,  5-C ) :   1.2215 B(  4-C ,  6-C ) :   1.2215
B(  4-C ,  7-H ) :   0.8520 B(  4-C ,  8-H ) :   0.7097 B(  5-C ,  8-H ) :   0.1046
B(  6-C ,  8-H ) :   0.1046

MP2 TOTAL ENERGY:    -1020.919001862 Eh
FINAL SINGLE POINT ENERGY     -1020.919001861855

DIPOLE MOMENT
-------------
                                X             Y             Z
Electronic contribution:     -0.00000      -6.41943      -0.39343
Nuclear contribution   :      0.00000       7.80033       0.81739
                        -----------------------------------------
Total Dipole Moment    :     -0.00000       1.38090       0.42395
                        -----------------------------------------
Magnitude (a.u.)       :      1.44451
Magnitude (Debye)      :      3.67166

Rotational constants in cm-1:     0.098538     0.057647     0.037098
Rotational constants in MHz :  2954.096518  1728.222472  1112.157437

                             ****ORCA TERMINATED NORMALLY****
TOTAL RUN TIME: 0 days 0 hours 0 minutes 45 seconds 714 msec
