                         Program Version 5.0.3 -  RELEASE  -
|  1> !ri-mp2 aug-cc-pvdz aug-cc-pvdz/c tightscf
|  2> %pal nprocs 16 end
|  3>
|  4> * xyz 0 1
|  5> S      2.159288    0.225879   -0.000022
|  6> S     -2.159288   -0.225879   -0.000022
|  7> N      0.380905   -1.736090    0.000033
|  8> N     -0.380905    1.736090    0.000033
|  9> C      0.630428   -0.433440    0.000013
| 10> C     -0.630428    0.433440    0.000008
| 11> H      1.142640   -2.391307    0.000019
| 12> H     -0.586716   -2.040345    0.000035
| 13> H      0.586717    2.040345    0.000036
| 14> H     -1.142640    2.391307    0.000026
| 15> *
| 16>
| 17>                          ****END OF INPUT****

CARTESIAN COORDINATES (ANGSTROEM)
---------------------------------
  S      2.159288    0.225879   -0.000022
  S     -2.159288   -0.225879   -0.000022
  N      0.380905   -1.736090    0.000033
  N     -0.380905    1.736090    0.000033
  C      0.630428   -0.433440    0.000013
  C     -0.630428    0.433440    0.000008
  H      1.142640   -2.391307    0.000019
  H     -0.586716   -2.040345    0.000035
  H      0.586717    2.040345    0.000036
  H     -1.142640    2.391307    0.000026

 Total Charge           Charge          ....    0
 Multiplicity           Mult            ....    1
 Number of Electrons    NEL             ....   62
 Basis Dimension        Dim             ....  182

ORBITAL ENERGIES
----------------

  NO   OCC          E(Eh)            E(eV)
   0   2.0000     -91.931492     -2501.5831
   1   2.0000     -91.931492     -2501.5831
   2   2.0000     -15.635231      -425.4563
   3   2.0000     -15.635231      -425.4563
   4   2.0000     -11.388279      -309.8908
   5   2.0000     -11.387672      -309.8743
   6   2.0000      -8.934979      -243.1331
   7   2.0000      -8.934978      -243.1331
   8   2.0000      -6.617215      -180.0636
   9   2.0000      -6.617215      -180.0636
  10   2.0000      -6.614553      -179.9911
  11   2.0000      -6.614553      -179.9911
  12   2.0000      -6.613561      -179.9641
  13   2.0000      -6.613561      -179.9641
  14   2.0000      -1.316448       -35.8224
  15   2.0000      -1.278886       -34.8003
  16   2.0000      -1.042895       -28.3786
  17   2.0000      -1.016409       -27.6579
  18   2.0000      -0.872964       -23.7546
  19   2.0000      -0.812589       -22.1117
  20   2.0000      -0.778695       -21.1894
  21   2.0000      -0.736671       -20.0458
  22   2.0000      -0.661963       -18.0129
  23   2.0000      -0.590942       -16.0803
  24   2.0000      -0.575095       -15.6491
  25   2.0000      -0.522965       -14.2306
  26   2.0000      -0.507076       -13.7982
  27   2.0000      -0.379761       -10.3338
  28   2.0000      -0.361251        -9.8301
  29   2.0000      -0.353821        -9.6279
  30   2.0000      -0.341528        -9.2934
  31   0.0000       0.017525         0.4769
  32   0.0000       0.031503         0.8573
  33   0.0000       0.036675         0.9980
  34   0.0000       0.058482         1.5914
  35   0.0000       0.068814         1.8725

MULLIKEN ATOMIC CHARGES
-----------------------
   0 S :   -0.073475
   1 S :   -0.073475
   2 N :   -0.327128
   3 N :   -0.327129
   4 C :    0.358812
   5 C :    0.358812
   6 H :   -0.003720
   7 H :    0.045511
   8 H :    0.045512
   9 H :   -0.003720
Sum of atomic charges:    0.0000000

LOEWDIN ATOMIC CHARGES
----------------------
   0 S :    0.579115
   1 S :    0.579115
   2 N :    0.201208
   3 N :    0.201207
   4 C :   -0.689969
   5 C :   -0.689969
   6 H :   -0.003345
   7 H :   -0.087009
   8 H :   -0.087009
   9 H :   -0.003345

  Mayer bond orders larger than 0.100000
B(  0-S ,  4-C ) :   1.6457 B(  1-S ,  5-C ) :   1.6457 B(  2-N ,  4-C ) :   1.1293
B(  2-N ,  5-C ) :  -0.1033 B(  2-N ,  6-H ) :   1.1096 B(  2-N ,  7-H ) :   1.0986
B(  3-N ,  4-C ) :  -0.1033 B(  3-N ,  5-C ) :   1.1293 B(  3-N ,  8-H ) :   1.0986
B(  3-N ,  9-H ) :   1.1096 B(  4-C ,  5-C ) :   1.0194 B(  4-C ,  7-H ) :  -0.1571
B(  5-C ,  8-H ) :  -0.1571 B(  6-H ,  7-H ) :  -0.1058 B(  8-H ,  9-H ) :  -0.1058

MP2 TOTAL ENERGY:     -982.976842666 Eh
FINAL SINGLE POINT ENERGY      -982.976842665576

DIPOLE MOMENT
-------------
                                X             Y             Z
Electronic contribution:     -0.00000      -0.00000      -0.00007
Nuclear contribution   :      0.00000       0.00000       0.00011
                        -----------------------------------------
Total Dipole Moment    :      0.00000      -0.00000       0.00004
                        -----------------------------------------
Magnitude (a.u.)       :      0.00004
Magnitude (Debye)      :      0.00011

Rotational constants in cm-1:     0.150390     0.053356     0.039383
Rotational constants in MHz :  4508.575923  1599.576335  1180.686245

                             ****ORCA TERMINATED NORMALLY****
TOTAL RUN TIME: 0 days 0 hours 0 minutes 41 seconds 323 msec
