                         Program Version 5.0.3 -  RELEASE  -
|  1> !ri-mp2 aug-cc-pvdz aug-cc-pvdz/c tightscf
|  2> %pal nprocs 16 end
|  3>
|  4> * xyz 0 1
|  5> C     -1.974833    0.997968    0.019134
|  6> N     -1.035538   -0.121579   -0.049562
|  7> C     -1.596834   -1.468210    0.005922
|  8> C      0.285310    0.130885   -0.019832
|  9> S      1.322882   -1.336523    0.009919
| 10> S      0.951587    1.656130    0.001950
| 11> H     -1.857982    1.544153    0.955692
| 12> H     -1.791240    1.695551   -0.795852
| 13> H     -2.985427    0.605274   -0.050728
| 14> H     -0.950304   -2.175190   -0.507850
| 15> H     -1.737185   -1.803323    1.037130
| 16> H     -2.560576   -1.471415   -0.497443
| 17> H      2.458114   -0.621579   -0.015256
| 18> *
| 19>
| 20>                          ****END OF INPUT****

CARTESIAN COORDINATES (ANGSTROEM)
---------------------------------
  C     -1.974833    0.997968    0.019134
  N     -1.035538   -0.121579   -0.049562
  C     -1.596834   -1.468210    0.005922
  C      0.285310    0.130885   -0.019832
  S      1.322882   -1.336523    0.009919
  S      0.951587    1.656130    0.001950
  H     -1.857982    1.544153    0.955692
  H     -1.791240    1.695551   -0.795852
  H     -2.985427    0.605274   -0.050728
  H     -0.950304   -2.175190   -0.507850
  H     -1.737185   -1.803323    1.037130
  H     -2.560576   -1.471415   -0.497443
  H      2.458114   -0.621579   -0.015256

 Total Charge           Charge          ....    0
 Multiplicity           Mult            ....    1
 Number of Electrons    NEL             ....   64
 Basis Dimension        Dim             ....  209

ORBITAL ENERGIES
----------------

  NO   OCC          E(Eh)            E(eV)
   0   2.0000     -91.988824     -2503.1432
   1   2.0000     -91.903632     -2500.8250
   2   2.0000     -15.633826      -425.4180
   3   2.0000     -11.380715      -309.6850
   4   2.0000     -11.293830      -307.3207
   5   2.0000     -11.278248      -306.8967
   6   2.0000      -8.991437      -244.6694
   7   2.0000      -8.907275      -242.3793
   8   2.0000      -6.673383      -181.5920
   9   2.0000      -6.672009      -181.5546
  10   2.0000      -6.669979      -181.4994
  11   2.0000      -6.589683      -179.3144
  12   2.0000      -6.586749      -179.2345
  13   2.0000      -6.585820      -179.2093
  14   2.0000      -1.309362       -35.6295
  15   2.0000      -1.076718       -29.2990
  16   2.0000      -1.011665       -27.5288
  17   2.0000      -0.953515       -25.9465
  18   2.0000      -0.919827       -25.0298
  19   2.0000      -0.751923       -20.4609
  20   2.0000      -0.671110       -18.2618
  21   2.0000      -0.668175       -18.1820
  22   2.0000      -0.635360       -17.2890
  23   2.0000      -0.584363       -15.9013
  24   2.0000      -0.573389       -15.6027
  25   2.0000      -0.559715       -15.2306
  26   2.0000      -0.545176       -14.8350
  27   2.0000      -0.495150       -13.4737
  28   2.0000      -0.480126       -13.0649
  29   2.0000      -0.388155       -10.5622
  30   2.0000      -0.327836        -8.9209
  31   2.0000      -0.324160        -8.8208
  32   0.0000       0.028524         0.7762
  33   0.0000       0.044097         1.1999
  34   0.0000       0.047084         1.2812
  35   0.0000       0.052345         1.4244
  36   0.0000       0.063504         1.7280

MULLIKEN ATOMIC CHARGES
-----------------------
   0 C :    0.774757
   1 N :   -0.438828
   2 C :    0.736149
   3 C :   -0.435286
   4 S :    0.175058
   5 S :   -0.209814
   6 H :   -0.039590
   7 H :   -0.074240
   8 H :   -0.253732
   9 H :   -0.150894
  10 H :   -0.063481
  11 H :   -0.172338
  12 H :    0.152239
Sum of atomic charges:   -0.0000000

LOEWDIN ATOMIC CHARGES
----------------------
   0 C :    0.153193
   1 N :   -0.269660
   2 C :    0.155886
   3 C :   -0.972323
   4 S :    0.784386
   5 S :    0.481533
   6 H :   -0.012293
   7 H :   -0.022203
   8 H :   -0.019349
   9 H :   -0.058695
  10 H :    0.000332
  11 H :   -0.012552
  12 H :   -0.208255

  Mayer bond orders larger than 0.100000
B(  0-C ,  1-N ) :   0.8769 B(  0-C ,  3-C ) :  -0.1250 B(  0-C ,  6-H ) :   0.9051
B(  0-C ,  7-H ) :   0.9323 B(  0-C ,  8-H ) :   1.0292 B(  1-N ,  2-C ) :   0.8268
B(  1-N ,  3-C ) :   1.2568 B(  1-N ,  4-S ) :  -0.1760 B(  1-N ,  5-S ) :  -0.1135
B(  2-C ,  4-S ) :   0.1043 B(  2-C ,  9-H ) :   0.9729 B(  2-C , 10-H ) :   0.9099
B(  2-C , 11-H ) :   0.9970 B(  3-C ,  4-S ) :   1.2695 B(  3-C ,  5-S ) :   1.7693
B(  4-S , 12-H ) :   0.8942

MP2 TOTAL ENERGY:     -968.104597653 Eh
FINAL SINGLE POINT ENERGY      -968.104597653062

DIPOLE MOMENT
-------------
                                X             Y             Z
Electronic contribution:      8.12551       1.06565      -0.12285
Nuclear contribution   :     -9.42097      -2.21829       0.12398
                        -----------------------------------------
Total Dipole Moment    :     -1.29546      -1.15264       0.00114
                        -----------------------------------------
Magnitude (a.u.)       :      1.73401
Magnitude (Debye)      :      4.40750

Rotational constants in cm-1:     0.083076     0.078988     0.041123
Rotational constants in MHz :  2490.552895  2367.989346  1232.826987

                             ****ORCA TERMINATED NORMALLY****
TOTAL RUN TIME: 0 days 0 hours 0 minutes 45 seconds 681 msec
