                         Program Version 5.0.3 -  RELEASE  -
|  1> !ri-mp2 aug-cc-pvdz aug-cc-pvdz/c tightscf
|  2> %pal nprocs 16 end
|  3>
|  4> * xyz 0 1
|  5> C      0.392398   -0.014823    0.000000
|  6> C     -0.171128    1.398319    0.000000
|  7> H      1.474917   -0.012492    0.000000
|  8> Cl    -0.171128   -0.843017    1.485142
|  9> Cl    -0.171128   -0.843017   -1.485142
| 10> O      0.536130    2.365239    0.000000
| 11> H     -1.273222    1.452187    0.000000
| 12> *
| 13>
| 14>                          ****END OF INPUT****

CARTESIAN COORDINATES (ANGSTROEM)
---------------------------------
  C      0.392398   -0.014823    0.000000
  C     -0.171128    1.398319    0.000000
  H      1.474917   -0.012492    0.000000
  Cl    -0.171128   -0.843017    1.485142
  Cl    -0.171128   -0.843017   -1.485142
  O      0.536130    2.365239    0.000000
  H     -1.273222    1.452187    0.000000

 Total Charge           Charge          ....    0
 Multiplicity           Mult            ....    1
 Number of Electrons    NEL             ....   56
 Basis Dimension        Dim             ....  141

ORBITAL ENERGIES
----------------

  NO   OCC          E(Eh)            E(eV)
   0   2.0000    -104.870176     -2853.6626
   1   2.0000    -104.870176     -2853.6626
   2   2.0000     -20.610306      -560.8349
   3   2.0000     -11.398362      -310.1652
   4   2.0000     -11.382793      -309.7416
   5   2.0000     -10.596075      -288.3339
   6   2.0000     -10.596062      -288.3335
   7   2.0000      -8.063724      -219.4251
   8   2.0000      -8.063722      -219.4250
   9   2.0000      -8.060264      -219.3309
  10   2.0000      -8.060263      -219.3309
  11   2.0000      -8.060175      -219.3285
  12   2.0000      -8.060174      -219.3285
  13   2.0000      -1.444666       -39.3113
  14   2.0000      -1.218632       -33.1606
  15   2.0000      -1.118711       -30.4417
  16   2.0000      -0.969691       -26.3866
  17   2.0000      -0.840409       -22.8687
  18   2.0000      -0.703575       -19.1453
  19   2.0000      -0.693798       -18.8792
  20   2.0000      -0.627597       -17.0778
  21   2.0000      -0.627032       -17.0624
  22   2.0000      -0.550582       -14.9821
  23   2.0000      -0.514836       -14.0094
  24   2.0000      -0.492620       -13.4049
  25   2.0000      -0.480273       -13.0689
  26   2.0000      -0.467115       -12.7108
  27   2.0000      -0.447914       -12.1883
  28   0.0000       0.042066         1.1447
  29   0.0000       0.045032         1.2254
  30   0.0000       0.067534         1.8377
  31   0.0000       0.073168         1.9910
  32   0.0000       0.097161         2.6439

MULLIKEN ATOMIC CHARGES
-----------------------
   0 C :   -0.592202
   1 C :    1.086643
   2 H :    0.076398
   3 Cl:   -0.005756
   4 Cl:   -0.005756
   5 O :   -0.589451
   6 H :    0.030125
Sum of atomic charges:    0.0000000

LOEWDIN ATOMIC CHARGES
----------------------
   0 C :   -0.820702
   1 C :   -0.188834
   2 H :   -0.049098
   3 Cl:    0.501409
   4 Cl:    0.501409
   5 O :    0.047654
   6 H :    0.008162

  Mayer bond orders larger than 0.100000
B(  0-C ,  1-C ) :   0.9506 B(  0-C ,  2-H ) :   0.9250 B(  0-C ,  3-Cl) :   1.2347
B(  0-C ,  4-Cl) :   1.2347 B(  1-C ,  5-O ) :   1.6537 B(  1-C ,  6-H ) :   0.8878

MP2 TOTAL ENERGY:    -1071.536857233 Eh
FINAL SINGLE POINT ENERGY     -1071.536857232526

DIPOLE MOMENT
-------------
                                X             Y             Z
Electronic contribution:     -0.85225      -4.01810      -0.00000
Nuclear contribution   :      0.65165       3.62153       0.00000
                        -----------------------------------------
Total Dipole Moment    :     -0.20060      -0.39657      -0.00000
                        -----------------------------------------
Magnitude (a.u.)       :      0.44442
Magnitude (Debye)      :      1.12963

Rotational constants in cm-1:     0.102234     0.094666     0.051715
Rotational constants in MHz :  3064.893123  2838.005765  1550.387788

                             ****ORCA TERMINATED NORMALLY****
TOTAL RUN TIME: 0 days 0 hours 0 minutes 34 seconds 550 msec
