                         Program Version 5.0.3 -  RELEASE  -
|  1> !ri-mp2 aug-cc-pvdz aug-cc-pvdz/c tightscf
|  2> %pal nprocs 16 end
|  3>
|  4> * xyz 0 1
|  5> C     0.000000     0.000000    0.550170
|  6> N     0.000000     1.261601   -0.185123
|  7> N     0.000000    -1.261601   -0.185123
|  8> H     0.876907     0.000000    1.198167
|  9> H    -0.876907     0.000000    1.198167
| 10> H     0.817663     1.348464   -0.776410
| 11> H    -0.817663     1.348464   -0.776410
| 12> H    -0.817663    -1.348464   -0.776410
| 13> H     0.817663    -1.348464   -0.776410
| 14> *
| 15>
| 16>                          ****END OF INPUT****

CARTESIAN COORDINATES (ANGSTROEM)
---------------------------------
  C      0.000000    0.000000    0.550170
  N      0.000000    1.261601   -0.185123
  N      0.000000   -1.261601   -0.185123
  H      0.876907    0.000000    1.198167
  H     -0.876907    0.000000    1.198167
  H      0.817663    1.348464   -0.776410
  H     -0.817663    1.348464   -0.776410
  H     -0.817663   -1.348464   -0.776410
  H      0.817663   -1.348464   -0.776410

 Total Charge           Charge          ....    0
 Multiplicity           Mult            ....    1
 Number of Electrons    NEL             ....   26
 Basis Dimension        Dim             ....  123

ORBITAL ENERGIES
----------------

  NO   OCC          E(Eh)            E(eV)
   0   2.0000     -15.549831      -423.1324
   1   2.0000     -15.549810      -423.1318
   2   2.0000     -11.282478      -307.0118
   3   2.0000      -1.215089       -33.0643
   4   2.0000      -1.125578       -30.6285
   5   2.0000      -0.871226       -23.7073
   6   2.0000      -0.699352       -19.0303
   7   2.0000      -0.628243       -17.0953
   8   2.0000      -0.624171       -16.9846
   9   2.0000      -0.575327       -15.6555
  10   2.0000      -0.505069       -13.7436
  11   2.0000      -0.437751       -11.9118
  12   2.0000      -0.377824       -10.2811
  13   0.0000       0.032971         0.8972
  14   0.0000       0.047666         1.2971
  15   0.0000       0.053257         1.4492
  16   0.0000       0.055034         1.4975
  17   0.0000       0.078963         2.1487

MULLIKEN ATOMIC CHARGES
-----------------------
   0 C :    1.021001
   1 N :   -0.372315
   2 N :   -0.372315
   3 H :   -0.104619
   4 H :   -0.104619
   5 H :   -0.016784
   6 H :   -0.016784
   7 H :   -0.016784
   8 H :   -0.016784
Sum of atomic charges:   -0.0000000

LOEWDIN ATOMIC CHARGES
----------------------
   0 C :   -0.114463
   1 N :    0.166815
   2 N :    0.166815
   3 H :    0.004827
   4 H :    0.004827
   5 H :   -0.057205
   6 H :   -0.057205
   7 H :   -0.057205
   8 H :   -0.057205

  Mayer bond orders larger than 0.100000
B(  0-C ,  1-N ) :   0.7726 B(  0-C ,  2-N ) :   0.7726 B(  0-C ,  3-H ) :   0.9657
B(  0-C ,  4-H ) :   0.9657 B(  1-N ,  5-H ) :   1.0656 B(  1-N ,  6-H ) :   1.0656
B(  2-N ,  7-H ) :   1.0656 B(  2-N ,  8-H ) :   1.0656

MP2 TOTAL ENERGY:     -150.793355315 Eh
FINAL SINGLE POINT ENERGY      -150.793355315425

DIPOLE MOMENT
-------------
                                X             Y             Z
Electronic contribution:     -0.00000      -0.00000       0.03724
Nuclear contribution   :      0.00000       0.00000      -0.75405
                        -----------------------------------------
Total Dipole Moment    :     -0.00000      -0.00000      -0.71681
                        -----------------------------------------
Magnitude (a.u.)       :      0.71681
Magnitude (Debye)      :      1.82199

Rotational constants in cm-1:     1.190897     0.300142     0.272648
Rotational constants in MHz : 35702.199992  8998.017120  8173.796231

                             ****ORCA TERMINATED NORMALLY****
TOTAL RUN TIME: 0 days 0 hours 0 minutes 49 seconds 866 msec
