                         Program Version 5.0.3 -  RELEASE  -
|  1> !ri-mp2 aug-cc-pvdz aug-cc-pvdz/c tightscf
|  2> %pal nprocs 16 end
|  3>
|  4> * xyz 0 1
|  5> C      0.000100   -1.136474    0.000000
|  6> N      0.000000    0.155349    0.000000
|  7> N     -0.000113    1.287404    0.000000
|  8> H      0.000095   -1.640214    0.950280
|  9> H      0.000095   -1.640214   -0.950280
| 10> *
| 11>
| 12>                          ****END OF INPUT****

CARTESIAN COORDINATES (ANGSTROEM)
---------------------------------
  C      0.000100   -1.136474    0.000000
  N      0.000000    0.155349    0.000000
  N     -0.000113    1.287404    0.000000
  H      0.000095   -1.640214    0.950280
  H      0.000095   -1.640214   -0.950280

 Total Charge           Charge          ....    0
 Multiplicity           Mult            ....    1
 Number of Electrons    NEL             ....   22
 Basis Dimension        Dim             ....   87

ORBITAL ENERGIES
----------------

  NO   OCC          E(Eh)            E(eV)
   0   2.0000     -15.746634      -428.4877
   1   2.0000     -15.667182      -426.3257
   2   2.0000     -11.274608      -306.7977
   3   2.0000      -1.467988       -39.9460
   4   2.0000      -1.128579       -30.7102
   5   2.0000      -0.760626       -20.6977
   6   2.0000      -0.697757       -18.9869
   7   2.0000      -0.662860       -18.0373
   8   2.0000      -0.656704       -17.8698
   9   2.0000      -0.541106       -14.7242
  10   2.0000      -0.330350        -8.9893
  11   0.0000       0.035959         0.9785
  12   0.0000       0.048465         1.3188
  13   0.0000       0.079095         2.1523
  14   0.0000       0.084337         2.2949
  15   0.0000       0.109681         2.9846

MULLIKEN ATOMIC CHARGES
-----------------------
   0 C :    0.606243
   1 N :    0.084251
   2 N :   -0.271894
   3 H :   -0.209300
   4 H :   -0.209300
Sum of atomic charges:   -0.0000000

LOEWDIN ATOMIC CHARGES
----------------------
   0 C :    0.163508
   1 N :   -0.244592
   2 N :    0.207874
   3 H :   -0.063395
   4 H :   -0.063395

  Mayer bond orders larger than 0.100000
B(  0-C ,  1-N ) :   1.5397 B(  0-C ,  3-H ) :   0.9365 B(  0-C ,  4-H ) :   0.9365
B(  1-N ,  2-N ) :   1.6606 B(  3-H ,  4-H ) :  -0.1447

MP2 TOTAL ENERGY:     -148.346820738 Eh
FINAL SINGLE POINT ENERGY      -148.346820738217

DIPOLE MOMENT
-------------
                                X             Y             Z
Electronic contribution:     -0.00018       2.60794      -0.00000
Nuclear contribution   :      0.00019      -3.21566       0.00000
                        -----------------------------------------
Total Dipole Moment    :      0.00001      -0.60771      -0.00000
                        -----------------------------------------
Magnitude (a.u.)       :      0.60771
Magnitude (Debye)      :      1.54469

Rotational constants in cm-1:     9.259834     0.381062     0.366000
Rotational constants in MHz : 277602.834741 11423.953476 10972.415012

                             ****ORCA TERMINATED NORMALLY****
TOTAL RUN TIME: 0 days 0 hours 0 minutes 54 seconds 709 msec
