                         Program Version 5.0.3 -  RELEASE  -
|  1> !ri-mp2 aug-cc-pvdz aug-cc-pvdz/c tightscf
|  2> %pal nprocs 16 end
|  3>
|  4> * xyz 0 1
|  5> S     -0.802200    0.738403    0.006465
|  6> S     -2.555014   -0.375391   -0.096171
|  7> O      2.866754   -0.880415   -0.028233
|  8> O      2.068290    1.188928    0.002883
|  9> C      0.458292   -0.598704    0.045623
| 10> C      1.844967    0.013992    0.003269
| 11> H      0.311493   -1.260107   -0.808448
| 12> H      0.346394   -1.185656    0.958254
| 13> H      2.539718   -1.788027   -0.031196
| 14> H     -2.782096   -0.534219    1.226126
| 15> *
| 16>
| 17>                          ****END OF INPUT****

CARTESIAN COORDINATES (ANGSTROEM)
---------------------------------
  S     -0.802200    0.738403    0.006465
  S     -2.555014   -0.375391   -0.096171
  O      2.866754   -0.880415   -0.028233
  O      2.068290    1.188928    0.002883
  C      0.458292   -0.598704    0.045623
  C      1.844967    0.013992    0.003269
  H      0.311493   -1.260107   -0.808448
  H      0.346394   -1.185656    0.958254
  H      2.539718   -1.788027   -0.031196
  H     -2.782096   -0.534219    1.226126

 Total Charge           Charge          ....    0
 Multiplicity           Mult            ....    1
 Number of Electrons    NEL             ....   64
 Basis Dimension        Dim             ....  182

ORBITAL ENERGIES
----------------

  NO   OCC          E(Eh)            E(eV)
   0   2.0000     -92.002629     -2503.5188
   1   2.0000     -91.999927     -2503.4453
   2   2.0000     -20.640224      -561.6491
   3   2.0000     -20.575842      -559.8971
   4   2.0000     -11.417457      -310.6848
   5   2.0000     -11.311147      -307.7920
   6   2.0000      -9.001583      -244.9455
   7   2.0000      -9.000002      -244.9025
   8   2.0000      -6.683231      -181.8600
   9   2.0000      -6.681856      -181.8225
  10   2.0000      -6.681488      -181.8125
  11   2.0000      -6.680320      -181.7807
  12   2.0000      -6.679081      -181.7470
  13   2.0000      -6.678127      -181.7211
  14   2.0000      -1.483322       -40.3632
  15   2.0000      -1.390056       -37.8253
  16   2.0000      -1.105631       -30.0858
  17   2.0000      -1.013824       -27.5875
  18   2.0000      -0.877660       -23.8823
  19   2.0000      -0.835117       -22.7247
  20   2.0000      -0.740244       -20.1431
  21   2.0000      -0.681094       -18.5335
  22   2.0000      -0.677188       -18.4272
  23   2.0000      -0.622435       -16.9373
  24   2.0000      -0.602985       -16.4081
  25   2.0000      -0.573098       -15.5948
  26   2.0000      -0.528355       -14.3773
  27   2.0000      -0.498228       -13.5575
  28   2.0000      -0.476325       -12.9615
  29   2.0000      -0.469281       -12.7698
  30   2.0000      -0.389162       -10.5896
  31   2.0000      -0.377992       -10.2857
  32   0.0000       0.021715         0.5909
  33   0.0000       0.037578         1.0225
  34   0.0000       0.048012         1.3065
  35   0.0000       0.062456         1.6995
  36   0.0000       0.071320         1.9407

MULLIKEN ATOMIC CHARGES
-----------------------
   0 S :    0.181390
   1 S :   -0.149078
   2 O :   -0.710284
   3 O :   -0.635204
   4 C :   -0.204913
   5 C :    1.080853
   6 H :    0.034031
   7 H :    0.026423
   8 H :    0.206500
   9 H :    0.170282
Sum of atomic charges:    0.0000000

LOEWDIN ATOMIC CHARGES
----------------------
   0 S :    0.489429
   1 S :    0.342036
   2 O :    0.203377
   3 O :    0.042745
   4 C :   -0.296832
   5 C :   -0.406944
   6 H :   -0.032633
   7 H :   -0.028703
   8 H :   -0.037641
   9 H :   -0.274835

  Mayer bond orders larger than 0.100000
B(  0-S ,  1-S ) :   1.1788 B(  0-S ,  4-C ) :   1.1221 B(  0-S ,  5-C ) :  -0.1185
B(  0-S ,  6-H ) :  -0.1265 B(  0-S ,  7-H ) :  -0.1133 B(  1-S ,  4-C ) :  -0.1333
B(  1-S ,  9-H ) :   0.9471 B(  2-O ,  4-C ) :   0.1250 B(  2-O ,  5-C ) :   0.4463
B(  2-O ,  8-H ) :   1.0016 B(  3-O ,  5-C ) :   1.7006 B(  4-C ,  5-C ) :   1.0279
B(  4-C ,  6-H ) :   0.9300 B(  4-C ,  7-H ) :   0.9497

MP2 TOTAL ENERGY:    -1023.852396757 Eh
FINAL SINGLE POINT ENERGY     -1023.852396756866

DIPOLE MOMENT
-------------
                                X             Y             Z
Electronic contribution:     -1.12533       2.74264      -0.92749
Nuclear contribution   :      0.57779      -4.62150       1.30398
                        -----------------------------------------
Total Dipole Moment    :     -0.54754      -1.87886       0.37649
                        -----------------------------------------
Magnitude (a.u.)       :      1.99290
Magnitude (Debye)      :      5.06555

Rotational constants in cm-1:     0.237325     0.034318     0.030348
Rotational constants in MHz :  7114.824296  1028.817863   909.814518

                             ****ORCA TERMINATED NORMALLY****
TOTAL RUN TIME: 0 days 0 hours 0 minutes 41 seconds 894 msec
