                         Program Version 5.0.3 -  RELEASE  -
|  1> !ri-mp2 aug-cc-pvdz aug-cc-pvdz/c tightscf
|  2> %pal nprocs 16 end
|  3>
|  4> * xyz 0 1
|  5> O     -0.037714   -1.357944    1.090603
|  6> O     -0.037714   -1.357944   -1.090603
|  7> H     -1.093723    1.213482    1.547438
|  8> H      0.276620    2.273597    1.142183
|  9> H      0.546613    0.777805    2.052059
| 10> C     -0.037714    1.240481    1.264007
| 11> H     -1.093723    1.213482   -1.547438
| 12> H      0.546613    0.777805   -2.052059
| 13> H      0.276620    2.273597   -1.142183
| 14> C     -0.037714    1.240481   -1.264007
| 15> N      0.022482   -0.802092    0.000000
| 16> N      0.205657    0.560886    0.000000
| 17> *
| 18>
| 19>                          ****END OF INPUT****

CARTESIAN COORDINATES (ANGSTROEM)
---------------------------------
  O     -0.037714   -1.357944    1.090603
  O     -0.037714   -1.357944   -1.090603
  H     -1.093723    1.213482    1.547438
  H      0.276620    2.273597    1.142183
  H      0.546613    0.777805    2.052059
  C     -0.037714    1.240481    1.264007
  H     -1.093723    1.213482   -1.547438
  H      0.546613    0.777805   -2.052059
  H      0.276620    2.273597   -1.142183
  C     -0.037714    1.240481   -1.264007
  N      0.022482   -0.802092    0.000000
  N      0.205657    0.560886    0.000000

 Total Charge           Charge          ....    0
 Multiplicity           Mult            ....    1
 Number of Electrons    NEL             ....   48
 Basis Dimension        Dim             ....  192

ORBITAL ENERGIES
----------------

  NO   OCC          E(Eh)            E(eV)
   0   2.0000     -20.602878      -560.6328
   1   2.0000     -20.602825      -560.6314
   2   2.0000     -15.884988      -432.2525
   3   2.0000     -15.656877      -426.0453
   4   2.0000     -11.291470      -307.2565
   5   2.0000     -11.291448      -307.2559
   6   2.0000      -1.623910       -44.1888
   7   2.0000      -1.405254       -38.2389
   8   2.0000      -1.300086       -35.3771
   9   2.0000      -1.014310       -27.6008
  10   2.0000      -1.005565       -27.3628
  11   2.0000      -0.823079       -22.3971
  12   2.0000      -0.771048       -20.9813
  13   2.0000      -0.751819       -20.4580
  14   2.0000      -0.736750       -20.0480
  15   2.0000      -0.640500       -17.4289
  16   2.0000      -0.633998       -17.2520
  17   2.0000      -0.603969       -16.4348
  18   2.0000      -0.588822       -16.0227
  19   2.0000      -0.567571       -15.4444
  20   2.0000      -0.510114       -13.8809
  21   2.0000      -0.482662       -13.1339
  22   2.0000      -0.458328       -12.4718
  23   2.0000      -0.416234       -11.3263
  24   0.0000       0.027111         0.7377
  25   0.0000       0.043984         1.1969
  26   0.0000       0.047625         1.2959
  27   0.0000       0.057757         1.5716
  28   0.0000       0.069123         1.8809

MULLIKEN ATOMIC CHARGES
-----------------------
   0 O :   -0.756327
   1 O :   -0.756327
   2 H :   -0.046289
   3 H :   -0.172441
   4 H :   -0.124332
   5 C :    0.870849
   6 H :   -0.046289
   7 H :   -0.124332
   8 H :   -0.172441
   9 C :    0.870849
  10 N :    0.820736
  11 N :   -0.363657
Sum of atomic charges:    0.0000000

LOEWDIN ATOMIC CHARGES
----------------------
   0 O :    0.083040
   1 O :    0.083040
   2 H :   -0.000525
   3 H :   -0.011568
   4 H :   -0.017842
   5 C :    0.192198
   6 H :   -0.000525
   7 H :   -0.017842
   8 H :   -0.011568
   9 C :    0.192198
  10 N :   -0.391174
  11 N :   -0.099432

  Mayer bond orders larger than 0.100000
B(  0-O , 10-N ) :   1.0089 B(  1-O , 10-N ) :   1.0089 B(  2-H ,  5-C ) :   0.8860
B(  3-H ,  5-C ) :   0.9364 B(  4-H ,  5-C ) :   1.0064 B(  5-C , 11-N ) :   0.8669
B(  6-H ,  9-C ) :   0.8860 B(  7-H ,  9-C ) :   1.0064 B(  8-H ,  9-C ) :   0.9364
B(  9-C , 11-N ) :   0.8669 B( 10-N , 11-N ) :   0.7996

MP2 TOTAL ENERGY:     -338.813096830 Eh
FINAL SINGLE POINT ENERGY      -338.813096829898

DIPOLE MOMENT
-------------
                                X             Y             Z
Electronic contribution:      0.49190      -6.54595       0.00000
Nuclear contribution   :     -0.54122       8.49171      -0.00000
                        -----------------------------------------
Total Dipole Moment    :     -0.04933       1.94576       0.00000
                        -----------------------------------------
Magnitude (a.u.)       :      1.94639
Magnitude (Debye)      :      4.94732

Rotational constants in cm-1:     0.175210     0.132683     0.078186
Rotational constants in MHz :  5252.648924  3977.747327  2343.959414

                             ****ORCA TERMINATED NORMALLY****
TOTAL RUN TIME: 0 days 0 hours 0 minutes 51 seconds 882 msec
