                         Program Version 5.0.3 -  RELEASE  -
|  1> !ri-mp2 aug-cc-pvdz aug-cc-pvdz/c tightscf
|  2> %pal nprocs 16 end
|  3>
|  4> * xyz 0 1
|  5> C      0.000000    0.000000    0.794985
|  6> N      0.000000    0.748957   -0.440025
|  7> N      0.000000   -0.748957   -0.440025
|  8> H      0.911241    0.078114    1.376716
|  9> H     -0.911241   -0.078114    1.376716
| 10> H     -0.955168    0.999325   -0.681494
| 11> H      0.955168   -0.999325   -0.681494
| 12> *
| 13>
| 14>                          ****END OF INPUT****

CARTESIAN COORDINATES (ANGSTROEM)
---------------------------------
  C      0.000000    0.000000    0.794985
  N      0.000000    0.748957   -0.440025
  N      0.000000   -0.748957   -0.440025
  H      0.911241    0.078114    1.376716
  H     -0.911241   -0.078114    1.376716
  H     -0.955168    0.999325   -0.681494
  H      0.955168   -0.999325   -0.681494

 Total Charge           Charge          ....    0
 Multiplicity           Mult            ....    1
 Number of Electrons    NEL             ....   24
 Basis Dimension        Dim             ....  105

ORBITAL ENERGIES
----------------

  NO   OCC          E(Eh)            E(eV)
   0   2.0000     -15.602071      -424.5539
   1   2.0000     -15.601672      -424.5431
   2   2.0000     -11.300344      -307.4980
   3   2.0000      -1.348541       -36.6957
   4   2.0000      -0.992539       -27.0084
   5   2.0000      -0.883516       -24.0417
   6   2.0000      -0.701520       -19.0893
   7   2.0000      -0.676345       -18.4043
   8   2.0000      -0.531986       -14.4761
   9   2.0000      -0.506593       -13.7851
  10   2.0000      -0.446827       -12.1588
  11   2.0000      -0.417986       -11.3740
  12   0.0000       0.036226         0.9858
  13   0.0000       0.046406         1.2628
  14   0.0000       0.053899         1.4667
  15   0.0000       0.061306         1.6682
  16   0.0000       0.098225         2.6728

MULLIKEN ATOMIC CHARGES
-----------------------
   0 C :    1.144969
   1 N :   -0.422493
   2 N :   -0.422493
   3 H :   -0.209074
   4 H :   -0.209074
   5 H :    0.059083
   6 H :    0.059083
Sum of atomic charges:    0.0000000

LOEWDIN ATOMIC CHARGES
----------------------
   0 C :   -0.023669
   1 N :    0.083800
   2 N :    0.083800
   3 H :   -0.009460
   4 H :   -0.009460
   5 H :   -0.062505
   6 H :   -0.062505

  Mayer bond orders larger than 0.100000
B(  0-C ,  1-N ) :   0.7071 B(  0-C ,  2-N ) :   0.7071 B(  0-C ,  3-H ) :   0.9433
B(  0-C ,  4-H ) :   0.9433 B(  1-N ,  2-N ) :   0.9093 B(  1-N ,  5-H ) :   1.0139
B(  2-N ,  6-H ) :   1.0139 B(  3-H ,  4-H ) :  -0.1185

MP2 TOTAL ENERGY:     -149.531649152 Eh
FINAL SINGLE POINT ENERGY      -149.531649152237

DIPOLE MOMENT
-------------
                                X             Y             Z
Electronic contribution:     -0.00000       0.00000      -0.83759
Nuclear contribution   :      0.00000       0.00000       1.41725
                        -----------------------------------------
Total Dipole Moment    :     -0.00000       0.00000       0.57966
                        -----------------------------------------
Magnitude (a.u.)       :      0.57966
Magnitude (Debye)      :      1.47337

Rotational constants in cm-1:     0.801861     0.793191     0.472354
Rotational constants in MHz : 24039.183608 23779.258660 14160.818353

                             ****ORCA TERMINATED NORMALLY****
TOTAL RUN TIME: 0 days 0 hours 0 minutes 57 seconds 791 msec
