                         Program Version 5.0.3 -  RELEASE  -
|  1> !ri-mp2 aug-cc-pvdz aug-cc-pvdz/c tightscf
|  2> %pal nprocs 16 end
|  3>
|  4> * xyz 0 1
|  5> C      0.000000    0.000000    0.599276
|  6> C      0.000000    0.000000   -0.599276
|  7> Cl     0.000000    0.000000    2.241149
|  8> Cl     0.000000    0.000000   -2.241149
|  9> *
| 10>
| 11>                          ****END OF INPUT****

CARTESIAN COORDINATES (ANGSTROEM)
---------------------------------
  C      0.000000    0.000000    0.599276
  C      0.000000    0.000000   -0.599276
  Cl     0.000000    0.000000    2.241149
  Cl     0.000000    0.000000   -2.241149

 Total Charge           Charge          ....    0
 Multiplicity           Mult            ....    1
 Number of Electrons    NEL             ....   46
 Basis Dimension        Dim             ....  100

ORBITAL ENERGIES
----------------

  NO   OCC          E(Eh)            E(eV)
   0   2.0000    -104.897062     -2854.3942
   1   2.0000    -104.897061     -2854.3942
   2   2.0000     -11.316117      -307.9272
   3   2.0000     -11.312343      -307.8245
   4   2.0000     -10.621542      -289.0268
   5   2.0000     -10.621526      -289.0264
   6   2.0000      -8.089821      -220.1352
   7   2.0000      -8.089821      -220.1352
   8   2.0000      -8.085686      -220.0227
   9   2.0000      -8.085686      -220.0227
  10   2.0000      -8.085686      -220.0227
  11   2.0000      -8.085686      -220.0227
  12   2.0000      -1.212650       -32.9979
  13   2.0000      -1.189482       -32.3674
  14   2.0000      -1.020422       -27.7671
  15   2.0000      -0.719939       -19.5905
  16   2.0000      -0.670157       -18.2359
  17   2.0000      -0.577556       -15.7161
  18   2.0000      -0.577556       -15.7161
  19   2.0000      -0.529780       -14.4161
  20   2.0000      -0.529780       -14.4161
  21   2.0000      -0.386112       -10.5066
  22   2.0000      -0.386112       -10.5066
  23   0.0000       0.058340         1.5875
  24   0.0000       0.065938         1.7943
  25   0.0000       0.116363         3.1664
  26   0.0000       0.117856         3.2070
  27   0.0000       0.117856         3.2070

MULLIKEN ATOMIC CHARGES
-----------------------
   0 C :    0.037444
   1 C :    0.037444
   2 Cl:   -0.037444
   3 Cl:   -0.037444
Sum of atomic charges:   -0.0000000

LOEWDIN ATOMIC CHARGES
----------------------
   0 C :   -0.607893
   1 C :   -0.607893
   2 Cl:    0.607893
   3 Cl:    0.607893

  Mayer bond orders larger than 0.100000
B(  0-C ,  1-C ) :   2.2603 B(  0-C ,  2-Cl) :   0.9814 B(  1-C ,  3-Cl) :   0.9814

MP2 TOTAL ENERGY:     -995.195001421 Eh
FINAL SINGLE POINT ENERGY      -995.195001420852

DIPOLE MOMENT
-------------
                                X             Y             Z
Electronic contribution:      0.00000      -0.00000       0.00000
Nuclear contribution   :      0.00000       0.00000       0.00000
                        -----------------------------------------
Total Dipole Moment    :      0.00000      -0.00000       0.00000
                        -----------------------------------------
Magnitude (a.u.)       :      0.00000
Magnitude (Debye)      :      0.00000

Rotational constants in cm-1:     0.000000     0.046214     0.046214
Rotational constants in MHz :     0.000000  1385.474005  1385.474005

                             ****ORCA TERMINATED NORMALLY****
TOTAL RUN TIME: 0 days 0 hours 0 minutes 40 seconds 740 msec
