                         Program Version 5.0.3 -  RELEASE  -
|  1> !ri-mp2 aug-cc-pvdz aug-cc-pvdz/c tightscf
|  2> %pal nprocs 16 end
|  3>
|  4> * xyz 0 1
|  5> O     -0.023151    1.622923   -0.280281
|  6> N     -2.199831   -0.919309   -0.166719
|  7> N      2.157942   -0.992833   -0.172002
|  8> C     -0.002614    0.387114    0.400860
|  9> C     -1.233688   -0.342601    0.060384
| 10> C      1.190268   -0.419958    0.063748
| 11> H      0.756685    2.130316   -0.026335
| 12> H     -0.002056    0.523963    1.489685
| 13> *
| 14>
| 15>                          ****END OF INPUT****

CARTESIAN COORDINATES (ANGSTROEM)
---------------------------------
  O     -0.023151    1.622923   -0.280281
  N     -2.199831   -0.919309   -0.166719
  N      2.157942   -0.992833   -0.172002
  C     -0.002614    0.387114    0.400860
  C     -1.233688   -0.342601    0.060384
  C      1.190268   -0.419958    0.063748
  H      0.756685    2.130316   -0.026335
  H     -0.002056    0.523963    1.489685

 Total Charge           Charge          ....    0
 Multiplicity           Mult            ....    1
 Number of Electrons    NEL             ....   42
 Basis Dimension        Dim             ....  156

ORBITAL ENERGIES
----------------

  NO   OCC          E(Eh)            E(eV)
   0   2.0000     -20.649593      -561.9040
   1   2.0000     -15.628596      -425.2757
   2   2.0000     -15.623140      -425.1273
   3   2.0000     -11.427677      -310.9629
   4   2.0000     -11.323332      -308.1235
   5   2.0000     -11.319547      -308.0205
   6   2.0000      -1.454325       -39.5742
   7   2.0000      -1.269979       -34.5579
   8   2.0000      -1.260578       -34.3021
   9   2.0000      -1.088079       -29.6081
  10   2.0000      -0.838873       -22.8269
  11   2.0000      -0.770454       -20.9651
  12   2.0000      -0.754606       -20.5339
  13   2.0000      -0.634032       -17.2529
  14   2.0000      -0.603348       -16.4179
  15   2.0000      -0.589437       -16.0394
  16   2.0000      -0.558077       -15.1860
  17   2.0000      -0.519090       -14.1252
  18   2.0000      -0.512239       -13.9387
  19   2.0000      -0.499578       -13.5942
  20   2.0000      -0.498189       -13.5564
  21   0.0000       0.017374         0.4728
  22   0.0000       0.039178         1.0661
  23   0.0000       0.067733         1.8431
  24   0.0000       0.070327         1.9137
  25   0.0000       0.088757         2.4152

MULLIKEN ATOMIC CHARGES
-----------------------
   0 O :   -0.688926
   1 N :   -0.280525
   2 N :   -0.279605
   3 C :    1.456367
   4 C :   -0.211013
   5 C :   -0.259756
   6 H :    0.166081
   7 H :    0.097377
Sum of atomic charges:   -0.0000000

LOEWDIN ATOMIC CHARGES
----------------------
   0 O :    0.176610
   1 N :    0.111060
   2 N :    0.105057
   3 C :   -0.246067
   4 C :   -0.087523
   5 C :   -0.085653
   6 H :   -0.028069
   7 H :    0.054586

  Mayer bond orders larger than 0.100000
B(  0-O ,  3-C ) :   0.3329 B(  0-O ,  4-C ) :   0.1206 B(  0-O ,  5-C ) :   0.1838
B(  0-O ,  6-H ) :   1.0523 B(  1-N ,  4-C ) :   2.7212 B(  2-N ,  5-C ) :   2.6886
B(  3-C ,  4-C ) :   0.5985 B(  3-C ,  5-C ) :   0.6129 B(  3-C ,  7-H ) :   0.7600
B(  4-C ,  5-C ) :   0.1349

MP2 TOTAL ENERGY:     -299.433629841 Eh
FINAL SINGLE POINT ENERGY      -299.433629841433

DIPOLE MOMENT
-------------
                                X             Y             Z
Electronic contribution:     -0.20680      -1.25719      -0.40704
Nuclear contribution   :      0.72477       2.56513       1.40043
                        -----------------------------------------
Total Dipole Moment    :      0.51798       1.30794       0.99340
                        -----------------------------------------
Magnitude (a.u.)       :      1.72216
Magnitude (Debye)      :      4.37739

Rotational constants in cm-1:     0.200343     0.096218     0.068313
Rotational constants in MHz :  6006.125600  2884.550313  2047.962414

                             ****ORCA TERMINATED NORMALLY****
TOTAL RUN TIME: 0 days 0 hours 0 minutes 34 seconds 613 msec
