                         Program Version 5.0.3 -  RELEASE  -
|  1> !ri-mp2 aug-cc-pvdz aug-cc-pvdz/c tightscf
|  2> %pal nprocs 16 end
|  3>
|  4> * xyz 0 1
|  5> C     0.000000     2.726159    0.135205
|  6> C     0.000000    -2.726159    0.135205
|  7> C     0.000000     1.403492   -0.620064
|  8> C     0.000000    -1.403492   -0.620064
|  9> S     0.000000     0.000000    0.556153
| 10> H    -0.882330     2.818735    0.768807
| 11> H     0.882330     2.818735    0.768807
| 12> H     0.000000     3.560604   -0.567621
| 13> H     0.882330    -2.818735    0.768807
| 14> H    -0.882330    -2.818735    0.768807
| 15> H     0.000000    -3.560604   -0.567621
| 16> H     0.883227     1.323432   -1.255033
| 17> H    -0.883227     1.323432   -1.255033
| 18> H    -0.883227    -1.323432   -1.255033
| 19> H     0.883227    -1.323432   -1.255033
| 20> *
| 21>
| 22>                          ****END OF INPUT****

CARTESIAN COORDINATES (ANGSTROEM)
---------------------------------
  C      0.000000    2.726159    0.135205
  C      0.000000   -2.726159    0.135205
  C      0.000000    1.403492   -0.620064
  C      0.000000   -1.403492   -0.620064
  S      0.000000    0.000000    0.556153
  H     -0.882330    2.818735    0.768807
  H      0.882330    2.818735    0.768807
  H      0.000000    3.560604   -0.567621
  H      0.882330   -2.818735    0.768807
  H     -0.882330   -2.818735    0.768807
  H      0.000000   -3.560604   -0.567621
  H      0.883227    1.323432   -1.255033
  H     -0.883227    1.323432   -1.255033
  H     -0.883227   -1.323432   -1.255033
  H      0.883227   -1.323432   -1.255033

 Total Charge           Charge          ....    0
 Multiplicity           Mult            ....    1
 Number of Electrons    NEL             ....   50
 Basis Dimension        Dim             ....  209

ORBITAL ENERGIES
----------------

  NO   OCC          E(Eh)            E(eV)
   0   2.0000     -91.937092     -2501.7355
   1   2.0000     -11.260199      -306.4056
   2   2.0000     -11.260186      -306.4052
   3   2.0000     -11.228861      -305.5528
   4   2.0000     -11.228860      -305.5528
   5   2.0000      -8.938922      -243.2404
   6   2.0000      -6.620903      -180.1639
   7   2.0000      -6.619545      -180.1270
   8   2.0000      -6.617514      -180.0717
   9   2.0000      -1.083411       -29.4811
  10   2.0000      -1.033740       -28.1295
  11   2.0000      -0.929069       -25.2813
  12   2.0000      -0.837808       -22.7979
  13   2.0000      -0.784670       -21.3519
  14   2.0000      -0.634353       -17.2616
  15   2.0000      -0.613169       -16.6852
  16   2.0000      -0.608890       -16.5687
  17   2.0000      -0.563815       -15.3422
  18   2.0000      -0.543609       -14.7924
  19   2.0000      -0.516254       -14.0480
  20   2.0000      -0.515142       -14.0177
  21   2.0000      -0.497239       -13.5305
  22   2.0000      -0.454317       -12.3626
  23   2.0000      -0.420018       -11.4293
  24   2.0000      -0.331028        -9.0077
  25   0.0000       0.036614         0.9963
  26   0.0000       0.041322         1.1244
  27   0.0000       0.049454         1.3457
  28   0.0000       0.049784         1.3547
  29   0.0000       0.063534         1.7288

MULLIKEN ATOMIC CHARGES
-----------------------
   0 C :    0.414424
   1 C :    0.414424
   2 C :   -0.118906
   3 C :   -0.118906
   4 S :    0.301104
   5 H :   -0.063832
   6 H :   -0.063832
   7 H :   -0.042094
   8 H :   -0.063832
   9 H :   -0.063832
  10 H :   -0.042094
  11 H :   -0.138156
  12 H :   -0.138156
  13 H :   -0.138156
  14 H :   -0.138156
Sum of atomic charges:    0.0000000

LOEWDIN ATOMIC CHARGES
----------------------
   0 C :    0.064869
   1 C :    0.064869
   2 C :   -0.330198
   3 C :   -0.330198
   4 S :    0.824760
   5 H :   -0.025483
   6 H :   -0.025483
   7 H :   -0.022886
   8 H :   -0.025483
   9 H :   -0.025483
  10 H :   -0.022886
  11 H :   -0.036599
  12 H :   -0.036599
  13 H :   -0.036599
  14 H :   -0.036599

  Mayer bond orders larger than 0.100000
B(  0-C ,  2-C ) :   1.2168 B(  0-C ,  5-H ) :   0.9502 B(  0-C ,  6-H ) :   0.9502
B(  0-C ,  7-H ) :   0.9169 B(  1-C ,  3-C ) :   1.2168 B(  1-C ,  8-H ) :   0.9502
B(  1-C ,  9-H ) :   0.9502 B(  1-C , 10-H ) :   0.9169 B(  2-C ,  4-S ) :   1.0610
B(  2-C , 11-H ) :   0.9177 B(  2-C , 12-H ) :   0.9177 B(  3-C ,  4-S ) :   1.0610
B(  3-C , 13-H ) :   0.9177 B(  3-C , 14-H ) :   0.9177

MP2 TOTAL ENERGY:     -555.593842242 Eh
FINAL SINGLE POINT ENERGY      -555.593842242257

DIPOLE MOMENT
-------------
                                X             Y             Z
Electronic contribution:      0.00000       0.00000       2.50297
Nuclear contribution   :      0.00000      -0.00000      -3.22505
                        -----------------------------------------
Total Dipole Moment    :      0.00000       0.00000      -0.72208
                        -----------------------------------------
Magnitude (a.u.)       :      0.72208
Magnitude (Debye)      :      1.83539

Rotational constants in cm-1:     0.479534     0.056800     0.052783
Rotational constants in MHz : 14376.080150  1702.826552  1582.405191

                             ****ORCA TERMINATED NORMALLY****
TOTAL RUN TIME: 0 days 0 hours 0 minutes 50 seconds 817 msec
