                         Program Version 5.0.3 -  RELEASE  -
|  1> !ri-mp2 aug-cc-pvdz aug-cc-pvdz/c tightscf
|  2> %pal nprocs 16 end
|  3> %maxcore 3800
|  4>
|  5> * xyz 0 1
|  6> O      0.573550   -0.456962   -0.218509
|  7> O     -0.573550    0.456962   -0.218509
|  8> C     -0.080170    1.796241   -0.003020
|  9> C      0.884776    2.195036   -1.121036
| 10> C     -1.367264    2.619106   -0.073034
| 11> C      0.573550    1.917363    1.374169
| 12> C      0.080170   -1.796241   -0.003020
| 13> C     -0.884776   -2.195036   -1.121036
| 14> C      1.367264   -2.619106   -0.073034
| 15> C     -0.573550   -1.917363    1.374169
| 16> H      0.409795    2.068957   -2.094034
| 17> H      1.176355    3.240428   -1.011020
| 18> H      1.784373    1.583641   -1.095314
| 19> H     -2.069771    2.304245    0.698415
| 20> H     -1.138092    3.673801    0.079206
| 21> H     -1.845273    2.506130   -1.045680
| 22> H      1.459710    1.289466    1.438562
| 23> H      0.871203    2.950204    1.559960
| 24> H     -0.124150    1.615244    2.155502
| 25> H     -0.409795   -2.068957   -2.094034
| 26> H     -1.176355   -3.240428   -1.011020
| 27> H     -1.784373   -1.583641   -1.095314
| 28> H      2.069771   -2.304245    0.698415
| 29> H      1.138092   -3.673801    0.079206
| 30> H      1.845273   -2.506130   -1.045680
| 31> H     -1.459710   -1.289466    1.438562
| 32> H     -0.871203   -2.950204    1.559960
| 33> H      0.124150   -1.615244    2.155502
| 34> *
| 35>
| 36>                          ****END OF INPUT****

CARTESIAN COORDINATES (ANGSTROEM)
---------------------------------
  O      0.573550   -0.456962   -0.218509
  O     -0.573550    0.456962   -0.218509
  C     -0.080170    1.796241   -0.003020
  C      0.884776    2.195036   -1.121036
  C     -1.367264    2.619106   -0.073034
  C      0.573550    1.917363    1.374169
  C      0.080170   -1.796241   -0.003020
  C     -0.884776   -2.195036   -1.121036
  C      1.367264   -2.619106   -0.073034
  C     -0.573550   -1.917363    1.374169
  H      0.409795    2.068957   -2.094034
  H      1.176355    3.240428   -1.011020
  H      1.784373    1.583641   -1.095314
  H     -2.069771    2.304245    0.698415
  H     -1.138092    3.673801    0.079206
  H     -1.845273    2.506130   -1.045680
  H      1.459710    1.289466    1.438562
  H      0.871203    2.950204    1.559960
  H     -0.124150    1.615244    2.155502
  H     -0.409795   -2.068957   -2.094034
  H     -1.176355   -3.240428   -1.011020
  H     -1.784373   -1.583641   -1.095314
  H      2.069771   -2.304245    0.698415
  H      1.138092   -3.673801    0.079206
  H      1.845273   -2.506130   -1.045680
  H     -1.459710   -1.289466    1.438562
  H     -0.871203   -2.950204    1.559960
  H      0.124150   -1.615244    2.155502

 Total Charge           Charge          ....    0
 Multiplicity           Mult            ....    1
 Number of Electrons    NEL             ....   82
 Basis Dimension        Dim             ....  392

ORBITAL ENERGIES
----------------

  NO   OCC          E(Eh)            E(eV)
   0   2.0000     -20.610673      -560.8449
   1   2.0000     -20.610388      -560.8372
   2   2.0000     -11.290982      -307.2432
   3   2.0000     -11.290980      -307.2432
   4   2.0000     -11.219953      -305.3104
   5   2.0000     -11.219953      -305.3104
   6   2.0000     -11.214235      -305.1549
   7   2.0000     -11.214235      -305.1548
   8   2.0000     -11.212868      -305.1176
   9   2.0000     -11.212868      -305.1176
  10   2.0000      -1.453396       -39.5489
  11   2.0000      -1.244202       -33.8565
  12   2.0000      -1.069084       -29.0913
  13   2.0000      -1.037722       -28.2378
  14   2.0000      -0.940252       -25.5856
  15   2.0000      -0.937739       -25.5172
  16   2.0000      -0.936735       -25.4898
  17   2.0000      -0.934506       -25.4292
  18   2.0000      -0.764350       -20.7990
  19   2.0000      -0.753950       -20.5160
  20   2.0000      -0.655759       -17.8441
  21   2.0000      -0.654147       -17.8002
  22   2.0000      -0.652908       -17.7665
  23   2.0000      -0.613705       -16.6998
  24   2.0000      -0.595502       -16.2044
  25   2.0000      -0.590687       -16.0734
  26   2.0000      -0.574796       -15.6410
  27   2.0000      -0.562219       -15.2988
  28   2.0000      -0.546015       -14.8578
  29   2.0000      -0.538493       -14.6531
  30   2.0000      -0.520491       -14.1633
  31   2.0000      -0.520406       -14.1610
  32   2.0000      -0.519448       -14.1349
  33   2.0000      -0.513470       -13.9722
  34   2.0000      -0.512262       -13.9393
  35   2.0000      -0.493373       -13.4254
  36   2.0000      -0.489665       -13.3245
  37   2.0000      -0.476843       -12.9756
  38   2.0000      -0.454248       -12.3607
  39   2.0000      -0.439446       -11.9579
  40   2.0000      -0.402908       -10.9637
  41   0.0000       0.036778         1.0008
  42   0.0000       0.042335         1.1520
  43   0.0000       0.046015         1.2521
  44   0.0000       0.046321         1.2605
  45   0.0000       0.057737         1.5711

MULLIKEN ATOMIC CHARGES
-----------------------
   0 O :   -0.429142
   1 O :   -0.429142
   2 C :   -2.587799
   3 C :    1.137645
   4 C :    1.013979
   5 C :    1.095847
   6 C :   -2.587799
   7 C :    1.137645
   8 C :    1.013979
   9 C :    1.095847
  10 H :   -0.011629
  11 H :   -0.026333
  12 H :   -0.064002
  13 H :   -0.033563
  14 H :    0.036857
  15 H :   -0.058807
  16 H :   -0.011022
  17 H :   -0.046157
  18 H :   -0.015874
  19 H :   -0.011629
  20 H :   -0.026333
  21 H :   -0.064002
  22 H :   -0.033563
  23 H :    0.036857
  24 H :   -0.058807
  25 H :   -0.011022
  26 H :   -0.046157
  27 H :   -0.015874
Sum of atomic charges:    0.0000000

LOEWDIN ATOMIC CHARGES
----------------------
   0 O :    0.057362
   1 O :    0.057362
   2 C :   -0.514770
   3 C :    0.178818
   4 C :    0.174745
   5 C :    0.177047
   6 C :   -0.514770
   7 C :    0.178818
   8 C :    0.174745
   9 C :    0.177047
  10 H :   -0.003909
  11 H :   -0.008205
  12 H :   -0.014870
  13 H :   -0.007684
  14 H :   -0.004868
  15 H :   -0.007163
  16 H :   -0.013671
  17 H :   -0.007582
  18 H :   -0.005248
  19 H :   -0.003909
  20 H :   -0.008205
  21 H :   -0.014870
  22 H :   -0.007684
  23 H :   -0.004868
  24 H :   -0.007163
  25 H :   -0.013671
  26 H :   -0.007582
  27 H :   -0.005248

  Mayer bond orders larger than 0.100000
B(  0-O ,  1-O ) :   0.7372 B(  0-O ,  2-C ) :  -0.2686 B(  0-O ,  6-C ) :  -0.4032
B(  0-O ,  7-C ) :   0.1083 B(  0-O ,  8-C ) :  -0.1253 B(  0-O ,  9-C ) :   0.1261
B(  1-O ,  2-C ) :  -0.4032 B(  1-O ,  3-C ) :   0.1083 B(  1-O ,  4-C ) :  -0.1253
B(  1-O ,  5-C ) :   0.1261 B(  1-O ,  6-C ) :  -0.2686 B(  2-C ,  3-C ) :   1.2590
B(  2-C ,  4-C ) :   1.2772 B(  2-C ,  5-C ) :   1.2478 B(  2-C ,  6-C ) :  -0.1275
B(  2-C , 10-H ) :   0.2740 B(  2-C , 12-H ) :   0.2557 B(  2-C , 13-H ) :   0.2804
B(  2-C , 14-H ) :   0.1317 B(  2-C , 15-H ) :   0.3841 B(  2-C , 16-H ) :   0.1798
B(  2-C , 17-H ) :   0.1773 B(  2-C , 18-H ) :   0.2145 B(  3-C ,  4-C ) :  -0.1538
B(  3-C ,  5-C ) :  -0.1238 B(  3-C , 10-H ) :   0.7011 B(  3-C , 11-H ) :   0.8029
B(  3-C , 12-H ) :   0.7489 B(  4-C ,  5-C ) :  -0.1624 B(  4-C , 13-H ) :   0.7503
B(  4-C , 14-H ) :   0.7639 B(  4-C , 15-H ) :   0.7181 B(  5-C , 16-H ) :   0.7378
B(  5-C , 17-H ) :   0.7592 B(  5-C , 18-H ) :   0.7035 B(  6-C ,  7-C ) :   1.2590
B(  6-C ,  8-C ) :   1.2772 B(  6-C ,  9-C ) :   1.2478 B(  6-C , 19-H ) :   0.2740
B(  6-C , 21-H ) :   0.2557 B(  6-C , 22-H ) :   0.2804 B(  6-C , 23-H ) :   0.1317
B(  6-C , 24-H ) :   0.3841 B(  6-C , 25-H ) :   0.1798 B(  6-C , 26-H ) :   0.1773
B(  6-C , 27-H ) :   0.2145 B(  7-C ,  8-C ) :  -0.1538 B(  7-C ,  9-C ) :  -0.1238
B(  7-C , 19-H ) :   0.7011 B(  7-C , 20-H ) :   0.8029 B(  7-C , 21-H ) :   0.7489
B(  8-C ,  9-C ) :  -0.1624 B(  8-C , 22-H ) :   0.7503 B(  8-C , 23-H ) :   0.7639
B(  8-C , 24-H ) :   0.7181 B(  9-C , 25-H ) :   0.7378 B(  9-C , 26-H ) :   0.7592
B(  9-C , 27-H ) :   0.7035 B( 10-H , 12-H ) :  -0.1044 B( 13-H , 15-H ) :  -0.1036
B( 16-H , 18-H ) :  -0.1081 B( 19-H , 21-H ) :  -0.1044 B( 22-H , 24-H ) :  -0.1036
B( 25-H , 27-H ) :  -0.1081

MP2 TOTAL ENERGY:     -464.729363340 Eh
FINAL SINGLE POINT ENERGY      -464.729363339777

DIPOLE MOMENT
-------------
                                X             Y             Z
Electronic contribution:     -0.00000      -0.00000      -1.25292
Nuclear contribution   :     -0.00000      -0.00000       1.43682
                        -----------------------------------------
Total Dipole Moment    :     -0.00000      -0.00000       0.18390
                        -----------------------------------------
Magnitude (a.u.)       :      0.18390
Magnitude (Debye)      :      0.46744

Rotational constants in cm-1:     0.074536     0.024843     0.024775
Rotational constants in MHz :  2234.542066   744.764519   742.740129

                             ****ORCA TERMINATED NORMALLY****
TOTAL RUN TIME: 0 days 0 hours 3 minutes 23 seconds 441 msec
