                         Program Version 5.0.3 -  RELEASE  -
|  1> !ri-mp2 aug-cc-pvdz aug-cc-pvdz/c tightscf
|  2> %pal nprocs 16 end
|  3>
|  4> * xyz 0 1
|  5> O     -2.011808   -0.775896   -0.227722
|  6> O     -1.126265    1.260042   -0.024183
|  7> N      1.364084    0.336361    0.181249
|  8> N      2.444806    0.013050   -0.303623
|  9> C     -1.063326   -0.080407   -0.006367
| 10> C      0.305241   -0.661369    0.352535
| 11> H     -0.236965    1.621218    0.140319
| 12> H      2.475277   -1.001924   -0.544358
| 13> H      0.269739   -0.910304    1.417114
| 14> H      0.482809   -1.577382   -0.218226
| 15> *
| 16>
| 17>                          ****END OF INPUT****

CARTESIAN COORDINATES (ANGSTROEM)
---------------------------------
  O     -2.011808   -0.775896   -0.227722
  O     -1.126265    1.260042   -0.024183
  N      1.364084    0.336361    0.181249
  N      2.444806    0.013050   -0.303623
  C     -1.063326   -0.080407   -0.006367
  C      0.305241   -0.661369    0.352535
  H     -0.236965    1.621218    0.140319
  H      2.475277   -1.001924   -0.544358
  H      0.269739   -0.910304    1.417114
  H      0.482809   -1.577382   -0.218226

 Total Charge           Charge          ....    0
 Multiplicity           Mult            ....    1
 Number of Electrons    NEL             ....   46
 Basis Dimension        Dim             ....  174

ORBITAL ENERGIES
----------------

  NO   OCC          E(Eh)            E(eV)
   0   2.0000     -20.630750      -561.3913
   1   2.0000     -20.569679      -559.7294
   2   2.0000     -15.682097      -426.7316
   3   2.0000     -15.672112      -426.4598
   4   2.0000     -11.413138      -310.5673
   5   2.0000     -11.319001      -308.0057
   6   2.0000      -1.480338       -40.2820
   7   2.0000      -1.410355       -38.3777
   8   2.0000      -1.385067       -37.6896
   9   2.0000      -1.093040       -29.7431
  10   2.0000      -0.911664       -24.8076
  11   2.0000      -0.842611       -22.9286
  12   2.0000      -0.774561       -21.0769
  13   2.0000      -0.733972       -19.9724
  14   2.0000      -0.695389       -18.9225
  15   2.0000      -0.665826       -18.1180
  16   2.0000      -0.623245       -16.9594
  17   2.0000      -0.596247       -16.2247
  18   2.0000      -0.574708       -15.6386
  19   2.0000      -0.535299       -14.5662
  20   2.0000      -0.488731       -13.2990
  21   2.0000      -0.463570       -12.6144
  22   2.0000      -0.431219       -11.7341
  23   0.0000       0.026517         0.7216
  24   0.0000       0.041303         1.1239
  25   0.0000       0.051298         1.3959
  26   0.0000       0.058469         1.5910
  27   0.0000       0.075817         2.0631

MULLIKEN ATOMIC CHARGES
-----------------------
   0 O :   -0.695294
   1 O :   -0.667328
   2 N :   -0.340473
   3 N :   -0.117472
   4 C :    0.970324
   5 C :    0.513584
   6 H :    0.260825
   7 H :    0.041483
   8 H :    0.077074
   9 H :   -0.042724
Sum of atomic charges:   -0.0000000

LOEWDIN ATOMIC CHARGES
----------------------
   0 O :    0.053643
   1 O :    0.216534
   2 N :   -0.038189
   3 N :    0.165297
   4 C :   -0.346710
   5 C :    0.039071
   6 H :   -0.076540
   7 H :   -0.065696
   8 H :    0.032440
   9 H :    0.020149

  Mayer bond orders larger than 0.100000
B(  0-O ,  4-C ) :   1.5190 B(  1-O ,  4-C ) :   0.5332 B(  1-O ,  5-C ) :   0.1352
B(  1-O ,  6-H ) :   0.9506 B(  2-N ,  3-N ) :   1.3644 B(  2-N ,  5-C ) :   0.8003
B(  3-N ,  7-H ) :   0.9689 B(  4-C ,  5-C ) :   1.0739 B(  5-C ,  8-H ) :   0.8695
B(  5-C ,  9-H ) :   0.8568

MP2 TOTAL ENERGY:     -337.695993848 Eh
FINAL SINGLE POINT ENERGY      -337.695993847940

DIPOLE MOMENT
-------------
                                X             Y             Z
Electronic contribution:     -1.59909       1.24936      -0.40362
Nuclear contribution   :      2.90739      -1.82336       0.77513
                        -----------------------------------------
Total Dipole Moment    :      1.30830      -0.57400       0.37152
                        -----------------------------------------
Magnitude (a.u.)       :      1.47620
Magnitude (Debye)      :      3.75220

Rotational constants in cm-1:     0.304903     0.075754     0.063638
Rotational constants in MHz :  9140.772818  2271.039570  1907.827460

                             ****ORCA TERMINATED NORMALLY****
TOTAL RUN TIME: 0 days 0 hours 0 minutes 53 seconds 604 msec
