                         Program Version 5.0.3 -  RELEASE  -
|  1> !ri-mp2 aug-cc-pvdz aug-cc-pvdz/c tightscf
|  2> %pal nprocs 16 end
|  3> %maxcore 3800
|  4>
|  5> * xyz 0 1
|  6> C      2.663848   -0.782766   -0.312447
|  7> C      1.574850    0.243819    0.027897
|  8> S      0.003172   -0.652999   -0.591505
|  9> O     -0.020248   -1.977073    0.141990
| 10> C      1.557609    0.507360    1.528193
| 11> C      1.785704    1.512671   -0.796723
| 12> C     -1.573874    0.251467    0.029249
| 13> C     -1.560609    1.730836   -0.336792
| 14> C     -1.776120    0.006480    1.519693
| 15> C     -2.659747   -0.480531   -0.773418
| 16> H      2.509176   -1.714151    0.227716
| 17> H      2.686446   -1.005976   -1.380264
| 18> H      3.635357   -0.369465   -0.033555
| 19> H      1.255380   -0.384375    2.076591
| 20> H      0.895101    1.328817    1.794977
| 21> H      2.563900    0.776586    1.859022
| 22> H      1.684867    1.314388   -1.864966
| 23> H      2.799008    1.883799   -0.626678
| 24> H      1.096530    2.309355   -0.528584
| 25> H     -1.282606    1.890906   -1.379789
| 26> H     -0.889760    2.308180    0.296527
| 27> H     -2.565562    2.138481   -0.202592
| 28> H     -1.549414   -1.030527    1.766119
| 29> H     -2.819894    0.198857    1.778581
| 30> H     -1.156770    0.655303    2.134375
| 31> H     -2.534148   -0.333472   -1.846700
| 32> H     -2.647862   -1.549896   -0.566985
| 33> H     -3.638489   -0.088261   -0.489546
| 34> *
| 35>
| 36>                          ****END OF INPUT****

CARTESIAN COORDINATES (ANGSTROEM)
---------------------------------
  C      2.663848   -0.782766   -0.312447
  C      1.574850    0.243819    0.027897
  S      0.003172   -0.652999   -0.591505
  O     -0.020248   -1.977073    0.141990
  C      1.557609    0.507360    1.528193
  C      1.785704    1.512671   -0.796723
  C     -1.573874    0.251467    0.029249
  C     -1.560609    1.730836   -0.336792
  C     -1.776120    0.006480    1.519693
  C     -2.659747   -0.480531   -0.773418
  H      2.509176   -1.714151    0.227716
  H      2.686446   -1.005976   -1.380264
  H      3.635357   -0.369465   -0.033555
  H      1.255380   -0.384375    2.076591
  H      0.895101    1.328817    1.794977
  H      2.563900    0.776586    1.859022
  H      1.684867    1.314388   -1.864966
  H      2.799008    1.883799   -0.626678
  H      1.096530    2.309355   -0.528584
  H     -1.282606    1.890906   -1.379789
  H     -0.889760    2.308180    0.296527
  H     -2.565562    2.138481   -0.202592
  H     -1.549414   -1.030527    1.766119
  H     -2.819894    0.198857    1.778581
  H     -1.156770    0.655303    2.134375
  H     -2.534148   -0.333472   -1.846700
  H     -2.647862   -1.549896   -0.566985
  H     -3.638489   -0.088261   -0.489546

 Total Charge           Charge          ....    0
 Multiplicity           Mult            ....    1
 Number of Electrons    NEL             ....   90
 Basis Dimension        Dim             ....  396

ORBITAL ENERGIES
----------------

  NO   OCC          E(Eh)            E(eV)
   0   2.0000     -92.050551     -2504.8228
   1   2.0000     -20.499595      -557.8223
   2   2.0000     -11.282357      -307.0085
   3   2.0000     -11.281822      -306.9940
   4   2.0000     -11.240008      -305.8562
   5   2.0000     -11.236984      -305.7739
   6   2.0000     -11.230905      -305.6085
   7   2.0000     -11.228530      -305.5438
   8   2.0000     -11.225254      -305.4547
   9   2.0000     -11.222646      -305.3837
  10   2.0000      -9.040009      -245.9911
  11   2.0000      -6.722105      -182.9178
  12   2.0000      -6.721261      -182.8948
  13   2.0000      -6.719334      -182.8424
  14   2.0000      -1.316337       -35.8194
  15   2.0000      -1.118751       -30.4428
  16   2.0000      -1.103206       -30.0198
  17   2.0000      -0.957868       -26.0649
  18   2.0000      -0.951235       -25.8844
  19   2.0000      -0.945781       -25.7360
  20   2.0000      -0.940645       -25.5963
  21   2.0000      -0.903607       -24.5884
  22   2.0000      -0.771066       -20.9818
  23   2.0000      -0.725700       -19.7473
  24   2.0000      -0.651763       -17.7354
  25   2.0000      -0.634844       -17.2750
  26   2.0000      -0.619113       -16.8469
  27   2.0000      -0.615606       -16.7515
  28   2.0000      -0.607224       -16.5234
  29   2.0000      -0.601566       -16.3694
  30   2.0000      -0.572580       -15.5807
  31   2.0000      -0.555208       -15.1080
  32   2.0000      -0.550227       -14.9724
  33   2.0000      -0.541804       -14.7432
  34   2.0000      -0.530325       -14.4309
  35   2.0000      -0.522895       -14.2287
  36   2.0000      -0.518756       -14.1161
  37   2.0000      -0.508089       -13.8258
  38   2.0000      -0.497769       -13.5450
  39   2.0000      -0.486978       -13.2514
  40   2.0000      -0.483876       -13.1669
  41   2.0000      -0.480480       -13.0745
  42   2.0000      -0.469386       -12.7726
  43   2.0000      -0.378973       -10.3124
  44   2.0000      -0.338092        -9.1999
  45   0.0000       0.031776         0.8647
  46   0.0000       0.038499         1.0476
  47   0.0000       0.042617         1.1597
  48   0.0000       0.046768         1.2726
  49   0.0000       0.055189         1.5018

MULLIKEN ATOMIC CHARGES
-----------------------
   0 C :    1.265833
   1 C :   -2.567538
   2 S :    1.358861
   3 O :   -1.310071
   4 C :    0.896470
   5 C :    1.007949
   6 C :   -2.513032
   7 C :    0.934814
   8 C :    0.925812
   9 C :    1.290413
  10 H :    0.018014
  11 H :   -0.036524
  12 H :   -0.106368
  13 H :   -0.029003
  14 H :   -0.107473
  15 H :   -0.107455
  16 H :   -0.057005
  17 H :    0.002011
  18 H :   -0.205691
  19 H :   -0.070521
  20 H :   -0.078048
  21 H :   -0.100859
  22 H :   -0.009552
  23 H :   -0.023763
  24 H :   -0.218054
  25 H :   -0.030551
  26 H :   -0.007501
  27 H :   -0.121168
Sum of atomic charges:   -0.0000000

LOEWDIN ATOMIC CHARGES
----------------------
   0 C :    0.125310
   1 C :   -0.589936
   2 S :    1.135245
   3 O :   -0.532434
   4 C :    0.140302
   5 C :    0.136734
   6 C :   -0.580256
   7 C :    0.135819
   8 C :    0.141897
   9 C :    0.120696
  10 H :   -0.017284
  11 H :   -0.010817
  12 H :   -0.008439
  13 H :   -0.002350
  14 H :   -0.024807
  15 H :   -0.003716
  16 H :   -0.008917
  17 H :   -0.003891
  18 H :   -0.034112
  19 H :   -0.005501
  20 H :   -0.025129
  21 H :   -0.002691
  22 H :   -0.018886
  23 H :   -0.005071
  24 H :   -0.028827
  25 H :   -0.013938
  26 H :   -0.010288
  27 H :   -0.008713

  Mayer bond orders larger than 0.100000
B(  0-C ,  1-C ) :   1.6788 B(  0-C ,  4-C ) :  -0.1569 B(  0-C ,  5-C ) :  -0.1831
B(  0-C , 10-H ) :   0.7029 B(  0-C , 11-H ) :   0.7257 B(  0-C , 12-H ) :   0.7029
B(  1-C ,  3-O ) :  -0.1098 B(  1-C ,  4-C ) :   1.7894 B(  1-C ,  5-C ) :   1.5597
B(  1-C , 10-H ) :   0.2562 B(  1-C , 11-H ) :   0.2427 B(  1-C , 12-H ) :   0.2126
B(  1-C , 13-H ) :   0.2300 B(  1-C , 14-H ) :   0.1752 B(  1-C , 15-H ) :   0.2770
B(  1-C , 16-H ) :   0.2111 B(  1-C , 17-H ) :   0.1921 B(  1-C , 18-H ) :   0.1478
B(  2-S ,  3-O ) :   0.7518 B(  2-S ,  4-C ) :   0.2360 B(  2-S ,  7-C ) :   0.1476
B(  2-S ,  8-C ) :   0.1958 B(  4-C ,  5-C ) :  -0.1149 B(  4-C , 13-H ) :   0.6881
B(  4-C , 14-H ) :   0.7183 B(  4-C , 15-H ) :   0.7155 B(  5-C , 16-H ) :   0.7601
B(  5-C , 17-H ) :   0.7119 B(  5-C , 18-H ) :   0.7993 B(  6-C ,  7-C ) :   1.6052
B(  6-C ,  8-C ) :   1.6702 B(  6-C ,  9-C ) :   1.6241 B(  6-C , 19-H ) :   0.1718
B(  6-C , 20-H ) :   0.1451 B(  6-C , 21-H ) :   0.2368 B(  6-C , 22-H ) :   0.2569
B(  6-C , 23-H ) :   0.1772 B(  6-C , 24-H ) :   0.1528 B(  6-C , 25-H ) :   0.1775
B(  6-C , 26-H ) :   0.3161 B(  6-C , 27-H ) :   0.1960 B(  7-C ,  8-C ) :  -0.1028
B(  7-C ,  9-C ) :  -0.1623 B(  7-C , 19-H ) :   0.7524 B(  7-C , 20-H ) :   0.7521
B(  7-C , 21-H ) :   0.7382 B(  8-C ,  9-C ) :  -0.1607 B(  8-C , 22-H ) :   0.7270
B(  8-C , 23-H ) :   0.7298 B(  8-C , 24-H ) :   0.7952 B(  9-C , 25-H ) :   0.7334
B(  9-C , 26-H ) :   0.6818 B(  9-C , 27-H ) :   0.7245 B( 10-H , 11-H ) :  -0.1111
B( 10-H , 12-H ) :  -0.1176 B( 11-H , 12-H ) :  -0.1117 B( 13-H , 14-H ) :  -0.1405
B( 13-H , 15-H ) :  -0.1331 B( 14-H , 15-H ) :  -0.1330 B( 16-H , 17-H ) :  -0.1105
B( 16-H , 18-H ) :  -0.1173 B( 19-H , 20-H ) :  -0.1484 B( 19-H , 21-H ) :  -0.1375
B( 20-H , 21-H ) :  -0.1031 B( 22-H , 23-H ) :  -0.1187 B( 22-H , 24-H ) :  -0.1136
B( 23-H , 24-H ) :  -0.1090 B( 25-H , 26-H ) :  -0.1011 B( 25-H , 27-H ) :  -0.1152
B( 26-H , 27-H ) :  -0.1110

MP2 TOTAL ENERGY:     -787.385755810 Eh
FINAL SINGLE POINT ENERGY      -787.385755810093

DIPOLE MOMENT
-------------
                                X             Y             Z
Electronic contribution:     -0.02447      -6.96450      -3.19120
Nuclear contribution   :      0.04254       8.66273       3.16069
                        -----------------------------------------
Total Dipole Moment    :      0.01806       1.69823      -0.03051
                        -----------------------------------------
Magnitude (a.u.)       :      1.69860
Magnitude (Debye)      :      4.31750

Rotational constants in cm-1:     0.054765     0.029123     0.025974
Rotational constants in MHz :  1641.807633   873.088213   778.666820

                             ****ORCA TERMINATED NORMALLY****
TOTAL RUN TIME: 0 days 0 hours 3 minutes 35 seconds 124 msec
