                         Program Version 5.0.3 -  RELEASE  -
|  1> !ri-mp2 aug-cc-pvdz aug-cc-pvdz/c tightscf
|  2> %pal nprocs 16 end
|  3>
|  4> * xyz 0 1
|  5> C     0.000000     1.391186   -0.512622
|  6> C     0.000000    -1.391186   -0.512622
|  7> S     0.000000     0.000000    0.659277
|  8> H     0.891412     1.376095   -1.138641
|  9> H     0.000000     2.304501    0.078799
| 10> H    -0.891412     1.376095   -1.138641
| 11> H     0.891412    -1.376095   -1.138641
| 12> H    -0.891412    -1.376095   -1.138641
| 13> H     0.000000    -2.304501    0.078799
| 14> *
| 15>
| 16>                          ****END OF INPUT****

CARTESIAN COORDINATES (ANGSTROEM)
---------------------------------
  C      0.000000    1.391186   -0.512622
  C      0.000000   -1.391186   -0.512622
  S      0.000000    0.000000    0.659277
  H      0.891412    1.376095   -1.138641
  H      0.000000    2.304501    0.078799
  H     -0.891412    1.376095   -1.138641
  H      0.891412   -1.376095   -1.138641
  H     -0.891412   -1.376095   -1.138641
  H      0.000000   -2.304501    0.078799

 Total Charge           Charge          ....    0
 Multiplicity           Mult            ....    1
 Number of Electrons    NEL             ....   34
 Basis Dimension        Dim             ....  127

ORBITAL ENERGIES
----------------

  NO   OCC          E(Eh)            E(eV)
   0   2.0000     -91.945959     -2501.9767
   1   2.0000     -11.258139      -306.3495
   2   2.0000     -11.258125      -306.3492
   3   2.0000      -8.947374      -243.4704
   4   2.0000      -6.629446      -180.3964
   5   2.0000      -6.627986      -180.3567
   6   2.0000      -6.625913      -180.3003
   7   2.0000      -1.059069       -28.8187
   8   2.0000      -0.952686       -25.9239
   9   2.0000      -0.808814       -22.0090
  10   2.0000      -0.602119       -16.3845
  11   2.0000      -0.600623       -16.3438
  12   2.0000      -0.577743       -15.7212
  13   2.0000      -0.565025       -15.3751
  14   2.0000      -0.491627       -13.3778
  15   2.0000      -0.432596       -11.7715
  16   2.0000      -0.335581        -9.1316
  17   0.0000       0.036226         0.9858
  18   0.0000       0.045651         1.2422
  19   0.0000       0.054906         1.4941
  20   0.0000       0.058554         1.5933
  21   0.0000       0.073987         2.0133

MULLIKEN ATOMIC CHARGES
-----------------------
   0 C :    0.071336
   1 C :    0.071336
   2 S :    0.304867
   3 H :   -0.063412
   4 H :   -0.096946
   5 H :   -0.063412
   6 H :   -0.063412
   7 H :   -0.063412
   8 H :   -0.096946
Sum of atomic charges:   -0.0000000

LOEWDIN ATOMIC CHARGES
----------------------
   0 C :   -0.151085
   1 C :   -0.151085
   2 S :    0.730738
   3 H :   -0.070225
   4 H :   -0.073834
   5 H :   -0.070225
   6 H :   -0.070225
   7 H :   -0.070225
   8 H :   -0.073834

  Mayer bond orders larger than 0.100000
B(  0-C ,  2-S ) :   1.0371 B(  0-C ,  3-H ) :   0.9991 B(  0-C ,  4-H ) :   1.0041
B(  0-C ,  5-H ) :   0.9991 B(  1-C ,  2-S ) :   1.0371 B(  1-C ,  6-H ) :   0.9991
B(  1-C ,  7-H ) :   0.9991 B(  1-C ,  8-H ) :   1.0041

MP2 TOTAL ENERGY:     -477.215831710 Eh
FINAL SINGLE POINT ENERGY      -477.215831710334

DIPOLE MOMENT
-------------
                                X             Y             Z
Electronic contribution:      0.00000       0.00000       3.82904
Nuclear contribution   :      0.00000      -0.00000      -4.53992
                        -----------------------------------------
Total Dipole Moment    :      0.00000       0.00000      -0.71087
                        -----------------------------------------
Magnitude (a.u.)       :      0.71087
Magnitude (Debye)      :      1.80689

Rotational constants in cm-1:     0.593976     0.247770     0.187285
Rotational constants in MHz : 17806.967165  7427.944058  5614.652687

                             ****ORCA TERMINATED NORMALLY****
TOTAL RUN TIME: 0 days 0 hours 0 minutes 55 seconds 179 msec
