                         Program Version 5.0.3 -  RELEASE  -
|  1> !ri-mp2 aug-cc-pvdz aug-cc-pvdz/c tightscf
|  2> %pal nprocs 16 end
|  3> %maxcore 3800
|  4>
|  5> * xyz 0 1
|  6> S      0.000000    1.198969   -1.022088
|  7> O     -0.000019    2.525292   -0.313898
|  8> C     -1.379883    0.233902   -0.310543
|  9> C     -1.827639   -0.916094   -0.948304
| 10> C     -2.903944   -1.613131   -0.411977
| 11> C     -3.530081   -1.148516    0.740491
| 12> C     -3.084519    0.016906    1.355299
| 13> C     -2.005880    0.718377    0.827890
| 14> C      1.379888    0.233926   -0.310531
| 15> C      2.005793    0.718340    0.827976
| 16> C      3.084431    0.016873    1.355398
| 17> C      3.530079   -1.148482    0.740528
| 18> C      2.904037   -1.613032   -0.412019
| 19> C      1.827738   -0.915998   -0.948359
| 20> H     -1.351533   -1.264663   -1.855542
| 21> H     -3.259487   -2.510929   -0.899140
| 22> H     -4.371765   -1.688895    1.151883
| 23> H     -3.580077    0.384290    2.243835
| 24> H     -1.652216    1.637972    1.273661
| 25> H      1.652066    1.637890    1.273792
| 26> H      3.579920    0.384210    2.243992
| 27> H      4.371760   -1.688857    1.151931
| 28> H      3.259655   -2.510772   -0.899234
| 29> H      1.351714   -1.264502   -1.855665
| 30> *
| 31>
| 32>                          ****END OF INPUT****

CARTESIAN COORDINATES (ANGSTROEM)
---------------------------------
  S      0.000000    1.198969   -1.022088
  O     -0.000019    2.525292   -0.313898
  C     -1.379883    0.233902   -0.310543
  C     -1.827639   -0.916094   -0.948304
  C     -2.903944   -1.613131   -0.411977
  C     -3.530081   -1.148516    0.740491
  C     -3.084519    0.016906    1.355299
  C     -2.005880    0.718377    0.827890
  C      1.379888    0.233926   -0.310531
  C      2.005793    0.718340    0.827976
  C      3.084431    0.016873    1.355398
  C      3.530079   -1.148482    0.740528
  C      2.904037   -1.613032   -0.412019
  C      1.827738   -0.915998   -0.948359
  H     -1.351533   -1.264663   -1.855542
  H     -3.259487   -2.510929   -0.899140
  H     -4.371765   -1.688895    1.151883
  H     -3.580077    0.384290    2.243835
  H     -1.652216    1.637972    1.273661
  H      1.652066    1.637890    1.273792
  H      3.579920    0.384210    2.243992
  H      4.371760   -1.688857    1.151931
  H      3.259655   -2.510772   -0.899234
  H      1.351714   -1.264502   -1.855665

 Total Charge           Charge          ....    0
 Multiplicity           Mult            ....    1
 Number of Electrons    NEL             ....  106
 Basis Dimension        Dim             ....  416

ORBITAL ENERGIES
----------------

  NO   OCC          E(Eh)            E(eV)
   0   2.0000     -92.088420     -2505.8533
   1   2.0000     -20.521592      -558.4209
   2   2.0000     -11.276589      -306.8516
   3   2.0000     -11.276579      -306.8513
   4   2.0000     -11.262523      -306.4688
   5   2.0000     -11.262520      -306.4688
   6   2.0000     -11.256419      -306.3027
   7   2.0000     -11.256418      -306.3027
   8   2.0000     -11.255251      -306.2709
   9   2.0000     -11.255250      -306.2709
  10   2.0000     -11.254259      -306.2440
  11   2.0000     -11.254258      -306.2439
  12   2.0000     -11.252994      -306.2095
  13   2.0000     -11.252992      -306.2095
  14   2.0000      -9.076072      -246.9725
  15   2.0000      -6.758462      -183.9071
  16   2.0000      -6.757497      -183.8808
  17   2.0000      -6.755715      -183.8324
  18   2.0000      -1.345669       -36.6175
  19   2.0000      -1.178812       -32.0771
  20   2.0000      -1.173189       -31.9241
  21   2.0000      -1.065650       -28.9978
  22   2.0000      -1.036349       -28.2005
  23   2.0000      -1.035225       -28.1699
  24   2.0000      -1.034166       -28.1411
  25   2.0000      -0.931786       -25.3552
  26   2.0000      -0.849957       -23.1285
  27   2.0000      -0.844884       -22.9905
  28   2.0000      -0.836880       -22.7727
  29   2.0000      -0.799725       -21.7616
  30   2.0000      -0.724848       -19.7241
  31   2.0000      -0.711797       -19.3690
  32   2.0000      -0.653666       -17.7872
  33   2.0000      -0.651164       -17.7191
  34   2.0000      -0.642293       -17.4777
  35   2.0000      -0.642000       -17.4697
  36   2.0000      -0.611404       -16.6371
  37   2.0000      -0.610099       -16.6016
  38   2.0000      -0.602802       -16.4031
  39   2.0000      -0.602324       -16.3901
  40   2.0000      -0.547877       -14.9085
  41   2.0000      -0.531912       -14.4741
  42   2.0000      -0.526278       -14.3207
  43   2.0000      -0.517141       -14.0721
  44   2.0000      -0.511215       -13.9109
  45   2.0000      -0.509613       -13.8673
  46   2.0000      -0.509396       -13.8614
  47   2.0000      -0.424690       -11.5564
  48   2.0000      -0.401381       -10.9221
  49   2.0000      -0.355051        -9.6614
  50   2.0000      -0.348887        -9.4937
  51   2.0000      -0.344930        -9.3860
  52   2.0000      -0.342421        -9.3177
  53   0.0000       0.029543         0.8039
  54   0.0000       0.034427         0.9368
  55   0.0000       0.037063         1.0085
  56   0.0000       0.046851         1.2749
  57   0.0000       0.047442         1.2910

MULLIKEN ATOMIC CHARGES
-----------------------
   0 S :    1.291738
   1 O :   -1.237396
   2 C :    0.919892
   3 C :    0.042723
   4 C :    0.549090
   5 C :    0.453125
   6 C :    0.650158
   7 C :   -0.120292
   8 C :    0.919916
   9 C :   -0.120275
  10 C :    0.650164
  11 C :    0.453119
  12 C :    0.549082
  13 C :    0.042695
  14 H :   -0.552563
  15 H :   -0.475520
  16 H :   -0.444771
  17 H :   -0.450832
  18 H :   -0.598192
  19 H :   -0.598176
  20 H :   -0.450832
  21 H :   -0.444770
  22 H :   -0.475516
  23 H :   -0.552566
Sum of atomic charges:   -0.0000000

LOEWDIN ATOMIC CHARGES
----------------------
   0 S :    1.106262
   1 O :   -0.521000
   2 C :   -0.334592
   3 C :   -0.012181
   4 C :    0.011143
   5 C :    0.016467
   6 C :    0.020515
   7 C :    0.004796
   8 C :   -0.334596
   9 C :    0.004798
  10 C :    0.020516
  11 C :    0.016467
  12 C :    0.011143
  13 C :   -0.012183
  14 H :   -0.001142
  15 H :    0.001806
  16 H :    0.002400
  17 H :    0.002900
  18 H :   -0.004744
  19 H :   -0.004740
  20 H :    0.002900
  21 H :    0.002401
  22 H :    0.001806
  23 H :   -0.001142

  Mayer bond orders larger than 0.100000
B(  0-S ,  1-O ) :   0.6282 B(  0-S ,  2-C ) :   0.9741 B(  0-S ,  3-C ) :  -0.1951
B(  0-S ,  8-C ) :   0.9741 B(  0-S , 13-C ) :  -0.1951 B(  1-O ,  2-C ) :   0.1883
B(  1-O ,  8-C ) :   0.1883 B(  2-C ,  3-C ) :   1.4494 B(  2-C ,  4-C ) :  -0.3892
B(  2-C ,  6-C ) :  -0.3199 B(  2-C ,  7-C ) :   1.6562 B(  2-C ,  9-C ) :  -0.2638
B(  2-C , 13-C ) :  -0.1335 B(  2-C , 14-H ) :   0.4461 B(  2-C , 18-H ) :   0.3706
B(  3-C ,  4-C ) :   2.0301 B(  3-C ,  5-C ) :   0.1824 B(  3-C ,  6-C ) :   0.1598
B(  3-C ,  7-C ) :  -0.1773 B(  3-C ,  8-C ) :  -0.1336 B(  3-C ,  9-C ) :   0.2264
B(  3-C , 12-C ) :  -0.1062 B(  3-C , 13-C ) :   0.2152 B(  3-C , 15-H ) :   0.3741
B(  4-C ,  5-C ) :   1.7017 B(  4-C ,  6-C ) :  -0.1489 B(  4-C ,  7-C ) :   0.2328
B(  4-C ,  9-C ) :  -0.1168 B(  4-C , 10-C ) :   0.1025 B(  4-C , 12-C ) :   0.1155
B(  4-C , 13-C ) :  -0.1062 B(  4-C , 14-H ) :   0.1785 B(  4-C , 15-H ) :   0.1712
B(  4-C , 16-H ) :   0.1892 B(  4-C , 17-H ) :  -0.1081 B(  5-C ,  6-C ) :   1.6599
B(  5-C ,  7-C ) :   0.1440 B(  5-C , 15-H ) :   0.1603 B(  5-C , 16-H ) :   0.3338
B(  6-C ,  7-C ) :   2.0062 B(  6-C ,  9-C ) :  -0.1265 B(  6-C , 12-C ) :   0.1024
B(  6-C , 15-H ) :  -0.1053 B(  6-C , 16-H ) :   0.2065 B(  6-C , 17-H ) :   0.2067
B(  6-C , 18-H ) :   0.2701 B(  7-C ,  8-C ) :  -0.2638 B(  7-C ,  9-C ) :   0.3735
B(  7-C , 10-C ) :  -0.1265 B(  7-C , 12-C ) :  -0.1168 B(  7-C , 13-C ) :   0.2264
B(  7-C , 15-H ) :   0.1064 B(  7-C , 17-H ) :   0.4025 B(  8-C ,  9-C ) :   1.6563
B(  8-C , 10-C ) :  -0.3199 B(  8-C , 12-C ) :  -0.3892 B(  8-C , 13-C ) :   1.4494
B(  8-C , 19-H ) :   0.3706 B(  8-C , 23-H ) :   0.4461 B(  9-C , 10-C ) :   2.0062
B(  9-C , 11-C ) :   0.1440 B(  9-C , 12-C ) :   0.2328 B(  9-C , 13-C ) :  -0.1773
B(  9-C , 20-H ) :   0.4025 B(  9-C , 22-H ) :   0.1064 B( 10-C , 11-C ) :   1.6599
B( 10-C , 12-C ) :  -0.1489 B( 10-C , 13-C ) :   0.1597 B( 10-C , 19-H ) :   0.2701
B( 10-C , 20-H ) :   0.2067 B( 10-C , 21-H ) :   0.2065 B( 10-C , 22-H ) :  -0.1053
B( 11-C , 12-C ) :   1.7018 B( 11-C , 13-C ) :   0.1824 B( 11-C , 21-H ) :   0.3338
B( 11-C , 22-H ) :   0.1603 B( 12-C , 13-C ) :   2.0301 B( 12-C , 20-H ) :  -0.1081
B( 12-C , 21-H ) :   0.1892 B( 12-C , 22-H ) :   0.1712 B( 12-C , 23-H ) :   0.1785
B( 13-C , 22-H ) :   0.3741

MP2 TOTAL ENERGY:     -934.601085257 Eh
FINAL SINGLE POINT ENERGY      -934.601085256738

DIPOLE MOMENT
-------------
                                X             Y             Z
Electronic contribution:     -0.00000       4.99728      -3.58755
Nuclear contribution   :      0.00004      -6.77274       3.79519
                        -----------------------------------------
Total Dipole Moment    :      0.00003      -1.77546       0.20764
                        -----------------------------------------
Magnitude (a.u.)       :      1.78756
Magnitude (Debye)      :      4.54362

Rotational constants in cm-1:     0.036271     0.013947     0.012466
Rotational constants in MHz :  1087.377472   418.132866   373.724652

                             ****ORCA TERMINATED NORMALLY****
TOTAL RUN TIME: 0 days 0 hours 4 minutes 2 seconds 188 msec
