                         Program Version 5.0.3 -  RELEASE  -
|  1> !ri-mp2 aug-cc-pvdz aug-cc-pvdz/c tightscf
|  2> %pal nprocs 16 end
|  3>
|  4> * xyz 0 1
|  5> C     0.000000     1.419305   -0.919648
|  6> C     0.000000    -1.419305   -0.919648
|  7> O    -1.263521     0.000000    0.917477
|  8> O     1.263521     0.000000    0.917477
|  9> S     0.000000     0.000000    0.188195
| 10> H     0.000000     2.292780   -0.271559
| 11> H     0.900388     1.399538   -1.527965
| 12> H    -0.900388     1.399538   -1.527965
| 13> H     0.900388    -1.399538   -1.527965
| 14> H     0.000000    -2.292780   -0.271559
| 15> H    -0.900388    -1.399538   -1.527965
| 16> *
| 17>
| 18>                          ****END OF INPUT****

CARTESIAN COORDINATES (ANGSTROEM)
---------------------------------
  C      0.000000    1.419305   -0.919648
  C      0.000000   -1.419305   -0.919648
  O     -1.263521    0.000000    0.917477
  O      1.263521    0.000000    0.917477
  S      0.000000    0.000000    0.188195
  H      0.000000    2.292780   -0.271559
  H      0.900388    1.399538   -1.527965
  H     -0.900388    1.399538   -1.527965
  H      0.900388   -1.399538   -1.527965
  H      0.000000   -2.292780   -0.271559
  H     -0.900388   -1.399538   -1.527965

 Total Charge           Charge          ....    0
 Multiplicity           Mult            ....    1
 Number of Electrons    NEL             ....   50
 Basis Dimension        Dim             ....  173

ORBITAL ENERGIES
----------------

  NO   OCC          E(Eh)            E(eV)
   0   2.0000     -92.200560     -2508.9048
   1   2.0000     -20.551995      -559.2482
   2   2.0000     -20.551977      -559.2477
   3   2.0000     -11.288008      -307.1623
   4   2.0000     -11.287988      -307.1618
   5   2.0000      -9.173492      -249.6234
   6   2.0000      -6.858775      -186.6368
   7   2.0000      -6.857409      -186.5996
   8   2.0000      -6.857255      -186.5954
   9   2.0000      -1.451150       -39.4878
  10   2.0000      -1.336553       -36.3695
  11   2.0000      -1.072482       -29.1837
  12   2.0000      -1.010952       -27.5094
  13   2.0000      -0.822164       -22.3722
  14   2.0000      -0.687656       -18.7121
  15   2.0000      -0.675178       -18.3725
  16   2.0000      -0.666465       -18.1354
  17   2.0000      -0.617262       -16.7966
  18   2.0000      -0.614884       -16.7318
  19   2.0000      -0.596753       -16.2385
  20   2.0000      -0.583155       -15.8684
  21   2.0000      -0.491240       -13.3673
  22   2.0000      -0.489758       -13.3270
  23   2.0000      -0.463911       -12.6237
  24   2.0000      -0.436061       -11.8658
  25   0.0000       0.025968         0.7066
  26   0.0000       0.042127         1.1463
  27   0.0000       0.047413         1.2902
  28   0.0000       0.056961         1.5500
  29   0.0000       0.068993         1.8774

MULLIKEN ATOMIC CHARGES
-----------------------
   0 C :    0.033619
   1 C :    0.033619
   2 O :   -1.164297
   3 O :   -1.164297
   4 S :    2.177286
   5 H :    0.039186
   6 H :    0.001425
   7 H :    0.001425
   8 H :    0.001425
   9 H :    0.039186
  10 H :    0.001425
Sum of atomic charges:   -0.0000000

LOEWDIN ATOMIC CHARGES
----------------------
   0 C :    0.081531
   1 C :    0.081531
   2 O :   -0.411642
   3 O :   -0.411642
   4 S :    0.859574
   5 H :   -0.029438
   6 H :   -0.035119
   7 H :   -0.035119
   8 H :   -0.035119
   9 H :   -0.029438
  10 H :   -0.035119

  Mayer bond orders larger than 0.100000
B(  0-C ,  4-S ) :   1.1533 B(  0-C ,  5-H ) :   0.9235 B(  0-C ,  6-H ) :   0.9481
B(  0-C ,  7-H ) :   0.9481 B(  1-C ,  4-S ) :   1.1533 B(  1-C ,  8-H ) :   0.9481
B(  1-C ,  9-H ) :   0.9235 B(  1-C , 10-H ) :   0.9481 B(  2-O ,  3-O ) :   0.1363
B(  2-O ,  4-S ) :   0.7335 B(  3-O ,  4-S ) :   0.7335

MP2 TOTAL ENERGY:     -627.294335832 Eh
FINAL SINGLE POINT ENERGY      -627.294335832281

DIPOLE MOMENT
-------------
                                X             Y             Z
Electronic contribution:     -0.00000       0.00000       4.51839
Nuclear contribution   :      0.00000       0.00000      -6.61605
                        -----------------------------------------
Total Dipole Moment    :     -0.00000       0.00000      -2.09767
                        -----------------------------------------
Magnitude (a.u.)       :      2.09767
Magnitude (Debye)      :      5.33184

Rotational constants in cm-1:     0.150729     0.139045     0.135541
Rotational constants in MHz :  4518.749358  4168.458887  4063.406721

                             ****ORCA TERMINATED NORMALLY****
TOTAL RUN TIME: 0 days 0 hours 0 minutes 39 seconds 692 msec
