                         Program Version 5.0.3 -  RELEASE  -
|  1> !ri-mp2 aug-cc-pvdz aug-cc-pvdz/c tightscf
|  2> %pal nprocs 16 end
|  3> %maxcore 3800
|  4>
|  5> * xyz 0 1
|  6> C      0.002905   -0.287931    3.765494
|  7> C      0.002905   -0.287931   -3.765494
|  8> C      0.002905    0.516132    2.466843
|  9> C      0.002905    0.516132   -2.466843
| 10> C      0.019045   -0.366124    1.223486
| 11> C      0.019045   -0.366124   -1.223486
| 12> N      0.041090    0.425929    0.000000
| 13> H     -0.869191   -0.941707    3.829272
| 14> H      0.892625   -0.916399    3.840202
| 15> H     -0.011524    0.368209    4.636319
| 16> H      0.892625   -0.916399   -3.840202
| 17> H     -0.869191   -0.941707   -3.829272
| 18> H     -0.011524    0.368209   -4.636319
| 19> H      0.868617    1.180978    2.434926
| 20> H     -0.882182    1.160098    2.437277
| 21> H     -0.882182    1.160098   -2.437277
| 22> H      0.868617    1.180978   -2.434926
| 23> H     -0.839000   -1.059882    1.257260
| 24> H      0.917482   -0.990937    1.233278
| 25> H      0.917482   -0.990937   -1.233278
| 26> H     -0.839000   -1.059882   -1.257260
| 27> H     -0.739557    1.072851    0.000000
| 28> *
| 29>
| 30>                          ****END OF INPUT****

CARTESIAN COORDINATES (ANGSTROEM)
---------------------------------
  C      0.002905   -0.287931    3.765494
  C      0.002905   -0.287931   -3.765494
  C      0.002905    0.516132    2.466843
  C      0.002905    0.516132   -2.466843
  C      0.019045   -0.366124    1.223486
  C      0.019045   -0.366124   -1.223486
  N      0.041090    0.425929    0.000000
  H     -0.869191   -0.941707    3.829272
  H      0.892625   -0.916399    3.840202
  H     -0.011524    0.368209    4.636319
  H      0.892625   -0.916399   -3.840202
  H     -0.869191   -0.941707   -3.829272
  H     -0.011524    0.368209   -4.636319
  H      0.868617    1.180978    2.434926
  H     -0.882182    1.160098    2.437277
  H     -0.882182    1.160098   -2.437277
  H      0.868617    1.180978   -2.434926
  H     -0.839000   -1.059882    1.257260
  H      0.917482   -0.990937    1.233278
  H      0.917482   -0.990937   -1.233278
  H     -0.839000   -1.059882   -1.257260
  H     -0.739557    1.072851    0.000000

 Total Charge           Charge          ....    0
 Multiplicity           Mult            ....    1
 Number of Electrons    NEL             ....   58
 Basis Dimension        Dim             ....  296

ORBITAL ENERGIES
----------------

  NO   OCC          E(Eh)            E(eV)
   0   2.0000     -15.542543      -422.9341
   1   2.0000     -11.246471      -306.0320
   2   2.0000     -11.246454      -306.0316
   3   2.0000     -11.221251      -305.3458
   4   2.0000     -11.221249      -305.3457
   5   2.0000     -11.218189      -305.2624
   6   2.0000     -11.218188      -305.2624
   7   2.0000      -1.204193       -32.7678
   8   2.0000      -1.059790       -28.8383
   9   2.0000      -1.026628       -27.9360
  10   2.0000      -0.927705       -25.2441
  11   2.0000      -0.868105       -23.6223
  12   2.0000      -0.809431       -22.0257
  13   2.0000      -0.792460       -21.5639
  14   2.0000      -0.665647       -18.1132
  15   2.0000      -0.624403       -16.9909
  16   2.0000      -0.614069       -16.7097
  17   2.0000      -0.612433       -16.6652
  18   2.0000      -0.571337       -15.5469
  19   2.0000      -0.561222       -15.2716
  20   2.0000      -0.527338       -14.3496
  21   2.0000      -0.526606       -14.3297
  22   2.0000      -0.515896       -14.0383
  23   2.0000      -0.484594       -13.1865
  24   2.0000      -0.481146       -13.0927
  25   2.0000      -0.472847       -12.8668
  26   2.0000      -0.463981       -12.6256
  27   2.0000      -0.451960       -12.2985
  28   2.0000      -0.361937        -9.8488
  29   0.0000       0.037329         1.0158
  30   0.0000       0.040239         1.0950
  31   0.0000       0.043859         1.1935
  32   0.0000       0.047226         1.2851
  33   0.0000       0.055625         1.5136

MULLIKEN ATOMIC CHARGES
-----------------------
   0 C :    0.509172
   1 C :    0.509172
   2 C :    0.331318
   3 C :    0.331318
   4 C :    0.489355
   5 C :    0.489355
   6 N :   -0.679371
   7 H :   -0.076440
   8 H :   -0.081748
   9 H :   -0.082839
  10 H :   -0.081748
  11 H :   -0.076440
  12 H :   -0.082839
  13 H :   -0.115592
  14 H :   -0.166812
  15 H :   -0.166812
  16 H :   -0.115592
  17 H :   -0.211174
  18 H :   -0.261259
  19 H :   -0.261259
  20 H :   -0.211174
  21 H :    0.011409
Sum of atomic charges:   -0.0000000

LOEWDIN ATOMIC CHARGES
----------------------
   0 C :    0.131741
   1 C :    0.131741
   2 C :   -0.065429
   3 C :   -0.065429
   4 C :   -0.061297
   5 C :   -0.061297
   6 N :    0.032854
   7 H :   -0.021137
   8 H :   -0.019877
   9 H :   -0.022048
  10 H :   -0.019877
  11 H :   -0.021137
  12 H :   -0.022048
  13 H :    0.014014
  14 H :    0.009520
  15 H :    0.009520
  16 H :    0.014014
  17 H :    0.014393
  18 H :    0.015238
  19 H :    0.015238
  20 H :    0.014393
  21 H :   -0.023090

  Mayer bond orders larger than 0.100000
B(  0-C ,  2-C ) :   1.1678 B(  0-C ,  7-H ) :   0.9310 B(  0-C ,  8-H ) :   0.9090
B(  0-C ,  9-H ) :   0.9145 B(  1-C ,  3-C ) :   1.1678 B(  1-C , 10-H ) :   0.9090
B(  1-C , 11-H ) :   0.9310 B(  1-C , 12-H ) :   0.9145 B(  2-C ,  4-C ) :   1.1863
B(  2-C , 13-H ) :   0.7536 B(  2-C , 14-H ) :   0.7453 B(  3-C ,  5-C ) :   1.1863
B(  3-C , 15-H ) :   0.7453 B(  3-C , 16-H ) :   0.7536 B(  4-C ,  5-C ) :   0.1167
B(  4-C ,  6-N ) :   0.9627 B(  4-C , 13-H ) :   0.1442 B(  4-C , 14-H ) :   0.1346
B(  4-C , 17-H ) :   0.7340 B(  4-C , 18-H ) :   0.8200 B(  5-C ,  6-N ) :   0.9627
B(  5-C , 15-H ) :   0.1346 B(  5-C , 16-H ) :   0.1442 B(  5-C , 19-H ) :   0.8200
B(  5-C , 20-H ) :   0.7340 B(  6-N , 21-H ) :   1.0227

MP2 TOTAL ENERGY:     -291.503882452 Eh
FINAL SINGLE POINT ENERGY      -291.503882452085

DIPOLE MOMENT
-------------
                                X             Y             Z
Electronic contribution:      0.30294       1.30434       0.00000
Nuclear contribution   :     -0.63043      -1.42513       0.00000
                        -----------------------------------------
Total Dipole Moment    :     -0.32749      -0.12079       0.00000
                        -----------------------------------------
Magnitude (a.u.)       :      0.34905
Magnitude (Debye)      :      0.88722

Rotational constants in cm-1:     0.435205     0.025333     0.024631
Rotational constants in MHz : 13047.118550   759.465623   738.423512

                             ****ORCA TERMINATED NORMALLY****
TOTAL RUN TIME: 0 days 0 hours 1 minutes 31 seconds 666 msec
