                         Program Version 5.0.3 -  RELEASE  -
|  1> !ri-mp2 aug-cc-pvdz aug-cc-pvdz/c tightscf
|  2> %pal nprocs 16 end
|  3>
|  4> * xyz 0 1
|  5> F      2.734032   -0.044650    0.294765
|  6> F      1.181883    0.979329   -0.865319
|  7> O     -0.624931   -0.986352    0.049400
|  8> O     -2.650125   -0.501223   -0.660014
|  9> N      1.562213   -0.308934   -0.435957
| 10> C      0.589833   -0.642433    0.639320
| 11> C     -1.709038   -0.127949   -0.029755
| 12> C     -1.645992    1.182508    0.711998
| 13> H      0.536070    0.185170    1.344177
| 14> H      1.001583   -1.530166    1.114473
| 15> H     -0.840166    1.812068    0.338768
| 16> H     -2.596239    1.685000    0.564689
| 17> H     -1.488346    1.026194    1.780109
| 18> *
| 19>
| 20>                          ****END OF INPUT****

CARTESIAN COORDINATES (ANGSTROEM)
---------------------------------
  F      2.734032   -0.044650    0.294765
  F      1.181883    0.979329   -0.865319
  O     -0.624931   -0.986352    0.049400
  O     -2.650125   -0.501223   -0.660014
  N      1.562213   -0.308934   -0.435957
  C      0.589833   -0.642433    0.639320
  C     -1.709038   -0.127949   -0.029755
  C     -1.645992    1.182508    0.711998
  H      0.536070    0.185170    1.344177
  H      1.001583   -1.530166    1.114473
  H     -0.840166    1.812068    0.338768
  H     -2.596239    1.685000    0.564689
  H     -1.488346    1.026194    1.780109

 Total Charge           Charge          ....    0
 Multiplicity           Mult            ....    1
 Number of Electrons    NEL             ....   64
 Basis Dimension        Dim             ....  229

ORBITAL ENERGIES
----------------

  NO   OCC          E(Eh)            E(eV)
   0   2.0000     -26.370881      -717.5881
   1   2.0000     -26.368169      -717.5143
   2   2.0000     -20.643032      -561.7255
   3   2.0000     -20.575181      -559.8791
   4   2.0000     -15.801704      -429.9862
   5   2.0000     -11.415735      -310.6379
   6   2.0000     -11.381281      -309.7004
   7   2.0000     -11.272431      -306.7384
   8   2.0000      -1.707506       -46.4636
   9   2.0000      -1.623242       -44.1707
  10   2.0000      -1.490471       -40.5578
  11   2.0000      -1.400183       -38.1009
  12   2.0000      -1.180175       -32.1142
  13   2.0000      -1.043980       -28.4081
  14   2.0000      -0.970773       -26.4161
  15   2.0000      -0.836648       -22.7663
  16   2.0000      -0.792088       -21.5538
  17   2.0000      -0.787925       -21.4405
  18   2.0000      -0.758763       -20.6470
  19   2.0000      -0.720321       -19.6009
  20   2.0000      -0.716591       -19.4994
  21   2.0000      -0.688860       -18.7448
  22   2.0000      -0.673888       -18.3374
  23   2.0000      -0.654511       -17.8101
  24   2.0000      -0.644047       -17.5254
  25   2.0000      -0.627584       -17.0774
  26   2.0000      -0.597639       -16.2626
  27   2.0000      -0.571716       -15.5572
  28   2.0000      -0.554095       -15.0777
  29   2.0000      -0.510321       -13.8865
  30   2.0000      -0.487396       -13.2627
  31   2.0000      -0.467060       -12.7094
  32   0.0000       0.027070         0.7366
  33   0.0000       0.039675         1.0796
  34   0.0000       0.052333         1.4241
  35   0.0000       0.055507         1.5104
  36   0.0000       0.076302         2.0763

MULLIKEN ATOMIC CHARGES
-----------------------
   0 F :   -0.526552
   1 F :   -0.530089
   2 O :   -0.920797
   3 O :   -0.691220
   4 N :    0.346491
   5 C :    1.467572
   6 C :    0.882501
   7 C :    0.192655
   8 H :   -0.065166
   9 H :   -0.195213
  10 H :    0.123230
  11 H :   -0.181499
  12 H :    0.098090
Sum of atomic charges:   -0.0000000

LOEWDIN ATOMIC CHARGES
----------------------
   0 F :    0.008107
   1 F :    0.005640
   2 O :    0.074549
   3 O :    0.069077
   4 N :   -0.016634
   5 C :   -0.022151
   6 C :   -0.315435
   7 C :    0.197530
   8 H :    0.004054
   9 H :    0.017733
  10 H :   -0.015068
  11 H :   -0.002825
  12 H :   -0.004576

  Mayer bond orders larger than 0.100000
B(  0-F ,  4-N ) :   0.6269 B(  1-F ,  4-N ) :   0.5912 B(  2-O ,  5-C ) :   0.5563
B(  2-O ,  6-C ) :   0.5495 B(  2-O ,  7-C ) :   0.1194 B(  3-O ,  6-C ) :   1.5883
B(  4-N ,  5-C ) :   0.6628 B(  5-C ,  8-H ) :   0.8653 B(  5-C ,  9-H ) :   0.9887
B(  6-C ,  7-C ) :   1.0559 B(  7-C , 10-H ) :   0.8982 B(  7-C , 11-H ) :   0.9964
B(  7-C , 12-H ) :   0.8878

MP2 TOTAL ENERGY:     -520.883428563 Eh
FINAL SINGLE POINT ENERGY      -520.883428562986

DIPOLE MOMENT
-------------
                                X             Y             Z
Electronic contribution:      7.33782      -1.58318      -3.94643
Nuclear contribution   :     -7.01233       2.14297       5.47148
                        -----------------------------------------
Total Dipole Moment    :      0.32549       0.55978       1.52505
                        -----------------------------------------
Magnitude (a.u.)       :      1.65683
Magnitude (Debye)      :      4.21133

Rotational constants in cm-1:     0.148645     0.037734     0.035504
Rotational constants in MHz :  4456.278176  1131.239781  1064.376303

                             ****ORCA TERMINATED NORMALLY****
TOTAL RUN TIME: 0 days 0 hours 0 minutes 49 seconds 669 msec
