                         Program Version 5.0.3 -  RELEASE  -
|  1> !ri-mp2 aug-cc-pvdz aug-cc-pvdz/c tightscf
|  2> %pal nprocs 16 end
|  3>
|  4> * xyz 0 1
|  5> Cl    0.000000     1.489376   -0.216532
|  6> Cl    0.000000    -1.489376   -0.216532
|  7> C     0.000000     0.000000    0.769333
|  8> H    -0.896869     0.000000    1.373046
|  9> H     0.896869     0.000000    1.373046
| 10> *
| 11>
| 12>                          ****END OF INPUT****

CARTESIAN COORDINATES (ANGSTROEM)
---------------------------------
  Cl     0.000000    1.489376   -0.216532
  Cl     0.000000   -1.489376   -0.216532
  C      0.000000    0.000000    0.769333
  H     -0.896869    0.000000    1.373046
  H      0.896869    0.000000    1.373046

 Total Charge           Charge          ....    0
 Multiplicity           Mult            ....    1
 Number of Electrons    NEL             ....   42
 Basis Dimension        Dim             ....   95

ORBITAL ENERGIES
----------------

  NO   OCC          E(Eh)            E(eV)
   0   2.0000    -104.849366     -2853.0963
   1   2.0000    -104.849366     -2853.0963
   2   2.0000     -11.375627      -309.5465
   3   2.0000     -10.575551      -287.7754
   4   2.0000     -10.575535      -287.7749
   5   2.0000      -8.043234      -218.8675
   6   2.0000      -8.043232      -218.8675
   7   2.0000      -8.039802      -218.7741
   8   2.0000      -8.039801      -218.7741
   9   2.0000      -8.039693      -218.7712
  10   2.0000      -8.039692      -218.7711
  11   2.0000      -1.191253       -32.4156
  12   2.0000      -1.098317       -29.8867
  13   2.0000      -0.901217       -24.5234
  14   2.0000      -0.679042       -18.4777
  15   2.0000      -0.614423       -16.7193
  16   2.0000      -0.584719       -15.9110
  17   2.0000      -0.474891       -12.9225
  18   2.0000      -0.471844       -12.8395
  19   2.0000      -0.449882       -12.2419
  20   2.0000      -0.448777       -12.2118
  21   0.0000       0.035070         0.9543
  22   0.0000       0.052028         1.4158
  23   0.0000       0.074367         2.0236
  24   0.0000       0.078931         2.1478
  25   0.0000       0.129899         3.5347

MULLIKEN ATOMIC CHARGES
-----------------------
   0 Cl:   -0.045496
   1 Cl:   -0.045496
   2 C :   -0.260265
   3 H :    0.175629
   4 H :    0.175629
Sum of atomic charges:    0.0000000

LOEWDIN ATOMIC CHARGES
----------------------
   0 Cl:    0.423100
   1 Cl:    0.423100
   2 C :   -0.669839
   3 H :   -0.088181
   4 H :   -0.088181

  Mayer bond orders larger than 0.100000
B(  0-Cl,  2-C ) :   1.1508 B(  1-Cl,  2-C ) :   1.1508 B(  2-C ,  3-H ) :   0.9087
B(  2-C ,  4-H ) :   0.9087

MP2 TOTAL ENERGY:     -958.483720836 Eh
FINAL SINGLE POINT ENERGY      -958.483720835953

DIPOLE MOMENT
-------------
                                X             Y             Z
Electronic contribution:      0.00000       0.00000      -2.37878
Nuclear contribution   :      0.00000       0.00000       3.12576
                        -----------------------------------------
Total Dipole Moment    :      0.00000       0.00000       0.74697
                        -----------------------------------------
Magnitude (a.u.)       :      0.74697
Magnitude (Debye)      :      1.89866

Rotational constants in cm-1:     1.072093     0.106084     0.098359
Rotational constants in MHz : 32140.526339  3180.323379  2948.727174

                             ****ORCA TERMINATED NORMALLY****
TOTAL RUN TIME: 0 days 0 hours 0 minutes 44 seconds 55 msec
