                         Program Version 5.0.3 -  RELEASE  -
|  1> !ri-mp2 aug-cc-pvdz aug-cc-pvdz/c tightscf
|  2> %pal nprocs 16 end
|  3>
|  4> * xyz 0 1
|  5> C     0.000000     0.728728    0.184208
|  6> C    -0.763274     1.830763   -0.441725
|  7> C     0.763274     1.830763   -0.441725
|  8> C     0.000000    -0.728728    0.184208
|  9> C     0.000000     0.000000    1.493939
| 10> C    -0.763274    -1.830763   -0.441725
| 11> C     0.763274    -1.830763   -0.441725
| 12> H    -1.265756     2.542902    0.199945
| 13> H    -1.265398     1.641386   -1.381956
| 14> H     1.265756     2.542902    0.199945
| 15> H     1.265398     1.641386   -1.381956
| 16> H    -0.913191     0.000000    2.077660
| 17> H     0.913191     0.000000    2.077660
| 18> H    -1.265398    -1.641386   -1.381956
| 19> H    -1.265756    -2.542902    0.199945
| 20> H     1.265398    -1.641386   -1.381956
| 21> H     1.265756    -2.542902    0.199945
| 22> *
| 23>
| 24>                          ****END OF INPUT****

CARTESIAN COORDINATES (ANGSTROEM)
---------------------------------
  C      0.000000    0.728728    0.184208
  C     -0.763274    1.830763   -0.441725
  C      0.763274    1.830763   -0.441725
  C      0.000000   -0.728728    0.184208
  C      0.000000    0.000000    1.493939
  C     -0.763274   -1.830763   -0.441725
  C      0.763274   -1.830763   -0.441725
  H     -1.265756    2.542902    0.199945
  H     -1.265398    1.641386   -1.381956
  H      1.265756    2.542902    0.199945
  H      1.265398    1.641386   -1.381956
  H     -0.913191    0.000000    2.077660
  H      0.913191    0.000000    2.077660
  H     -1.265398   -1.641386   -1.381956
  H     -1.265756   -2.542902    0.199945
  H      1.265398   -1.641386   -1.381956
  H      1.265756   -2.542902    0.199945

 Total Charge           Charge          ....    0
 Multiplicity           Mult            ....    1
 Number of Electrons    NEL             ....   52
 Basis Dimension        Dim             ....  251

ORBITAL ENERGIES
----------------

  NO   OCC          E(Eh)            E(eV)
   0   2.0000     -11.239982      -305.8555
   1   2.0000     -11.239161      -305.8331
   2   2.0000     -11.229624      -305.5736
   3   2.0000     -11.229589      -305.5727
   4   2.0000     -11.229555      -305.5717
   5   2.0000     -11.229017      -305.5571
   6   2.0000     -11.229011      -305.5569
   7   2.0000      -1.190430       -32.3932
   8   2.0000      -1.116953       -30.3938
   9   2.0000      -1.028093       -27.9758
  10   2.0000      -0.830916       -22.6104
  11   2.0000      -0.817634       -22.2490
  12   2.0000      -0.784514       -21.3477
  13   2.0000      -0.716633       -19.5006
  14   2.0000      -0.665840       -18.1184
  15   2.0000      -0.643987       -17.5238
  16   2.0000      -0.633014       -17.2252
  17   2.0000      -0.602656       -16.3991
  18   2.0000      -0.515980       -14.0405
  19   2.0000      -0.510387       -13.8883
  20   2.0000      -0.508656       -13.8412
  21   2.0000      -0.457372       -12.4457
  22   2.0000      -0.444748       -12.1022
  23   2.0000      -0.391056       -10.6412
  24   2.0000      -0.385910       -10.5012
  25   2.0000      -0.378313       -10.2944
  26   0.0000       0.038202         1.0395
  27   0.0000       0.042569         1.1584
  28   0.0000       0.046716         1.2712
  29   0.0000       0.047009         1.2792
  30   0.0000       0.061431         1.6716

MULLIKEN ATOMIC CHARGES
-----------------------
   0 C :   -0.246313
   1 C :    0.645206
   2 C :    0.645206
   3 C :   -0.246313
   4 C :    0.531880
   5 C :    0.645206
   6 C :    0.645206
   7 H :   -0.263769
   8 H :   -0.282548
   9 H :   -0.263769
  10 H :   -0.282548
  11 H :   -0.217405
  12 H :   -0.217405
  13 H :   -0.282548
  14 H :   -0.263769
  15 H :   -0.282548
  16 H :   -0.263769
Sum of atomic charges:    0.0000000

LOEWDIN ATOMIC CHARGES
----------------------
   0 C :   -0.308416
   1 C :    0.105792
   2 C :    0.105792
   3 C :   -0.308416
   4 C :    0.165670
   5 C :    0.105792
   6 C :    0.105792
   7 H :    0.001238
   8 H :    0.001050
   9 H :    0.001238
  10 H :    0.001050
  11 H :    0.009421
  12 H :    0.009421
  13 H :    0.001050
  14 H :    0.001238
  15 H :    0.001050
  16 H :    0.001238

  Mayer bond orders larger than 0.100000
B(  0-C ,  1-C ) :   0.7952 B(  0-C ,  2-C ) :   0.7952 B(  0-C ,  3-C ) :   0.5956
B(  0-C ,  4-C ) :   0.9404 B(  0-C ,  7-H ) :   0.1127 B(  0-C ,  9-H ) :   0.1127
B(  0-C , 14-H ) :   0.1059 B(  0-C , 16-H ) :   0.1059 B(  1-C ,  2-C ) :   1.2571
B(  1-C ,  7-H ) :   0.6155 B(  1-C ,  8-H ) :   0.7330 B(  2-C ,  9-H ) :   0.6155
B(  2-C , 10-H ) :   0.7330 B(  3-C ,  4-C ) :   0.9404 B(  3-C ,  5-C ) :   0.7952
B(  3-C ,  6-C ) :   0.7952 B(  3-C ,  7-H ) :   0.1059 B(  3-C ,  9-H ) :   0.1059
B(  3-C , 14-H ) :   0.1127 B(  3-C , 16-H ) :   0.1127 B(  4-C , 11-H ) :   0.6978
B(  4-C , 12-H ) :   0.6978 B(  5-C ,  6-C ) :   1.2571 B(  5-C , 13-H ) :   0.7330
B(  5-C , 14-H ) :   0.6155 B(  6-C , 15-H ) :   0.7330 B(  6-C , 16-H ) :   0.6155
B(  7-H ,  8-H ) :  -0.2007 B(  9-H , 10-H ) :  -0.2007 B( 11-H , 12-H ) :  -0.2024
B( 13-H , 14-H ) :  -0.2007 B( 15-H , 16-H ) :  -0.2007

MP2 TOTAL ENERGY:     -271.792799524 Eh
FINAL SINGLE POINT ENERGY      -271.792799523672

DIPOLE MOMENT
-------------
                                X             Y             Z
Electronic contribution:     -0.00000      -0.00000       0.60151
Nuclear contribution   :     -0.00000       0.00000      -0.59403
                        -----------------------------------------
Total Dipole Moment    :     -0.00000      -0.00000       0.00747
                        -----------------------------------------
Magnitude (a.u.)       :      0.00747
Magnitude (Debye)      :      0.01900

Rotational constants in cm-1:     0.175338     0.066550     0.063788
Rotational constants in MHz :  5256.496589  1995.121547  1912.306653

                             ****ORCA TERMINATED NORMALLY****
TOTAL RUN TIME: 0 days 0 hours 1 minutes 17 seconds 86 msec
