                         Program Version 5.0.3 -  RELEASE  -
|  1> !ri-mp2 aug-cc-pvdz aug-cc-pvdz/c tightscf
|  2> %pal nprocs 16 end
|  3>
|  4> * xyz 0 1
|  5> C      0.000000    0.000000    0.591567
|  6> C      0.000000    0.000000   -0.591567
|  7> F      0.000000    0.000000    1.877004
|  8> F      0.000000    0.000000   -1.877004
|  9> *
| 10>
| 11>                          ****END OF INPUT****

CARTESIAN COORDINATES (ANGSTROEM)
---------------------------------
  C      0.000000    0.000000    0.591567
  C      0.000000    0.000000   -0.591567
  F      0.000000    0.000000    1.877004
  F      0.000000    0.000000   -1.877004

 Total Charge           Charge          ....    0
 Multiplicity           Mult            ....    1
 Number of Electrons    NEL             ....   30
 Basis Dimension        Dim             ....   92

ORBITAL ENERGIES
----------------

  NO   OCC          E(Eh)            E(eV)
   0   2.0000     -26.398289      -718.3340
   1   2.0000     -26.398285      -718.3339
   2   2.0000     -11.359689      -309.1128
   3   2.0000     -11.355600      -309.0016
   4   2.0000      -1.710653       -46.5492
   5   2.0000      -1.708752       -46.4975
   6   2.0000      -1.079634       -29.3783
   7   2.0000      -0.878457       -23.9040
   8   2.0000      -0.835382       -22.7319
   9   2.0000      -0.770741       -20.9729
  10   2.0000      -0.770741       -20.9729
  11   2.0000      -0.751939       -20.4613
  12   2.0000      -0.751939       -20.4613
  13   2.0000      -0.428392       -11.6571
  14   2.0000      -0.428392       -11.6571
  15   0.0000       0.061959         1.6860
  16   0.0000       0.063256         1.7213
  17   0.0000       0.106748         2.9048
  18   0.0000       0.106748         2.9048
  19   0.0000       0.124885         3.3983

MULLIKEN ATOMIC CHARGES
-----------------------
   0 C :    0.495869
   1 C :    0.495869
   2 F :   -0.495869
   3 F :   -0.495869
Sum of atomic charges:    0.0000000

LOEWDIN ATOMIC CHARGES
----------------------
   0 C :   -0.093939
   1 C :   -0.093939
   2 F :    0.093939
   3 F :    0.093939

  Mayer bond orders larger than 0.100000
B(  0-C ,  1-C ) :   2.5254 B(  0-C ,  2-F ) :   0.6431 B(  1-C ,  3-F ) :   0.6431

MP2 TOTAL ENERGY:     -275.143515161 Eh
FINAL SINGLE POINT ENERGY      -275.143515161161

DIPOLE MOMENT
-------------
                                X             Y             Z
Electronic contribution:     -0.00000       0.00000      -0.00000
Nuclear contribution   :      0.00000       0.00000       0.00000
                        -----------------------------------------
Total Dipole Moment    :     -0.00000       0.00000      -0.00000
                        -----------------------------------------
Magnitude (a.u.)       :      0.00000
Magnitude (Debye)      :      0.00000

Rotational constants in cm-1:     0.000000     0.118489     0.118489
Rotational constants in MHz :     0.000000  3552.208308  3552.208308

                             ****ORCA TERMINATED NORMALLY****
TOTAL RUN TIME: 0 days 0 hours 0 minutes 40 seconds 759 msec
