                         Program Version 5.0.3 -  RELEASE  -
|  1> !ri-mp2 aug-cc-pvdz aug-cc-pvdz/c tightscf
|  2> %pal nprocs 16 end
|  3>
|  4> * xyz 0 1
|  5> S      1.236970    0.049907   -0.108638
|  6> O      0.170344   -1.178406    0.365430
|  7> O     -1.065349   -0.869992   -0.353876
|  8> C     -0.081416    1.306104    0.072269
|  9> C     -1.371008    0.445059    0.086653
| 10> H     -0.029247    1.976188   -0.782424
| 11> H      0.016390    1.873792    0.994257
| 12> H     -2.117419    0.815604   -0.614952
| 13> H     -1.786663    0.416113    1.095372
| 14> *
| 15>
| 16>                          ****END OF INPUT****

CARTESIAN COORDINATES (ANGSTROEM)
---------------------------------
  S      1.236970    0.049907   -0.108638
  O      0.170344   -1.178406    0.365430
  O     -1.065349   -0.869992   -0.353876
  C     -0.081416    1.306104    0.072269
  C     -1.371008    0.445059    0.086653
  H     -0.029247    1.976188   -0.782424
  H      0.016390    1.873792    0.994257
  H     -2.117419    0.815604   -0.614952
  H     -1.786663    0.416113    1.095372

 Total Charge           Charge          ....    0
 Multiplicity           Mult            ....    1
 Number of Electrons    NEL             ....   48
 Basis Dimension        Dim             ....  155

ORBITAL ENERGIES
----------------

  NO   OCC          E(Eh)            E(eV)
   0   2.0000     -92.015013     -2503.8558
   1   2.0000     -20.659957      -562.1860
   2   2.0000     -20.651122      -561.9456
   3   2.0000     -11.316762      -307.9447
   4   2.0000     -11.288941      -307.1877
   5   2.0000      -9.011180      -245.2067
   6   2.0000      -6.693166      -182.1303
   7   2.0000      -6.691214      -182.0772
   8   2.0000      -6.688515      -182.0038
   9   2.0000      -1.496663       -40.7263
  10   2.0000      -1.249008       -33.9872
  11   2.0000      -1.079077       -29.3632
  12   2.0000      -0.900450       -24.5025
  13   2.0000      -0.848996       -23.1024
  14   2.0000      -0.706781       -19.2325
  15   2.0000      -0.688451       -18.7337
  16   2.0000      -0.648327       -17.6419
  17   2.0000      -0.622877       -16.9493
  18   2.0000      -0.560336       -15.2475
  19   2.0000      -0.535784       -14.5794
  20   2.0000      -0.526411       -14.3244
  21   2.0000      -0.479909       -13.0590
  22   2.0000      -0.459893       -12.5143
  23   2.0000      -0.360449        -9.8083
  24   0.0000       0.032195         0.8761
  25   0.0000       0.044932         1.2227
  26   0.0000       0.047397         1.2897
  27   0.0000       0.067469         1.8359
  28   0.0000       0.074198         2.0190

MULLIKEN ATOMIC CHARGES
-----------------------
   0 S :    0.827017
   1 O :   -0.640128
   2 O :   -0.555284
   3 C :   -0.225104
   4 C :    0.993303
   5 H :   -0.031260
   6 H :   -0.046041
   7 H :   -0.168812
   8 H :   -0.153691
Sum of atomic charges:    0.0000000

LOEWDIN ATOMIC CHARGES
----------------------
   0 S :    0.796682
   1 O :   -0.316373
   2 O :   -0.038961
   3 C :   -0.271085
   4 C :   -0.092045
   5 H :   -0.041408
   6 H :   -0.040833
   7 H :    0.003523
   8 H :    0.000501

  Mayer bond orders larger than 0.100000
B(  0-S ,  1-O ) :   0.5307 B(  0-S ,  3-C ) :   1.0584 B(  1-O ,  2-O ) :   0.8156
B(  1-O ,  4-C ) :  -0.1386 B(  2-O ,  4-C ) :   0.5749 B(  3-C ,  4-C ) :   1.2513
B(  3-C ,  5-H ) :   0.9346 B(  3-C ,  6-H ) :   0.9335 B(  4-C ,  7-H ) :   0.9224
B(  4-C ,  8-H ) :   0.8958

MP2 TOTAL ENERGY:     -626.035767183 Eh
FINAL SINGLE POINT ENERGY      -626.035767182738

DIPOLE MOMENT
-------------
                                X             Y             Z
Electronic contribution:      3.45031      -3.55797      -0.57292
Nuclear contribution   :     -3.88456       4.94021       0.68095
                        -----------------------------------------
Total Dipole Moment    :     -0.43426       1.38224       0.10802
                        -----------------------------------------
Magnitude (a.u.)       :      1.45287
Magnitude (Debye)      :      3.69290

Rotational constants in cm-1:     0.231026     0.159048     0.103274
Rotational constants in MHz :  6925.990476  4768.126714  3096.087445

                             ****ORCA TERMINATED NORMALLY****
TOTAL RUN TIME: 0 days 0 hours 0 minutes 54 seconds 673 msec
