                         Program Version 5.0.3 -  RELEASE  -
|  1> !ri-mp2 aug-cc-pvdz aug-cc-pvdz/c tightscf
|  2> %pal nprocs 16 end
|  3> %maxcore 3800
|  4>
|  5> * xyz 0 1
|  6> C     -1.420834    0.793414   -0.007311
|  7> S      0.000000   -0.346947   -0.000010
|  8> C     -2.762715    0.095086    0.252798
|  9> C      1.420834    0.793414    0.007287
| 10> O     -0.034424   -1.089441    1.260830
| 11> O      0.034424   -1.089442   -1.260849
| 12> C     -3.806859    1.145917    0.648578
| 13> C     -3.239642   -0.730464   -0.945570
| 14> C      2.762718    0.095073   -0.252778
| 15> C      3.806866    1.145882   -0.648603
| 16> C      3.239634   -0.730417    0.945635
| 17> H     -1.201428    1.513412    0.781999
| 18> H     -1.403435    1.302515   -0.971723
| 19> H     -2.618202   -0.575090    1.103169
| 20> H      1.201441    1.513390   -0.782045
| 21> H      1.403420    1.302541    0.971685
| 22> H     -4.763693    0.667778    0.861289
| 23> H     -3.504390    1.699334    1.539005
| 24> H     -3.969663    1.865389   -0.157619
| 25> H     -3.398705   -0.091329   -1.817765
| 26> H     -2.520753   -1.498674   -1.222382
| 27> H     -4.188123   -1.215944   -0.712598
| 28> H      2.618210   -0.575147   -1.103115
| 29> H      4.763704    0.667732   -0.861274
| 30> H      3.504408    1.699247   -1.539066
| 31> H      3.969659    1.865400    0.157555
| 32> H      3.398692   -0.091241    1.817801
| 33> H      2.520742   -1.498613    1.222481
| 34> H      4.188116   -1.215910    0.712694
| 35> *
| 36>
| 37>                          ****END OF INPUT****

CARTESIAN COORDINATES (ANGSTROEM)
---------------------------------
  C     -1.420834    0.793414   -0.007311
  S      0.000000   -0.346947   -0.000010
  C     -2.762715    0.095086    0.252798
  C      1.420834    0.793414    0.007287
  O     -0.034424   -1.089441    1.260830
  O      0.034424   -1.089442   -1.260849
  C     -3.806859    1.145917    0.648578
  C     -3.239642   -0.730464   -0.945570
  C      2.762718    0.095073   -0.252778
  C      3.806866    1.145882   -0.648603
  C      3.239634   -0.730417    0.945635
  H     -1.201428    1.513412    0.781999
  H     -1.403435    1.302515   -0.971723
  H     -2.618202   -0.575090    1.103169
  H      1.201441    1.513390   -0.782045
  H      1.403420    1.302541    0.971685
  H     -4.763693    0.667778    0.861289
  H     -3.504390    1.699334    1.539005
  H     -3.969663    1.865389   -0.157619
  H     -3.398705   -0.091329   -1.817765
  H     -2.520753   -1.498674   -1.222382
  H     -4.188123   -1.215944   -0.712598
  H      2.618210   -0.575147   -1.103115
  H      4.763704    0.667732   -0.861274
  H      3.504408    1.699247   -1.539066
  H      3.969659    1.865400    0.157555
  H      3.398692   -0.091241    1.817801
  H      2.520742   -1.498613    1.222481
  H      4.188116   -1.215910    0.712694

 Total Charge           Charge          ....    0
 Multiplicity           Mult            ....    1
 Number of Electrons    NEL             ....   98
 Basis Dimension        Dim             ....  419

ORBITAL ENERGIES
----------------

  NO   OCC          E(Eh)            E(eV)
   0   2.0000     -92.185376     -2508.4916
   1   2.0000     -20.543467      -559.0162
   2   2.0000     -20.543448      -559.0156
   3   2.0000     -11.279630      -306.9343
   4   2.0000     -11.279611      -306.9338
   5   2.0000     -11.252475      -306.1954
   6   2.0000     -11.252474      -306.1954
   7   2.0000     -11.232864      -305.6618
   8   2.0000     -11.232863      -305.6618
   9   2.0000     -11.219654      -305.3023
  10   2.0000     -11.219654      -305.3023
  11   2.0000      -9.159018      -249.2296
  12   2.0000      -6.844205      -186.2403
  13   2.0000      -6.842872      -186.2040
  14   2.0000      -6.842482      -186.1934
  15   2.0000      -1.439309       -39.1656
  16   2.0000      -1.325490       -36.0684
  17   2.0000      -1.117603       -30.4115
  18   2.0000      -1.108324       -30.1590
  19   2.0000      -1.020862       -27.7791
  20   2.0000      -0.962838       -26.2001
  21   2.0000      -0.940148       -25.5827
  22   2.0000      -0.940081       -25.5809
  23   2.0000      -0.836146       -22.7527
  24   2.0000      -0.786352       -21.3977
  25   2.0000      -0.780214       -21.2307
  26   2.0000      -0.691582       -18.8189
  27   2.0000      -0.668421       -18.1887
  28   2.0000      -0.667826       -18.1725
  29   2.0000      -0.635062       -17.2809
  30   2.0000      -0.621529       -16.9127
  31   2.0000      -0.609273       -16.5792
  32   2.0000      -0.602858       -16.4046
  33   2.0000      -0.590721       -16.0743
  34   2.0000      -0.579738       -15.7755
  35   2.0000      -0.553467       -15.0606
  36   2.0000      -0.549155       -14.9433
  37   2.0000      -0.538481       -14.6528
  38   2.0000      -0.537408       -14.6236
  39   2.0000      -0.511154       -13.9092
  40   2.0000      -0.497681       -13.5426
  41   2.0000      -0.495443       -13.4817
  42   2.0000      -0.483210       -13.1488
  43   2.0000      -0.480099       -13.0642
  44   2.0000      -0.479523       -13.0485
  45   2.0000      -0.476287       -12.9604
  46   2.0000      -0.462232       -12.5780
  47   2.0000      -0.454146       -12.3579
  48   2.0000      -0.409093       -11.1320
  49   0.0000       0.028804         0.7838
  50   0.0000       0.036032         0.9805
  51   0.0000       0.042486         1.1561
  52   0.0000       0.043338         1.1793
  53   0.0000       0.053049         1.4435

MULLIKEN ATOMIC CHARGES
-----------------------
   0 C :    0.302851
   1 S :    2.897893
   2 C :   -1.209442
   3 C :    0.302848
   4 O :   -1.319584
   5 O :   -1.319577
   6 C :    0.898162
   7 C :    0.829393
   8 C :   -1.209421
   9 C :    0.898154
  10 C :    0.829386
  11 H :   -0.206926
  12 H :   -0.166860
  13 H :   -0.190516
  14 H :   -0.206935
  15 H :   -0.166860
  16 H :   -0.073257
  17 H :   -0.101673
  18 H :    0.011617
  19 H :   -0.043193
  20 H :   -0.113477
  21 H :   -0.066042
  22 H :   -0.190516
  23 H :   -0.073258
  24 H :   -0.101671
  25 H :    0.011620
  26 H :   -0.043195
  27 H :   -0.113478
  28 H :   -0.066043
Sum of atomic charges:   -0.0000000

LOEWDIN ATOMIC CHARGES
----------------------
   0 C :   -0.056553
   1 S :    0.967906
   2 C :   -0.307538
   3 C :   -0.056552
   4 O :   -0.393272
   5 O :   -0.393273
   6 C :    0.159285
   7 C :    0.161703
   8 C :   -0.307537
   9 C :    0.159285
  10 C :    0.161703
  11 H :   -0.002316
  12 H :    0.005523
  13 H :    0.030364
  14 H :   -0.002316
  15 H :    0.005522
  16 H :   -0.010899
  17 H :   -0.014333
  18 H :   -0.009544
  19 H :   -0.009151
  20 H :   -0.024758
  21 H :   -0.012465
  22 H :    0.030364
  23 H :   -0.010899
  24 H :   -0.014333
  25 H :   -0.009544
  26 H :   -0.009151
  27 H :   -0.024758
  28 H :   -0.012465

  Mayer bond orders larger than 0.100000
B(  0-C ,  1-S ) :   0.9058 B(  0-C ,  2-C ) :   1.1013 B(  0-C ,  4-O ) :   0.1326
B(  0-C ,  5-O ) :   0.1918 B(  0-C ,  6-C ) :  -0.1341 B(  0-C ,  7-C ) :  -0.1189
B(  0-C , 11-H ) :   0.8316 B(  0-C , 12-H ) :   0.8820 B(  1-S ,  3-C ) :   0.9058
B(  1-S ,  4-O ) :   0.5663 B(  1-S ,  5-O ) :   0.5662 B(  2-C ,  6-C ) :   1.3376
B(  2-C ,  7-C ) :   1.3446 B(  2-C , 13-H ) :   0.6080 B(  2-C , 16-H ) :   0.1482
B(  2-C , 17-H ) :   0.1474 B(  2-C , 18-H ) :   0.1089 B(  2-C , 19-H ) :   0.1769
B(  2-C , 20-H ) :   0.1058 B(  2-C , 21-H ) :   0.1620 B(  3-C ,  4-O ) :   0.1918
B(  3-C ,  5-O ) :   0.1326 B(  3-C ,  8-C ) :   1.1013 B(  3-C ,  9-C ) :  -0.1341
B(  3-C , 10-C ) :  -0.1189 B(  3-C , 14-H ) :   0.8316 B(  3-C , 15-H ) :   0.8820
B(  4-O ,  5-O ) :   0.1670 B(  6-C ,  7-C ) :  -0.1710 B(  6-C , 16-H ) :   0.8256
B(  6-C , 17-H ) :   0.7871 B(  6-C , 18-H ) :   0.8999 B(  7-C , 19-H ) :   0.8936
B(  7-C , 20-H ) :   0.8507 B(  7-C , 21-H ) :   0.7908 B(  8-C ,  9-C ) :   1.3376
B(  8-C , 10-C ) :   1.3446 B(  8-C , 22-H ) :   0.6080 B(  8-C , 23-H ) :   0.1482
B(  8-C , 24-H ) :   0.1474 B(  8-C , 25-H ) :   0.1089 B(  8-C , 26-H ) :   0.1769
B(  8-C , 27-H ) :   0.1058 B(  8-C , 28-H ) :   0.1620 B(  9-C , 10-C ) :  -0.1710
B(  9-C , 23-H ) :   0.8256 B(  9-C , 24-H ) :   0.7871 B(  9-C , 25-H ) :   0.8999
B( 10-C , 26-H ) :   0.8936 B( 10-C , 27-H ) :   0.8507 B( 10-C , 28-H ) :   0.7908

MP2 TOTAL ENERGY:     -862.433073416 Eh
FINAL SINGLE POINT ENERGY      -862.433073416330

DIPOLE MOMENT
-------------
                                X             Y             Z
Electronic contribution:      0.00000      -5.71279      -0.00009
Nuclear contribution   :     -0.00000       7.54739       0.00009
                        -----------------------------------------
Total Dipole Moment    :     -0.00000       1.83461       0.00000
                        -----------------------------------------
Magnitude (a.u.)       :      1.83461
Magnitude (Debye)      :      4.66321

Rotational constants in cm-1:     0.070890     0.014877     0.014560
Rotational constants in MHz :  2125.240204   445.989888   436.509414

                             ****ORCA TERMINATED NORMALLY****
TOTAL RUN TIME: 0 days 0 hours 3 minutes 46 seconds 219 msec
