                         Program Version 5.0.3 -  RELEASE  -
|  1> !ri-mp2 aug-cc-pvdz aug-cc-pvdz/c tightscf
|  2> %pal nprocs 16 end
|  3>
|  4> * xyz 0 1
|  5> S      0.000000    0.000000    1.056821
|  6> S      0.000000    1.684277   -0.162632
|  7> S      0.000000   -1.684277   -0.162632
|  8> C      1.760232    1.865036   -0.616415
|  9> C     -1.760232   -1.865036   -0.616415
| 10> H      1.824265    2.768057   -1.223005
| 11> H     -1.824265   -2.768057   -1.223005
| 12> H      2.373978    1.976752    0.273229
| 13> H      2.086891    1.011010   -1.204189
| 14> H     -2.373978   -1.976752    0.273229
| 15> H     -2.086891   -1.011010   -1.204189
| 16> *
| 17>
| 18>                          ****END OF INPUT****

CARTESIAN COORDINATES (ANGSTROEM)
---------------------------------
  S      0.000000    0.000000    1.056821
  S      0.000000    1.684277   -0.162632
  S      0.000000   -1.684277   -0.162632
  C      1.760232    1.865036   -0.616415
  C     -1.760232   -1.865036   -0.616415
  H      1.824265    2.768057   -1.223005
  H     -1.824265   -2.768057   -1.223005
  H      2.373978    1.976752    0.273229
  H      2.086891    1.011010   -1.204189
  H     -2.373978   -1.976752    0.273229
  H     -2.086891   -1.011010   -1.204189

 Total Charge           Charge          ....    0
 Multiplicity           Mult            ....    1
 Number of Electrons    NEL             ....   66
 Basis Dimension        Dim             ....  181

ORBITAL ENERGIES
----------------

  NO   OCC          E(Eh)            E(eV)
   0   2.0000     -92.002449     -2503.5139
   1   2.0000     -91.982434     -2502.9693
   2   2.0000     -91.982434     -2502.9693
   3   2.0000     -11.269601      -306.6614
   4   2.0000     -11.269601      -306.6614
   5   2.0000      -9.000746      -244.9227
   6   2.0000      -8.982612      -244.4293
   7   2.0000      -8.982600      -244.4290
   8   2.0000      -6.682268      -181.8337
   9   2.0000      -6.680394      -181.7828
  10   2.0000      -6.678158      -181.7219
  11   2.0000      -6.664445      -181.3488
  12   2.0000      -6.664445      -181.3488
  13   2.0000      -6.662552      -181.2973
  14   2.0000      -6.662552      -181.2973
  15   2.0000      -6.660515      -181.2418
  16   2.0000      -6.660515      -181.2418
  17   2.0000      -1.094221       -29.7753
  18   2.0000      -1.042169       -28.3589
  19   2.0000      -0.962821       -26.1997
  20   2.0000      -0.869990       -23.6736
  21   2.0000      -0.776539       -21.1307
  22   2.0000      -0.609234       -16.5781
  23   2.0000      -0.602872       -16.4050
  24   2.0000      -0.595052       -16.1922
  25   2.0000      -0.591943       -16.1076
  26   2.0000      -0.549000       -14.9391
  27   2.0000      -0.498376       -13.5615
  28   2.0000      -0.477235       -12.9862
  29   2.0000      -0.464181       -12.6310
  30   2.0000      -0.368352       -10.0234
  31   2.0000      -0.360256        -9.8031
  32   2.0000      -0.352296        -9.5865
  33   0.0000       0.037170         1.0115
  34   0.0000       0.041739         1.1358
  35   0.0000       0.055292         1.5046
  36   0.0000       0.055486         1.5099
  37   0.0000       0.065077         1.7708

MULLIKEN ATOMIC CHARGES
-----------------------
   0 S :   -0.085903
   1 S :    0.117030
   2 S :    0.117030
   3 C :    0.041289
   4 C :    0.041289
   5 H :   -0.063912
   6 H :   -0.063912
   7 H :   -0.028437
   8 H :   -0.023018
   9 H :   -0.028437
  10 H :   -0.023018
Sum of atomic charges:   -0.0000000

LOEWDIN ATOMIC CHARGES
----------------------
   0 S :    0.085492
   1 S :    0.384041
   2 S :    0.384041
   3 C :   -0.196895
   4 C :   -0.196895
   5 H :   -0.074769
   6 H :   -0.074769
   7 H :   -0.076521
   8 H :   -0.078602
   9 H :   -0.076521
  10 H :   -0.078602

  Mayer bond orders larger than 0.100000
B(  0-S ,  1-S ) :   1.0748 B(  0-S ,  2-S ) :   1.0748 B(  1-S ,  3-C ) :   1.0603
B(  2-S ,  4-C ) :   1.0603 B(  3-C ,  5-H ) :   0.9969 B(  3-C ,  7-H ) :   0.9958
B(  3-C ,  8-H ) :   0.9904 B(  4-C ,  6-H ) :   0.9969 B(  4-C ,  9-H ) :   0.9958
B(  4-C , 10-H ) :   0.9904

MP2 TOTAL ENERGY:    -1272.568594279 Eh
FINAL SINGLE POINT ENERGY     -1272.568594279376

DIPOLE MOMENT
-------------
                                X             Y             Z
Electronic contribution:     -0.00000      -0.00000       3.72179
Nuclear contribution   :     -0.00000       0.00000      -4.25171
                        -----------------------------------------
Total Dipole Moment    :     -0.00000      -0.00000      -0.52992
                        -----------------------------------------
Magnitude (a.u.)       :      0.52992
Magnitude (Debye)      :      1.34695

Rotational constants in cm-1:     0.154884     0.043400     0.042991
Rotational constants in MHz :  4643.307860  1301.104135  1288.845037

                             ****ORCA TERMINATED NORMALLY****
TOTAL RUN TIME: 0 days 0 hours 0 minutes 51 seconds 887 msec
