                         Program Version 5.0.3 -  RELEASE  -
|  1> !ri-mp2 aug-cc-pvdz aug-cc-pvdz/c tightscf
|  2> %pal nprocs 16 end
|  3>
|  4> * xyz 0 1
|  5> N     -0.135879   -0.159469    0.000000
|  6> O      1.161592   -0.759998    0.000000
|  7> H      1.809832   -0.031424    0.000000
|  8> C     -0.288759   -0.230429    2.472841
|  9> C     -0.288759   -0.230429   -2.472841
| 10> C     -0.288759    0.629302    1.218177
| 11> C     -0.288759    0.629302   -1.218177
| 12> H      0.647697   -0.775732    2.573295
| 13> H      0.647697   -0.775732   -2.573295
| 14> H      0.502431    1.398690   -1.280754
| 15> H      0.502431    1.398690    1.280754
| 16> H     -1.239354    1.157946   -1.127847
| 17> H     -1.239354    1.157946    1.127847
| 18> H     -1.101796   -0.955280    2.437155
| 19> H     -1.101796   -0.955280   -2.437155
| 20> H     -0.419577    0.394984    3.356866
| 21> H     -0.419577    0.394984   -3.356866
| 22> *
| 23>
| 24>                          ****END OF INPUT****

CARTESIAN COORDINATES (ANGSTROEM)
---------------------------------
  N     -0.135879   -0.159469    0.000000
  O      1.161592   -0.759998    0.000000
  H      1.809832   -0.031424    0.000000
  C     -0.288759   -0.230429    2.472841
  C     -0.288759   -0.230429   -2.472841
  C     -0.288759    0.629302    1.218177
  C     -0.288759    0.629302   -1.218177
  H      0.647697   -0.775732    2.573295
  H      0.647697   -0.775732   -2.573295
  H      0.502431    1.398690   -1.280754
  H      0.502431    1.398690    1.280754
  H     -1.239354    1.157946   -1.127847
  H     -1.239354    1.157946    1.127847
  H     -1.101796   -0.955280    2.437155
  H     -1.101796   -0.955280   -2.437155
  H     -0.419577    0.394984    3.356866
  H     -0.419577    0.394984   -3.356866

 Total Charge           Charge          ....    0
 Multiplicity           Mult            ....    1
 Number of Electrons    NEL             ....   50
 Basis Dimension        Dim             ....  237

ORBITAL ENERGIES
----------------

  NO   OCC          E(Eh)            E(eV)
   0   2.0000     -20.592763      -560.3576
   1   2.0000     -15.612220      -424.8301
   2   2.0000     -11.261487      -306.4406
   3   2.0000     -11.261466      -306.4401
   4   2.0000     -11.217120      -305.2333
   5   2.0000     -11.217119      -305.2333
   6   2.0000      -1.405520       -38.2461
   7   2.0000      -1.152672       -31.3658
   8   2.0000      -1.038402       -28.2563
   9   2.0000      -0.961929       -26.1754
  10   2.0000      -0.842192       -22.9172
  11   2.0000      -0.820424       -22.3249
  12   2.0000      -0.672712       -18.3054
  13   2.0000      -0.664317       -18.0770
  14   2.0000      -0.663174       -18.0459
  15   2.0000      -0.607574       -16.5329
  16   2.0000      -0.565105       -15.3773
  17   2.0000      -0.560492       -15.2518
  18   2.0000      -0.528246       -14.3743
  19   2.0000      -0.520134       -14.1536
  20   2.0000      -0.501577       -13.6486
  21   2.0000      -0.487715       -13.2714
  22   2.0000      -0.486640       -13.2422
  23   2.0000      -0.462896       -12.5960
  24   2.0000      -0.381911       -10.3923
  25   0.0000       0.034856         0.9485
  26   0.0000       0.044490         1.2106
  27   0.0000       0.045324         1.2333
  28   0.0000       0.050339         1.3698
  29   0.0000       0.062603         1.7035

MULLIKEN ATOMIC CHARGES
-----------------------
   0 N :   -0.400208
   1 O :   -0.702409
   2 H :    0.185208
   3 C :    0.437740
   4 C :    0.437740
   5 C :    0.591983
   6 C :    0.591983
   7 H :   -0.047752
   8 H :   -0.047752
   9 H :   -0.175851
  10 H :   -0.175851
  11 H :   -0.266904
  12 H :   -0.266904
  13 H :   -0.048472
  14 H :   -0.048472
  15 H :   -0.032041
  16 H :   -0.032041
Sum of atomic charges:   -0.0000000

LOEWDIN ATOMIC CHARGES
----------------------
   0 N :   -0.145654
   1 O :    0.127813
   2 H :   -0.059654
   3 C :    0.146232
   4 C :    0.146232
   5 C :   -0.078836
   6 C :   -0.078836
   7 H :   -0.024026
   8 H :   -0.024026
   9 H :    0.015722
  10 H :    0.015722
  11 H :    0.012882
  12 H :    0.012882
  13 H :   -0.014122
  14 H :   -0.014122
  15 H :   -0.019104
  16 H :   -0.019104

  Mayer bond orders larger than 0.100000
B(  0-N ,  1-O ) :   0.5670 B(  0-N ,  5-C ) :   0.9191 B(  0-N ,  6-C ) :   0.9191
B(  1-O ,  2-H ) :   1.0306 B(  3-C ,  5-C ) :   1.2391 B(  3-C ,  7-H ) :   0.9716
B(  3-C , 13-H ) :   0.9486 B(  3-C , 15-H ) :   0.8736 B(  4-C ,  6-C ) :   1.2391
B(  4-C ,  8-H ) :   0.9716 B(  4-C , 14-H ) :   0.9486 B(  4-C , 16-H ) :   0.8736
B(  5-C , 10-H ) :   0.8474 B(  5-C , 12-H ) :   0.8155 B(  6-C ,  9-H ) :   0.8474
B(  6-C , 11-H ) :   0.8155

MP2 TOTAL ENERGY:     -288.146057217 Eh
FINAL SINGLE POINT ENERGY      -288.146057216653

DIPOLE MOMENT
-------------
                                X             Y             Z
Electronic contribution:      1.49584      -1.54201       0.00000
Nuclear contribution   :     -1.46837       2.52502       0.00000
                        -----------------------------------------
Total Dipole Moment    :      0.02747       0.98301       0.00000
                        -----------------------------------------
Magnitude (a.u.)       :      0.98339
Magnitude (Debye)      :      2.49958

Rotational constants in cm-1:     0.252650     0.066831     0.058658
Rotational constants in MHz :  7574.252325  2003.535125  1758.535084

                             ****ORCA TERMINATED NORMALLY****
TOTAL RUN TIME: 0 days 0 hours 0 minutes 54 seconds 679 msec
