                         Program Version 5.0.3 -  RELEASE  -
|  1> !ri-mp2 aug-cc-pvdz aug-cc-pvdz/c tightscf
|  2> %pal nprocs 16 end
|  3>
|  4> * xyz 0 1
|  5> S    -1.532660   -1.443390   -0.000144
|  6> S    -1.532666    1.443384    0.000144
|  7> N     2.115081    2.230324    0.000234
|  8> N     2.115090   -2.230316   -0.000233
|  9> C     0.830778    0.000002    0.000000
| 10> C    -0.544914    0.000000    0.000000
| 11> C     1.562090    1.217179    0.000129
| 12> C     1.562094   -1.217173   -0.000128
| 13> H    -0.513127   -2.326270   -0.000166
| 14> H    -0.513135    2.326268    0.000166
| 15> *
| 16>
| 17>                          ****END OF INPUT****

CARTESIAN COORDINATES (ANGSTROEM)
---------------------------------
  S     -1.532660   -1.443390   -0.000144
  S     -1.532666    1.443384    0.000144
  N      2.115081    2.230324    0.000234
  N      2.115090   -2.230316   -0.000233
  C      0.830778    0.000002    0.000000
  C     -0.544914    0.000000    0.000000
  C      1.562090    1.217179    0.000129
  C      1.562094   -1.217173   -0.000128
  H     -0.513127   -2.326270   -0.000166
  H     -0.513135    2.326268    0.000166

 Total Charge           Charge          ....    0
 Multiplicity           Mult            ....    1
 Number of Electrons    NEL             ....   72
 Basis Dimension        Dim             ....  210

ORBITAL ENERGIES
----------------

  NO   OCC          E(Eh)            E(eV)
   0   2.0000     -92.034862     -2504.3959
   1   2.0000     -92.034862     -2504.3959
   2   2.0000     -15.613902      -424.8759
   3   2.0000     -15.613901      -424.8759
   4   2.0000     -11.406885      -310.3971
   5   2.0000     -11.341276      -308.6118
   6   2.0000     -11.318870      -308.0021
   7   2.0000     -11.318843      -308.0014
   8   2.0000      -9.037296      -245.9173
   9   2.0000      -9.037288      -245.9171
  10   2.0000      -6.719310      -182.8417
  11   2.0000      -6.719309      -182.8417
  12   2.0000      -6.717711      -182.7982
  13   2.0000      -6.717706      -182.7981
  14   2.0000      -6.715666      -182.7426
  15   2.0000      -6.715661      -182.7424
  16   2.0000      -1.271170       -34.5903
  17   2.0000      -1.252202       -34.0742
  18   2.0000      -1.199983       -32.6532
  19   2.0000      -1.074575       -29.2407
  20   2.0000      -1.039906       -28.2973
  21   2.0000      -0.862215       -23.4621
  22   2.0000      -0.818892       -22.2832
  23   2.0000      -0.739960       -20.1353
  24   2.0000      -0.606171       -16.4948
  25   2.0000      -0.602223       -16.3873
  26   2.0000      -0.594261       -16.1707
  27   2.0000      -0.588336       -16.0094
  28   2.0000      -0.554544       -15.0899
  29   2.0000      -0.546062       -14.8591
  30   2.0000      -0.512098       -13.9349
  31   2.0000      -0.511407       -13.9161
  32   2.0000      -0.508935       -13.8488
  33   2.0000      -0.487064       -13.2537
  34   2.0000      -0.423850       -11.5335
  35   2.0000      -0.368763       -10.0345
  36   0.0000       0.026284         0.7152
  37   0.0000       0.032528         0.8851
  38   0.0000       0.044921         1.2224
  39   0.0000       0.063464         1.7269
  40   0.0000       0.071870         1.9557

MULLIKEN ATOMIC CHARGES
-----------------------
   0 S :    0.172992
   1 S :    0.172990
   2 N :   -0.297019
   3 N :   -0.297020
   4 C :    2.439159
   5 C :   -0.598679
   6 C :   -0.966353
   7 C :   -0.966351
   8 H :    0.170140
   9 H :    0.170141
Sum of atomic charges:    0.0000000

LOEWDIN ATOMIC CHARGES
----------------------
   0 S :    0.860362
   1 S :    0.860362
   2 N :    0.108130
   3 N :    0.108130
   4 C :   -0.358493
   5 C :   -0.823904
   6 C :   -0.182527
   7 C :   -0.182527
   8 H :   -0.194768
   9 H :   -0.194766

  Mayer bond orders larger than 0.100000
B(  0-S ,  5-C ) :   1.1810 B(  0-S ,  8-H ) :   0.8809 B(  1-S ,  5-C ) :   1.1810
B(  1-S ,  9-H ) :   0.8809 B(  2-N ,  4-C ) :  -0.2223 B(  2-N ,  6-C ) :   2.6535
B(  3-N ,  4-C ) :  -0.2223 B(  3-N ,  7-C ) :   2.6535 B(  4-C ,  5-C ) :   1.2184
B(  4-C ,  6-C ) :  -0.2229 B(  4-C ,  7-C ) :  -0.2229 B(  5-C ,  6-C ) :  -0.2002
B(  5-C ,  7-C ) :  -0.2002

MP2 TOTAL ENERGY:    -1057.714359123 Eh
FINAL SINGLE POINT ENERGY     -1057.714359123314

DIPOLE MOMENT
-------------
                                X             Y             Z
Electronic contribution:     -0.82202       0.00000       0.00000
Nuclear contribution   :     -0.86238      -0.00000      -0.00000
                        -----------------------------------------
Total Dipole Moment    :     -1.68439      -0.00000      -0.00000
                        -----------------------------------------
Magnitude (a.u.)       :      1.68439
Magnitude (Debye)      :      4.28139

Rotational constants in cm-1:     0.052773     0.048589     0.025297
Rotational constants in MHz :  1582.104827  1456.665123   758.397957

                             ****ORCA TERMINATED NORMALLY****
TOTAL RUN TIME: 0 days 0 hours 0 minutes 46 seconds 454 msec
