                         Program Version 5.0.3 -  RELEASE  -
|  1> !ri-mp2 aug-cc-pvdz aug-cc-pvdz/c tightscf
|  2> %pal nprocs 16 end
|  3>
|  4> * xyz 0 1
|  5> C     0.000000     1.175422   -0.194884
|  6> C     0.000000    -1.175422   -0.194884
|  7> O     0.000000     0.000000    0.586687
|  8> H     0.890246     1.231929   -0.833515
|  9> H     0.000000     2.021254    0.489588
| 10> H    -0.890246     1.231929   -0.833515
| 11> H     0.890246    -1.231929   -0.833515
| 12> H    -0.890246    -1.231929   -0.833515
| 13> H     0.000000    -2.021254    0.489588
| 14> *
| 15>
| 16>                          ****END OF INPUT****

CARTESIAN COORDINATES (ANGSTROEM)
---------------------------------
  C      0.000000    1.175422   -0.194884
  C      0.000000   -1.175422   -0.194884
  O      0.000000    0.000000    0.586687
  H      0.890246    1.231929   -0.833515
  H      0.000000    2.021254    0.489588
  H     -0.890246    1.231929   -0.833515
  H      0.890246   -1.231929   -0.833515
  H     -0.890246   -1.231929   -0.833515
  H      0.000000   -2.021254    0.489588

 Total Charge           Charge          ....    0
 Multiplicity           Mult            ....    1
 Number of Electrons    NEL             ....   26
 Basis Dimension        Dim             ....  123

ORBITAL ENERGIES
----------------

  NO   OCC          E(Eh)            E(eV)
   0   2.0000     -20.565003      -559.6022
   1   2.0000     -11.276866      -306.8591
   2   2.0000     -11.276842      -306.8585
   3   2.0000      -1.375165       -37.4201
   4   2.0000      -0.971071       -26.4242
   5   2.0000      -0.874341       -23.7920
   6   2.0000      -0.657367       -17.8879
   7   2.0000      -0.649658       -17.6781
   8   2.0000      -0.639962       -17.4143
   9   2.0000      -0.549932       -14.9644
  10   2.0000      -0.527276       -14.3479
  11   2.0000      -0.479910       -13.0590
  12   2.0000      -0.422765       -11.5040
  13   0.0000       0.036494         0.9931
  14   0.0000       0.048666         1.3243
  15   0.0000       0.056567         1.5393
  16   0.0000       0.058776         1.5994
  17   0.0000       0.074355         2.0233

MULLIKEN ATOMIC CHARGES
-----------------------
   0 C :    0.783475
   1 C :    0.783475
   2 O :   -0.828211
   3 H :   -0.060735
   4 H :   -0.247900
   5 H :   -0.060735
   6 H :   -0.060735
   7 H :   -0.060735
   8 H :   -0.247900
Sum of atomic charges:    0.0000000

LOEWDIN ATOMIC CHARGES
----------------------
   0 C :    0.112164
   1 C :    0.112164
   2 O :   -0.060168
   3 H :   -0.026013
   4 H :   -0.030055
   5 H :   -0.026013
   6 H :   -0.026013
   7 H :   -0.026013
   8 H :   -0.030055

  Mayer bond orders larger than 0.100000
B(  0-C ,  2-O ) :   0.6930 B(  0-C ,  3-H ) :   0.9555 B(  0-C ,  4-H ) :   1.0642
B(  0-C ,  5-H ) :   0.9555 B(  1-C ,  2-O ) :   0.6930 B(  1-C ,  6-H ) :   0.9555
B(  1-C ,  7-H ) :   0.9555 B(  1-C ,  8-H ) :   1.0642

MP2 TOTAL ENERGY:     -154.590897483 Eh
FINAL SINGLE POINT ENERGY      -154.590897482613

DIPOLE MOMENT
-------------
                                X             Y             Z
Electronic contribution:     -0.00000       0.00000       1.91513
Nuclear contribution   :      0.00000       0.00000      -2.48621
                        -----------------------------------------
Total Dipole Moment    :     -0.00000       0.00000      -0.57108
                        -----------------------------------------
Magnitude (a.u.)       :      0.57108
Magnitude (Debye)      :      1.45158

Rotational constants in cm-1:     1.318937     0.332235     0.295073
Rotational constants in MHz : 39540.748801  9960.144086  8846.071889

                             ****ORCA TERMINATED NORMALLY****
TOTAL RUN TIME: 0 days 0 hours 0 minutes 39 seconds 901 msec
