                         Program Version 5.0.3 -  RELEASE  -
|  1> !ri-mp2 aug-cc-pvdz aug-cc-pvdz/c tightscf
|  2> %pal nprocs 16 end
|  3>
|  4> * xyz 0 1
|  5> O    -0.437201     0.587681    0.000000
|  6> O     0.437201    -0.587681    0.000000
|  7> C    -0.437201    -1.696109    0.000000
|  8> H    -1.064231    -1.705853    0.894667
|  9> C     0.437201     1.696109    0.000000
| 10> H     1.064231     1.705853   -0.894667
| 11> H     1.064231     1.705853    0.894667
| 12> H    -0.218746     2.566214    0.000000
| 13> H     0.218746    -2.566214    0.000000
| 14> H    -1.064231    -1.705853   -0.894667
| 15> *
| 16>
| 17>                          ****END OF INPUT****

CARTESIAN COORDINATES (ANGSTROEM)
---------------------------------
  O     -0.437201    0.587681    0.000000
  O      0.437201   -0.587681    0.000000
  C     -0.437201   -1.696109    0.000000
  H     -1.064231   -1.705853    0.894667
  C      0.437201    1.696109    0.000000
  H      1.064231    1.705853   -0.894667
  H      1.064231    1.705853    0.894667
  H     -0.218746    2.566214    0.000000
  H      0.218746   -2.566214    0.000000
  H     -1.064231   -1.705853   -0.894667

 Total Charge           Charge          ....    0
 Multiplicity           Mult            ....    1
 Number of Electrons    NEL             ....   34
 Basis Dimension        Dim             ....  146

ORBITAL ENERGIES
----------------

  NO   OCC          E(Eh)            E(eV)
   0   2.0000     -20.626227      -561.2682
   1   2.0000     -20.625943      -561.2604
   2   2.0000     -11.282463      -307.0114
   3   2.0000     -11.282461      -307.0114
   4   2.0000      -1.471366       -40.0379
   5   2.0000      -1.247140       -33.9364
   6   2.0000      -0.928564       -25.2675
   7   2.0000      -0.904756       -24.6197
   8   2.0000      -0.682153       -18.5623
   9   2.0000      -0.674391       -18.3511
  10   2.0000      -0.664742       -18.0885
  11   2.0000      -0.605587       -16.4788
  12   2.0000      -0.561166       -15.2701
  13   2.0000      -0.551901       -15.0180
  14   2.0000      -0.499047       -13.5797
  15   2.0000      -0.488859       -13.3025
  16   2.0000      -0.420066       -11.4306
  17   0.0000       0.037830         1.0294
  18   0.0000       0.046380         1.2621
  19   0.0000       0.054926         1.4946
  20   0.0000       0.056893         1.5481
  21   0.0000       0.068405         1.8614

MULLIKEN ATOMIC CHARGES
-----------------------
   0 O :   -0.541972
   1 O :   -0.541972
   2 C :    0.926367
   3 H :   -0.094146
   4 C :    0.926367
   5 H :   -0.094146
   6 H :   -0.094146
   7 H :   -0.196104
   8 H :   -0.196104
   9 H :   -0.094146
Sum of atomic charges:   -0.0000000

LOEWDIN ATOMIC CHARGES
----------------------
   0 O :   -0.018583
   1 O :   -0.018583
   2 C :    0.105422
   3 H :   -0.028598
   4 C :    0.105422
   5 H :   -0.028598
   6 H :   -0.028598
   7 H :   -0.029643
   8 H :   -0.029643
   9 H :   -0.028598

  Mayer bond orders larger than 0.100000
B(  0-O ,  1-O ) :   0.7989 B(  0-O ,  2-C ) :  -0.1008 B(  0-O ,  4-C ) :   0.6191
B(  1-O ,  2-C ) :   0.6191 B(  1-O ,  4-C ) :  -0.1008 B(  2-C ,  3-H ) :   0.9860
B(  2-C ,  8-H ) :   0.9916 B(  2-C ,  9-H ) :   0.9860 B(  4-C ,  5-H ) :   0.9860
B(  4-C ,  6-H ) :   0.9860 B(  4-C ,  7-H ) :   0.9916

MP2 TOTAL ENERGY:     -229.565750571 Eh
FINAL SINGLE POINT ENERGY      -229.565750570778

DIPOLE MOMENT
-------------
                                X             Y             Z
Electronic contribution:     -0.00000       0.00000      -0.00000
Nuclear contribution   :      0.00000       0.00000       0.00000
                        -----------------------------------------
Total Dipole Moment    :     -0.00000       0.00000      -0.00000
                        -----------------------------------------
Magnitude (a.u.)       :      0.00000
Magnitude (Debye)      :      0.00000

Rotational constants in cm-1:     1.059831     0.151753     0.139854
Rotational constants in MHz : 31772.924681  4549.441013  4192.719967

                             ****ORCA TERMINATED NORMALLY****
TOTAL RUN TIME: 0 days 0 hours 0 minutes 58 seconds 361 msec
