                         Program Version 5.0.3 -  RELEASE  -
|  1> !ri-mp2 aug-cc-pvdz aug-cc-pvdz/c tightscf
|  2> %pal nprocs 16 end
|  3>
|  4> * xyz 0 1
|  5> C      0.000000    1.856169   -0.553318
|  6> C      0.000000   -1.856169   -0.553318
|  7> C      0.000000    0.000000    0.918263
|  8> O     -0.768127    0.891716    0.154870
|  9> O      0.768127   -0.891716    0.154870
| 10> H      0.611878    2.448681    0.135651
| 11> H     -0.705463    2.511536   -1.058607
| 12> H      0.653146    1.386863   -1.291849
| 13> H     -0.653146   -1.386863   -1.291849
| 14> H     -0.611878   -2.448681    0.135651
| 15> H      0.705463   -2.511536   -1.058607
| 16> H      0.718837    0.541142    1.540958
| 17> H     -0.718837   -0.541142    1.540958
| 18> *
| 19>
| 20>                          ****END OF INPUT****

CARTESIAN COORDINATES (ANGSTROEM)
---------------------------------
  C      0.000000    1.856169   -0.553318
  C      0.000000   -1.856169   -0.553318
  C      0.000000    0.000000    0.918263
  O     -0.768127    0.891716    0.154870
  O      0.768127   -0.891716    0.154870
  H      0.611878    2.448681    0.135651
  H     -0.705463    2.511536   -1.058607
  H      0.653146    1.386863   -1.291849
  H     -0.653146   -1.386863   -1.291849
  H     -0.611878   -2.448681    0.135651
  H      0.705463   -2.511536   -1.058607
  H      0.718837    0.541142    1.540958
  H     -0.718837   -0.541142    1.540958

 Total Charge           Charge          ....    0
 Multiplicity           Mult            ....    1
 Number of Electrons    NEL             ....   42
 Basis Dimension        Dim             ....  187

ORBITAL ENERGIES
----------------

  NO   OCC          E(Eh)            E(eV)
   0   2.0000     -20.571188      -559.7705
   1   2.0000     -20.571172      -559.7700
   2   2.0000     -11.333060      -308.3882
   3   2.0000     -11.277445      -306.8749
   4   2.0000     -11.277445      -306.8749
   5   2.0000      -1.416326       -38.5402
   6   2.0000      -1.348331       -36.6900
   7   2.0000      -0.983303       -26.7570
   8   2.0000      -0.933850       -25.4113
   9   2.0000      -0.840879       -22.8815
  10   2.0000      -0.692197       -18.8356
  11   2.0000      -0.689144       -18.7526
  12   2.0000      -0.674857       -18.3638
  13   2.0000      -0.609879       -16.5956
  14   2.0000      -0.601345       -16.3634
  15   2.0000      -0.574781       -15.6406
  16   2.0000      -0.529950       -14.4207
  17   2.0000      -0.521670       -14.1954
  18   2.0000      -0.464090       -12.6285
  19   2.0000      -0.441602       -12.0166
  20   2.0000      -0.440373       -11.9831
  21   0.0000       0.037408         1.0179
  22   0.0000       0.046004         1.2518
  23   0.0000       0.049814         1.3555
  24   0.0000       0.054040         1.4705
  25   0.0000       0.070297         1.9129

MULLIKEN ATOMIC CHARGES
-----------------------
   0 C :    0.785523
   1 C :    0.785523
   2 C :    1.260875
   3 O :   -0.874817
   4 O :   -0.874817
   5 H :   -0.055482
   6 H :   -0.242088
   7 H :   -0.046600
   8 H :   -0.046600
   9 H :   -0.055482
  10 H :   -0.242088
  11 H :   -0.196974
  12 H :   -0.196974
Sum of atomic charges:   -0.0000000

LOEWDIN ATOMIC CHARGES
----------------------
   0 C :    0.135850
   1 C :    0.135850
   2 C :   -0.065169
   3 O :   -0.030189
   4 O :   -0.030189
   5 H :   -0.024184
   6 H :   -0.028487
   7 H :   -0.024466
   8 H :   -0.024466
   9 H :   -0.024184
  10 H :   -0.028487
  11 H :    0.004062
  12 H :    0.004062

  Mayer bond orders larger than 0.100000
B(  0-C ,  3-O ) :   0.6784 B(  0-C ,  5-H ) :   0.9546 B(  0-C ,  6-H ) :   1.0468
B(  0-C ,  7-H ) :   0.9538 B(  1-C ,  4-O ) :   0.6784 B(  1-C ,  8-H ) :   0.9538
B(  1-C ,  9-H ) :   0.9546 B(  1-C , 10-H ) :   1.0468 B(  2-C ,  3-O ) :   0.6528
B(  2-C ,  4-O ) :   0.6528 B(  2-C , 11-H ) :   0.9744 B(  2-C , 12-H ) :   0.9744
B( 11-H , 12-H ) :  -0.1482

MP2 TOTAL ENERGY:     -268.836223729 Eh
FINAL SINGLE POINT ENERGY      -268.836223728571

DIPOLE MOMENT
-------------
                                X             Y             Z
Electronic contribution:      0.00000       0.00000       1.33039
Nuclear contribution   :      0.00000      -0.00000      -1.39194
                        -----------------------------------------
Total Dipole Moment    :      0.00000       0.00000      -0.06155
                        -----------------------------------------
Magnitude (a.u.)       :      0.06155
Magnitude (Debye)      :      0.15645

Rotational constants in cm-1:     0.352085     0.105347     0.099462
Rotational constants in MHz : 10555.250706  3158.232633  2981.786166

                             ****ORCA TERMINATED NORMALLY****
TOTAL RUN TIME: 0 days 0 hours 0 minutes 40 seconds 45 msec
