                         Program Version 5.0.3 -  RELEASE  -
|  1> !ri-mp2 aug-cc-pvdz aug-cc-pvdz/c tightscf
|  2> %pal nprocs 16 end
|  3>
|  4> * xyz 0 1
|  5> N     -1.948870   -0.047511    0.054375
|  6> N      1.948870   -0.047536   -0.054353
|  7> C     -0.602828    0.001551    0.003804
|  8> C      0.602828    0.001550   -0.003806
|  9> H     -2.420980   -0.433572   -0.748716
| 10> H     -2.421589    0.756865    0.436515
| 11> H      2.420977   -0.433234    0.748914
| 12> H      2.421590    0.756668   -0.436853
| 13> *
| 14>
| 15>                          ****END OF INPUT****

CARTESIAN COORDINATES (ANGSTROEM)
---------------------------------
  N     -1.948870   -0.047511    0.054375
  N      1.948870   -0.047536   -0.054353
  C     -0.602828    0.001551    0.003804
  C      0.602828    0.001550   -0.003806
  H     -2.420980   -0.433572   -0.748716
  H     -2.421589    0.756865    0.436515
  H      2.420977   -0.433234    0.748914
  H      2.421590    0.756668   -0.436853

 Total Charge           Charge          ....    0
 Multiplicity           Mult            ....    1
 Number of Electrons    NEL             ....   30
 Basis Dimension        Dim             ....  128

ORBITAL ENERGIES
----------------

  NO   OCC          E(Eh)            E(eV)
   0   2.0000     -15.586483      -424.1298
   1   2.0000     -15.586483      -424.1298
   2   2.0000     -11.244872      -305.9885
   3   2.0000     -11.241296      -305.8912
   4   2.0000      -1.220497       -33.2114
   5   2.0000      -1.205687       -32.8084
   6   2.0000      -0.972943       -26.4751
   7   2.0000      -0.749562       -20.3966
   8   2.0000      -0.696867       -18.9627
   9   2.0000      -0.691388       -18.8136
  10   2.0000      -0.690988       -18.8027
  11   2.0000      -0.505527       -13.7561
  12   2.0000      -0.504567       -13.7300
  13   2.0000      -0.327807        -8.9201
  14   2.0000      -0.327551        -8.9131
  15   0.0000       0.030537         0.8310
  16   0.0000       0.039160         1.0656
  17   0.0000       0.059503         1.6192
  18   0.0000       0.059522         1.6197
  19   0.0000       0.125026         3.4021

MULLIKEN ATOMIC CHARGES
-----------------------
   0 N :   -0.213336
   1 N :   -0.213335
   2 C :    0.171038
   3 C :    0.171037
   4 H :    0.023549
   5 H :    0.018749
   6 H :    0.023549
   7 H :    0.018749
Sum of atomic charges:   -0.0000000

LOEWDIN ATOMIC CHARGES
----------------------
   0 N :    0.191084
   1 N :    0.191085
   2 C :   -0.128835
   3 C :   -0.128835
   4 H :   -0.030685
   5 H :   -0.031564
   6 H :   -0.030685
   7 H :   -0.031564

  Mayer bond orders larger than 0.100000
B(  0-N ,  2-C ) :   1.1683 B(  0-N ,  3-C ) :  -0.1267 B(  0-N ,  4-H ) :   1.0511
B(  0-N ,  5-H ) :   1.0608 B(  1-N ,  2-C ) :  -0.1267 B(  1-N ,  3-C ) :   1.1683
B(  1-N ,  6-H ) :   1.0511 B(  1-N ,  7-H ) :   1.0608 B(  2-C ,  3-C ) :   2.4843

MP2 TOTAL ENERGY:     -187.520899890 Eh
FINAL SINGLE POINT ENERGY      -187.520899889798

DIPOLE MOMENT
-------------
                                X             Y             Z
Electronic contribution:      0.00000      -0.14370       0.00003
Nuclear contribution   :     -0.00000       0.64933      -0.00014
                        -----------------------------------------
Total Dipole Moment    :     -0.00000       0.50563      -0.00011
                        -----------------------------------------
Magnitude (a.u.)       :      0.50563
Magnitude (Debye)      :      1.28520

Rotational constants in cm-1:     5.316529     0.120098     0.120092
Rotational constants in MHz : 159385.534109  3600.453332  3600.257975

                             ****ORCA TERMINATED NORMALLY****
TOTAL RUN TIME: 0 days 0 hours 0 minutes 50 seconds 501 msec
