                         Program Version 5.0.3 -  RELEASE  -
|  1> !ri-mp2 aug-cc-pvdz aug-cc-pvdz/c tightscf
|  2> %pal nprocs 16 end
|  3>
|  4> * xyz 0 1
|  5> C      0.150438   -1.090521    3.446524
|  6> C      0.085296    0.101402    2.517436
|  7> O      0.150438   -0.404858    1.160874
|  8> S      0.167579    0.766272    0.000000
|  9> O     -1.132613    1.441502    0.000000
| 10> O      0.150438   -0.404858   -1.160874
| 11> C      0.085296    0.101402   -2.517436
| 12> C      0.150438   -1.090521   -3.446524
| 13> H     -0.680200   -1.769479    3.258074
| 14> H      1.082937   -1.637650    3.313150
| 15> H      0.092076   -0.751674    4.481673
| 16> H      0.923392    0.782173    2.691692
| 17> H     -0.846294    0.654026    2.644175
| 18> H     -0.846294    0.654026   -2.644175
| 19> H      0.923392    0.782173   -2.691692
| 20> H      1.082937   -1.637650   -3.313150
| 21> H     -0.680200   -1.769479   -3.258074
| 22> H      0.092076   -0.751674   -4.481673
| 23> *
| 24>
| 25>                          ****END OF INPUT****

CARTESIAN COORDINATES (ANGSTROEM)
---------------------------------
  C      0.150438   -1.090521    3.446524
  C      0.085296    0.101402    2.517436
  O      0.150438   -0.404858    1.160874
  S      0.167579    0.766272    0.000000
  O     -1.132613    1.441502    0.000000
  O      0.150438   -0.404858   -1.160874
  C      0.085296    0.101402   -2.517436
  C      0.150438   -1.090521   -3.446524
  H     -0.680200   -1.769479    3.258074
  H      1.082937   -1.637650    3.313150
  H      0.092076   -0.751674    4.481673
  H      0.923392    0.782173    2.691692
  H     -0.846294    0.654026    2.644175
  H     -0.846294    0.654026   -2.644175
  H      0.923392    0.782173   -2.691692
  H      1.082937   -1.637650   -3.313150
  H     -0.680200   -1.769479   -3.258074
  H      0.092076   -0.751674   -4.481673

 Total Charge           Charge          ....    0
 Multiplicity           Mult            ....    1
 Number of Electrons    NEL             ....   74
 Basis Dimension        Dim             ....  278

ORBITAL ENERGIES
----------------

  NO   OCC          E(Eh)            E(eV)
   0   2.0000     -92.175134     -2508.2129
   1   2.0000     -20.608582      -560.7880
   2   2.0000     -20.608569      -560.7877
   3   2.0000     -20.553092      -559.2781
   4   2.0000     -11.303906      -307.5949
   5   2.0000     -11.303904      -307.5949
   6   2.0000     -11.234906      -305.7173
   7   2.0000     -11.234906      -305.7173
   8   2.0000      -9.149794      -248.9786
   9   2.0000      -6.832247      -185.9149
  10   2.0000      -6.831680      -185.8995
  11   2.0000      -6.828285      -185.8071
  12   2.0000      -1.468204       -39.9519
  13   2.0000      -1.377345       -37.4795
  14   2.0000      -1.350159       -36.7397
  15   2.0000      -1.056592       -28.7513
  16   2.0000      -1.028001       -27.9733
  17   2.0000      -0.909266       -24.7424
  18   2.0000      -0.849011       -23.1028
  19   2.0000      -0.840732       -22.8775
  20   2.0000      -0.715295       -19.4642
  21   2.0000      -0.698453       -19.0059
  22   2.0000      -0.683497       -18.5989
  23   2.0000      -0.668663       -18.1952
  24   2.0000      -0.609612       -16.5884
  25   2.0000      -0.599049       -16.3010
  26   2.0000      -0.596284       -16.2257
  27   2.0000      -0.559538       -15.2258
  28   2.0000      -0.548954       -14.9378
  29   2.0000      -0.539172       -14.6716
  30   2.0000      -0.528568       -14.3831
  31   2.0000      -0.522344       -14.2137
  32   2.0000      -0.520857       -14.1732
  33   2.0000      -0.476163       -12.9571
  34   2.0000      -0.471413       -12.8278
  35   2.0000      -0.461142       -12.5483
  36   2.0000      -0.404886       -11.0175
  37   0.0000       0.035833         0.9751
  38   0.0000       0.039488         1.0745
  39   0.0000       0.046320         1.2604
  40   0.0000       0.050186         1.3656
  41   0.0000       0.057253         1.5579

MULLIKEN ATOMIC CHARGES
-----------------------
   0 C :    0.303120
   1 C :    0.643214
   2 O :   -1.051792
   3 S :    2.102647
   4 O :   -1.046857
   5 O :   -1.051792
   6 C :    0.643214
   7 C :    0.303120
   8 H :   -0.059567
   9 H :   -0.063377
  10 H :   -0.049684
  11 H :   -0.114271
  12 H :   -0.135539
  13 H :   -0.135539
  14 H :   -0.114271
  15 H :   -0.063377
  16 H :   -0.059567
  17 H :   -0.049684
Sum of atomic charges:    0.0000000

LOEWDIN ATOMIC CHARGES
----------------------
   0 C :    0.131960
   1 C :   -0.113852
   2 O :   -0.250696
   3 S :    1.081471
   4 O :   -0.505187
   5 O :   -0.250696
   6 C :   -0.113852
   7 C :    0.131960
   8 H :   -0.014085
   9 H :   -0.015952
  10 H :   -0.014257
  11 H :   -0.005976
  12 H :   -0.005285
  13 H :   -0.005285
  14 H :   -0.005976
  15 H :   -0.015952
  16 H :   -0.014085
  17 H :   -0.014257

  Mayer bond orders larger than 0.100000
B(  0-C ,  1-C ) :   1.2744 B(  0-C ,  8-H ) :   0.9496 B(  0-C ,  9-H ) :   0.9562
B(  0-C , 10-H ) :   0.9181 B(  1-C ,  2-O ) :   0.6136 B(  1-C , 11-H ) :   0.9035
B(  1-C , 12-H ) :   0.9003 B(  2-O ,  3-S ) :   0.5863 B(  2-O ,  4-O ) :   0.1180
B(  3-S ,  4-O ) :   1.1666 B(  3-S ,  5-O ) :   0.5863 B(  4-O ,  5-O ) :   0.1180
B(  5-O ,  6-C ) :   0.6136 B(  6-C ,  7-C ) :   1.2744 B(  6-C , 13-H ) :   0.9003
B(  6-C , 14-H ) :   0.9035 B(  7-C , 15-H ) :   0.9562 B(  7-C , 16-H ) :   0.9496
B(  7-C , 17-H ) :   0.9181

MP2 TOTAL ENERGY:     -780.734809640 Eh
FINAL SINGLE POINT ENERGY      -780.734809640451

DIPOLE MOMENT
-------------
                                X             Y             Z
Electronic contribution:     -0.30888       5.35192       0.00000
Nuclear contribution   :      1.13203      -5.49036      -0.00000
                        -----------------------------------------
Total Dipole Moment    :      0.82315      -0.13843       0.00000
                        -----------------------------------------
Magnitude (a.u.)       :      0.83471
Magnitude (Debye)      :      2.12166

Rotational constants in cm-1:     0.129471     0.027512     0.023935
Rotational constants in MHz :  3881.432390   824.783971   717.540418

                             ****ORCA TERMINATED NORMALLY****
TOTAL RUN TIME: 0 days 0 hours 1 minutes 35 seconds 673 msec
