                         Program Version 5.0.3 -  RELEASE  -
|  1> !ri-mp2 aug-cc-pvdz aug-cc-pvdz/c tightscf
|  2> %pal nprocs 16 end
|  3>
|  4> * xyz 0 1
|  5> C      1.610605    1.384300    0.549759
|  6> H      2.332239    2.160342    0.292049
|  7> H      0.860212    1.834406    1.198917
|  8> H      2.129278    0.606001    1.108397
|  9> C     -2.280666    0.756806   -0.091466
| 10> H     -2.643528    0.312964   -1.019464
| 11> H     -3.146309    0.940646    0.545887
| 12> H     -1.838910    1.724439   -0.328261
| 13> C     -1.298769   -0.163282    0.619431
| 14> H     -1.776187   -1.092001    0.931530
| 15> H     -0.846975    0.288433    1.501243
| 16> C      0.999535    0.803974   -0.714910
| 17> H      0.322444    1.489329   -1.225847
| 18> S      0.072252   -0.774645   -0.452665
| 19> O      0.937001   -1.633899    0.435963
| 20> H      1.771453    0.510148   -1.426400
| 21> *
| 22>
| 23>                          ****END OF INPUT****

CARTESIAN COORDINATES (ANGSTROEM)
---------------------------------
  C      1.610605    1.384300    0.549759
  H      2.332239    2.160342    0.292049
  H      0.860212    1.834406    1.198917
  H      2.129278    0.606001    1.108397
  C     -2.280666    0.756806   -0.091466
  H     -2.643528    0.312964   -1.019464
  H     -3.146309    0.940646    0.545887
  H     -1.838910    1.724439   -0.328261
  C     -1.298769   -0.163282    0.619431
  H     -1.776187   -1.092001    0.931530
  H     -0.846975    0.288433    1.501243
  C      0.999535    0.803974   -0.714910
  H      0.322444    1.489329   -1.225847
  S      0.072252   -0.774645   -0.452665
  O      0.937001   -1.633899    0.435963
  H      1.771453    0.510148   -1.426400

 Total Charge           Charge          ....    0
 Multiplicity           Mult            ....    1
 Number of Electrons    NEL             ....   58
 Basis Dimension        Dim             ....  232

ORBITAL ENERGIES
----------------

  NO   OCC          E(Eh)            E(eV)
   0   2.0000     -92.066962     -2505.2694
   1   2.0000     -20.507031      -558.0247
   2   2.0000     -11.271976      -306.7260
   3   2.0000     -11.271203      -306.7050
   4   2.0000     -11.250312      -306.1366
   5   2.0000     -11.236546      -305.7620
   6   2.0000      -9.055860      -246.4225
   7   2.0000      -6.738120      -183.3536
   8   2.0000      -6.737353      -183.3327
   9   2.0000      -6.735348      -183.2781
  10   2.0000      -1.326776       -36.1034
  11   2.0000      -1.087813       -29.6009
  12   2.0000      -1.046675       -28.4815
  13   2.0000      -0.934962       -25.4416
  14   2.0000      -0.877969       -23.8907
  15   2.0000      -0.784706       -21.3529
  16   2.0000      -0.660960       -17.9856
  17   2.0000      -0.649192       -17.6654
  18   2.0000      -0.605789       -16.4844
  19   2.0000      -0.598466       -16.2851
  20   2.0000      -0.583633       -15.8815
  21   2.0000      -0.549560       -14.9543
  22   2.0000      -0.539859       -14.6903
  23   2.0000      -0.533534       -14.5182
  24   2.0000      -0.508734       -13.8434
  25   2.0000      -0.507359       -13.8059
  26   2.0000      -0.499327       -13.5874
  27   2.0000      -0.400331       -10.8936
  28   2.0000      -0.356606        -9.7038
  29   0.0000       0.030180         0.8212
  30   0.0000       0.038980         1.0607
  31   0.0000       0.043357         1.1798
  32   0.0000       0.050437         1.3725
  33   0.0000       0.062134         1.6908

MULLIKEN ATOMIC CHARGES
-----------------------
   0 C :    0.445350
   1 H :   -0.092788
   2 H :   -0.139206
   3 H :   -0.029392
   4 C :    0.396576
   5 H :   -0.041519
   6 H :   -0.073011
   7 H :   -0.127872
   8 C :   -0.048329
   9 H :   -0.065721
  10 H :   -0.072803
  11 C :   -0.153513
  12 H :   -0.067995
  13 S :    1.332473
  14 O :   -1.213973
  15 H :   -0.048279
Sum of atomic charges:   -0.0000000

LOEWDIN ATOMIC CHARGES
----------------------
   0 C :    0.096562
   1 H :   -0.017538
   2 H :   -0.029331
   3 H :   -0.019955
   4 C :    0.092954
   5 H :   -0.018976
   6 H :   -0.016892
   7 H :   -0.031070
   8 C :   -0.203211
   9 H :   -0.021812
  10 H :   -0.026813
  11 C :   -0.206981
  12 H :   -0.031491
  13 S :    1.021843
  14 O :   -0.562290
  15 H :   -0.024998

  Mayer bond orders larger than 0.100000
B(  0-C ,  1-H ) :   0.9096 B(  0-C ,  2-H ) :   0.9653 B(  0-C ,  3-H ) :   0.9394
B(  0-C , 11-C ) :   1.2304 B(  4-C ,  5-H ) :   0.9273 B(  4-C ,  6-H ) :   0.9032
B(  4-C ,  7-H ) :   0.9885 B(  4-C ,  8-C ) :   1.2474 B(  8-C ,  9-H ) :   0.8879
B(  8-C , 10-H ) :   0.9075 B(  8-C , 13-S ) :   0.9630 B(  8-C , 14-O ) :   0.1072
B( 11-C , 12-H ) :   0.9406 B( 11-C , 13-S ) :   1.0277 B( 11-C , 14-O ) :   0.1712
B( 11-C , 15-H ) :   0.9064 B( 13-S , 14-O ) :   0.7437

MP2 TOTAL ENERGY:     -630.617474167 Eh
FINAL SINGLE POINT ENERGY      -630.617474166940

DIPOLE MOMENT
-------------
                                X             Y             Z
Electronic contribution:      1.97727      -7.39258      -2.02479
Nuclear contribution   :     -2.89674       8.99967       1.64023
                        -----------------------------------------
Total Dipole Moment    :     -0.91948       1.60709      -0.38456
                        -----------------------------------------
Magnitude (a.u.)       :      1.89105
Magnitude (Debye)      :      4.80665

Rotational constants in cm-1:     0.112208     0.078899     0.057361
Rotational constants in MHz :  3363.914482  2365.329758  1719.648328

                             ****ORCA TERMINATED NORMALLY****
TOTAL RUN TIME: 0 days 0 hours 0 minutes 50 seconds 977 msec
