                         Program Version 5.0.3 -  RELEASE  -
|  1> !ri-mp2 aug-cc-pvdz aug-cc-pvdz/c tightscf
|  2> %pal nprocs 16 end
|  3>
|  4> * xyz 0 1
|  5> C     -0.123642    1.418300    0.182281
|  6> H     -0.576061    2.246214   -0.360785
|  7> H     -0.140157    1.675948    1.245871
|  8> C      1.285993    1.069039   -0.279367
|  9> H      2.029750    1.761665    0.115463
| 10> H      1.337092    1.113708   -1.368217
| 11> C      1.580762   -0.362867    0.182655
| 12> H      1.863237   -0.398574    1.234120
| 13> H      2.363223   -0.838008   -0.403468
| 14> C     -1.005756    0.186332    0.018862
| 15> O     -2.202205    0.172101   -0.051174
| 16> S      0.019776   -1.300161   -0.042511
| 17> *
| 18>
| 19>                          ****END OF INPUT****

CARTESIAN COORDINATES (ANGSTROEM)
---------------------------------
  C     -0.123642    1.418300    0.182281
  H     -0.576061    2.246214   -0.360785
  H     -0.140157    1.675948    1.245871
  C      1.285993    1.069039   -0.279367
  H      2.029750    1.761665    0.115463
  H      1.337092    1.113708   -1.368217
  C      1.580762   -0.362867    0.182655
  H      1.863237   -0.398574    1.234120
  H      2.363223   -0.838008   -0.403468
  C     -1.005756    0.186332    0.018862
  O     -2.202205    0.172101   -0.051174
  S      0.019776   -1.300161   -0.042511

 Total Charge           Charge          ....    0
 Multiplicity           Mult            ....    1
 Number of Electrons    NEL             ....   54
 Basis Dimension        Dim             ....  196

ORBITAL ENERGIES
----------------

  NO   OCC          E(Eh)            E(eV)
   0   2.0000     -91.970302     -2502.6392
   1   2.0000     -20.569169      -559.7155
   2   2.0000     -11.372824      -309.4703
   3   2.0000     -11.284270      -307.0606
   4   2.0000     -11.262828      -306.4771
   5   2.0000     -11.262210      -306.4603
   6   2.0000      -8.973121      -244.1710
   7   2.0000      -6.654587      -181.0805
   8   2.0000      -6.653596      -181.0535
   9   2.0000      -6.651631      -181.0001
  10   2.0000      -1.412251       -38.4293
  11   2.0000      -1.142360       -31.0852
  12   2.0000      -1.006324       -27.3835
  13   2.0000      -0.965275       -26.2665
  14   2.0000      -0.826895       -22.5010
  15   2.0000      -0.736094       -20.0301
  16   2.0000      -0.679864       -18.5001
  17   2.0000      -0.667354       -18.1596
  18   2.0000      -0.606757       -16.5107
  19   2.0000      -0.602409       -16.3924
  20   2.0000      -0.581106       -15.8127
  21   2.0000      -0.553393       -15.0586
  22   2.0000      -0.522983       -14.2311
  23   2.0000      -0.500197       -13.6110
  24   2.0000      -0.463251       -12.6057
  25   2.0000      -0.402566       -10.9544
  26   2.0000      -0.369651       -10.0587
  27   0.0000       0.028822         0.7843
  28   0.0000       0.042064         1.1446
  29   0.0000       0.043263         1.1772
  30   0.0000       0.054173         1.4741
  31   0.0000       0.066174         1.8007

MULLIKEN ATOMIC CHARGES
-----------------------
   0 C :    0.060373
   1 H :   -0.045974
   2 H :    0.003908
   3 C :    0.323437
   4 H :   -0.038112
   5 H :   -0.159650
   6 C :    0.026766
   7 H :   -0.100880
   8 H :   -0.039774
   9 C :    0.224934
  10 O :   -0.721408
  11 S :    0.466379
Sum of atomic charges:    0.0000000

LOEWDIN ATOMIC CHARGES
----------------------
   0 C :   -0.022057
   1 H :    0.022566
   2 H :    0.026569
   3 C :   -0.078560
   4 H :    0.014921
   5 H :    0.015047
   6 C :   -0.254034
   7 H :   -0.032414
   8 H :   -0.032633
   9 C :   -0.539503
  10 O :   -0.006495
  11 S :    0.886592

  Mayer bond orders larger than 0.100000
B(  0-C ,  1-H ) :   0.8007 B(  0-C ,  2-H ) :   0.8993 B(  0-C ,  3-C ) :   1.2891
B(  0-C ,  9-C ) :   1.1431 B(  3-C ,  4-H ) :   0.8021 B(  3-C ,  5-H ) :   0.8362
B(  3-C ,  6-C ) :   1.2607 B(  3-C ,  9-C ) :  -0.1024 B(  4-H ,  5-H ) :  -0.1010
B(  6-C ,  7-H ) :   0.8959 B(  6-C ,  8-H ) :   0.8760 B(  6-C , 11-S ) :   1.0775
B(  9-C , 10-O ) :   1.4203 B(  9-C , 11-S ) :   1.0403

MP2 TOTAL ENERGY:     -628.300537178 Eh
FINAL SINGLE POINT ENERGY      -628.300537178188

DIPOLE MOMENT
-------------
                                X             Y             Z
Electronic contribution:     -5.08319      -4.81356      -0.30523
Nuclear contribution   :      6.79253       5.56346       0.46015
                        -----------------------------------------
Total Dipole Moment    :      1.70933       0.74990       0.15492
                        -----------------------------------------
Magnitude (a.u.)       :      1.87301
Magnitude (Debye)      :      4.76081

Rotational constants in cm-1:     0.147202     0.104084     0.064290
Rotational constants in MHz :  4413.001839  3120.355607  1927.354198

                             ****ORCA TERMINATED NORMALLY****
TOTAL RUN TIME: 0 days 0 hours 1 minutes 0 seconds 445 msec
