                         Program Version 5.0.3 -  RELEASE  -
|  1> !ri-mp2 aug-cc-pvdz aug-cc-pvdz/c tightscf
|  2> %pal nprocs 16 end
|  3> %maxcore 3800
|  4>
|  5> * xyz 0 1
|  6> C      0.188348    1.924575   -0.056731
|  7> C     -0.188348   -1.924575   -0.056731
|  8> C     -1.353289    5.221305    0.159863
|  9> C      1.353289   -5.221305    0.159863
| 10> C     -0.494217    0.577874   -0.004149
| 11> C      0.494217   -0.577874   -0.004149
| 12> C     -0.188348    4.271183    0.002037
| 13> C      0.188348   -4.271183    0.002037
| 14> O      1.374196    2.105516   -0.191402
| 15> O     -1.374196   -2.105516   -0.191402
| 16> O     -0.708999    2.921630    0.057961
| 17> O      0.708999   -2.921630    0.057961
| 18> H     -0.993955    6.250306    0.122700
| 19> H     -2.082017    5.084576   -0.638821
| 20> H     -1.856365    5.069159    1.114540
| 21> H      0.993955   -6.250306    0.122700
| 22> H      2.082017   -5.084576   -0.638821
| 23> H      1.856365   -5.069159    1.114540
| 24> H     -1.172064    0.507988   -0.856621
| 25> H     -1.139461    0.549023    0.874561
| 26> H      1.139461   -0.549023    0.874561
| 27> H      1.172064   -0.507988   -0.856621
| 28> H      0.548903    4.392492    0.795533
| 29> H      0.323949    4.406624   -0.950483
| 30> H     -0.548903   -4.392492    0.795533
| 31> H     -0.323949   -4.406624   -0.950483
| 32> *
| 33>
| 34>                          ****END OF INPUT****

CARTESIAN COORDINATES (ANGSTROEM)
---------------------------------
  C      0.188348    1.924575   -0.056731
  C     -0.188348   -1.924575   -0.056731
  C     -1.353289    5.221305    0.159863
  C      1.353289   -5.221305    0.159863
  C     -0.494217    0.577874   -0.004149
  C      0.494217   -0.577874   -0.004149
  C     -0.188348    4.271183    0.002037
  C      0.188348   -4.271183    0.002037
  O      1.374196    2.105516   -0.191402
  O     -1.374196   -2.105516   -0.191402
  O     -0.708999    2.921630    0.057961
  O      0.708999   -2.921630    0.057961
  H     -0.993955    6.250306    0.122700
  H     -2.082017    5.084576   -0.638821
  H     -1.856365    5.069159    1.114540
  H      0.993955   -6.250306    0.122700
  H      2.082017   -5.084576   -0.638821
  H      1.856365   -5.069159    1.114540
  H     -1.172064    0.507988   -0.856621
  H     -1.139461    0.549023    0.874561
  H      1.139461   -0.549023    0.874561
  H      1.172064   -0.507988   -0.856621
  H      0.548903    4.392492    0.795533
  H      0.323949    4.406624   -0.950483
  H     -0.548903   -4.392492    0.795533
  H     -0.323949   -4.406624   -0.950483

 Total Charge           Charge          ....    0
 Multiplicity           Mult            ....    1
 Number of Electrons    NEL             ....   94
 Basis Dimension        Dim             ....  402

ORBITAL ENERGIES
----------------

  NO   OCC          E(Eh)            E(eV)
   0   2.0000     -20.610086      -560.8290
   1   2.0000     -20.610086      -560.8290
   2   2.0000     -20.557001      -559.3844
   3   2.0000     -20.557000      -559.3844
   4   2.0000     -11.389340      -309.9197
   5   2.0000     -11.389339      -309.9197
   6   2.0000     -11.296694      -307.3987
   7   2.0000     -11.296694      -307.3987
   8   2.0000     -11.253687      -306.2284
   9   2.0000     -11.253062      -306.2114
  10   2.0000     -11.233033      -305.6664
  11   2.0000     -11.233033      -305.6664
  12   2.0000      -1.464140       -39.8413
  13   2.0000      -1.463378       -39.8205
  14   2.0000      -1.364761       -37.1370
  15   2.0000      -1.364387       -37.1268
  16   2.0000      -1.093332       -29.7511
  17   2.0000      -1.051926       -28.6244
  18   2.0000      -1.035624       -28.1808
  19   2.0000      -0.950635       -25.8681
  20   2.0000      -0.875565       -23.8253
  21   2.0000      -0.847959       -23.0741
  22   2.0000      -0.786127       -21.3916
  23   2.0000      -0.769281       -20.9332
  24   2.0000      -0.720177       -19.5970
  25   2.0000      -0.693443       -18.8695
  26   2.0000      -0.686171       -18.6717
  27   2.0000      -0.683250       -18.5922
  28   2.0000      -0.668165       -18.1817
  29   2.0000      -0.656772       -17.8717
  30   2.0000      -0.642064       -17.4715
  31   2.0000      -0.594510       -16.1774
  32   2.0000      -0.577091       -15.7034
  33   2.0000      -0.566787       -15.4231
  34   2.0000      -0.563440       -15.3320
  35   2.0000      -0.552643       -15.0382
  36   2.0000      -0.551252       -15.0003
  37   2.0000      -0.526746       -14.3335
  38   2.0000      -0.523453       -14.2439
  39   2.0000      -0.513503       -13.9731
  40   2.0000      -0.511010       -13.9053
  41   2.0000      -0.505520       -13.7559
  42   2.0000      -0.496645       -13.5144
  43   2.0000      -0.459904       -12.5146
  44   2.0000      -0.459352       -12.4996
  45   2.0000      -0.449896       -12.2423
  46   2.0000      -0.447361       -12.1733
  47   0.0000       0.034574         0.9408
  48   0.0000       0.036913         1.0045
  49   0.0000       0.045438         1.2364
  50   0.0000       0.047710         1.2983
  51   0.0000       0.047809         1.3009

MULLIKEN ATOMIC CHARGES
-----------------------
   0 C :    0.734595
   1 C :    0.734595
   2 C :    0.293477
   3 C :    0.293477
   4 C :    0.459134
   5 C :    0.459134
   6 C :    0.729725
   7 C :    0.729725
   8 O :   -0.718507
   9 O :   -0.718507
  10 O :   -0.823238
  11 O :   -0.823238
  12 H :   -0.044237
  13 H :   -0.035512
  14 H :   -0.035733
  15 H :   -0.044237
  16 H :   -0.035512
  17 H :   -0.035733
  18 H :   -0.098249
  19 H :   -0.150679
  20 H :   -0.150679
  21 H :   -0.098249
  22 H :   -0.157418
  23 H :   -0.153357
  24 H :   -0.157418
  25 H :   -0.153357
Sum of atomic charges:    0.0000000

LOEWDIN ATOMIC CHARGES
----------------------
   0 C :   -0.325554
   1 C :   -0.325554
   2 C :    0.140932
   3 C :    0.140932
   4 C :    0.044019
   5 C :    0.044019
   6 C :   -0.027231
   7 C :   -0.027231
   8 O :    0.051318
   9 O :    0.051318
  10 O :    0.073923
  11 O :    0.073923
  12 H :   -0.013813
  13 H :   -0.014713
  14 H :   -0.014851
  15 H :   -0.013813
  16 H :   -0.014713
  17 H :   -0.014851
  18 H :    0.032441
  19 H :    0.032295
  20 H :    0.032295
  21 H :    0.032441
  22 H :    0.010321
  23 H :    0.010915
  24 H :    0.010321
  25 H :    0.010915

  Mayer bond orders larger than 0.100000
B(  0-C ,  4-C ) :   0.9931 B(  0-C ,  8-O ) :   1.6606 B(  0-C , 10-O ) :   0.5765
B(  0-C , 21-H ) :   0.1099 B(  1-C ,  5-C ) :   0.9931 B(  1-C ,  9-O ) :   1.6606
B(  1-C , 11-O ) :   0.5765 B(  1-C , 18-H ) :   0.1099 B(  2-C ,  6-C ) :   1.2513
B(  2-C , 12-H ) :   0.9162 B(  2-C , 13-H ) :   0.9468 B(  2-C , 14-H ) :   0.9487
B(  3-C ,  7-C ) :   1.2513 B(  3-C , 15-H ) :   0.9162 B(  3-C , 16-H ) :   0.9468
B(  3-C , 17-H ) :   0.9487 B(  4-C ,  5-C ) :   1.1345 B(  4-C , 18-H ) :   0.9226
B(  4-C , 19-H ) :   0.9266 B(  4-C , 20-H ) :  -0.1307 B(  4-C , 21-H ) :  -0.1940
B(  5-C , 18-H ) :  -0.1940 B(  5-C , 19-H ) :  -0.1307 B(  5-C , 20-H ) :   0.9266
B(  5-C , 21-H ) :   0.9226 B(  6-C , 10-O ) :   0.6534 B(  6-C , 22-H ) :   0.8645
B(  6-C , 23-H ) :   0.8655 B(  7-C , 11-O ) :   0.6534 B(  7-C , 24-H ) :   0.8645
B(  7-C , 25-H ) :   0.8655

MP2 TOTAL ENERGY:     -612.591975225 Eh
FINAL SINGLE POINT ENERGY      -612.591975225465

DIPOLE MOMENT
-------------
                                X             Y             Z
Electronic contribution:     -0.00000       0.00000      -0.76322
Nuclear contribution   :      0.00000       0.00000       0.93097
                        -----------------------------------------
Total Dipole Moment    :     -0.00000       0.00000       0.16774
                        -----------------------------------------
Magnitude (a.u.)       :      0.16774
Magnitude (Debye)      :      0.42637

Rotational constants in cm-1:     0.121783     0.008857     0.008350
Rotational constants in MHz :  3650.959655   265.516775   250.321773

                             ****ORCA TERMINATED NORMALLY****
TOTAL RUN TIME: 0 days 0 hours 2 minutes 43 seconds 516 msec
