                         Program Version 5.0.3 -  RELEASE  -
|  1> !ri-mp2 aug-cc-pvdz aug-cc-pvdz/c tightscf
|  2> %pal nprocs 16 end
|  3>
|  4> * xyz 0 1
|  5> F     0.000000     1.105295   -0.290293
|  6> F     0.000000    -1.105295   -0.290293
|  7> C     0.000000     0.000000    0.502981
|  8> H     0.909963     0.000000    1.103692
|  9> H    -0.909963     0.000000    1.103692
| 10> *
| 11>
| 12>                          ****END OF INPUT****

CARTESIAN COORDINATES (ANGSTROEM)
---------------------------------
  F      0.000000    1.105295   -0.290293
  F      0.000000   -1.105295   -0.290293
  C      0.000000    0.000000    0.502981
  H      0.909963    0.000000    1.103692
  H     -0.909963    0.000000    1.103692

 Total Charge           Charge          ....    0
 Multiplicity           Mult            ....    1
 Number of Electrons    NEL             ....   26
 Basis Dimension        Dim             ....   87

ORBITAL ENERGIES
----------------

  NO   OCC          E(Eh)            E(eV)
   0   2.0000     -26.326088      -716.3693
   1   2.0000     -26.326073      -716.3689
   2   2.0000     -11.419007      -310.7270
   3   2.0000      -1.666069       -45.3360
   4   2.0000      -1.606902       -43.7260
   5   2.0000      -0.974965       -26.5302
   6   2.0000      -0.778833       -21.1931
   7   2.0000      -0.770580       -20.9686
   8   2.0000      -0.756693       -20.5907
   9   2.0000      -0.667941       -18.1756
  10   2.0000      -0.633709       -17.2441
  11   2.0000      -0.622574       -16.9411
  12   2.0000      -0.538419       -14.6511
  13   0.0000       0.034059         0.9268
  14   0.0000       0.051701         1.4068
  15   0.0000       0.086402         2.3511
  16   0.0000       0.089594         2.4380
  17   0.0000       0.148339         4.0365

MULLIKEN ATOMIC CHARGES
-----------------------
   0 F :   -0.534411
   1 F :   -0.534411
   2 C :    1.342582
   3 H :   -0.136880
   4 H :   -0.136880
Sum of atomic charges:   -0.0000000

LOEWDIN ATOMIC CHARGES
----------------------
   0 F :    0.001776
   1 F :    0.001776
   2 C :    0.017428
   3 H :   -0.010490
   4 H :   -0.010490

  Mayer bond orders larger than 0.100000
B(  0-F ,  2-C ) :   0.5405 B(  1-F ,  2-C ) :   0.5405 B(  2-C ,  3-H ) :   1.0248
B(  2-C ,  4-H ) :   1.0248

MP2 TOTAL ENERGY:     -238.484442438 Eh
FINAL SINGLE POINT ENERGY      -238.484442437831

DIPOLE MOMENT
-------------
                                X             Y             Z
Electronic contribution:     -0.00000      -0.00000      -1.73377
Nuclear contribution   :      0.00000       0.00000       2.61009
                        -----------------------------------------
Total Dipole Moment    :     -0.00000      -0.00000       0.87632
                        -----------------------------------------
Magnitude (a.u.)       :      0.87632
Magnitude (Debye)      :      2.22743

Rotational constants in cm-1:     1.649662     0.350557     0.306679
Rotational constants in MHz : 49455.616342 10509.438020  9194.004208

                             ****ORCA TERMINATED NORMALLY****
TOTAL RUN TIME: 0 days 0 hours 0 minutes 39 seconds 972 msec
