                         Program Version 5.0.3 -  RELEASE  -
|  1> !ri-mp2 aug-cc-pvdz aug-cc-pvdz/c tightscf
|  2> %pal nprocs 16 end
|  3>
|  4> * xyz 0 1
|  5> C     0.000000    0.000000     0.342340
|  6> F     0.000000    1.079325     1.126414
|  7> F     0.000000   -1.079325     1.126414
|  8> Cl    1.472567    0.000000    -0.656750
|  9> Cl   -1.472567    0.000000    -0.656750
| 10> *
| 11>
| 12>                          ****END OF INPUT****

CARTESIAN COORDINATES (ANGSTROEM)
---------------------------------
  C      0.000000    0.000000    0.342340
  F      0.000000    1.079325    1.126414
  F      0.000000   -1.079325    1.126414
  Cl     1.472567    0.000000   -0.656750
  Cl    -1.472567    0.000000   -0.656750

 Total Charge           Charge          ....    0
 Multiplicity           Mult            ....    1
 Number of Electrons    NEL             ....   58
 Basis Dimension        Dim             ....  123

ORBITAL ENERGIES
----------------

  NO   OCC          E(Eh)            E(eV)
   0   2.0000    -104.881833     -2853.9798
   1   2.0000    -104.881832     -2853.9797
   2   2.0000     -26.384581      -717.9610
   3   2.0000     -26.384560      -717.9604
   4   2.0000     -11.567611      -314.7707
   5   2.0000     -10.608596      -288.6746
   6   2.0000     -10.608565      -288.6737
   7   2.0000      -8.076305      -219.7674
   8   2.0000      -8.076302      -219.7674
   9   2.0000      -8.072483      -219.6634
  10   2.0000      -8.072482      -219.6634
  11   2.0000      -8.072476      -219.6632
  12   2.0000      -8.072475      -219.6632
  13   2.0000      -1.742517       -47.4163
  14   2.0000      -1.672419       -45.5088
  15   2.0000      -1.211003       -32.9531
  16   2.0000      -1.141907       -31.0729
  17   2.0000      -0.948176       -25.8012
  18   2.0000      -0.834428       -22.7059
  19   2.0000      -0.802524       -21.8378
  20   2.0000      -0.800887       -21.7932
  21   2.0000      -0.724968       -19.7274
  22   2.0000      -0.688444       -18.7335
  23   2.0000      -0.660909       -17.9842
  24   2.0000      -0.568518       -15.4702
  25   2.0000      -0.526088       -14.3156
  26   2.0000      -0.513826       -13.9819
  27   2.0000      -0.495285       -13.4774
  28   2.0000      -0.477774       -13.0009
  29   0.0000       0.063080         1.7165
  30   0.0000       0.080428         2.1886
  31   0.0000       0.092644         2.5210
  32   0.0000       0.106828         2.9069
  33   0.0000       0.107286         2.9194

MULLIKEN ATOMIC CHARGES
-----------------------
   0 C :    0.846900
   1 F :   -0.439760
   2 F :   -0.439760
   3 Cl:    0.016310
   4 Cl:    0.016310
Sum of atomic charges:   -0.0000000

LOEWDIN ATOMIC CHARGES
----------------------
   0 C :   -1.020957
   1 F :    0.005755
   2 F :    0.005755
   3 Cl:    0.504724
   4 Cl:    0.504724

  Mayer bond orders larger than 0.100000
B(  0-C ,  1-F ) :   0.5207 B(  0-C ,  2-F ) :   0.5207 B(  0-C ,  3-Cl) :   1.1627
B(  0-C ,  4-Cl) :   1.1627

MP2 TOTAL ENERGY:    -1156.604762141 Eh
FINAL SINGLE POINT ENERGY     -1156.604762141193

DIPOLE MOMENT
-------------
                                X             Y             Z
Electronic contribution:     -0.00000      -0.00000       0.08995
Nuclear contribution   :      0.00000       0.00000      -0.31144
                        -----------------------------------------
Total Dipole Moment    :     -0.00000      -0.00000      -0.22149
                        -----------------------------------------
Magnitude (a.u.)       :      0.22149
Magnitude (Debye)      :      0.56298

Rotational constants in cm-1:     0.135443     0.085131     0.072055
Rotational constants in MHz :  4060.489765  2552.169977  2160.148421

                             ****ORCA TERMINATED NORMALLY****
TOTAL RUN TIME: 0 days 0 hours 0 minutes 30 seconds 383 msec
