                         Program Version 5.0.3 -  RELEASE  -
|  1> !ri-mp2 aug-cc-pvdz aug-cc-pvdz/c tightscf
|  2> %pal nprocs 16 end
|  3> %maxcore 3800
|  4>
|  5> * xyz 0 1
|  6> C     -4.175993    0.207367   -0.005507
|  7> C     -5.448491   -0.614286    0.019396
|  8> C      6.054156    0.386362    0.006408
|  9> C     -2.871799   -0.571984   -0.012818
| 10> C      4.792505   -0.475092   -0.009332
| 11> C     -1.613136    0.286980    0.008336
| 12> C      3.501105    0.343620    0.008693
| 13> C     -0.327445   -0.540456   -0.008111
| 14> C      2.232016   -0.508852   -0.007095
| 15> C      0.941983    0.311836    0.009646
| 16> O     -4.204668    1.417596   -0.016635
| 17> H     -5.462714   -1.326538   -0.807857
| 18> H     -5.497683   -1.198360    0.941164
| 19> H     -6.314776    0.039007   -0.041572
| 20> H      6.089348    1.049308   -0.860580
| 21> H      6.956755   -0.226164   -0.008139
| 22> H      6.092680    1.012377    0.900299
| 23> H     -2.890569   -1.259757    0.840286
| 24> H     -2.883947   -1.221971   -0.895528
| 25> H      4.801833   -1.150837    0.851256
| 26> H      4.799527   -1.115634   -0.896480
| 27> H     -1.631210    0.927231    0.893082
| 28> H     -1.629208    0.965732   -0.846946
| 29> H      3.492536    1.020304   -0.852403
| 30> H      3.494509    0.985345    0.896184
| 31> H     -0.318063   -1.217877    0.852696
| 32> H     -0.317710   -1.181637   -0.896260
| 33> H      2.240008   -1.150711   -0.894489
| 34> H      2.241093   -1.184885    0.854517
| 35> H      0.932828    0.988464   -0.851005
| 36> H      0.932699    0.952874    0.897157
| 37> *
| 38>
| 39>                          ****END OF INPUT****

CARTESIAN COORDINATES (ANGSTROEM)
---------------------------------
  C     -4.175993    0.207367   -0.005507
  C     -5.448491   -0.614286    0.019396
  C      6.054156    0.386362    0.006408
  C     -2.871799   -0.571984   -0.012818
  C      4.792505   -0.475092   -0.009332
  C     -1.613136    0.286980    0.008336
  C      3.501105    0.343620    0.008693
  C     -0.327445   -0.540456   -0.008111
  C      2.232016   -0.508852   -0.007095
  C      0.941983    0.311836    0.009646
  O     -4.204668    1.417596   -0.016635
  H     -5.462714   -1.326538   -0.807857
  H     -5.497683   -1.198360    0.941164
  H     -6.314776    0.039007   -0.041572
  H      6.089348    1.049308   -0.860580
  H      6.956755   -0.226164   -0.008139
  H      6.092680    1.012377    0.900299
  H     -2.890569   -1.259757    0.840286
  H     -2.883947   -1.221971   -0.895528
  H      4.801833   -1.150837    0.851256
  H      4.799527   -1.115634   -0.896480
  H     -1.631210    0.927231    0.893082
  H     -1.629208    0.965732   -0.846946
  H      3.492536    1.020304   -0.852403
  H      3.494509    0.985345    0.896184
  H     -0.318063   -1.217877    0.852696
  H     -0.317710   -1.181637   -0.896260
  H      2.240008   -1.150711   -0.894489
  H      2.241093   -1.184885    0.854517
  H      0.932828    0.988464   -0.851005
  H      0.932699    0.952874    0.897157

 Total Charge           Charge          ....    0
 Multiplicity           Mult            ....    1
 Number of Electrons    NEL             ....   88
 Basis Dimension        Dim             ....  433

ORBITAL ENERGIES
----------------

  NO   OCC          E(Eh)            E(eV)
   0   2.0000     -20.553196      -559.2809
   1   2.0000     -11.335502      -308.4547
   2   2.0000     -11.241310      -305.8916
   3   2.0000     -11.239579      -305.8445
   4   2.0000     -11.224358      -305.4303
   5   2.0000     -11.223758      -305.4140
   6   2.0000     -11.221115      -305.3421
   7   2.0000     -11.220484      -305.3249
   8   2.0000     -11.219779      -305.3057
   9   2.0000     -11.218687      -305.2760
  10   2.0000     -11.216103      -305.2057
  11   2.0000      -1.389995       -37.8237
  12   2.0000      -1.097952       -29.8768
  13   2.0000      -1.073964       -29.2240
  14   2.0000      -1.037865       -28.2417
  15   2.0000      -1.005162       -27.3519
  16   2.0000      -0.959222       -26.1018
  17   2.0000      -0.894074       -24.3290
  18   2.0000      -0.828555       -22.5461
  19   2.0000      -0.791179       -21.5291
  20   2.0000      -0.786748       -21.4085
  21   2.0000      -0.732959       -19.9448
  22   2.0000      -0.661858       -18.0101
  23   2.0000      -0.650342       -17.6967
  24   2.0000      -0.641949       -17.4683
  25   2.0000      -0.624406       -16.9909
  26   2.0000      -0.612626       -16.6704
  27   2.0000      -0.587608       -15.9896
  28   2.0000      -0.583347       -15.8737
  29   2.0000      -0.572040       -15.5660
  30   2.0000      -0.554613       -15.0918
  31   2.0000      -0.549996       -14.9662
  32   2.0000      -0.538634       -14.6570
  33   2.0000      -0.510772       -13.8988
  34   2.0000      -0.508312       -13.8319
  35   2.0000      -0.497076       -13.5261
  36   2.0000      -0.487257       -13.2589
  37   2.0000      -0.475618       -12.9422
  38   2.0000      -0.472243       -12.8504
  39   2.0000      -0.462148       -12.5757
  40   2.0000      -0.457970       -12.4620
  41   2.0000      -0.457847       -12.4586
  42   2.0000      -0.439613       -11.9625
  43   2.0000      -0.404157       -10.9977
  44   0.0000       0.030958         0.8424
  45   0.0000       0.036406         0.9907
  46   0.0000       0.042638         1.1602
  47   0.0000       0.043912         1.1949
  48   0.0000       0.046864         1.2752

MULLIKEN ATOMIC CHARGES
-----------------------
   0 C :    0.272777
   1 C :    0.478390
   2 C :    0.591758
   3 C :    0.137504
   4 C :    0.530810
   5 C :    0.501282
   6 C :    0.284594
   7 C :    0.473635
   8 C :    0.366786
   9 C :    0.342670
  10 O :   -0.816241
  11 H :    0.027682
  12 H :    0.041642
  13 H :   -0.080339
  14 H :   -0.095139
  15 H :   -0.078849
  16 H :   -0.094961
  17 H :   -0.075442
  18 H :   -0.062893
  19 H :   -0.191750
  20 H :   -0.190940
  21 H :   -0.222322
  22 H :   -0.215624
  23 H :   -0.228221
  24 H :   -0.229677
  25 H :   -0.249678
  26 H :   -0.243859
  27 H :   -0.252992
  28 H :   -0.249722
  29 H :   -0.236695
  30 H :   -0.234189
Sum of atomic charges:    0.0000000

LOEWDIN ATOMIC CHARGES
----------------------
   0 C :   -0.301777
   1 C :    0.195317
   2 C :    0.129969
   3 C :    0.010615
   4 C :   -0.073427
   5 C :   -0.024658
   6 C :   -0.041918
   7 C :   -0.032714
   8 C :   -0.035081
   9 C :   -0.031616
  10 O :    0.046864
  11 H :   -0.010064
  12 H :   -0.008488
  13 H :   -0.009686
  14 H :   -0.020360
  15 H :   -0.022462
  16 H :   -0.020353
  17 H :    0.025234
  18 H :    0.025507
  19 H :    0.010513
  20 H :    0.010526
  21 H :    0.021977
  22 H :    0.021474
  23 H :    0.016363
  24 H :    0.016388
  25 H :    0.016235
  26 H :    0.016254
  27 H :    0.016490
  28 H :    0.016486
  29 H :    0.018195
  30 H :    0.018197

  Mayer bond orders larger than 0.100000
B(  0-C ,  1-C ) :   1.0353 B(  0-C ,  3-C ) :   1.1458 B(  0-C ,  5-C ) :  -0.1440
B(  0-C , 10-O ) :   1.3484 B(  0-C , 13-H ) :   0.1254 B(  1-C , 11-H ) :   0.9278
B(  1-C , 12-H ) :   0.9185 B(  1-C , 13-H ) :   0.8373 B(  2-C ,  4-C ) :   1.1878
B(  2-C , 14-H ) :   0.9009 B(  2-C , 15-H ) :   0.9136 B(  2-C , 16-H ) :   0.9008
B(  3-C ,  5-C ) :   1.2755 B(  3-C ,  7-C ) :  -0.1748 B(  3-C , 17-H ) :   0.8458
B(  3-C , 18-H ) :   0.8731 B(  4-C ,  6-C ) :   1.2623 B(  4-C ,  8-C ) :  -0.1667
B(  4-C , 19-H ) :   0.6944 B(  4-C , 20-H ) :   0.6949 B(  5-C ,  7-C ) :   1.4270
B(  5-C ,  9-C ) :  -0.1739 B(  5-C , 21-H ) :   0.7209 B(  5-C , 22-H ) :   0.7178
B(  6-C ,  8-C ) :   1.3471 B(  6-C ,  9-C ) :  -0.1392 B(  6-C , 23-H ) :   0.7049
B(  6-C , 24-H ) :   0.7035 B(  7-C ,  8-C ) :  -0.1573 B(  7-C ,  9-C ) :   1.4570
B(  7-C , 25-H ) :   0.6498 B(  7-C , 26-H ) :   0.6631 B(  8-C ,  9-C ) :   1.5084
B(  8-C , 27-H ) :   0.6932 B(  8-C , 28-H ) :   0.6922 B(  9-C , 29-H ) :   0.6586
B(  9-C , 30-H ) :   0.6549

MP2 TOTAL ENERGY:     -466.928709957 Eh
FINAL SINGLE POINT ENERGY      -466.928709957093

DIPOLE MOMENT
-------------
                                X             Y             Z
Electronic contribution:    -15.82135       3.27098      -0.06602
Nuclear contribution   :     15.92924      -4.51742       0.07945
                        -----------------------------------------
Total Dipole Moment    :      0.10788      -1.24645       0.01343
                        -----------------------------------------
Magnitude (a.u.)       :      1.25118
Magnitude (Debye)      :      3.18024

Rotational constants in cm-1:     0.183460     0.007470     0.007264
Rotational constants in MHz :  5499.999583   223.956673   217.769924

                             ****ORCA TERMINATED NORMALLY****
TOTAL RUN TIME: 0 days 0 hours 3 minutes 3 seconds 63 msec
