                         Program Version 5.0.3 -  RELEASE  -
|  1> !ri-mp2 aug-cc-pvdz aug-cc-pvdz/c tightscf
|  2> %pal nprocs 16 end
|  3>
|  4> * xyz 0 1
|  5> S      1.785669    1.142219    0.000055
|  6> S      1.219674   -1.735364   -0.000051
|  7> N     -0.725832    0.098897   -0.000008
|  8> C      0.657309   -0.199787   -0.000005
|  9> C     -1.229803    1.357918   -0.000005
| 10> C     -1.636455   -0.913125   -0.000051
| 11> C     -1.716879    2.453129   -0.000088
| 12> C     -2.495073   -1.745684    0.000145
| 13> H      0.900322    2.162085    0.000064
| 14> H     -2.142646    3.424997   -0.000013
| 15> H     -3.236933   -2.503747   -0.000019
| 16> *
| 17>
| 18>                          ****END OF INPUT****

CARTESIAN COORDINATES (ANGSTROEM)
---------------------------------
  S      1.785669    1.142219    0.000055
  S      1.219674   -1.735364   -0.000051
  N     -0.725832    0.098897   -0.000008
  C      0.657309   -0.199787   -0.000005
  C     -1.229803    1.357918   -0.000005
  C     -1.636455   -0.913125   -0.000051
  C     -1.716879    2.453129   -0.000088
  C     -2.495073   -1.745684    0.000145
  H      0.900322    2.162085    0.000064
  H     -2.142646    3.424997   -0.000013
  H     -3.236933   -2.503747   -0.000019

 Total Charge           Charge          ....    0
 Multiplicity           Mult            ....    1
 Number of Electrons    NEL             ....   72
 Basis Dimension        Dim             ....  219

ORBITAL ENERGIES
----------------

  NO   OCC          E(Eh)            E(eV)
   0   2.0000     -92.009435     -2503.7040
   1   2.0000     -91.938513     -2501.7741
   2   2.0000     -15.703340      -427.3096
   3   2.0000     -11.413374      -310.5737
   4   2.0000     -11.318683      -307.9970
   5   2.0000     -11.300666      -307.5068
   6   2.0000     -11.275106      -306.8112
   7   2.0000     -11.258620      -306.3626
   8   2.0000      -9.011630      -245.2189
   9   2.0000      -8.941989      -243.3239
  10   2.0000      -6.693482      -182.1389
  11   2.0000      -6.691931      -182.0967
  12   2.0000      -6.689926      -182.0421
  13   2.0000      -6.624120      -180.2515
  14   2.0000      -6.621611      -180.1832
  15   2.0000      -6.620147      -180.1434
  16   2.0000      -1.365227       -37.1497
  17   2.0000      -1.120497       -30.4903
  18   2.0000      -1.076672       -29.2977
  19   2.0000      -1.031840       -28.0778
  20   2.0000      -0.988458       -26.8973
  21   2.0000      -0.860464       -23.4144
  22   2.0000      -0.852864       -23.2076
  23   2.0000      -0.737156       -20.0590
  24   2.0000      -0.721186       -19.6245
  25   2.0000      -0.684509       -18.6264
  26   2.0000      -0.653933       -17.7944
  27   2.0000      -0.542715       -14.7680
  28   2.0000      -0.528743       -14.3878
  29   2.0000      -0.476261       -12.9597
  30   2.0000      -0.454974       -12.3805
  31   2.0000      -0.443325       -12.0635
  32   2.0000      -0.421814       -11.4781
  33   2.0000      -0.377188       -10.2638
  34   2.0000      -0.350860        -9.5474
  35   2.0000      -0.343861        -9.3569
  36   0.0000       0.027084         0.7370
  37   0.0000       0.035918         0.9774
  38   0.0000       0.048150         1.3102
  39   0.0000       0.049260         1.3404
  40   0.0000       0.079823         2.1721

MULLIKEN ATOMIC CHARGES
-----------------------
   0 S :    0.237439
   1 S :   -0.017588
   2 N :   -0.630322
   3 C :    0.157877
   4 C :   -0.635530
   5 C :   -0.664559
   6 C :    1.044582
   7 C :    1.201396
   8 H :    0.127262
   9 H :   -0.392702
  10 H :   -0.427856
Sum of atomic charges:   -0.0000000

LOEWDIN ATOMIC CHARGES
----------------------
   0 S :    0.839700
   1 S :    0.587569
   2 N :   -0.241366
   3 C :   -0.994111
   4 C :   -0.149999
   5 C :   -0.152291
   6 C :    0.260361
   7 C :    0.255081
   8 H :   -0.225423
   9 H :   -0.088022
  10 H :   -0.091500

  Mayer bond orders larger than 0.100000
B(  0-S ,  3-C ) :   1.0711 B(  0-S ,  4-C ) :   0.3128 B(  0-S ,  8-H ) :   0.8950
B(  1-S ,  2-N ) :  -0.1796 B(  1-S ,  3-C ) :   1.9089 B(  1-S ,  5-C ) :   0.3023
B(  1-S ,  7-C ) :  -0.1149 B(  2-N ,  3-C ) :   0.8530 B(  2-N ,  4-C ) :   1.3443
B(  2-N ,  5-C ) :   1.3033 B(  2-N ,  6-C ) :  -0.2822 B(  2-N ,  7-C ) :  -0.2541
B(  3-C ,  4-C ) :  -0.1320 B(  4-C ,  5-C ) :   0.2632 B(  4-C ,  6-C ) :   2.9224
B(  4-C ,  8-H ) :   0.1292 B(  4-C ,  9-H ) :   0.6413 B(  5-C ,  7-C ) :   2.8848
B(  5-C , 10-H ) :   0.7710 B(  6-C ,  7-C ) :   0.2381 B(  7-C , 10-H ) :  -0.2393

MP2 TOTAL ENERGY:    -1041.547573911 Eh
FINAL SINGLE POINT ENERGY     -1041.547573910620

DIPOLE MOMENT
-------------
                                X             Y             Z
Electronic contribution:      3.48900      -1.73922      -0.00004
Nuclear contribution   :     -4.38230       2.97074       0.00003
                        -----------------------------------------
Total Dipole Moment    :     -0.89330       1.23152      -0.00001
                        -----------------------------------------
Magnitude (a.u.)       :      1.52139
Magnitude (Debye)      :      3.86706

Rotational constants in cm-1:     0.055702     0.049721     0.026271
Rotational constants in MHz :  1669.908751  1490.605498   787.585492

                             ****ORCA TERMINATED NORMALLY****
TOTAL RUN TIME: 0 days 0 hours 0 minutes 56 seconds 183 msec
