                         Program Version 5.0.3 -  RELEASE  -
|  1> !ri-mp2 aug-cc-pvdz aug-cc-pvdz/c tightscf
|  2> %pal nprocs 16 end
|  3>
|  4> * xyz 0 1
|  5> C      0.000000    2.489253    0.832738
|  6> C      0.000000   -2.489253    0.832738
|  7> C      0.000000    2.874720   -0.476647
|  8> C      0.000000   -2.874720   -0.476647
|  9> C      0.000000    1.073622    0.774661
| 10> C      0.000000   -1.073622    0.774661
| 11> C      0.000000    0.706341   -0.549010
| 12> C      0.000000   -0.706341   -0.549010
| 13> O      0.000000    1.799140   -1.343744
| 14> O      0.000000   -1.799140   -1.343744
| 15> O      0.000000    0.000000    1.629823
| 16> H      0.000000    3.143332    1.686236
| 17> H      0.000000   -3.143332    1.686236
| 18> H      0.000000    3.840540   -0.946024
| 19> H      0.000000   -3.840540   -0.946024
| 20> *
| 21>
| 22>                          ****END OF INPUT****

CARTESIAN COORDINATES (ANGSTROEM)
---------------------------------
  C      0.000000    2.489253    0.832738
  C      0.000000   -2.489253    0.832738
  C      0.000000    2.874720   -0.476647
  C      0.000000   -2.874720   -0.476647
  C      0.000000    1.073622    0.774661
  C      0.000000   -1.073622    0.774661
  C      0.000000    0.706341   -0.549010
  C      0.000000   -0.706341   -0.549010
  O      0.000000    1.799140   -1.343744
  O      0.000000   -1.799140   -1.343744
  O      0.000000    0.000000    1.629823
  H      0.000000    3.143332    1.686236
  H      0.000000   -3.143332    1.686236
  H      0.000000    3.840540   -0.946024
  H      0.000000   -3.840540   -0.946024

 Total Charge           Charge          ....    0
 Multiplicity           Mult            ....    1
 Number of Electrons    NEL             ....   76
 Basis Dimension        Dim             ....  289

ORBITAL ENERGIES
----------------

  NO   OCC          E(Eh)            E(eV)
   0   2.0000     -20.648664      -561.8787
   1   2.0000     -20.648661      -561.8786
   2   2.0000     -20.645742      -561.7992
   3   2.0000     -11.312354      -307.8248
   4   2.0000     -11.312352      -307.8248
   5   2.0000     -11.307438      -307.6910
   6   2.0000     -11.306463      -307.6645
   7   2.0000     -11.299788      -307.4829
   8   2.0000     -11.299761      -307.4821
   9   2.0000     -11.260316      -306.4088
  10   2.0000     -11.260313      -306.4087
  11   2.0000      -1.487260       -40.4704
  12   2.0000      -1.471263       -40.0351
  13   2.0000      -1.455764       -39.6134
  14   2.0000      -1.111899       -30.2563
  15   2.0000      -1.108619       -30.1671
  16   2.0000      -1.073174       -29.2025
  17   2.0000      -0.979690       -26.6587
  18   2.0000      -0.865780       -23.5591
  19   2.0000      -0.835393       -22.7322
  20   2.0000      -0.802602       -21.8399
  21   2.0000      -0.790152       -21.5011
  22   2.0000      -0.727006       -19.7828
  23   2.0000      -0.700495       -19.0614
  24   2.0000      -0.688233       -18.7278
  25   2.0000      -0.654263       -17.8034
  26   2.0000      -0.638717       -17.3804
  27   2.0000      -0.628316       -17.0974
  28   2.0000      -0.621431       -16.9100
  29   2.0000      -0.612119       -16.6566
  30   2.0000      -0.593614       -16.1531
  31   2.0000      -0.588323       -16.0091
  32   2.0000      -0.539772       -14.6880
  33   2.0000      -0.518905       -14.1201
  34   2.0000      -0.419059       -11.4032
  35   2.0000      -0.389121       -10.5885
  36   2.0000      -0.383622       -10.4389
  37   2.0000      -0.269645        -7.3374
  38   0.0000       0.034252         0.9320
  39   0.0000       0.035130         0.9559
  40   0.0000       0.044387         1.2078
  41   0.0000       0.050257         1.3676
  42   0.0000       0.080479         2.1899

MULLIKEN ATOMIC CHARGES
-----------------------
   0 C :    1.209586
   1 C :    1.209586
   2 C :    0.628280
   3 C :    0.628280
   4 C :   -0.198422
   5 C :   -0.198422
   6 C :    0.630561
   7 C :    0.630561
   8 O :   -1.002220
   9 O :   -1.002220
  10 O :   -1.225732
  11 H :   -0.310478
  12 H :   -0.310478
  13 H :   -0.344441
  14 H :   -0.344441
Sum of atomic charges:    0.0000000

LOEWDIN ATOMIC CHARGES
----------------------
   0 C :    0.069587
   1 C :    0.069587
   2 C :    0.039249
   3 C :    0.039249
   4 C :   -0.165899
   5 C :   -0.165899
   6 C :   -0.118417
   7 C :   -0.118417
   8 O :    0.114391
   9 O :    0.114391
  10 O :    0.144322
  11 H :   -0.000675
  12 H :   -0.000675
  13 H :   -0.010398
  14 H :   -0.010398

  Mayer bond orders larger than 0.100000
B(  0-C ,  1-C ) :   0.1453 B(  0-C ,  2-C ) :   1.5447 B(  0-C ,  4-C ) :   1.1857
B(  0-C ,  5-C ) :  -0.1271 B(  0-C ,  6-C ) :  -0.1060 B(  0-C ,  8-O ) :   0.1467
B(  0-C , 11-H ) :   0.1601 B(  0-C , 13-H ) :  -0.1403 B(  1-C ,  3-C ) :   1.5447
B(  1-C ,  4-C ) :  -0.1271 B(  1-C ,  5-C ) :   1.1857 B(  1-C ,  7-C ) :  -0.1060
B(  1-C ,  9-O ) :   0.1467 B(  1-C , 12-H ) :   0.1601 B(  1-C , 14-H ) :  -0.1403
B(  2-C ,  4-C ) :   0.1652 B(  2-C ,  6-C ) :   0.1291 B(  2-C ,  8-O ) :   0.5731
B(  2-C , 13-H ) :   0.8925 B(  3-C ,  5-C ) :   0.1652 B(  3-C ,  7-C ) :   0.1291
B(  3-C ,  9-O ) :   0.5731 B(  3-C , 14-H ) :   0.8925 B(  4-C ,  5-C ) :   0.2589
B(  4-C ,  6-C ) :   1.6861 B(  4-C ,  8-O ) :   0.2185 B(  4-C , 10-O ) :   0.2928
B(  4-C , 11-H ) :   0.6914 B(  5-C ,  7-C ) :   1.6861 B(  5-C ,  9-O ) :   0.2185
B(  5-C , 10-O ) :   0.2928 B(  5-C , 12-H ) :   0.6914 B(  6-C ,  7-C ) :   0.7783
B(  6-C ,  9-O ) :   0.2695 B(  6-C , 10-O ) :   0.2356 B(  6-C , 11-H ) :  -0.1895
B(  6-C , 13-H ) :   0.2324 B(  7-C ,  8-O ) :   0.2695 B(  7-C , 10-O ) :   0.2356
B(  7-C , 12-H ) :  -0.1895 B(  7-C , 14-H ) :   0.2324 B(  8-O , 13-H ) :  -0.1377
B(  9-O , 14-H ) :  -0.1377

MP2 TOTAL ENERGY:     -531.447096533 Eh
FINAL SINGLE POINT ENERGY      -531.447096532870

DIPOLE MOMENT
-------------
                                X             Y             Z
Electronic contribution:     -0.00000      -0.00000      -1.05401
Nuclear contribution   :      0.00000       0.00000       1.41055
                        -----------------------------------------
Total Dipole Moment    :     -0.00000      -0.00000       0.35653
                        -----------------------------------------
Magnitude (a.u.)       :      0.35653
Magnitude (Debye)      :      0.90624

Rotational constants in cm-1:     0.111220     0.031202     0.024366
Rotational constants in MHz :  3334.303864   935.418397   730.485260

                             ****ORCA TERMINATED NORMALLY****
TOTAL RUN TIME: 0 days 0 hours 1 minutes 37 seconds 517 msec
