                         Program Version 5.0.3 -  RELEASE  -
|  1> !ri-mp2 aug-cc-pvdz aug-cc-pvdz/c tightscf
|  2> %pal nprocs 16 end
|  3>
|  4> * xyz 0 1
|  5> C     -0.178150    0.524281    0.000000
|  6> H     -1.074887    1.131933    0.000000
|  7> F      0.911211    1.319595    0.000000
|  8> Cl    -0.178150   -0.475117    1.474553
|  9> Cl    -0.178150   -0.475117   -1.474553
| 10> *
| 11>
| 12>                          ****END OF INPUT****

CARTESIAN COORDINATES (ANGSTROEM)
---------------------------------
  C     -0.178150    0.524281    0.000000
  H     -1.074887    1.131933    0.000000
  F      0.911211    1.319595    0.000000
  Cl    -0.178150   -0.475117    1.474553
  Cl    -0.178150   -0.475117   -1.474553

 Total Charge           Charge          ....    0
 Multiplicity           Mult            ....    1
 Number of Electrons    NEL             ....   50
 Basis Dimension        Dim             ....  109

ORBITAL ENERGIES
----------------

  NO   OCC          E(Eh)            E(eV)
   0   2.0000    -104.865812     -2853.5438
   1   2.0000    -104.865811     -2853.5438
   2   2.0000     -26.360420      -717.3035
   3   2.0000     -11.472438      -312.1809
   4   2.0000     -10.592456      -288.2354
   5   2.0000     -10.592432      -288.2347
   6   2.0000      -8.060124      -219.3271
   7   2.0000      -8.060122      -219.3271
   8   2.0000      -8.056524      -219.2292
   9   2.0000      -8.056522      -219.2291
  10   2.0000      -8.056472      -219.2278
  11   2.0000      -8.056471      -219.2277
  12   2.0000      -1.676265       -45.6135
  13   2.0000      -1.201415       -32.6922
  14   2.0000      -1.120020       -30.4773
  15   2.0000      -0.924324       -25.1521
  16   2.0000      -0.783223       -21.3126
  17   2.0000      -0.743241       -20.2246
  18   2.0000      -0.726624       -19.7724
  19   2.0000      -0.606429       -16.5018
  20   2.0000      -0.573232       -15.5984
  21   2.0000      -0.506064       -13.7707
  22   2.0000      -0.484565       -13.1857
  23   2.0000      -0.478384       -13.0175
  24   2.0000      -0.463612       -12.6155
  25   0.0000       0.037064         1.0086
  26   0.0000       0.072771         1.9802
  27   0.0000       0.079613         2.1664
  28   0.0000       0.100856         2.7444
  29   0.0000       0.120697         3.2843

MULLIKEN ATOMIC CHARGES
-----------------------
   0 C :    0.345246
   1 H :    0.158771
   2 F :   -0.483532
   3 Cl:   -0.010242
   4 Cl:   -0.010242
Sum of atomic charges:   -0.0000000

LOEWDIN ATOMIC CHARGES
----------------------
   0 C :   -0.835489
   1 H :   -0.066714
   2 F :   -0.028269
   3 Cl:    0.465236
   4 Cl:    0.465236

  Mayer bond orders larger than 0.100000
B(  0-C ,  1-H ) :   0.8761 B(  0-C ,  2-F ) :   0.5171 B(  0-C ,  3-Cl) :   1.1559
B(  0-C ,  4-Cl) :   1.1559

MP2 TOTAL ENERGY:    -1057.541556466 Eh
FINAL SINGLE POINT ENERGY     -1057.541556466162

DIPOLE MOMENT
-------------
                                X             Y             Z
Electronic contribution:      0.81279      -0.84624       0.00000
Nuclear contribution   :     -1.33666       1.08405       0.00000
                        -----------------------------------------
Total Dipole Moment    :     -0.52387       0.23781       0.00000
                        -----------------------------------------
Magnitude (a.u.)       :      0.57533
Magnitude (Debye)      :      1.46236

Rotational constants in cm-1:     0.230242     0.105855     0.075830
Rotational constants in MHz :  6902.484341  3173.450156  2273.336035

                             ****ORCA TERMINATED NORMALLY****
TOTAL RUN TIME: 0 days 0 hours 0 minutes 30 seconds 311 msec
