                         Program Version 5.0.3 -  RELEASE  -
|  1> !ri-mp2 aug-cc-pvdz aug-cc-pvdz/c tightscf
|  2> %pal nprocs 16 end
|  3>
|  4> * xyz 0 1
|  5> O      0.000000    1.471034    0.000000
|  6> O     -1.045393    0.632131    0.498632
|  7> O      1.045393    0.632130   -0.498632
|  8> C     -1.857587    0.241250   -0.631137
|  9> C      1.857587    0.241251    0.631137
| 10> C     -2.930054   -0.597279   -0.127689
| 11> C      2.930054   -0.597279    0.127689
| 12> C     -3.820304   -1.289211    0.276887
| 13> C      3.820303   -1.289212   -0.276887
| 14> H     -2.252972    1.138284   -1.112154
| 15> H     -1.237646   -0.305795   -1.343916
| 16> H      2.252972    1.138285    1.112154
| 17> H      1.237646   -0.305794    1.343917
| 18> H     -4.609105   -1.902231    0.635967
| 19> H      4.609104   -1.902232   -0.635966
| 20> *
| 21>
| 22>                          ****END OF INPUT****

CARTESIAN COORDINATES (ANGSTROEM)
---------------------------------
  O      0.000000    1.471034    0.000000
  O     -1.045393    0.632131    0.498632
  O      1.045393    0.632130   -0.498632
  C     -1.857587    0.241250   -0.631137
  C      1.857587    0.241251    0.631137
  C     -2.930054   -0.597279   -0.127689
  C      2.930054   -0.597279    0.127689
  C     -3.820304   -1.289211    0.276887
  C      3.820303   -1.289212   -0.276887
  H     -2.252972    1.138284   -1.112154
  H     -1.237646   -0.305795   -1.343916
  H      2.252972    1.138285    1.112154
  H      1.237646   -0.305794    1.343917
  H     -4.609105   -1.902231    0.635967
  H      4.609104   -1.902232   -0.635966

 Total Charge           Charge          ....    0
 Multiplicity           Mult            ....    1
 Number of Electrons    NEL             ....   66
 Basis Dimension        Dim             ....  261

ORBITAL ENERGIES
----------------

  NO   OCC          E(Eh)            E(eV)
   0   2.0000     -20.709125      -563.5240
   1   2.0000     -20.659325      -562.1688
   2   2.0000     -20.659301      -562.1681
   3   2.0000     -11.329363      -308.2876
   4   2.0000     -11.329363      -308.2876
   5   2.0000     -11.257396      -306.3293
   6   2.0000     -11.257396      -306.3293
   7   2.0000     -11.251504      -306.1690
   8   2.0000     -11.251504      -306.1690
   9   2.0000      -1.556337       -42.3501
  10   2.0000      -1.388915       -37.7943
  11   2.0000      -1.190529       -32.3959
  12   2.0000      -1.070063       -29.1179
  13   2.0000      -1.051925       -28.6243
  14   2.0000      -0.968439       -26.3526
  15   2.0000      -0.939386       -25.5620
  16   2.0000      -0.761437       -20.7197
  17   2.0000      -0.742070       -20.1928
  18   2.0000      -0.726394       -19.7662
  19   2.0000      -0.724816       -19.7233
  20   2.0000      -0.707814       -19.2606
  21   2.0000      -0.666921       -18.1478
  22   2.0000      -0.657063       -17.8796
  23   2.0000      -0.628002       -17.0888
  24   2.0000      -0.597821       -16.2675
  25   2.0000      -0.588703       -16.0194
  26   2.0000      -0.499565       -13.5939
  27   2.0000      -0.490564       -13.3489
  28   2.0000      -0.488935       -13.3046
  29   2.0000      -0.414172       -11.2702
  30   2.0000      -0.412576       -11.2268
  31   2.0000      -0.404301       -11.0016
  32   2.0000      -0.402575       -10.9546
  33   0.0000       0.034196         0.9305
  34   0.0000       0.036628         0.9967
  35   0.0000       0.045649         1.2422
  36   0.0000       0.048996         1.3332
  37   0.0000       0.059917         1.6304

MULLIKEN ATOMIC CHARGES
-----------------------
   0 O :   -0.191164
   1 O :   -0.543483
   2 O :   -0.543482
   3 C :    0.869442
   4 C :    0.869440
   5 C :   -0.625308
   6 C :   -0.625308
   7 C :    1.086963
   8 C :    1.086966
   9 H :   -0.087274
  10 H :   -0.076020
  11 H :   -0.087275
  12 H :   -0.076019
  13 H :   -0.528739
  14 H :   -0.528740
Sum of atomic charges:   -0.0000000

LOEWDIN ATOMIC CHARGES
----------------------
   0 O :    0.023544
   1 O :    0.003465
   2 O :    0.003465
   3 C :   -0.063141
   4 C :   -0.063142
   5 C :   -0.096728
   6 C :   -0.096727
   7 C :    0.220966
   8 C :    0.220966
   9 H :    0.013958
  10 H :    0.009233
  11 H :    0.013958
  12 H :    0.009233
  13 H :   -0.099525
  14 H :   -0.099525

  Mayer bond orders larger than 0.100000
B(  0-O ,  1-O ) :   0.8637 B(  0-O ,  2-O ) :   0.8637 B(  0-O ,  3-C ) :  -0.1396
B(  0-O ,  4-C ) :  -0.1396 B(  1-O ,  3-C ) :   0.6027 B(  2-O ,  4-C ) :   0.6027
B(  3-C ,  5-C ) :   1.2770 B(  3-C ,  7-C ) :   0.2180 B(  3-C ,  9-H ) :   0.8816
B(  3-C , 10-H ) :   0.8536 B(  3-C , 13-H ) :   0.1292 B(  4-C ,  6-C ) :   1.2770
B(  4-C ,  8-C ) :   0.2180 B(  4-C , 11-H ) :   0.8816 B(  4-C , 12-H ) :   0.8536
B(  4-C , 14-H ) :   0.1292 B(  5-C ,  7-C ) :   2.7289 B(  5-C , 13-H ) :   0.5866
B(  6-C ,  8-C ) :   2.7289 B(  6-C , 14-H ) :   0.5866 B(  7-C , 13-H ) :  -0.2845
B(  8-C , 14-H ) :  -0.2845

MP2 TOTAL ENERGY:     -456.387682104 Eh
FINAL SINGLE POINT ENERGY      -456.387682103848

DIPOLE MOMENT
-------------
                                X             Y             Z
Electronic contribution:     -0.00000       1.58064      -0.00000
Nuclear contribution   :     -0.00000      -2.06049       0.00000
                        -----------------------------------------
Total Dipole Moment    :     -0.00000      -0.47985       0.00000
                        -----------------------------------------
Magnitude (a.u.)       :      0.47985
Magnitude (Debye)      :      1.21968

Rotational constants in cm-1:     0.125746     0.022253     0.020112
Rotational constants in MHz :  3769.759934   667.128073   602.928929

                             ****ORCA TERMINATED NORMALLY****
TOTAL RUN TIME: 0 days 0 hours 0 minutes 59 seconds 269 msec
