                         Program Version 5.0.3 -  RELEASE  -
|  1> !ri-mp2 aug-cc-pvdz aug-cc-pvdz/c tightscf
|  2> %pal nprocs 16 end
|  3>
|  4> * xyz 0 1
|  5> C     0.000000     0.000000    0.828233
|  6> C     0.000000     1.221205    0.021726
|  7> C     0.000000    -1.221205    0.021726
|  8> H     0.879349     0.000000    1.476388
|  9> H    -0.879349     0.000000    1.476388
| 10> N     0.000000     2.195867   -0.584492
| 11> N     0.000000    -2.195867   -0.584492
| 12> *
| 13>
| 14>                          ****END OF INPUT****

CARTESIAN COORDINATES (ANGSTROEM)
---------------------------------
  C      0.000000    0.000000    0.828233
  C      0.000000    1.221205    0.021726
  C      0.000000   -1.221205    0.021726
  H      0.879349    0.000000    1.476388
  H     -0.879349    0.000000    1.476388
  N      0.000000    2.195867   -0.584492
  N      0.000000   -2.195867   -0.584492

 Total Charge           Charge          ....    0
 Multiplicity           Mult            ....    1
 Number of Electrons    NEL             ....   34
 Basis Dimension        Dim             ....  133

ORBITAL ENERGIES
----------------

  NO   OCC          E(Eh)            E(eV)
   0   2.0000     -15.616916      -424.9579
   1   2.0000     -15.616916      -424.9579
   2   2.0000     -11.366092      -309.2871
   3   2.0000     -11.319617      -308.0224
   4   2.0000     -11.319604      -308.0221
   5   2.0000      -1.268850       -34.5272
   6   2.0000      -1.255504       -34.1640
   7   2.0000      -1.116736       -30.3879
   8   2.0000      -0.795215       -21.6389
   9   2.0000      -0.733348       -19.9554
  10   2.0000      -0.698118       -18.9968
  11   2.0000      -0.593143       -16.1402
  12   2.0000      -0.587742       -15.9933
  13   2.0000      -0.511991       -13.9320
  14   2.0000      -0.508106       -13.8263
  15   2.0000      -0.496792       -13.5184
  16   2.0000      -0.485887       -13.2217
  17   0.0000       0.020500         0.5578
  18   0.0000       0.040603         1.1049
  19   0.0000       0.067499         1.8367
  20   0.0000       0.069401         1.8885
  21   0.0000       0.106487         2.8977

MULLIKEN ATOMIC CHARGES
-----------------------
   0 C :    0.538589
   1 C :   -0.124173
   2 C :   -0.124173
   3 H :    0.164088
   4 H :    0.164088
   5 N :   -0.309209
   6 N :   -0.309209
Sum of atomic charges:    0.0000000

LOEWDIN ATOMIC CHARGES
----------------------
   0 C :   -0.023544
   1 C :   -0.128362
   2 C :   -0.128362
   3 H :    0.042386
   4 H :    0.042386
   5 N :    0.097747
   6 N :    0.097747

  Mayer bond orders larger than 0.100000
B(  0-C ,  1-C ) :   0.8358 B(  0-C ,  2-C ) :   0.8358 B(  0-C ,  3-H ) :   0.8391
B(  0-C ,  4-H ) :   0.8391 B(  1-C ,  2-C ) :   0.1101 B(  1-C ,  5-N ) :   2.7331
B(  2-C ,  6-N ) :   2.7331

MP2 TOTAL ENERGY:     -224.381546021 Eh
FINAL SINGLE POINT ENERGY      -224.381546020852

DIPOLE MOMENT
-------------
                                X             Y             Z
Electronic contribution:      0.00000      -0.00000      -1.24433
Nuclear contribution   :      0.00000       0.00000       2.84743
                        -----------------------------------------
Total Dipole Moment    :      0.00000      -0.00000       1.60310
                        -----------------------------------------
Magnitude (a.u.)       :      1.60310
Magnitude (Debye)      :      4.07475

Rotational constants in cm-1:     0.712965     0.097747     0.087350
Rotational constants in MHz : 21374.153835  2930.369942  2618.691077

                             ****ORCA TERMINATED NORMALLY****
TOTAL RUN TIME: 0 days 0 hours 0 minutes 47 seconds 724 msec
