                         Program Version 5.0.3 -  RELEASE  -
|  1> !ri-mp2 aug-cc-pvdz aug-cc-pvdz/c tightscf
|  2> %pal nprocs 16 end
|  3>
|  4> * xyz 0 1
|  5> C     0.000000     0.000000    0.731328
|  6> H     0.926417     0.000000    1.301629
|  7> H    -0.926417     0.000000    1.301629
|  8> O     0.000000     0.749219   -0.436952
|  9> O     0.000000    -0.749219   -0.436952
| 10> *
| 11>
| 12>                          ****END OF INPUT****

CARTESIAN COORDINATES (ANGSTROEM)
---------------------------------
  C      0.000000    0.000000    0.731328
  H      0.926417    0.000000    1.301629
  H     -0.926417    0.000000    1.301629
  O      0.000000    0.749219   -0.436952
  O      0.000000   -0.749219   -0.436952

 Total Charge           Charge          ....    0
 Multiplicity           Mult            ....    1
 Number of Electrons    NEL             ....   24
 Basis Dimension        Dim             ....   87

ORBITAL ENERGIES
----------------

  NO   OCC          E(Eh)            E(eV)
   0   2.0000     -20.662512      -562.2555
   1   2.0000     -20.662250      -562.2484
   2   2.0000     -11.378346      -309.6205
   3   2.0000      -1.557288       -42.3760
   4   2.0000      -1.197155       -32.5762
   5   2.0000      -0.933504       -25.4019
   6   2.0000      -0.750533       -20.4230
   7   2.0000      -0.700422       -19.0594
   8   2.0000      -0.577848       -15.7240
   9   2.0000      -0.572826       -15.5874
  10   2.0000      -0.529313       -14.4033
  11   2.0000      -0.486997       -13.2519
  12   0.0000       0.032173         0.8755
  13   0.0000       0.048732         1.3261
  14   0.0000       0.068180         1.8553
  15   0.0000       0.091206         2.4818
  16   0.0000       0.155220         4.2237

MULLIKEN ATOMIC CHARGES
-----------------------
   0 C :    1.262128
   1 H :   -0.125131
   2 H :   -0.125131
   3 O :   -0.505933
   4 O :   -0.505933
Sum of atomic charges:    0.0000000

LOEWDIN ATOMIC CHARGES
----------------------
   0 C :   -0.026732
   1 H :   -0.011344
   2 H :   -0.011344
   3 O :    0.024709
   4 O :    0.024709

  Mayer bond orders larger than 0.100000
B(  0-C ,  1-H ) :   0.9905 B(  0-C ,  2-H ) :   0.9905 B(  0-C ,  3-O ) :   0.5414
B(  0-C ,  4-O ) :   0.5414 B(  3-O ,  4-O ) :   0.8387

MP2 TOTAL ENERGY:     -189.175822784 Eh
FINAL SINGLE POINT ENERGY      -189.175822784000

DIPOLE MOMENT
-------------
                                X             Y             Z
Electronic contribution:     -0.00000      -0.00000      -1.37232
Nuclear contribution   :      0.00000       0.00000       2.53596
                        -----------------------------------------
Total Dipole Moment    :     -0.00000      -0.00000       1.16365
                        -----------------------------------------
Magnitude (a.u.)       :      1.16365
Magnitude (Debye)      :      2.95775

Rotational constants in cm-1:     0.961362     0.856081     0.499244
Rotational constants in MHz : 28820.910951 25664.674826 14966.957597

                             ****ORCA TERMINATED NORMALLY****
TOTAL RUN TIME: 0 days 0 hours 0 minutes 46 seconds 510 msec
