                         Program Version 5.0.3 -  RELEASE  -
|  1> !ri-mp2 aug-cc-pvdz aug-cc-pvdz/c tightscf
|  2> %pal nprocs 16 end
|  3> %maxcore 3800
|  4>
|  5> * xyz 0 1
|  6> C     2.789368     5.050688    0.000000
|  7> C    -2.789368    -5.050688    0.000000
|  8> C     2.800552     3.522861    0.000000
|  9> C    -2.800552    -3.522861    0.000000
| 10> C     1.400494     2.907631    0.000000
| 11> C    -1.400494    -2.907631    0.000000
| 12> C     1.400494     1.378640    0.000000
| 13> C    -1.400494    -1.378640    0.000000
| 14> C    -0.000057     0.764608    0.000000
| 15> C     0.000057    -0.764608    0.000000
| 16> H     3.801408     5.458123    0.000000
| 17> H     2.275152     5.441067    0.880579
| 18> H     2.275152     5.441067   -0.880579
| 19> H    -3.801408    -5.458123    0.000000
| 20> H    -2.275152    -5.441067   -0.880579
| 21> H    -2.275152    -5.441067    0.880579
| 22> H     3.351669     3.162311    0.873843
| 23> H     3.351669     3.162311   -0.873843
| 24> H    -3.351669    -3.162311    0.873843
| 25> H    -3.351669    -3.162311   -0.873843
| 26> H     0.848853     3.269313   -0.874391
| 27> H     0.848853     3.269313    0.874391
| 28> H    -0.848853    -3.269313   -0.874391
| 29> H    -0.848853    -3.269313    0.874391
| 30> H     1.952511     1.017990    0.874412
| 31> H     1.952511     1.017990   -0.874412
| 32> H    -1.952511    -1.017990    0.874412
| 33> H    -1.952511    -1.017990   -0.874412
| 34> H    -0.551998     1.125266   -0.874385
| 35> H    -0.551998     1.125266    0.874385
| 36> H     0.551998    -1.125266    0.874385
| 37> H     0.551998    -1.125266   -0.874385
| 38> *
| 39>
| 40>                          ****END OF INPUT****

CARTESIAN COORDINATES (ANGSTROEM)
---------------------------------
  C      2.789368    5.050688    0.000000
  C     -2.789368   -5.050688    0.000000
  C      2.800552    3.522861    0.000000
  C     -2.800552   -3.522861    0.000000
  C      1.400494    2.907631    0.000000
  C     -1.400494   -2.907631    0.000000
  C      1.400494    1.378640    0.000000
  C     -1.400494   -1.378640    0.000000
  C     -0.000057    0.764608    0.000000
  C      0.000057   -0.764608    0.000000
  H      3.801408    5.458123    0.000000
  H      2.275152    5.441067    0.880579
  H      2.275152    5.441067   -0.880579
  H     -3.801408   -5.458123    0.000000
  H     -2.275152   -5.441067   -0.880579
  H     -2.275152   -5.441067    0.880579
  H      3.351669    3.162311    0.873843
  H      3.351669    3.162311   -0.873843
  H     -3.351669   -3.162311    0.873843
  H     -3.351669   -3.162311   -0.873843
  H      0.848853    3.269313   -0.874391
  H      0.848853    3.269313    0.874391
  H     -0.848853   -3.269313   -0.874391
  H     -0.848853   -3.269313    0.874391
  H      1.952511    1.017990    0.874412
  H      1.952511    1.017990   -0.874412
  H     -1.952511   -1.017990    0.874412
  H     -1.952511   -1.017990   -0.874412
  H     -0.551998    1.125266   -0.874385
  H     -0.551998    1.125266    0.874385
  H      0.551998   -1.125266    0.874385
  H      0.551998   -1.125266   -0.874385

 Total Charge           Charge          ....    0
 Multiplicity           Mult            ....    1
 Number of Electrons    NEL             ....   82
 Basis Dimension        Dim             ....  428

ORBITAL ENERGIES
----------------

  NO   OCC          E(Eh)            E(eV)
   0   2.0000     -11.219681      -305.3030
   1   2.0000     -11.219680      -305.3030
   2   2.0000     -11.217603      -305.2465
   3   2.0000     -11.217459      -305.2426
   4   2.0000     -11.217222      -305.2361
   5   2.0000     -11.216957      -305.2289
   6   2.0000     -11.216710      -305.2222
   7   2.0000     -11.216515      -305.2169
   8   2.0000     -11.215102      -305.1784
   9   2.0000     -11.215101      -305.1784
  10   2.0000      -1.094187       -29.7743
  11   2.0000      -1.074208       -29.2307
  12   2.0000      -1.041229       -28.3333
  13   2.0000      -0.996634       -27.1198
  14   2.0000      -0.942647       -25.6507
  15   2.0000      -0.883098       -24.0303
  16   2.0000      -0.826211       -22.4824
  17   2.0000      -0.789949       -21.4956
  18   2.0000      -0.784906       -21.3584
  19   2.0000      -0.780931       -21.2502
  20   2.0000      -0.657301       -17.8861
  21   2.0000      -0.639551       -17.4031
  22   2.0000      -0.611541       -16.6409
  23   2.0000      -0.592299       -16.1173
  24   2.0000      -0.584034       -15.8924
  25   2.0000      -0.576300       -15.6819
  26   2.0000      -0.569152       -15.4874
  27   2.0000      -0.538324       -14.6486
  28   2.0000      -0.538324       -14.6485
  29   2.0000      -0.532576       -14.4921
  30   2.0000      -0.503234       -13.6937
  31   2.0000      -0.501695       -13.6518
  32   2.0000      -0.476464       -12.9652
  33   2.0000      -0.475337       -12.9346
  34   2.0000      -0.472748       -12.8641
  35   2.0000      -0.460992       -12.5442
  36   2.0000      -0.459435       -12.5019
  37   2.0000      -0.455364       -12.3911
  38   2.0000      -0.455295       -12.3892
  39   2.0000      -0.452992       -12.3265
  40   2.0000      -0.421824       -11.4784
  41   0.0000       0.036044         0.9808
  42   0.0000       0.038224         1.0401
  43   0.0000       0.042785         1.1642
  44   0.0000       0.044548         1.2122
  45   0.0000       0.047223         1.2850

MULLIKEN ATOMIC CHARGES
-----------------------
   0 C :    0.594443
   1 C :    0.594443
   2 C :    0.541575
   3 C :    0.541575
   4 C :    0.307247
   5 C :    0.307247
   6 C :    0.339896
   7 C :    0.339896
   8 C :    0.310434
   9 C :    0.310434
  10 H :   -0.078917
  11 H :   -0.095659
  12 H :   -0.095659
  13 H :   -0.078917
  14 H :   -0.095659
  15 H :   -0.095659
  16 H :   -0.192518
  17 H :   -0.192518
  18 H :   -0.192518
  19 H :   -0.192518
  20 H :   -0.231977
  21 H :   -0.231977
  22 H :   -0.231977
  23 H :   -0.231977
  24 H :   -0.249235
  25 H :   -0.249235
  26 H :   -0.249235
  27 H :   -0.249235
  28 H :   -0.237950
  29 H :   -0.237950
  30 H :   -0.237950
  31 H :   -0.237950
Sum of atomic charges:    0.0000000

LOEWDIN ATOMIC CHARGES
----------------------
   0 C :    0.129584
   1 C :    0.129584
   2 C :   -0.073359
   3 C :   -0.073359
   4 C :   -0.042503
   5 C :   -0.042503
   6 C :   -0.035297
   7 C :   -0.035297
   8 C :   -0.033982
   9 C :   -0.033982
  10 H :   -0.022559
  11 H :   -0.020659
  12 H :   -0.020659
  13 H :   -0.022559
  14 H :   -0.020659
  15 H :   -0.020659
  16 H :    0.010528
  17 H :    0.010528
  18 H :    0.010528
  19 H :    0.010528
  20 H :    0.015936
  21 H :    0.015936
  22 H :    0.015936
  23 H :    0.015936
  24 H :    0.016543
  25 H :    0.016543
  26 H :    0.016543
  27 H :    0.016543
  28 H :    0.016710
  29 H :    0.016710
  30 H :    0.016710
  31 H :    0.016710

  Mayer bond orders larger than 0.100000
B(  0-C ,  2-C ) :   1.1914 B(  0-C , 10-H ) :   0.9148 B(  0-C , 11-H ) :   0.9001
B(  0-C , 12-H ) :   0.9001 B(  1-C ,  3-C ) :   1.1914 B(  1-C , 13-H ) :   0.9148
B(  1-C , 14-H ) :   0.9001 B(  1-C , 15-H ) :   0.9001 B(  2-C ,  4-C ) :   1.2689
B(  2-C ,  6-C ) :  -0.1828 B(  2-C ,  8-C ) :  -0.1051 B(  2-C , 16-H ) :   0.6915
B(  2-C , 17-H ) :   0.6915 B(  3-C ,  5-C ) :   1.2689 B(  3-C ,  7-C ) :  -0.1828
B(  3-C ,  9-C ) :  -0.1051 B(  3-C , 18-H ) :   0.6915 B(  3-C , 19-H ) :   0.6915
B(  4-C ,  5-C ) :   0.1090 B(  4-C ,  6-C ) :   1.3419 B(  4-C ,  8-C ) :  -0.1569
B(  4-C ,  9-C ) :  -0.1180 B(  4-C , 20-H ) :   0.6928 B(  4-C , 21-H ) :   0.6928
B(  5-C ,  7-C ) :   1.3419 B(  5-C ,  8-C ) :  -0.1180 B(  5-C ,  9-C ) :  -0.1569
B(  5-C , 22-H ) :   0.6928 B(  5-C , 23-H ) :   0.6928 B(  6-C ,  8-C ) :   1.5384
B(  6-C ,  9-C ) :  -0.1705 B(  6-C , 24-H ) :   0.6841 B(  6-C , 25-H ) :   0.6841
B(  7-C ,  8-C ) :  -0.1705 B(  7-C ,  9-C ) :   1.5384 B(  7-C , 26-H ) :   0.6841
B(  7-C , 27-H ) :   0.6841 B(  8-C ,  9-C ) :   1.5187 B(  8-C , 28-H ) :   0.6607
B(  8-C , 29-H ) :   0.6607 B(  9-C , 30-H ) :   0.6607 B(  9-C , 31-H ) :   0.6607

MP2 TOTAL ENERGY:     -393.051466981 Eh
FINAL SINGLE POINT ENERGY      -393.051466981049

DIPOLE MOMENT
-------------
                                X             Y             Z
Electronic contribution:      0.00000       0.00000       0.00000
Nuclear contribution   :      0.00000       0.00000       0.00000
                        -----------------------------------------
Total Dipole Moment    :      0.00000       0.00000       0.00000
                        -----------------------------------------
Magnitude (a.u.)       :      0.00000
Magnitude (Debye)      :      0.00000

Rotational constants in cm-1:     0.285582     0.008420     0.008304
Rotational constants in MHz :  8561.522573   252.430045   248.933383

                             ****ORCA TERMINATED NORMALLY****
TOTAL RUN TIME: 0 days 0 hours 2 minutes 54 seconds 703 msec
