                         Program Version 5.0.3 -  RELEASE  -
|  1> !ri-mp2 aug-cc-pvdz aug-cc-pvdz/c tightscf
|  2> %pal nprocs 16 end
|  3>
|  4> * xyz 0 1
|  5> O    -0.015813     0.731327    0.000000
|  6> O     0.015813    -0.731327    0.000000
|  7> C    -1.344283    -1.140143    0.000000
|  8> H    -1.844417    -0.742104    0.887786
|  9> C     1.344283     1.140143    0.000000
| 10> H     1.844417     0.742104   -0.887786
| 11> H     1.844417     0.742104    0.887786
| 12> C     1.344283     2.657005    0.000000
| 13> C    -1.344283    -2.657005    0.000000
| 14> H    -1.844417    -0.742104   -0.887786
| 15> H     0.842512     3.047916   -0.884749
| 16> H     0.842512     3.047916    0.884749
| 17> H     2.372433     3.019890    0.000000
| 18> H    -0.842512    -3.047916   -0.884749
| 19> H    -0.842512    -3.047916    0.884749
| 20> H    -2.372433    -3.019890    0.000000
| 21> *
| 22>
| 23>                          ****END OF INPUT****

CARTESIAN COORDINATES (ANGSTROEM)
---------------------------------
  O     -0.015813    0.731327    0.000000
  O      0.015813   -0.731327    0.000000
  C     -1.344283   -1.140143    0.000000
  H     -1.844417   -0.742104    0.887786
  C      1.344283    1.140143    0.000000
  H      1.844417    0.742104   -0.887786
  H      1.844417    0.742104    0.887786
  C      1.344283    2.657005    0.000000
  C     -1.344283   -2.657005    0.000000
  H     -1.844417   -0.742104   -0.887786
  H      0.842512    3.047916   -0.884749
  H      0.842512    3.047916    0.884749
  H      2.372433    3.019890    0.000000
  H     -0.842512   -3.047916   -0.884749
  H     -0.842512   -3.047916    0.884749
  H     -2.372433   -3.019890    0.000000

 Total Charge           Charge          ....    0
 Multiplicity           Mult            ....    1
 Number of Electrons    NEL             ....   50
 Basis Dimension        Dim             ....  228

ORBITAL ENERGIES
----------------

  NO   OCC          E(Eh)            E(eV)
   0   2.0000     -20.619465      -561.0842
   1   2.0000     -20.619179      -561.0764
   2   2.0000     -11.281649      -306.9893
   3   2.0000     -11.281647      -306.9892
   4   2.0000     -11.226512      -305.4889
   5   2.0000     -11.226512      -305.4889
   6   2.0000      -1.465287       -39.8725
   7   2.0000      -1.245681       -33.8967
   8   2.0000      -1.021317       -27.7914
   9   2.0000      -0.989691       -26.9309
  10   2.0000      -0.849007       -23.1027
  11   2.0000      -0.828811       -22.5531
  12   2.0000      -0.688398       -18.7323
  13   2.0000      -0.680091       -18.5062
  14   2.0000      -0.639234       -17.3945
  15   2.0000      -0.636485       -17.3196
  16   2.0000      -0.562109       -15.2958
  17   2.0000      -0.560234       -15.2447
  18   2.0000      -0.546477       -14.8704
  19   2.0000      -0.517220       -14.0743
  20   2.0000      -0.516061       -14.0427
  21   2.0000      -0.515237       -14.0203
  22   2.0000      -0.478253       -13.0139
  23   2.0000      -0.471828       -12.8391
  24   2.0000      -0.413814       -11.2604
  25   0.0000       0.038032         1.0349
  26   0.0000       0.043474         1.1830
  27   0.0000       0.047576         1.2946
  28   0.0000       0.049507         1.3471
  29   0.0000       0.061894         1.6842

MULLIKEN ATOMIC CHARGES
-----------------------
   0 O :   -0.581922
   1 O :   -0.581922
   2 C :    0.939975
   3 H :   -0.198392
   4 C :    0.939975
   5 H :   -0.198392
   6 H :   -0.198392
   7 C :    0.168056
   8 C :    0.168056
   9 H :   -0.198392
  10 H :   -0.047581
  11 H :   -0.047581
  12 H :   -0.034163
  13 H :   -0.047581
  14 H :   -0.047581
  15 H :   -0.034163
Sum of atomic charges:    0.0000000

LOEWDIN ATOMIC CHARGES
----------------------
   0 O :    0.013706
   1 O :    0.013706
   2 C :   -0.094782
   3 H :    0.001968
   4 C :   -0.094782
   5 H :    0.001968
   6 H :    0.001968
   7 C :    0.130932
   8 C :    0.130932
   9 H :    0.001968
  10 H :   -0.018419
  11 H :   -0.018419
  12 H :   -0.016953
  13 H :   -0.018419
  14 H :   -0.018419
  15 H :   -0.016953

  Mayer bond orders larger than 0.100000
B(  0-O ,  1-O ) :   0.8351 B(  0-O ,  2-C ) :  -0.1873 B(  0-O ,  4-C ) :   0.5543
B(  1-O ,  2-C ) :   0.5543 B(  1-O ,  4-C ) :  -0.1873 B(  2-C ,  3-H ) :   0.9085
B(  2-C ,  8-C ) :   1.2279 B(  2-C ,  9-H ) :   0.9085 B(  4-C ,  5-H ) :   0.9085
B(  4-C ,  6-H ) :   0.9085 B(  4-C ,  7-C ) :   1.2279 B(  7-C , 10-H ) :   0.9801
B(  7-C , 11-H ) :   0.9801 B(  7-C , 12-H ) :   0.9192 B(  8-C , 13-H ) :   0.9801
B(  8-C , 14-H ) :   0.9801 B(  8-C , 15-H ) :   0.9192

MP2 TOTAL ENERGY:     -307.949631641 Eh
FINAL SINGLE POINT ENERGY      -307.949631641360

DIPOLE MOMENT
-------------
                                X             Y             Z
Electronic contribution:      0.00000      -0.00000       0.00000
Nuclear contribution   :      0.00000      -0.00000       0.00000
                        -----------------------------------------
Total Dipole Moment    :      0.00000      -0.00000       0.00000
                        -----------------------------------------
Magnitude (a.u.)       :      0.00000
Magnitude (Debye)      :      0.00000

Rotational constants in cm-1:     0.578299     0.045042     0.043142
Rotational constants in MHz : 17336.961376  1350.337452  1293.377698

                             ****ORCA TERMINATED NORMALLY****
TOTAL RUN TIME: 0 days 0 hours 0 minutes 52 seconds 156 msec
