                         Program Version 5.0.3 -  RELEASE  -
|  1> !ri-mp2 aug-cc-pvdz aug-cc-pvdz/c tightscf
|  2> %pal nprocs 16 end
|  3>
|  4> * xyz 0 1
|  5> S      0.000000   -0.857107   -0.318004
|  6> O      0.000000   -1.053613    1.137761
|  7> O      1.279962    0.121780   -0.679264
|  8> O     -1.279962    0.121780   -0.679265
|  9> C      1.785232    1.045978    0.304035
| 10> C     -1.785232    1.045978    0.304035
| 11> H      2.837899    1.182815    0.071216
| 12> H     -2.837900    1.182815    0.071215
| 13> H      1.263493    1.999548    0.224505
| 14> H      1.675420    0.638837    1.307173
| 15> H     -1.675421    0.638836    1.307172
| 16> H     -1.263493    1.999547    0.224506
| 17> *
| 18>
| 19>                          ****END OF INPUT****

CARTESIAN COORDINATES (ANGSTROEM)
---------------------------------
  S      0.000000   -0.857107   -0.318004
  O      0.000000   -1.053613    1.137761
  O      1.279962    0.121780   -0.679264
  O     -1.279962    0.121780   -0.679265
  C      1.785232    1.045978    0.304035
  C     -1.785232    1.045978    0.304035
  H      2.837899    1.182815    0.071216
  H     -2.837900    1.182815    0.071215
  H      1.263493    1.999548    0.224505
  H      1.675420    0.638837    1.307173
  H     -1.675421    0.638836    1.307172
  H     -1.263493    1.999547    0.224506

 Total Charge           Charge          ....    0
 Multiplicity           Mult            ....    1
 Number of Electrons    NEL             ....   58
 Basis Dimension        Dim             ....  196

ORBITAL ENERGIES
----------------

  NO   OCC          E(Eh)            E(eV)
   0   2.0000     -92.183802     -2508.4488
   1   2.0000     -20.616284      -560.9976
   2   2.0000     -20.616268      -560.9972
   3   2.0000     -20.561432      -559.5050
   4   2.0000     -11.301244      -307.5225
   5   2.0000     -11.301243      -307.5224
   6   2.0000      -9.158120      -249.2051
   7   2.0000      -6.840076      -186.1279
   8   2.0000      -6.839646      -186.1162
   9   2.0000      -6.836330      -186.0260
  10   2.0000      -1.471616       -40.0447
  11   2.0000      -1.385598       -37.7040
  12   2.0000      -1.353113       -36.8201
  13   2.0000      -1.011917       -27.5357
  14   2.0000      -0.952794       -25.9268
  15   2.0000      -0.846103       -23.0236
  16   2.0000      -0.725941       -19.7539
  17   2.0000      -0.702484       -19.1156
  18   2.0000      -0.676925       -18.4201
  19   2.0000      -0.650533       -17.7019
  20   2.0000      -0.634525       -17.2663
  21   2.0000      -0.632869       -17.2212
  22   2.0000      -0.567128       -15.4323
  23   2.0000      -0.540972       -14.7206
  24   2.0000      -0.524509       -14.2726
  25   2.0000      -0.504111       -13.7176
  26   2.0000      -0.478797       -13.0287
  27   2.0000      -0.469040       -12.7632
  28   2.0000      -0.426192       -11.5973
  29   0.0000       0.033193         0.9032
  30   0.0000       0.042301         1.1511
  31   0.0000       0.056879         1.5478
  32   0.0000       0.060390         1.6433
  33   0.0000       0.076086         2.0704

MULLIKEN ATOMIC CHARGES
-----------------------
   0 S :    2.082673
   1 O :   -1.020166
   2 O :   -1.028389
   3 O :   -1.028390
   4 C :    0.890076
   5 C :    0.890076
   6 H :   -0.204220
   7 H :   -0.204216
   8 H :   -0.110834
   9 H :   -0.077886
  10 H :   -0.077888
  11 H :   -0.110836
Sum of atomic charges:    0.0000000

LOEWDIN ATOMIC CHARGES
----------------------
   0 S :    1.107706
   1 O :   -0.498616
   2 O :   -0.298039
   3 O :   -0.298039
   4 C :    0.109404
   5 C :    0.109404
   6 H :   -0.031110
   7 H :   -0.031109
   8 H :   -0.036879
   9 H :   -0.047921
  10 H :   -0.047921
  11 H :   -0.036880

  Mayer bond orders larger than 0.100000
B(  0-S ,  1-O ) :   1.1142 B(  0-S ,  2-O ) :   0.4925 B(  0-S ,  3-O ) :   0.4925
B(  2-O ,  4-C ) :   0.6354 B(  3-O ,  5-C ) :   0.6354 B(  4-C ,  6-H ) :   0.9942
B(  4-C ,  8-H ) :   0.9721 B(  4-C ,  9-H ) :   0.9753 B(  5-C ,  7-H ) :   0.9942
B(  5-C , 10-H ) :   0.9753 B(  5-C , 11-H ) :   0.9721

MP2 TOTAL ENERGY:     -702.355023207 Eh
FINAL SINGLE POINT ENERGY      -702.355023206655

DIPOLE MOMENT
-------------
                                X             Y             Z
Electronic contribution:      0.00000      -6.55426      -3.10307
Nuclear contribution   :     -0.00000       7.57274       3.17715
                        -----------------------------------------
Total Dipole Moment    :     -0.00000       1.01848       0.07408
                        -----------------------------------------
Magnitude (a.u.)       :      1.02117
Magnitude (Debye)      :      2.59560

Rotational constants in cm-1:     0.136335     0.085030     0.072170
Rotational constants in MHz :  4087.234852  2549.135686  2163.590000

                             ****ORCA TERMINATED NORMALLY****
TOTAL RUN TIME: 0 days 0 hours 0 minutes 55 seconds 468 msec
