                         Program Version 5.0.3 -  RELEASE  -
|  1> !ri-mp2 aug-cc-pvdz aug-cc-pvdz/c tightscf
|  2> %pal nprocs 16 end
|  3>
|  4> * xyz 0 1
|  5> C     -0.259600   -0.785887    1.366100
|  6> C     -0.259600   -0.785887   -1.366100
|  7> O      1.100868    1.072126    0.000000
|  8> S     -0.259600    0.429008    0.000000
|  9> H     -0.208786   -0.213648    2.289139
| 10> H      0.618458   -1.422179    1.270379
| 11> H     -1.178748   -1.369415    1.337781
| 12> H     -1.178748   -1.369415   -1.337781
| 13> H      0.618458   -1.422179   -1.270379
| 14> H     -0.208786   -0.213648   -2.289139
| 15> *
| 16>
| 17>                          ****END OF INPUT****

CARTESIAN COORDINATES (ANGSTROEM)
---------------------------------
  C     -0.259600   -0.785887    1.366100
  C     -0.259600   -0.785887   -1.366100
  O      1.100868    1.072126    0.000000
  S     -0.259600    0.429008    0.000000
  H     -0.208786   -0.213648    2.289139
  H      0.618458   -1.422179    1.270379
  H     -1.178748   -1.369415    1.337781
  H     -1.178748   -1.369415   -1.337781
  H      0.618458   -1.422179   -1.270379
  H     -0.208786   -0.213648   -2.289139

 Total Charge           Charge          ....    0
 Multiplicity           Mult            ....    1
 Number of Electrons    NEL             ....   42
 Basis Dimension        Dim             ....  150

ORBITAL ENERGIES
----------------

  NO   OCC          E(Eh)            E(eV)
   0   2.0000     -92.078399     -2505.5806
   1   2.0000     -20.512427      -558.1715
   2   2.0000     -11.272220      -306.7327
   3   2.0000     -11.272205      -306.7323
   4   2.0000      -9.066845      -246.7214
   5   2.0000      -6.749189      -183.6548
   6   2.0000      -6.748424      -183.6340
   7   2.0000      -6.746364      -183.5779
   8   2.0000      -1.334725       -36.3197
   9   2.0000      -1.061854       -28.8945
  10   2.0000      -0.977331       -26.5945
  11   2.0000      -0.821517       -22.3546
  12   2.0000      -0.641068       -17.4444
  13   2.0000      -0.627086       -17.0639
  14   2.0000      -0.621445       -16.9104
  15   2.0000      -0.588437       -16.0122
  16   2.0000      -0.560924       -15.2635
  17   2.0000      -0.546150       -14.8615
  18   2.0000      -0.513234       -13.9658
  19   2.0000      -0.413533       -11.2528
  20   2.0000      -0.365833        -9.9548
  21   0.0000       0.030047         0.8176
  22   0.0000       0.043384         1.1805
  23   0.0000       0.051297         1.3959
  24   0.0000       0.057483         1.5642
  25   0.0000       0.070253         1.9117

MULLIKEN ATOMIC CHARGES
-----------------------
   0 C :    0.097823
   1 C :    0.097823
   2 O :   -1.134059
   3 S :    1.141084
   4 H :   -0.031252
   5 H :   -0.035949
   6 H :   -0.034135
   7 H :   -0.034135
   8 H :   -0.035949
   9 H :   -0.031252
Sum of atomic charges:   -0.0000000

LOEWDIN ATOMIC CHARGES
----------------------
   0 C :   -0.022492
   1 C :   -0.022492
   2 O :   -0.575467
   3 S :    0.943449
   4 H :   -0.056306
   5 H :   -0.049842
   6 H :   -0.055351
   7 H :   -0.055351
   8 H :   -0.049842
   9 H :   -0.056306

  Mayer bond orders larger than 0.100000
B(  0-C ,  3-S ) :   1.0642 B(  0-C ,  4-H ) :   0.9861 B(  0-C ,  5-H ) :   0.9773
B(  0-C ,  6-H ) :   0.9688 B(  1-C ,  3-S ) :   1.0642 B(  1-C ,  7-H ) :   0.9688
B(  1-C ,  8-H ) :   0.9773 B(  1-C ,  9-H ) :   0.9861 B(  2-O ,  3-S ) :   0.9144

MP2 TOTAL ENERGY:     -552.238624627 Eh
FINAL SINGLE POINT ENERGY      -552.238624627363

DIPOLE MOMENT
-------------
                                X             Y             Z
Electronic contribution:      0.35815       4.62662      -0.00000
Nuclear contribution   :     -1.52731      -6.06449      -0.00000
                        -----------------------------------------
Total Dipole Moment    :     -1.16916      -1.43786      -0.00000
                        -----------------------------------------
Magnitude (a.u.)       :      1.85321
Magnitude (Debye)      :      4.71049

Rotational constants in cm-1:     0.229602     0.224354     0.137283
Rotational constants in MHz :  6883.295052  6725.974372  4115.632158

                             ****ORCA TERMINATED NORMALLY****
TOTAL RUN TIME: 0 days 0 hours 0 minutes 57 seconds 748 msec
