                         Program Version 5.0.3 -  RELEASE  -
|  1> !ri-mp2 aug-cc-pvdz aug-cc-pvdz/c tightscf
|  2> %pal nprocs 16 end
|  3>
|  4> * xyz 0 1
|  5> C      0.595129    1.129270    1.179795
|  6> C      0.595129    1.129270   -1.179795
|  7> C     -0.195354    0.681761    2.384225
|  8> C     -0.195354    0.681761   -2.384225
|  9> O     -0.097253    0.782414    0.000000
| 10> Cl    -0.195354   -1.116216    2.587045
| 11> Cl    -0.195354   -1.116216   -2.587045
| 12> H      0.715987    2.221674    1.242336
| 13> H      1.594518    0.679296    1.190046
| 14> H      1.594518    0.679296   -1.190046
| 15> H      0.715987    2.221674   -1.242336
| 16> H      0.235929    1.094093    3.292028
| 17> H     -1.235057    0.984758    2.300171
| 18> H     -1.235057    0.984758   -2.300171
| 19> H      0.235929    1.094093   -3.292028
| 20> *
| 21>
| 22>                          ****END OF INPUT****

CARTESIAN COORDINATES (ANGSTROEM)
---------------------------------
  C      0.595129    1.129270    1.179795
  C      0.595129    1.129270   -1.179795
  C     -0.195354    0.681761    2.384225
  C     -0.195354    0.681761   -2.384225
  O     -0.097253    0.782414    0.000000
  Cl    -0.195354   -1.116216    2.587045
  Cl    -0.195354   -1.116216   -2.587045
  H      0.715987    2.221674    1.242336
  H      1.594518    0.679296    1.190046
  H      1.594518    0.679296   -1.190046
  H      0.715987    2.221674   -1.242336
  H      0.235929    1.094093    3.292028
  H     -1.235057    0.984758    2.300171
  H     -1.235057    0.984758   -2.300171
  H      0.235929    1.094093   -3.292028

 Total Charge           Charge          ....    0
 Multiplicity           Mult            ....    1
 Number of Electrons    NEL             ....   74
 Basis Dimension        Dim             ....  241

ORBITAL ENERGIES
----------------

  NO   OCC          E(Eh)            E(eV)
   0   2.0000    -104.818576     -2852.2585
   1   2.0000    -104.818576     -2852.2585
   2   2.0000     -20.586091      -560.1760
   3   2.0000     -11.308429      -307.7180
   4   2.0000     -11.308407      -307.7174
   5   2.0000     -11.305546      -307.6396
   6   2.0000     -11.305544      -307.6395
   7   2.0000     -10.544497      -286.9304
   8   2.0000     -10.544496      -286.9303
   9   2.0000      -8.012137      -218.0213
  10   2.0000      -8.012137      -218.0213
  11   2.0000      -8.008997      -217.9359
  12   2.0000      -8.008997      -217.9359
  13   2.0000      -8.008902      -217.9333
  14   2.0000      -8.008901      -217.9333
  15   2.0000      -1.404213       -38.2106
  16   2.0000      -1.142349       -31.0849
  17   2.0000      -1.126744       -30.6603
  18   2.0000      -1.025403       -27.9026
  19   2.0000      -0.971044       -26.4234
  20   2.0000      -0.849977       -23.1290
  21   2.0000      -0.841752       -22.9052
  22   2.0000      -0.703461       -19.1421
  23   2.0000      -0.698976       -19.0201
  24   2.0000      -0.647610       -17.6224
  25   2.0000      -0.624300       -16.9881
  26   2.0000      -0.615628       -16.7521
  27   2.0000      -0.577561       -15.7162
  28   2.0000      -0.553260       -15.0550
  29   2.0000      -0.540362       -14.7040
  30   2.0000      -0.508748       -13.8437
  31   2.0000      -0.504381       -13.7249
  32   2.0000      -0.446293       -12.1442
  33   2.0000      -0.435980       -11.8636
  34   2.0000      -0.432057       -11.7569
  35   2.0000      -0.428776       -11.6676
  36   2.0000      -0.428356       -11.6562
  37   0.0000       0.028876         0.7857
  38   0.0000       0.038858         1.0574
  39   0.0000       0.043819         1.1924
  40   0.0000       0.053885         1.4663
  41   0.0000       0.060747         1.6530

MULLIKEN ATOMIC CHARGES
-----------------------
   0 C :    0.721498
   1 C :    0.721498
   2 C :   -0.019818
   3 C :   -0.019818
   4 O :   -0.766354
   5 Cl:   -0.121646
   6 Cl:   -0.121646
   7 H :   -0.116774
   8 H :   -0.123520
   9 H :   -0.123520
  10 H :   -0.116774
  11 H :    0.032499
  12 H :    0.010938
  13 H :    0.010938
  14 H :    0.032499
Sum of atomic charges:    0.0000000

LOEWDIN ATOMIC CHARGES
----------------------
   0 C :   -0.112144
   1 C :   -0.112144
   2 C :   -0.310371
   3 C :   -0.310371
   4 O :   -0.006695
   5 Cl:    0.456217
   6 Cl:    0.456217
   7 H :    0.015622
   8 H :    0.010042
   9 H :    0.010042
  10 H :    0.015622
  11 H :   -0.029122
  12 H :   -0.026896
  13 H :   -0.026896
  14 H :   -0.029122

  Mayer bond orders larger than 0.100000
B(  0-C ,  2-C ) :   1.3101 B(  0-C ,  4-O ) :   0.6746 B(  0-C ,  5-Cl) :  -0.1066
B(  0-C ,  7-H ) :   0.8652 B(  0-C ,  8-H ) :   0.9356 B(  0-C , 11-H ) :   0.1341
B(  1-C ,  3-C ) :   1.3101 B(  1-C ,  4-O ) :   0.6746 B(  1-C ,  6-Cl) :  -0.1066
B(  1-C ,  9-H ) :   0.9356 B(  1-C , 10-H ) :   0.8652 B(  1-C , 14-H ) :   0.1341
B(  2-C ,  5-Cl) :   1.2439 B(  2-C ,  8-H ) :  -0.1025 B(  2-C , 11-H ) :   0.8088
B(  2-C , 12-H ) :   0.9426 B(  3-C ,  6-Cl) :   1.2439 B(  3-C ,  9-H ) :  -0.1025
B(  3-C , 13-H ) :   0.9426 B(  3-C , 14-H ) :   0.8088

MP2 TOTAL ENERGY:    -1151.100187340 Eh
FINAL SINGLE POINT ENERGY     -1151.100187340105

DIPOLE MOMENT
-------------
                                X             Y             Z
Electronic contribution:     -2.58269     -10.85418      -0.00000
Nuclear contribution   :      3.09045      12.79430      -0.00000
                        -----------------------------------------
Total Dipole Moment    :      0.50775       1.94012      -0.00000
                        -----------------------------------------
Magnitude (a.u.)       :      2.00546
Magnitude (Debye)      :      5.09747

Rotational constants in cm-1:     0.096028     0.024153     0.019982
Rotational constants in MHz :  2878.853496   724.078541   599.039868

                             ****ORCA TERMINATED NORMALLY****
TOTAL RUN TIME: 0 days 0 hours 0 minutes 58 seconds 295 msec
