                         Program Version 5.0.3 -  RELEASE  -
|  1> !ri-mp2 aug-cc-pvdz aug-cc-pvdz/c tightscf
|  2> %pal nprocs 16 end
|  3> %maxcore 3800
|  4>
|  5> * xyz 0 1
|  6> C     -1.682099    0.843342    1.108925
|  7> C     -2.329448   -0.758201   -0.729885
|  8> C      1.677526    1.040130   -0.932617
|  9> C      2.330696   -0.886661    0.546317
| 10> C     -1.240487    0.173905   -0.201334
| 11> C      1.245402    0.137972    0.223722
| 12> N      0.012917   -0.583301   -0.108885
| 13> H     -2.599081    1.417126    0.962026
| 14> H     -1.878405    0.091069    1.877487
| 15> H     -0.925163    1.527203    1.493070
| 16> H     -2.033698   -1.190788   -1.684763
| 17> H     -3.272260   -0.225869   -0.861804
| 18> H     -2.508153   -1.577776   -0.028379
| 19> H      2.612240    1.547255   -0.688563
| 20> H      1.827598    0.448053   -1.836881
| 21> H      0.936364    1.809119   -1.150478
| 22> H      2.039406   -1.518516    1.388533
| 23> H      3.264720   -0.390727    0.811648
| 24> H      2.513905   -1.532110   -0.314411
| 25> H     -1.083299    0.957612   -0.946157
| 26> H      1.117881    0.773535    1.113812
| 27> H     -0.112018   -1.354992    0.536287
| 28> *
| 29>
| 30>                          ****END OF INPUT****

CARTESIAN COORDINATES (ANGSTROEM)
---------------------------------
  C     -1.682099    0.843342    1.108925
  C     -2.329448   -0.758201   -0.729885
  C      1.677526    1.040130   -0.932617
  C      2.330696   -0.886661    0.546317
  C     -1.240487    0.173905   -0.201334
  C      1.245402    0.137972    0.223722
  N      0.012917   -0.583301   -0.108885
  H     -2.599081    1.417126    0.962026
  H     -1.878405    0.091069    1.877487
  H     -0.925163    1.527203    1.493070
  H     -2.033698   -1.190788   -1.684763
  H     -3.272260   -0.225869   -0.861804
  H     -2.508153   -1.577776   -0.028379
  H      2.612240    1.547255   -0.688563
  H      1.827598    0.448053   -1.836881
  H      0.936364    1.809119   -1.150478
  H      2.039406   -1.518516    1.388533
  H      3.264720   -0.390727    0.811648
  H      2.513905   -1.532110   -0.314411
  H     -1.083299    0.957612   -0.946157
  H      1.117881    0.773535    1.113812
  H     -0.112018   -1.354992    0.536287

 Total Charge           Charge          ....    0
 Multiplicity           Mult            ....    1
 Number of Electrons    NEL             ....   58
 Basis Dimension        Dim             ....  296

ORBITAL ENERGIES
----------------

  NO   OCC          E(Eh)            E(eV)
   0   2.0000     -15.538845      -422.8335
   1   2.0000     -11.254297      -306.2450
   2   2.0000     -11.254025      -306.2376
   3   2.0000     -11.216131      -305.2065
   4   2.0000     -11.215139      -305.1795
   5   2.0000     -11.213457      -305.1337
   6   2.0000     -11.212156      -305.0983
   7   2.0000      -1.206907       -32.8416
   8   2.0000      -1.059242       -28.8235
   9   2.0000      -0.986231       -26.8367
  10   2.0000      -0.931241       -25.3404
  11   2.0000      -0.929544       -25.2942
  12   2.0000      -0.803715       -21.8702
  13   2.0000      -0.770169       -20.9574
  14   2.0000      -0.662193       -18.0192
  15   2.0000      -0.624296       -16.9879
  16   2.0000      -0.613305       -16.6889
  17   2.0000      -0.591131       -16.0855
  18   2.0000      -0.559114       -15.2143
  19   2.0000      -0.554147       -15.0791
  20   2.0000      -0.535693       -14.5769
  21   2.0000      -0.532318       -14.4851
  22   2.0000      -0.519586       -14.1387
  23   2.0000      -0.495883       -13.4937
  24   2.0000      -0.491417       -13.3721
  25   2.0000      -0.474148       -12.9022
  26   2.0000      -0.463482       -12.6120
  27   2.0000      -0.456325       -12.4172
  28   2.0000      -0.356570        -9.7028
  29   0.0000       0.035852         0.9756
  30   0.0000       0.043834         1.1928
  31   0.0000       0.045361         1.2343
  32   0.0000       0.047426         1.2905
  33   0.0000       0.060840         1.6555

MULLIKEN ATOMIC CHARGES
-----------------------
   0 C :    0.807112
   1 C :    0.817928
   2 C :    0.653733
   3 C :    0.706551
   4 C :   -0.722386
   5 C :   -0.321659
   6 N :   -0.579100
   7 H :   -0.068057
   8 H :   -0.038812
   9 H :   -0.127722
  10 H :   -0.056584
  11 H :   -0.079497
  12 H :   -0.075185
  13 H :   -0.082203
  14 H :   -0.021145
  15 H :   -0.107854
  16 H :   -0.115311
  17 H :   -0.079670
  18 H :    0.016755
  19 H :   -0.284658
  20 H :   -0.202201
  21 H :   -0.040036
Sum of atomic charges:   -0.0000000

LOEWDIN ATOMIC CHARGES
----------------------
   0 C :    0.165607
   1 C :    0.163065
   2 C :    0.165866
   3 C :    0.162709
   4 C :   -0.285408
   5 C :   -0.293344
   6 N :    0.065861
   7 H :   -0.014716
   8 H :   -0.010583
   9 H :   -0.026649
  10 H :   -0.011486
  11 H :   -0.015042
  12 H :   -0.013717
  13 H :   -0.013422
  14 H :   -0.005817
  15 H :   -0.025212
  16 H :   -0.015937
  17 H :   -0.013779
  18 H :   -0.007333
  19 H :    0.024876
  20 H :    0.024301
  21 H :   -0.019839

  Mayer bond orders larger than 0.100000
B(  0-C ,  1-C ) :  -0.1798 B(  0-C ,  4-C ) :   1.2874 B(  0-C ,  7-H ) :   0.8237
B(  0-C ,  8-H ) :   0.8233 B(  0-C ,  9-H ) :   0.8888 B(  1-C ,  4-C ) :   1.3985
B(  1-C , 10-H ) :   0.8265 B(  1-C , 11-H ) :   0.8121 B(  1-C , 12-H ) :   0.8974
B(  2-C ,  3-C ) :  -0.1970 B(  2-C ,  5-C ) :   1.3481 B(  2-C , 13-H ) :   0.8228
B(  2-C , 14-H ) :   0.8564 B(  2-C , 15-H ) :   0.8824 B(  3-C ,  5-C ) :   1.4249
B(  3-C , 16-H ) :   0.8252 B(  3-C , 17-H ) :   0.8153 B(  3-C , 18-H ) :   0.9032
B(  4-C ,  5-C ) :  -0.1298 B(  4-C ,  6-N ) :   0.8997 B(  4-C ,  8-H ) :   0.2101
B(  4-C , 10-H ) :   0.1572 B(  4-C , 11-H ) :   0.1142 B(  4-C , 12-H ) :   0.1796
B(  4-C , 19-H ) :   0.7618 B(  5-C ,  6-N ) :   0.6256 B(  5-C , 14-H ) :   0.1953
B(  5-C , 16-H ) :   0.1653 B(  5-C , 17-H ) :   0.1352 B(  5-C , 18-H ) :   0.1379
B(  5-C , 20-H ) :   0.6103 B(  6-N , 20-H ) :   0.1056 B(  6-N , 21-H ) :   0.9982

MP2 TOTAL ENERGY:     -291.512753000 Eh
FINAL SINGLE POINT ENERGY      -291.512753000429

DIPOLE MOMENT
-------------
                                X             Y             Z
Electronic contribution:      0.05408      -0.68601      -0.39346
Nuclear contribution   :     -0.10752       0.83614       0.72206
                        -----------------------------------------
Total Dipole Moment    :     -0.05344       0.15014       0.32861
                        -----------------------------------------
Magnitude (a.u.)       :      0.36521
Magnitude (Debye)      :      0.92829

Rotational constants in cm-1:     0.137162     0.046846     0.045742
Rotational constants in MHz :  4112.015030  1404.393266  1371.322476

                             ****ORCA TERMINATED NORMALLY****
TOTAL RUN TIME: 0 days 0 hours 1 minutes 33 seconds 351 msec
