                         Program Version 5.0.3 -  RELEASE  -
|  1> !ri-mp2 aug-cc-pvdz aug-cc-pvdz/c tightscf
|  2> %pal nprocs 16 end
|  3>
|  4> * xyz 0 1
|  5> C     -1.173933   -0.086028   -0.010331
|  6> C     -0.518527    1.277829   -0.187572
|  7> H     -1.108936    2.034769    0.327755
|  8> H     -0.554216    1.502662   -1.257211
|  9> C      0.925632    1.196028    0.287908
| 10> H      1.002801    1.342170    1.364887
| 11> H      1.581138    1.908061   -0.205713
| 12> C     -0.148546   -1.207971    0.168542
| 13> S      1.503686   -0.500212   -0.148246
| 14> H     -0.361635   -2.019932   -0.522700
| 15> O     -2.361719   -0.281087   -0.009054
| 16> H     -0.232119   -1.594793    1.186057
| 17> *
| 18>
| 19>                          ****END OF INPUT****

CARTESIAN COORDINATES (ANGSTROEM)
---------------------------------
  C     -1.173933   -0.086028   -0.010331
  C     -0.518527    1.277829   -0.187572
  H     -1.108936    2.034769    0.327755
  H     -0.554216    1.502662   -1.257211
  C      0.925632    1.196028    0.287908
  H      1.002801    1.342170    1.364887
  H      1.581138    1.908061   -0.205713
  C     -0.148546   -1.207971    0.168542
  S      1.503686   -0.500212   -0.148246
  H     -0.361635   -2.019932   -0.522700
  O     -2.361719   -0.281087   -0.009054
  H     -0.232119   -1.594793    1.186057

 Total Charge           Charge          ....    0
 Multiplicity           Mult            ....    1
 Number of Electrons    NEL             ....   54
 Basis Dimension        Dim             ....  196

ORBITAL ENERGIES
----------------

  NO   OCC          E(Eh)            E(eV)
   0   2.0000     -91.963297     -2502.4485
   1   2.0000     -20.570671      -559.7564
   2   2.0000     -11.355507      -308.9991
   3   2.0000     -11.283869      -307.0497
   4   2.0000     -11.280659      -306.9623
   5   2.0000     -11.260963      -306.4264
   6   2.0000      -8.964866      -243.9464
   7   2.0000      -6.646609      -180.8634
   8   2.0000      -6.645557      -180.8348
   9   2.0000      -6.643325      -180.7741
  10   2.0000      -1.409822       -38.3632
  11   2.0000      -1.135771       -30.9059
  12   2.0000      -1.015252       -27.6264
  13   2.0000      -0.954631       -25.9768
  14   2.0000      -0.823680       -22.4135
  15   2.0000      -0.752862       -20.4864
  16   2.0000      -0.673453       -18.3256
  17   2.0000      -0.667623       -18.1669
  18   2.0000      -0.618723       -16.8363
  19   2.0000      -0.608627       -16.5616
  20   2.0000      -0.566454       -15.4140
  21   2.0000      -0.561703       -15.2847
  22   2.0000      -0.511462       -13.9176
  23   2.0000      -0.495343       -13.4790
  24   2.0000      -0.460213       -12.5230
  25   2.0000      -0.413749       -11.2587
  26   2.0000      -0.354693        -9.6517
  27   0.0000       0.033364         0.9079
  28   0.0000       0.043541         1.1848
  29   0.0000       0.045626         1.2415
  30   0.0000       0.053628         1.4593
  31   0.0000       0.065942         1.7944

MULLIKEN ATOMIC CHARGES
-----------------------
   0 C :    0.152730
   1 C :    0.111518
   2 H :   -0.020748
   3 H :    0.037740
   4 C :    0.149938
   5 H :   -0.089933
   6 H :   -0.061050
   7 C :   -0.125239
   8 S :    0.534234
   9 H :    0.049774
  10 O :   -0.806225
  11 H :    0.067261
Sum of atomic charges:    0.0000000

LOEWDIN ATOMIC CHARGES
----------------------
   0 C :   -0.315650
   1 C :   -0.028299
   2 H :    0.022640
   3 H :    0.026885
   4 C :   -0.254152
   5 H :   -0.030798
   6 H :   -0.031960
   7 C :   -0.215974
   8 S :    0.823745
   9 H :   -0.023889
  10 O :    0.048996
  11 H :   -0.021544

  Mayer bond orders larger than 0.100000
B(  0-C ,  1-C ) :   1.1537 B(  0-C ,  2-H ) :   0.1191 B(  0-C ,  3-H ) :   0.1001
B(  0-C ,  7-C ) :   1.1187 B(  0-C ,  8-S ) :  -0.1492 B(  0-C ,  9-H ) :   0.1623
B(  0-C , 10-O ) :   1.3557 B(  0-C , 11-H ) :   0.1363 B(  1-C ,  2-H ) :   0.7685
B(  1-C ,  3-H ) :   0.8554 B(  1-C ,  4-C ) :   1.2249 B(  1-C ,  5-H ) :   0.1089
B(  1-C ,  6-H ) :   0.1051 B(  4-C ,  5-H ) :   0.8983 B(  4-C ,  6-H ) :   0.8593
B(  4-C ,  8-S ) :   1.0635 B(  7-C ,  8-S ) :   1.0774 B(  7-C ,  9-H ) :   0.8316
B(  7-C , 11-H ) :   0.8786

MP2 TOTAL ENERGY:     -628.285032262 Eh
FINAL SINGLE POINT ENERGY      -628.285032261783

DIPOLE MOMENT
-------------
                                X             Y             Z
Electronic contribution:      0.40920      -2.57699      -0.69417
Nuclear contribution   :      0.24165       3.16103       0.89105
                        -----------------------------------------
Total Dipole Moment    :      0.65085       0.58404       0.19688
                        -----------------------------------------
Magnitude (a.u.)       :      0.89636
Magnitude (Debye)      :      2.27838

Rotational constants in cm-1:     0.187466     0.082171     0.060302
Rotational constants in MHz :  5620.103950  2463.413476  1807.794519

                             ****ORCA TERMINATED NORMALLY****
TOTAL RUN TIME: 0 days 0 hours 1 minutes 5 seconds 927 msec
