                         Program Version 5.0.3 -  RELEASE  -
|  1> !ri-mp2 aug-cc-pvdz aug-cc-pvdz/c tightscf
|  2> %pal nprocs 16 end
|  3> %maxcore 3800
|  4>
|  5> * xyz 0 1
|  6> C      1.306354    0.956233   -0.134176
|  7> C     -1.044968    0.127302    0.167328
|  8> C      3.886887   -1.608049   -0.254851
|  9> C     -4.599276   -0.443312   -0.394492
| 10> C     -0.088316    0.906240   -0.718617
| 11> C      3.316527   -0.269540    0.153530
| 12> C     -3.305169   -0.571942    0.375011
| 13> O      1.744359    1.881556    0.499819
| 14> O     -0.757253   -0.411532    1.203966
| 15> O      1.990697   -0.161001   -0.420971
| 16> O     -2.276334    0.126892   -0.371097
| 17> H      4.887123   -1.722217    0.164487
| 18> H      3.266466   -2.424893    0.112600
| 19> H      3.960144   -1.689656   -1.339244
| 20> H     -5.395469   -0.960067    0.142386
| 21> H     -4.886137    0.601847   -0.507648
| 22> H     -4.512178   -0.886897   -1.386071
| 23> H     -0.462283    1.922798   -0.825864
| 24> H     -0.078310    0.440983   -1.704161
| 25> H      3.919903    0.562400   -0.209284
| 26> H      3.228446   -0.173746    1.235219
| 27> H     -2.999534   -1.611161    0.493470
| 28> H     -3.372156   -0.128302    1.367982
| 29> *
| 30>
| 31>                          ****END OF INPUT****

CARTESIAN COORDINATES (ANGSTROEM)
---------------------------------
  C      1.306354    0.956233   -0.134176
  C     -1.044968    0.127302    0.167328
  C      3.886887   -1.608049   -0.254851
  C     -4.599276   -0.443312   -0.394492
  C     -0.088316    0.906240   -0.718617
  C      3.316527   -0.269540    0.153530
  C     -3.305169   -0.571942    0.375011
  O      1.744359    1.881556    0.499819
  O     -0.757253   -0.411532    1.203966
  O      1.990697   -0.161001   -0.420971
  O     -2.276334    0.126892   -0.371097
  H      4.887123   -1.722217    0.164487
  H      3.266466   -2.424893    0.112600
  H      3.960144   -1.689656   -1.339244
  H     -5.395469   -0.960067    0.142386
  H     -4.886137    0.601847   -0.507648
  H     -4.512178   -0.886897   -1.386071
  H     -0.462283    1.922798   -0.825864
  H     -0.078310    0.440983   -1.704161
  H      3.919903    0.562400   -0.209284
  H      3.228446   -0.173746    1.235219
  H     -2.999534   -1.611161    0.493470
  H     -3.372156   -0.128302    1.367982

 Total Charge           Charge          ....    0
 Multiplicity           Mult            ....    1
 Number of Electrons    NEL             ....   86
 Basis Dimension        Dim             ....  361

ORBITAL ENERGIES
----------------

  NO   OCC          E(Eh)            E(eV)
   0   2.0000     -20.618715      -561.0638
   1   2.0000     -20.611104      -560.8567
   2   2.0000     -20.565218      -559.6080
   3   2.0000     -20.557221      -559.3904
   4   2.0000     -11.402689      -310.2829
   5   2.0000     -11.393119      -310.0225
   6   2.0000     -11.302435      -307.5549
   7   2.0000     -11.294584      -307.3413
   8   2.0000     -11.270515      -306.6863
   9   2.0000     -11.237615      -305.7910
  10   2.0000     -11.231073      -305.6130
  11   2.0000      -1.474183       -40.1146
  12   2.0000      -1.464107       -39.8404
  13   2.0000      -1.374303       -37.3967
  14   2.0000      -1.366028       -37.1715
  15   2.0000      -1.083371       -29.4800
  16   2.0000      -1.049175       -28.5495
  17   2.0000      -1.020578       -27.7713
  18   2.0000      -0.894537       -24.3416
  19   2.0000      -0.863210       -23.4891
  20   2.0000      -0.800809       -21.7911
  21   2.0000      -0.777243       -21.1499
  22   2.0000      -0.717954       -19.5365
  23   2.0000      -0.707020       -19.2390
  24   2.0000      -0.693836       -18.8802
  25   2.0000      -0.682245       -18.5648
  26   2.0000      -0.675250       -18.3745
  27   2.0000      -0.652586       -17.7578
  28   2.0000      -0.620554       -16.8861
  29   2.0000      -0.591772       -16.1029
  30   2.0000      -0.571089       -15.5401
  31   2.0000      -0.566359       -15.4114
  32   2.0000      -0.565268       -15.3817
  33   2.0000      -0.553995       -15.0750
  34   2.0000      -0.541110       -14.7244
  35   2.0000      -0.520112       -14.1530
  36   2.0000      -0.512774       -13.9533
  37   2.0000      -0.512034       -13.9332
  38   2.0000      -0.507691       -13.8150
  39   2.0000      -0.467857       -12.7310
  40   2.0000      -0.460206       -12.5228
  41   2.0000      -0.455459       -12.3937
  42   2.0000      -0.449253       -12.2248
  43   0.0000       0.032330         0.8797
  44   0.0000       0.038728         1.0538
  45   0.0000       0.043452         1.1824
  46   0.0000       0.046831         1.2743
  47   0.0000       0.053419         1.4536

MULLIKEN ATOMIC CHARGES
-----------------------
   0 C :    1.178162
   1 C :    0.681856
   2 C :    0.297404
   3 C :    0.276944
   4 C :    0.090723
   5 C :    0.773763
   6 C :    0.759770
   7 O :   -0.777617
   8 O :   -0.694528
   9 O :   -0.851840
  10 O :   -0.828173
  11 H :   -0.033871
  12 H :   -0.045168
  13 H :   -0.046834
  14 H :   -0.038608
  15 H :   -0.037943
  16 H :   -0.038494
  17 H :    0.000868
  18 H :   -0.005806
  19 H :   -0.174152
  20 H :   -0.159738
  21 H :   -0.162184
  22 H :   -0.164535
Sum of atomic charges:   -0.0000000

LOEWDIN ATOMIC CHARGES
----------------------
   0 C :   -0.333359
   1 C :   -0.322694
   2 C :    0.141634
   3 C :    0.142039
   4 C :    0.104056
   5 C :   -0.022724
   6 C :   -0.022228
   7 O :    0.060660
   8 O :    0.069890
   9 O :    0.078495
  10 O :    0.075210
  11 H :   -0.013614
  12 H :   -0.013705
  13 H :   -0.015618
  14 H :   -0.012812
  15 H :   -0.014254
  16 H :   -0.014566
  17 H :    0.034028
  18 H :    0.031770
  19 H :    0.010424
  20 H :    0.013879
  21 H :    0.011556
  22 H :    0.011933

  Mayer bond orders larger than 0.100000
B(  0-C ,  4-C ) :   0.8555 B(  0-C ,  7-O ) :   1.3614 B(  0-C ,  9-O ) :   0.6293
B(  1-C ,  4-C ) :   1.0137 B(  1-C ,  8-O ) :   1.6059 B(  1-C , 10-O ) :   0.5717
B(  2-C ,  5-C ) :   1.2467 B(  2-C , 11-H ) :   0.9111 B(  2-C , 12-H ) :   0.9574
B(  2-C , 13-H ) :   0.9553 B(  3-C ,  6-C ) :   1.2416 B(  3-C , 14-H ) :   0.9216
B(  3-C , 15-H ) :   0.9533 B(  3-C , 16-H ) :   0.9493 B(  4-C , 17-H ) :   0.8186
B(  4-C , 18-H ) :   1.0535 B(  5-C ,  9-O ) :   0.5864 B(  5-C , 19-H ) :   0.8769
B(  5-C , 20-H ) :   0.8643 B(  6-C , 10-O ) :   0.6411 B(  6-C , 21-H ) :   0.8616
B(  6-C , 22-H ) :   0.8609

MP2 TOTAL ENERGY:     -573.399836321 Eh
FINAL SINGLE POINT ENERGY      -573.399836321084

DIPOLE MOMENT
-------------
                                X             Y             Z
Electronic contribution:      1.88639       5.48319       1.55802
Nuclear contribution   :     -2.45336      -6.09706      -2.46227
                        -----------------------------------------
Total Dipole Moment    :     -0.56697      -0.61387      -0.90425
                        -----------------------------------------
Magnitude (a.u.)       :      1.23124
Magnitude (Debye)      :      3.12957

Rotational constants in cm-1:     0.086588     0.014494     0.013509
Rotational constants in MHz :  2595.843336   434.522755   404.994905

                             ****ORCA TERMINATED NORMALLY****
TOTAL RUN TIME: 0 days 0 hours 2 minutes 1 seconds 155 msec
