                         Program Version 5.0.3 -  RELEASE  -
|  1> !ri-mp2 aug-cc-pvdz aug-cc-pvdz/c tightscf
|  2> %pal nprocs 16 end
|  3>
|  4> * xyz 0 1
|  5> C      0.000000    0.000000    0.681680
|  6> C      0.000000    0.000000   -0.681680
|  7> C      0.000000    0.000000    1.885975
|  8> C      0.000000    0.000000   -1.885975
|  9> H      0.000000    0.000000    2.946942
| 10> H      0.000000    0.000000   -2.946942
| 11> *
| 12>
| 13>                          ****END OF INPUT****

CARTESIAN COORDINATES (ANGSTROEM)
---------------------------------
  C      0.000000    0.000000    0.681680
  C      0.000000    0.000000   -0.681680
  C      0.000000    0.000000    1.885975
  C      0.000000    0.000000   -1.885975
  H      0.000000    0.000000    2.946942
  H      0.000000    0.000000   -2.946942

 Total Charge           Charge          ....    0
 Multiplicity           Mult            ....    1
 Number of Electrons    NEL             ....   26
 Basis Dimension        Dim             ....  110

ORBITAL ENERGIES
----------------

  NO   OCC          E(Eh)            E(eV)
   0   2.0000     -11.275579      -306.8241
   1   2.0000     -11.274430      -306.7928
   2   2.0000     -11.267075      -306.5927
   3   2.0000     -11.267006      -306.5908
   4   2.0000      -1.097888       -29.8750
   5   2.0000      -1.026232       -27.9252
   6   2.0000      -0.855097       -23.2684
   7   2.0000      -0.734364       -19.9831
   8   2.0000      -0.706697       -19.2302
   9   2.0000      -0.494542       -13.4572
  10   2.0000      -0.494542       -13.4572
  11   2.0000      -0.371172       -10.1001
  12   2.0000      -0.371172       -10.1001
  13   0.0000       0.034878         0.9491
  14   0.0000       0.035091         0.9549
  15   0.0000       0.081476         2.2171
  16   0.0000       0.081476         2.2171
  17   0.0000       0.089191         2.4270

MULLIKEN ATOMIC CHARGES
-----------------------
   0 C :    0.444499
   1 C :    0.444499
   2 C :    0.154736
   3 C :    0.154736
   4 H :   -0.599236
   5 H :   -0.599236
Sum of atomic charges:    0.0000000

LOEWDIN ATOMIC CHARGES
----------------------
   0 C :   -0.151757
   1 C :   -0.151757
   2 C :    0.247175
   3 C :    0.247175
   4 H :   -0.095419
   5 H :   -0.095419

  Mayer bond orders larger than 0.100000
B(  0-C ,  1-C ) :   1.5287 B(  0-C ,  2-C ) :   2.2918 B(  0-C ,  3-C ) :  -0.7560
B(  0-C ,  4-H ) :   0.2814 B(  0-C ,  5-H ) :   0.1344 B(  1-C ,  2-C ) :  -0.7560
B(  1-C ,  3-C ) :   2.2918 B(  1-C ,  4-H ) :   0.1344 B(  1-C ,  5-H ) :   0.2814
B(  2-C ,  3-C ) :   0.8398

MP2 TOTAL ENERGY:     -153.022900943 Eh
FINAL SINGLE POINT ENERGY      -153.022900942540

DIPOLE MOMENT
-------------
                                X             Y             Z
Electronic contribution:      0.00000      -0.00000      -0.00000
Nuclear contribution   :      0.00000       0.00000       0.00000
                        -----------------------------------------
Total Dipole Moment    :      0.00000      -0.00000      -0.00000
                        -----------------------------------------
Magnitude (a.u.)       :      0.00000
Magnitude (Debye)      :      0.00000

Rotational constants in cm-1:     0.000000     0.147726     0.147726
Rotational constants in MHz :     0.000000  4428.705027  4428.705027

                             ****ORCA TERMINATED NORMALLY****
TOTAL RUN TIME: 0 days 0 hours 0 minutes 46 seconds 692 msec
