                         Program Version 5.0.3 -  RELEASE  -
|  1> !ri-mp2 aug-cc-pvdz aug-cc-pvdz/c tightscf
|  2> %pal nprocs 16 end
|  3>
|  4> * xyz 0 1
|  5> C     0.000000     0.000000    0.075891
|  6> C     0.000000     2.340391   -0.016158
|  7> C     0.000000    -2.340391   -0.016158
|  8> O     0.000000     0.000000    1.281653
|  9> O     0.000000     1.081938   -0.709482
| 10> O     0.000000    -1.081938   -0.709482
| 11> H    -0.887790     2.432734    0.606454
| 12> H     0.000000     3.096867   -0.794390
| 13> H     0.887790     2.432734    0.606454
| 14> H     0.000000    -3.096867   -0.794390
| 15> H    -0.887790    -2.432734    0.606454
| 16> H     0.887790    -2.432734    0.606454
| 17> *
| 18>
| 19>                          ****END OF INPUT****

CARTESIAN COORDINATES (ANGSTROEM)
---------------------------------
  C      0.000000    0.000000    0.075891
  C      0.000000    2.340391   -0.016158
  C      0.000000   -2.340391   -0.016158
  O      0.000000    0.000000    1.281653
  O      0.000000    1.081938   -0.709482
  O      0.000000   -1.081938   -0.709482
  H     -0.887790    2.432734    0.606454
  H      0.000000    3.096867   -0.794390
  H      0.887790    2.432734    0.606454
  H      0.000000   -3.096867   -0.794390
  H     -0.887790   -2.432734    0.606454
  H      0.887790   -2.432734    0.606454

 Total Charge           Charge          ....    0
 Multiplicity           Mult            ....    1
 Number of Electrons    NEL             ....   48
 Basis Dimension        Dim             ....  192

ORBITAL ENERGIES
----------------

  NO   OCC          E(Eh)            E(eV)
   0   2.0000     -20.620280      -561.1063
   1   2.0000     -20.620254      -561.1056
   2   2.0000     -20.557747      -559.4047
   3   2.0000     -11.440552      -311.3133
   4   2.0000     -11.298391      -307.4448
   5   2.0000     -11.298389      -307.4448
   6   2.0000      -1.511278       -41.1240
   7   2.0000      -1.405491       -38.2454
   8   2.0000      -1.371002       -37.3069
   9   2.0000      -1.012746       -27.5582
  10   2.0000      -0.943901       -25.6849
  11   2.0000      -0.796335       -21.6694
  12   2.0000      -0.753792       -20.5117
  13   2.0000      -0.707614       -19.2552
  14   2.0000      -0.702128       -19.1059
  15   2.0000      -0.643352       -17.5065
  16   2.0000      -0.629269       -17.1233
  17   2.0000      -0.600030       -16.3276
  18   2.0000      -0.560660       -15.2563
  19   2.0000      -0.549378       -14.9493
  20   2.0000      -0.533300       -14.5118
  21   2.0000      -0.475760       -12.9461
  22   2.0000      -0.473350       -12.8805
  23   2.0000      -0.472007       -12.8440
  24   0.0000       0.035515         0.9664
  25   0.0000       0.042241         1.1494
  26   0.0000       0.055912         1.5214
  27   0.0000       0.056409         1.5350
  28   0.0000       0.066151         1.8001

MULLIKEN ATOMIC CHARGES
-----------------------
   0 C :    1.231065
   1 C :    0.785879
   2 C :    0.785879
   3 O :   -0.581875
   4 O :   -0.760132
   5 O :   -0.760132
   6 H :   -0.054582
   7 H :   -0.241178
   8 H :   -0.054582
   9 H :   -0.241178
  10 H :   -0.054582
  11 H :   -0.054582
Sum of atomic charges:   -0.0000000

LOEWDIN ATOMIC CHARGES
----------------------
   0 C :   -0.420081
   1 C :    0.186402
   2 C :    0.186402
   3 O :    0.041942
   4 O :    0.063600
   5 O :    0.063600
   6 H :   -0.018007
   7 H :   -0.024918
   8 H :   -0.018007
   9 H :   -0.024918
  10 H :   -0.018007
  11 H :   -0.018007

  Mayer bond orders larger than 0.100000
B(  0-C ,  3-O ) :   1.6456 B(  0-C ,  4-O ) :   0.8662 B(  0-C ,  5-O ) :   0.8662
B(  1-C ,  4-O ) :   0.6274 B(  1-C ,  6-H ) :   0.9656 B(  1-C ,  7-H ) :   1.0441
B(  1-C ,  8-H ) :   0.9656 B(  2-C ,  5-O ) :   0.6274 B(  2-C ,  9-H ) :   1.0441
B(  2-C , 10-H ) :   0.9656 B(  2-C , 11-H ) :   0.9656

MP2 TOTAL ENERGY:     -342.755268579 Eh
FINAL SINGLE POINT ENERGY      -342.755268579122

DIPOLE MOMENT
-------------
                                X             Y             Z
Electronic contribution:     -0.00000       0.00000      -1.00316
Nuclear contribution   :      0.00000      -0.00000       0.83552
                        -----------------------------------------
Total Dipole Moment    :     -0.00000       0.00000      -0.16765
                        -----------------------------------------
Magnitude (a.u.)       :      0.16765
Magnitude (Debye)      :      0.42612

Rotational constants in cm-1:     0.348385     0.078258     0.065481
Rotational constants in MHz : 10444.312968  2346.127734  1963.079103

                             ****ORCA TERMINATED NORMALLY****
TOTAL RUN TIME: 0 days 0 hours 0 minutes 59 seconds 754 msec
