                         Program Version 5.0.3 -  RELEASE  -
|  1> !ri-mp2 aug-cc-pvdz aug-cc-pvdz/c tightscf
|  2> %pal nprocs 16 end
|  3>
|  4> * xyz 0 1
|  5> O      0.424779    2.021733    0.000000
|  6> S      0.358890    0.561255    0.000000
|  7> C     -0.613205    0.101793    1.471297
|  8> C     -0.613205   -1.376626    1.826915
|  9> C     -0.613205    0.101793   -1.471297
| 10> C     -0.613205   -1.376626   -1.826915
| 11> O      1.592893   -0.223650    0.000000
| 12> H     -1.610423    0.511825    1.314449
| 13> H     -0.127133    0.701508    2.241547
| 14> H      0.402605   -1.766402    1.849066
| 15> H     -1.195297   -1.970903    1.125329
| 16> H     -1.053100   -1.509402    2.815892
| 17> H     -0.127133    0.701508   -2.241547
| 18> H     -1.610423    0.511825   -1.314449
| 19> H      0.402605   -1.766402   -1.849066
| 20> H     -1.053100   -1.509402   -2.815892
| 21> H     -1.195297   -1.970903   -1.125329
| 22> *
| 23>
| 24>                          ****END OF INPUT****

CARTESIAN COORDINATES (ANGSTROEM)
---------------------------------
  O      0.424779    2.021733    0.000000
  S      0.358890    0.561255    0.000000
  C     -0.613205    0.101793    1.471297
  C     -0.613205   -1.376626    1.826915
  C     -0.613205    0.101793   -1.471297
  C     -0.613205   -1.376626   -1.826915
  O      1.592893   -0.223650    0.000000
  H     -1.610423    0.511825    1.314449
  H     -0.127133    0.701508    2.241547
  H      0.402605   -1.766402    1.849066
  H     -1.195297   -1.970903    1.125329
  H     -1.053100   -1.509402    2.815892
  H     -0.127133    0.701508   -2.241547
  H     -1.610423    0.511825   -1.314449
  H      0.402605   -1.766402   -1.849066
  H     -1.053100   -1.509402   -2.815892
  H     -1.195297   -1.970903   -1.125329

 Total Charge           Charge          ....    0
 Multiplicity           Mult            ....    1
 Number of Electrons    NEL             ....   66
 Basis Dimension        Dim             ....  255

ORBITAL ENERGIES
----------------

  NO   OCC          E(Eh)            E(eV)
   0   2.0000     -92.187393     -2508.5465
   1   2.0000     -20.547032      -559.1132
   2   2.0000     -20.544625      -559.0477
   3   2.0000     -11.286703      -307.1268
   4   2.0000     -11.286685      -307.1263
   5   2.0000     -11.251909      -306.1800
   6   2.0000     -11.251906      -306.1799
   7   2.0000      -9.161095      -249.2861
   8   2.0000      -6.846295      -186.2972
   9   2.0000      -6.844845      -186.2577
  10   2.0000      -6.844636      -186.2520
  11   2.0000      -1.441868       -39.2352
  12   2.0000      -1.328618       -36.1535
  13   2.0000      -1.095558       -29.8117
  14   2.0000      -1.067365       -29.0445
  15   2.0000      -0.943565       -25.6757
  16   2.0000      -0.893818       -24.3220
  17   2.0000      -0.794672       -21.6241
  18   2.0000      -0.686892       -18.6913
  19   2.0000      -0.682863       -18.5816
  20   2.0000      -0.653756       -17.7896
  21   2.0000      -0.629568       -17.1314
  22   2.0000      -0.619685       -16.8625
  23   2.0000      -0.589905       -16.0521
  24   2.0000      -0.578080       -15.7303
  25   2.0000      -0.556542       -15.1443
  26   2.0000      -0.546554       -14.8725
  27   2.0000      -0.536477       -14.5983
  28   2.0000      -0.517379       -14.0786
  29   2.0000      -0.483096       -13.1457
  30   2.0000      -0.476254       -12.9595
  31   2.0000      -0.457677       -12.4540
  32   2.0000      -0.417840       -11.3700
  33   0.0000       0.027002         0.7348
  34   0.0000       0.036628         0.9967
  35   0.0000       0.043370         1.1802
  36   0.0000       0.051249         1.3946
  37   0.0000       0.060658         1.6506

MULLIKEN ATOMIC CHARGES
-----------------------
   0 O :   -1.252570
   1 S :    2.749523
   2 C :   -0.204269
   3 C :    0.442225
   4 C :   -0.204269
   5 C :    0.442225
   6 O :   -1.295133
   7 H :   -0.098814
   8 H :   -0.017236
   9 H :   -0.028763
  10 H :   -0.153448
  11 H :   -0.040605
  12 H :   -0.017236
  13 H :   -0.098814
  14 H :   -0.028763
  15 H :   -0.040605
  16 H :   -0.153448
Sum of atomic charges:    0.0000000

LOEWDIN ATOMIC CHARGES
----------------------
   0 O :   -0.409296
   1 S :    0.937757
   2 C :   -0.109694
   3 C :    0.118484
   4 C :   -0.109694
   5 C :    0.118484
   6 O :   -0.400755
   7 H :   -0.007670
   8 H :   -0.002908
   9 H :   -0.015337
  10 H :   -0.033376
  11 H :   -0.013351
  12 H :   -0.002908
  13 H :   -0.007670
  14 H :   -0.015337
  15 H :   -0.013351
  16 H :   -0.033376

  Mayer bond orders larger than 0.100000
B(  0-O ,  1-S ) :   0.5278 B(  0-O ,  6-O ) :   0.1301 B(  1-S ,  2-C ) :   0.9417
B(  1-S ,  4-C ) :   0.9417 B(  1-S ,  6-O ) :   0.6375 B(  2-C ,  3-C ) :   1.2173
B(  2-C ,  6-O ) :   0.1895 B(  2-C ,  7-H ) :   0.9266 B(  2-C ,  8-H ) :   0.8843
B(  3-C ,  9-H ) :   0.9299 B(  3-C , 10-H ) :   0.9849 B(  3-C , 11-H ) :   0.8955
B(  4-C ,  5-C ) :   1.2173 B(  4-C ,  6-O ) :   0.1895 B(  4-C , 12-H ) :   0.8843
B(  4-C , 13-H ) :   0.9266 B(  5-C , 14-H ) :   0.9299 B(  5-C , 15-H ) :   0.8955
B(  5-C , 16-H ) :   0.9849

MP2 TOTAL ENERGY:     -705.673041624 Eh
FINAL SINGLE POINT ENERGY      -705.673041623798

DIPOLE MOMENT
-------------
                                X             Y             Z
Electronic contribution:      5.43780       7.01046       0.00000
Nuclear contribution   :     -7.24953      -8.17247       0.00000
                        -----------------------------------------
Total Dipole Moment    :     -1.81173      -1.16202       0.00000
                        -----------------------------------------
Magnitude (a.u.)       :      2.15236
Magnitude (Debye)      :      5.47087

Rotational constants in cm-1:     0.077420     0.073227     0.051088
Rotational constants in MHz :  2320.980327  2195.290983  1531.569073

                             ****ORCA TERMINATED NORMALLY****
TOTAL RUN TIME: 0 days 0 hours 1 minutes 26 seconds 945 msec
