                         Program Version 5.0.3 -  RELEASE  -
|  1> !ri-mp2 aug-cc-pvdz aug-cc-pvdz/c tightscf
|  2> %pal nprocs 16 end
|  3>
|  4> * xyz 0 1
|  5> O      1.240989    2.316707   -0.287642
|  6> N      0.074392    0.539266    0.153552
|  7> N      0.338574    1.835872    0.364116
|  8> C     -1.018081   -0.017513    0.938595
|  9> C      0.805026   -0.270810   -0.823168
| 10> C     -2.168330   -0.409668    0.125287
| 11> C      1.525451   -1.378278   -0.205251
| 12> C     -3.106676   -0.740595   -0.542391
| 13> C      2.105048   -2.294984    0.304845
| 14> H     -0.653615   -0.880360    1.501749
| 15> H     -1.300451    0.756689    1.652149
| 16> H      1.494721    0.413664   -1.317408
| 17> H      0.099799   -0.648227   -1.567386
| 18> H     -3.943385   -1.027237   -1.129310
| 19> H      2.629621   -3.103060    0.750177
| 20> *
| 21>
| 22>                          ****END OF INPUT****

CARTESIAN COORDINATES (ANGSTROEM)
---------------------------------
  O      1.240989    2.316707   -0.287642
  N      0.074392    0.539266    0.153552
  N      0.338574    1.835872    0.364116
  C     -1.018081   -0.017513    0.938595
  C      0.805026   -0.270810   -0.823168
  C     -2.168330   -0.409668    0.125287
  C      1.525451   -1.378278   -0.205251
  C     -3.106676   -0.740595   -0.542391
  C      2.105048   -2.294984    0.304845
  H     -0.653615   -0.880360    1.501749
  H     -1.300451    0.756689    1.652149
  H      1.494721    0.413664   -1.317408
  H      0.099799   -0.648227   -1.567386
  H     -3.943385   -1.027237   -1.129310
  H      2.629621   -3.103060    0.750177

 Total Charge           Charge          ....    0
 Multiplicity           Mult            ....    1
 Number of Electrons    NEL             ....   64
 Basis Dimension        Dim             ....  261

ORBITAL ENERGIES
----------------

  NO   OCC          E(Eh)            E(eV)
   0   2.0000     -20.601837      -560.6045
   1   2.0000     -15.747885      -428.5217
   2   2.0000     -15.650378      -425.8684
   3   2.0000     -11.321673      -308.0784
   4   2.0000     -11.314717      -307.8891
   5   2.0000     -11.261514      -306.4414
   6   2.0000     -11.260156      -306.4044
   7   2.0000     -11.254330      -306.2459
   8   2.0000     -11.251603      -306.1717
   9   2.0000      -1.530880       -41.6574
  10   2.0000      -1.304006       -35.4838
  11   2.0000      -1.092284       -29.7226
  12   2.0000      -1.081453       -29.4278
  13   2.0000      -1.006645       -27.3922
  14   2.0000      -0.996400       -27.1134
  15   2.0000      -0.844171       -22.9711
  16   2.0000      -0.767628       -20.8882
  17   2.0000      -0.741602       -20.1800
  18   2.0000      -0.733804       -19.9678
  19   2.0000      -0.715505       -19.4699
  20   2.0000      -0.700551       -19.0630
  21   2.0000      -0.645209       -17.5570
  22   2.0000      -0.619830       -16.8664
  23   2.0000      -0.611298       -16.6343
  24   2.0000      -0.600961       -16.3530
  25   2.0000      -0.589198       -16.0329
  26   2.0000      -0.438716       -11.9381
  27   2.0000      -0.422851       -11.5064
  28   2.0000      -0.412085       -11.2134
  29   2.0000      -0.408133       -11.1059
  30   2.0000      -0.406133       -11.0515
  31   2.0000      -0.399050       -10.8587
  32   0.0000       0.030299         0.8245
  33   0.0000       0.033670         0.9162
  34   0.0000       0.045609         1.2411
  35   0.0000       0.050769         1.3815
  36   0.0000       0.062232         1.6934

MULLIKEN ATOMIC CHARGES
-----------------------
   0 O :   -0.704934
   1 N :   -0.420316
   2 N :    0.176145
   3 C :    0.556315
   4 C :    0.648817
   5 C :   -0.397988
   6 C :   -0.396441
   7 C :    0.996796
   8 C :    0.967862
   9 H :   -0.058547
  10 H :   -0.112758
  11 H :   -0.089205
  12 H :   -0.052544
  13 H :   -0.553187
  14 H :   -0.560016
Sum of atomic charges:   -0.0000000

LOEWDIN ATOMIC CHARGES
----------------------
   0 O :   -0.013573
   1 N :   -0.160732
   2 N :    0.007635
   3 C :   -0.009469
   4 C :    0.007316
   5 C :   -0.079560
   6 C :   -0.080788
   7 C :    0.221719
   8 C :    0.222053
   9 H :    0.027290
  10 H :    0.024558
  11 H :    0.001594
  12 H :    0.029850
  13 H :   -0.098584
  14 H :   -0.099308

  Mayer bond orders larger than 0.100000
B(  0-O ,  1-N ) :   0.1186 B(  0-O ,  2-N ) :   1.1185 B(  1-N ,  2-N ) :   1.0186
B(  1-N ,  3-C ) :   0.9094 B(  1-N ,  4-C ) :   0.9073 B(  1-N ,  5-C ) :  -0.1164
B(  2-N ,  4-C ) :  -0.1113 B(  3-C ,  4-C ) :  -0.1158 B(  3-C ,  5-C ) :   1.2076
B(  3-C ,  7-C ) :   0.1732 B(  3-C ,  9-H ) :   0.8384 B(  3-C , 10-H ) :   0.9019
B(  3-C , 13-H ) :   0.1459 B(  4-C ,  6-C ) :   1.2353 B(  4-C ,  8-C ) :   0.1978
B(  4-C , 11-H ) :   0.8639 B(  4-C , 12-H ) :   0.8193 B(  4-C , 14-H ) :   0.1531
B(  5-C ,  7-C ) :   2.6746 B(  5-C , 13-H ) :   0.7373 B(  6-C ,  8-C ) :   2.6887
B(  6-C , 14-H ) :   0.7655 B(  7-C , 13-H ) :  -0.4381 B(  8-C , 14-H ) :  -0.4840

MP2 TOTAL ENERGY:     -415.620169791 Eh
FINAL SINGLE POINT ENERGY      -415.620169791229

DIPOLE MOMENT
-------------
                                X             Y             Z
Electronic contribution:      1.01419       3.10948       0.19398
Nuclear contribution   :     -1.62522      -4.36792      -0.10976
                        -----------------------------------------
Total Dipole Moment    :     -0.61103      -1.25844       0.08422
                        -----------------------------------------
Magnitude (a.u.)       :      1.40147
Magnitude (Debye)      :      3.56225

Rotational constants in cm-1:     0.059404     0.046059     0.029449
Rotational constants in MHz :  1780.898828  1380.825236   882.860247

                             ****ORCA TERMINATED NORMALLY****
TOTAL RUN TIME: 0 days 0 hours 1 minutes 20 seconds 587 msec
