                         Program Version 5.0.3 -  RELEASE  -
|  1> !ri-mp2 aug-cc-pvdz aug-cc-pvdz/c tightscf
|  2> %pal nprocs 16 end
|  3>
|  4> * xyz 0 1
|  5> C     0.000000    0.000000     0.036614
|  6> S     0.000000    0.000000     1.679557
|  7> S     0.000000    1.427910    -0.995436
|  8> S     0.000000   -1.427910    -0.995436
|  9> C     0.000000    2.795841     0.193673
| 10> C     0.000000   -2.795841     0.193673
| 11> H     0.889349    2.757958     0.816057
| 12> H     0.889349   -2.757958     0.816057
| 13> H     0.000000    3.699161    -0.413472
| 14> H    -0.889349    2.757958     0.816057
| 15> H    -0.889349   -2.757958     0.816057
| 16> H     0.000000   -3.699161    -0.413472
| 17> *
| 18>
| 19>                          ****END OF INPUT****

CARTESIAN COORDINATES (ANGSTROEM)
---------------------------------
  C      0.000000    0.000000    0.036614
  S      0.000000    0.000000    1.679557
  S      0.000000    1.427910   -0.995436
  S      0.000000   -1.427910   -0.995436
  C      0.000000    2.795841    0.193673
  C      0.000000   -2.795841    0.193673
  H      0.889349    2.757958    0.816057
  H      0.889349   -2.757958    0.816057
  H      0.000000    3.699161   -0.413472
  H     -0.889349    2.757958    0.816057
  H     -0.889349   -2.757958    0.816057
  H      0.000000   -3.699161   -0.413472

 Total Charge           Charge          ....    0
 Multiplicity           Mult            ....    1
 Number of Electrons    NEL             ....   72
 Basis Dimension        Dim             ....  204

ORBITAL ENERGIES
----------------

  NO   OCC          E(Eh)            E(eV)
   0   2.0000     -91.989996     -2503.1750
   1   2.0000     -91.989995     -2503.1750
   2   2.0000     -91.933765     -2501.6449
   3   2.0000     -11.377886      -309.6080
   4   2.0000     -11.274508      -306.7950
   5   2.0000     -11.274507      -306.7949
   6   2.0000      -8.992340      -244.6940
   7   2.0000      -8.992320      -244.6935
   8   2.0000      -8.937164      -243.1926
   9   2.0000      -6.674341      -181.6181
  10   2.0000      -6.674340      -181.6180
  11   2.0000      -6.672439      -181.5663
  12   2.0000      -6.672434      -181.5662
  13   2.0000      -6.670807      -181.5219
  14   2.0000      -6.670802      -181.5218
  15   2.0000      -6.619261      -180.1192
  16   2.0000      -6.616875      -180.0543
  17   2.0000      -6.615414      -180.0146
  18   2.0000      -1.147451       -31.2237
  19   2.0000      -1.059416       -28.8282
  20   2.0000      -1.000958       -27.2375
  21   2.0000      -0.926714       -25.2172
  22   2.0000      -0.872269       -23.7356
  23   2.0000      -0.695106       -18.9148
  24   2.0000      -0.632624       -17.2146
  25   2.0000      -0.608060       -16.5462
  26   2.0000      -0.601356       -16.3637
  27   2.0000      -0.594570       -16.1791
  28   2.0000      -0.573229       -15.5984
  29   2.0000      -0.521935       -14.2026
  30   2.0000      -0.485482       -13.2106
  31   2.0000      -0.480194       -13.0667
  32   2.0000      -0.457638       -12.4530
  33   2.0000      -0.361100        -9.8260
  34   2.0000      -0.345913        -9.4128
  35   2.0000      -0.340046        -9.2531
  36   0.0000       0.036071         0.9815
  37   0.0000       0.039106         1.0641
  38   0.0000       0.046777         1.2729
  39   0.0000       0.056534         1.5384
  40   0.0000       0.065546         1.7836

MULLIKEN ATOMIC CHARGES
-----------------------
   0 C :   -0.666567
   1 S :   -0.083069
   2 S :    0.430909
   3 S :    0.430909
   4 C :    0.074149
   5 C :    0.074149
   6 H :   -0.007264
   7 H :   -0.007264
   8 H :   -0.115711
   9 H :   -0.007264
  10 H :   -0.007264
  11 H :   -0.115711
Sum of atomic charges:   -0.0000000

LOEWDIN ATOMIC CHARGES
----------------------
   0 C :   -1.358643
   1 S :    0.514814
   2 S :    0.777572
   3 S :    0.777572
   4 C :   -0.144940
   5 C :   -0.144940
   6 H :   -0.071345
   7 H :   -0.071345
   8 H :   -0.068028
   9 H :   -0.071345
  10 H :   -0.071345
  11 H :   -0.068028

  Mayer bond orders larger than 0.100000
B(  0-C ,  1-S ) :   1.6027 B(  0-C ,  2-S ) :   1.0947 B(  0-C ,  3-S ) :   1.0947
B(  2-S ,  3-S ) :  -0.1004 B(  2-S ,  4-C ) :   1.0727 B(  3-S ,  5-C ) :   1.0727
B(  4-C ,  6-H ) :   0.9859 B(  4-C ,  8-H ) :   0.9979 B(  4-C ,  9-H ) :   0.9859
B(  5-C ,  7-H ) :   0.9859 B(  5-C , 10-H ) :   0.9859 B(  5-C , 11-H ) :   0.9979

MP2 TOTAL ENERGY:    -1310.563455407 Eh
FINAL SINGLE POINT ENERGY     -1310.563455407131

DIPOLE MOMENT
-------------
                                X             Y             Z
Electronic contribution:      0.00000      -0.00000      -2.53005
Nuclear contribution   :      0.00000      -0.00000       2.39309
                        -----------------------------------------
Total Dipole Moment    :      0.00000      -0.00000      -0.13696
                        -----------------------------------------
Magnitude (a.u.)       :      0.13696
Magnitude (Debye)      :      0.34812

Rotational constants in cm-1:     0.104662     0.044368     0.031531
Rotational constants in MHz :  3137.683755  1330.107907   945.264808

                             ****ORCA TERMINATED NORMALLY****
TOTAL RUN TIME: 0 days 0 hours 1 minutes 5 seconds 388 msec
