                         Program Version 5.0.3 -  RELEASE  -
|  1> !ri-mp2 aug-cc-pvdz aug-cc-pvdz/c tightscf
|  2> %pal nprocs 16 end
|  3>
|  4> * xyz 0 1
|  5> S      0.000000    0.000000    0.622694
|  6> C      0.000000    1.368102   -0.488687
|  7> C      0.000000   -1.368102   -0.488687
|  8> C      0.070431    2.637301   -0.102333
|  9> C     -0.070431   -2.637301   -0.102333
| 10> H     -0.074147    1.103676   -1.536088
| 11> H      0.074147   -1.103676   -1.536088
| 12> H      0.052949    3.429596   -0.836759
| 13> H      0.143817    2.926289    0.937418
| 14> H     -0.052949   -3.429596   -0.836759
| 15> H     -0.143817   -2.926289    0.937418
| 16> *
| 17>
| 18>                          ****END OF INPUT****

CARTESIAN COORDINATES (ANGSTROEM)
---------------------------------
  S      0.000000    0.000000    0.622694
  C      0.000000    1.368102   -0.488687
  C      0.000000   -1.368102   -0.488687
  C      0.070431    2.637301   -0.102333
  C     -0.070431   -2.637301   -0.102333
  H     -0.074147    1.103676   -1.536088
  H      0.074147   -1.103676   -1.536088
  H      0.052949    3.429596   -0.836759
  H      0.143817    2.926289    0.937418
  H     -0.052949   -3.429596   -0.836759
  H     -0.143817   -2.926289    0.937418

 Total Charge           Charge          ....    0
 Multiplicity           Mult            ....    1
 Number of Electrons    NEL             ....   46
 Basis Dimension        Dim             ....  173

ORBITAL ENERGIES
----------------

  NO   OCC          E(Eh)            E(eV)
   0   2.0000     -91.972253     -2502.6922
   1   2.0000     -11.281108      -306.9746
   2   2.0000     -11.281092      -306.9741
   3   2.0000     -11.241033      -305.8841
   4   2.0000     -11.241031      -305.8840
   5   2.0000      -8.975176      -244.2270
   6   2.0000      -6.657219      -181.1521
   7   2.0000      -6.655860      -181.1152
   8   2.0000      -6.653824      -181.0598
   9   2.0000      -1.114856       -30.3368
  10   2.0000      -1.055444       -28.7201
  11   2.0000      -0.949416       -25.8349
  12   2.0000      -0.789536       -21.4844
  13   2.0000      -0.767782       -20.8924
  14   2.0000      -0.662262       -18.0211
  15   2.0000      -0.639954       -17.4140
  16   2.0000      -0.580689       -15.8014
  17   2.0000      -0.578859       -15.7516
  18   2.0000      -0.507841       -13.8191
  19   2.0000      -0.482925       -13.1411
  20   2.0000      -0.452484       -12.3127
  21   2.0000      -0.401513       -10.9257
  22   2.0000      -0.302444        -8.2299
  23   0.0000       0.035952         0.9783
  24   0.0000       0.039609         1.0778
  25   0.0000       0.047233         1.2853
  26   0.0000       0.059867         1.6291
  27   0.0000       0.063879         1.7382

MULLIKEN ATOMIC CHARGES
-----------------------
   0 S :    0.441700
   1 C :    0.073073
   2 C :    0.073073
   3 C :    0.810270
   4 C :    0.810270
   5 H :   -0.578354
   6 H :   -0.578354
   7 H :   -0.247457
   8 H :   -0.278382
   9 H :   -0.247457
  10 H :   -0.278382
Sum of atomic charges:   -0.0000000

LOEWDIN ATOMIC CHARGES
----------------------
   0 S :    0.897013
   1 C :   -0.373773
   2 C :   -0.373773
   3 C :    0.081073
   4 C :    0.081073
   5 H :   -0.056735
   6 H :   -0.056735
   7 H :   -0.050075
   8 H :   -0.048996
   9 H :   -0.050075
  10 H :   -0.048996

  Mayer bond orders larger than 0.100000
B(  0-S ,  1-C ) :   0.7922 B(  0-S ,  2-C ) :   0.7922 B(  1-C ,  3-C ) :   1.9629
B(  1-C ,  5-H ) :   0.8768 B(  1-C ,  7-H ) :   0.2149 B(  1-C ,  8-H ) :   0.1370
B(  2-C ,  4-C ) :   1.9629 B(  2-C ,  6-H ) :   0.8768 B(  2-C ,  9-H ) :   0.2149
B(  2-C , 10-H ) :   0.1370 B(  3-C ,  4-C ) :   0.1286 B(  3-C ,  7-H ) :   0.6812
B(  3-C ,  8-H ) :   0.7860 B(  4-C ,  9-H ) :   0.6812 B(  4-C , 10-H ) :   0.7860
B(  5-H ,  6-H ) :  -0.1025 B(  7-H ,  8-H ) :  -0.1685 B(  9-H , 10-H ) :  -0.1685

MP2 TOTAL ENERGY:     -553.154538367 Eh
FINAL SINGLE POINT ENERGY      -553.154538366608

DIPOLE MOMENT
-------------
                                X             Y             Z
Electronic contribution:      0.00000       0.00000       2.38287
Nuclear contribution   :      0.00000       0.00000      -2.89810
                        -----------------------------------------
Total Dipole Moment    :      0.00000       0.00000      -0.51523
                        -----------------------------------------
Magnitude (a.u.)       :      0.51523
Magnitude (Debye)      :      1.30962

Rotational constants in cm-1:     0.640428     0.065940     0.059809
Rotational constants in MHz : 19199.557486  1976.820353  1793.029699

                             ****ORCA TERMINATED NORMALLY****
TOTAL RUN TIME: 0 days 0 hours 0 minutes 37 seconds 706 msec
