                         Program Version 5.0.3 -  RELEASE  -
|  1> !ri-mp2 aug-cc-pvdz aug-cc-pvdz/c tightscf
|  2> %pal nprocs 16 end
|  3> %maxcore 3800
|  4>
|  5> * xyz 0 1
|  6> C     -2.486191   -0.072064    0.552450
|  7> C     -1.024223    0.142152    0.935317
|  8> S     -0.047098    0.993348   -0.402402
|  9> O      0.947086    1.893124    0.293391
| 10> C     -2.714523   -1.122271   -0.534399
| 11> C      0.925143   -0.441946   -1.093699
| 12> C      2.275145   -0.662317   -0.419059
| 13> C      2.229720   -1.279940    0.977069
| 14> H     -2.917557    0.881786    0.239294
| 15> H     -3.024646   -0.367002    1.456918
| 16> H     -0.533523   -0.786746    1.217820
| 17> H     -0.928225    0.849831    1.758194
| 18> H     -2.255162   -0.831273   -1.480484
| 19> H     -2.300045   -2.089896   -0.243556
| 20> H     -3.779511   -1.261717   -0.720802
| 21> H      1.067876   -0.172666   -2.140309
| 22> H      0.277509   -1.317972   -1.055491
| 23> H      2.793803    0.296174   -0.372767
| 24> H      2.859562   -1.304564   -1.083624
| 25> H      1.774757   -0.601276    1.697093
| 26> H      1.672070   -2.219643    0.985066
| 27> H      3.239545   -1.495279    1.327871
| 28> *
| 29>
| 30>                          ****END OF INPUT****

CARTESIAN COORDINATES (ANGSTROEM)
---------------------------------
  C     -2.486191   -0.072064    0.552450
  C     -1.024223    0.142152    0.935317
  S     -0.047098    0.993348   -0.402402
  O      0.947086    1.893124    0.293391
  C     -2.714523   -1.122271   -0.534399
  C      0.925143   -0.441946   -1.093699
  C      2.275145   -0.662317   -0.419059
  C      2.229720   -1.279940    0.977069
  H     -2.917557    0.881786    0.239294
  H     -3.024646   -0.367002    1.456918
  H     -0.533523   -0.786746    1.217820
  H     -0.928225    0.849831    1.758194
  H     -2.255162   -0.831273   -1.480484
  H     -2.300045   -2.089896   -0.243556
  H     -3.779511   -1.261717   -0.720802
  H      1.067876   -0.172666   -2.140309
  H      0.277509   -1.317972   -1.055491
  H      2.793803    0.296174   -0.372767
  H      2.859562   -1.304564   -1.083624
  H      1.774757   -0.601276    1.697093
  H      1.672070   -2.219643    0.985066
  H      3.239545   -1.495279    1.327871

 Total Charge           Charge          ....    0
 Multiplicity           Mult            ....    1
 Number of Electrons    NEL             ....   74
 Basis Dimension        Dim             ....  314

ORBITAL ENERGIES
----------------

  NO   OCC          E(Eh)            E(eV)
   0   2.0000     -92.063767     -2505.1824
   1   2.0000     -20.505540      -557.9841
   2   2.0000     -11.268351      -306.6274
   3   2.0000     -11.266411      -306.5746
   4   2.0000     -11.249244      -306.1075
   5   2.0000     -11.237506      -305.7881
   6   2.0000     -11.236166      -305.7516
   7   2.0000     -11.223428      -305.4050
   8   2.0000      -9.052689      -246.3362
   9   2.0000      -6.734959      -183.2675
  10   2.0000      -6.734131      -183.2450
  11   2.0000      -6.732185      -183.1921
  12   2.0000      -1.323479       -36.0137
  13   2.0000      -1.096565       -29.8391
  14   2.0000      -1.072990       -29.1975
  15   2.0000      -0.990419       -26.9507
  16   2.0000      -0.952663       -25.9233
  17   2.0000      -0.870996       -23.7010
  18   2.0000      -0.815287       -22.1851
  19   2.0000      -0.779301       -21.2059
  20   2.0000      -0.658847       -17.9281
  21   2.0000      -0.639150       -17.3922
  22   2.0000      -0.630390       -17.1538
  23   2.0000      -0.626350       -17.0439
  24   2.0000      -0.582869       -15.8607
  25   2.0000      -0.579283       -15.7631
  26   2.0000      -0.560662       -15.2564
  27   2.0000      -0.546844       -14.8804
  28   2.0000      -0.536193       -14.5906
  29   2.0000      -0.512194       -13.9375
  30   2.0000      -0.505250       -13.7485
  31   2.0000      -0.499831       -13.6011
  32   2.0000      -0.487259       -13.2590
  33   2.0000      -0.481842       -13.1116
  34   2.0000      -0.481121       -13.0920
  35   2.0000      -0.396569       -10.7912
  36   2.0000      -0.350994        -9.5510
  37   0.0000       0.030428         0.8280
  38   0.0000       0.037627         1.0239
  39   0.0000       0.040332         1.0975
  40   0.0000       0.047521         1.2931
  41   0.0000       0.053654         1.4600

MULLIKEN ATOMIC CHARGES
-----------------------
   0 C :    0.267654
   1 C :    0.026645
   2 S :    1.454339
   3 O :   -1.258103
   4 C :    0.477520
   5 C :    0.007154
   6 C :    0.263704
   7 C :    0.479807
   8 H :   -0.114539
   9 H :   -0.065742
  10 H :   -0.318372
  11 H :   -0.077150
  12 H :   -0.035523
  13 H :   -0.097616
  14 H :   -0.164550
  15 H :   -0.093837
  16 H :   -0.283567
  17 H :   -0.090675
  18 H :   -0.106606
  19 H :    0.015693
  20 H :   -0.089612
  21 H :   -0.196625
Sum of atomic charges:    0.0000000

LOEWDIN ATOMIC CHARGES
----------------------
   0 C :   -0.116296
   1 C :   -0.157689
   2 S :    1.045804
   3 O :   -0.554629
   4 C :    0.122862
   5 C :   -0.164084
   6 C :   -0.106896
   7 C :    0.128446
   8 H :    0.007916
   9 H :    0.011439
  10 H :   -0.035362
  11 H :   -0.015352
  12 H :   -0.026249
  13 H :   -0.017588
  14 H :   -0.018399
  15 H :   -0.026429
  16 H :   -0.029593
  17 H :    0.002091
  18 H :    0.010853
  19 H :   -0.023588
  20 H :   -0.019110
  21 H :   -0.018144

  Mayer bond orders larger than 0.100000
B(  0-C ,  1-C ) :   1.3476 B(  0-C ,  4-C ) :   1.1847 B(  0-C ,  8-H ) :   0.8143
B(  0-C ,  9-H ) :   0.8071 B(  1-C ,  2-S ) :   0.9002 B(  1-C , 10-H ) :   0.8812
B(  1-C , 11-H ) :   0.8588 B(  2-S ,  3-O ) :   0.6597 B(  2-S ,  5-C ) :   0.9587
B(  3-O ,  5-C ) :   0.1727 B(  4-C , 12-H ) :   0.9125 B(  4-C , 13-H ) :   0.9345
B(  4-C , 14-H ) :   0.9016 B(  5-C ,  6-C ) :   1.3101 B(  5-C , 15-H ) :   0.8729
B(  5-C , 16-H ) :   0.9229 B(  6-C ,  7-C ) :   1.2451 B(  6-C , 17-H ) :   0.8056
B(  6-C , 18-H ) :   0.8188 B(  7-C , 19-H ) :   0.8725 B(  7-C , 20-H ) :   0.9111
B(  7-C , 21-H ) :   0.9132 B(  8-H ,  9-H ) :  -0.1082 B( 15-H , 16-H ) :  -0.1129
B( 17-H , 18-H ) :  -0.1196

MP2 TOTAL ENERGY:     -708.989424117 Eh
FINAL SINGLE POINT ENERGY      -708.989424117373

DIPOLE MOMENT
-------------
                                X             Y             Z
Electronic contribution:      1.27743       9.19388      -1.93147
Nuclear contribution   :     -2.10910     -10.78906       1.65885
                        -----------------------------------------
Total Dipole Moment    :     -0.83167      -1.59518      -0.27262
                        -----------------------------------------
Magnitude (a.u.)       :      1.81951
Magnitude (Debye)      :      4.62482

Rotational constants in cm-1:     0.074785     0.035558     0.030612
Rotational constants in MHz :  2241.995073  1066.006596   917.729790

                             ****ORCA TERMINATED NORMALLY****
TOTAL RUN TIME: 0 days 0 hours 1 minutes 45 seconds 850 msec
