                         Program Version 5.0.3 -  RELEASE  -
|  1> !ri-mp2 aug-cc-pvdz aug-cc-pvdz/c tightscf
|  2> %pal nprocs 16 end
|  3>
|  4> * xyz 0 1
|  5> C      0.459938    0.519040    0.021772
|  6> O     -0.510152   -0.525067   -0.027869
|  7> O     -1.815721    0.108175   -0.095134
|  8> C      1.818413   -0.154922    0.004015
|  9> H      0.327982    1.173442   -0.843321
| 10> H      0.318113    1.110577    0.931373
| 11> H     -2.200256   -0.182756    0.742877
| 12> H      1.942232   -0.811711    0.864757
| 13> H      2.600069    0.604443    0.037023
| 14> H      1.948740   -0.743562   -0.903410
| 15> *
| 16>
| 17>                          ****END OF INPUT****

CARTESIAN COORDINATES (ANGSTROEM)
---------------------------------
  C      0.459938    0.519040    0.021772
  O     -0.510152   -0.525067   -0.027869
  O     -1.815721    0.108175   -0.095134
  C      1.818413   -0.154922    0.004015
  H      0.327982    1.173442   -0.843321
  H      0.318113    1.110577    0.931373
  H     -2.200256   -0.182756    0.742877
  H      1.942232   -0.811711    0.864757
  H      2.600069    0.604443    0.037023
  H      1.948740   -0.743562   -0.903410

 Total Charge           Charge          ....    0
 Multiplicity           Mult            ....    1
 Number of Electrons    NEL             ....   34
 Basis Dimension        Dim             ....  146

ORBITAL ENERGIES
----------------

  NO   OCC          E(Eh)            E(eV)
   0   2.0000     -20.630154      -561.3750
   1   2.0000     -20.629835      -561.3664
   2   2.0000     -11.288721      -307.1817
   3   2.0000     -11.231109      -305.6140
   4   2.0000      -1.472783       -40.0765
   5   2.0000      -1.231412       -33.5084
   6   2.0000      -1.009890       -27.4805
   7   2.0000      -0.845617       -23.0104
   8   2.0000      -0.720738       -19.6123
   9   2.0000      -0.664542       -18.0831
  10   2.0000      -0.646637       -17.5959
  11   2.0000      -0.605896       -16.4873
  12   2.0000      -0.544314       -14.8115
  13   2.0000      -0.529293       -14.4028
  14   2.0000      -0.506990       -13.7959
  15   2.0000      -0.488488       -13.2924
  16   2.0000      -0.446019       -12.1368
  17   0.0000       0.035940         0.9780
  18   0.0000       0.044826         1.2198
  19   0.0000       0.051591         1.4039
  20   0.0000       0.054622         1.4863
  21   0.0000       0.071844         1.9550

MULLIKEN ATOMIC CHARGES
-----------------------
   0 C :    0.875514
   1 O :   -0.571745
   2 O :   -0.286329
   3 C :    0.177013
   4 H :   -0.146440
   5 H :   -0.148406
   6 H :    0.212084
   7 H :   -0.051852
   8 H :   -0.028328
   9 H :   -0.031511
Sum of atomic charges:   -0.0000000

LOEWDIN ATOMIC CHARGES
----------------------
   0 C :   -0.094396
   1 O :   -0.011617
   2 O :    0.107779
   3 C :    0.129651
   4 H :    0.000733
   5 H :   -0.000357
   6 H :   -0.079226
   7 H :   -0.018908
   8 H :   -0.016431
   9 H :   -0.017228

  Mayer bond orders larger than 0.100000
B(  0-C ,  1-O ) :   0.5277 B(  0-C ,  2-O ) :  -0.1393 B(  0-C ,  3-C ) :   1.2679
B(  0-C ,  4-H ) :   0.9176 B(  0-C ,  5-H ) :   0.9158 B(  1-O ,  2-O ) :   0.8475
B(  2-O ,  6-H ) :   0.9755 B(  3-C ,  7-H ) :   0.9641 B(  3-C ,  8-H ) :   0.9340
B(  3-C ,  9-H ) :   0.9644

MP2 TOTAL ENERGY:     -229.583398797 Eh
FINAL SINGLE POINT ENERGY      -229.583398796524

DIPOLE MOMENT
-------------
                                X             Y             Z
Electronic contribution:     -4.69192      -0.88789      -0.26754
Nuclear contribution   :      5.04126       1.17678       0.85117
                        -----------------------------------------
Total Dipole Moment    :      0.34934       0.28889       0.58363
                        -----------------------------------------
Magnitude (a.u.)       :      0.73900
Magnitude (Debye)      :      1.87840

Rotational constants in cm-1:     1.039771     0.137955     0.128983
Rotational constants in MHz : 31171.537272  4135.772965  3866.811100

                             ****ORCA TERMINATED NORMALLY****
TOTAL RUN TIME: 0 days 0 hours 0 minutes 32 seconds 305 msec
