                         Program Version 5.0.3 -  RELEASE  -
|  1> !ri-mp2 aug-cc-pvdz aug-cc-pvdz/c tightscf
|  2> %pal nprocs 16 end
|  3>
|  4> * xyz 0 1
|  5> C     0.397467     0.657442    0.000000
|  6> C    -0.397467    -0.657442    0.000000
|  7> N    -0.397467     1.884333    0.000000
|  8> N     0.397467    -1.884333    0.000000
|  9> H     0.996875    -1.932923    0.815009
| 10> H     0.996875    -1.932923   -0.815009
| 11> H    -0.996875     1.932923    0.815009
| 12> H    -0.996875     1.932923   -0.815009
| 13> H    -1.053507    -0.679296    0.874859
| 14> H    -1.053507    -0.679296   -0.874859
| 15> H     1.053507     0.679296    0.874859
| 16> H     1.053507     0.679296   -0.874859
| 17> *
| 18>
| 19>                          ****END OF INPUT****

CARTESIAN COORDINATES (ANGSTROEM)
---------------------------------
  C      0.397467    0.657442    0.000000
  C     -0.397467   -0.657442    0.000000
  N     -0.397467    1.884333    0.000000
  N      0.397467   -1.884333    0.000000
  H      0.996875   -1.932923    0.815009
  H      0.996875   -1.932923   -0.815009
  H     -0.996875    1.932923    0.815009
  H     -0.996875    1.932923   -0.815009
  H     -1.053507   -0.679296    0.874859
  H     -1.053507   -0.679296   -0.874859
  H      1.053507    0.679296    0.874859
  H      1.053507    0.679296   -0.874859

 Total Charge           Charge          ....    0
 Multiplicity           Mult            ....    1
 Number of Electrons    NEL             ....   34
 Basis Dimension        Dim             ....  164

ORBITAL ENERGIES
----------------

  NO   OCC          E(Eh)            E(eV)
   0   2.0000     -15.550694      -423.1559
   1   2.0000     -15.550688      -423.1557
   2   2.0000     -11.253880      -306.2336
   3   2.0000     -11.253296      -306.2178
   4   2.0000      -1.194942       -32.5160
   5   2.0000      -1.163724       -31.6665
   6   2.0000      -0.950872       -25.8745
   7   2.0000      -0.830112       -22.5885
   8   2.0000      -0.691483       -18.8162
   9   2.0000      -0.652919       -17.7668
  10   2.0000      -0.601878       -16.3779
  11   2.0000      -0.600890       -16.3510
  12   2.0000      -0.548402       -14.9228
  13   2.0000      -0.522566       -14.2197
  14   2.0000      -0.481683       -13.1073
  15   2.0000      -0.430451       -11.7132
  16   2.0000      -0.365792        -9.9537
  17   0.0000       0.036483         0.9928
  18   0.0000       0.041966         1.1420
  19   0.0000       0.046234         1.2581
  20   0.0000       0.054663         1.4875
  21   0.0000       0.071396         1.9428

MULLIKEN ATOMIC CHARGES
-----------------------
   0 C :    0.673581
   1 C :    0.673581
   2 N :   -0.462758
   3 N :   -0.462758
   4 H :    0.001481
   5 H :    0.001481
   6 H :    0.001481
   7 H :    0.001481
   8 H :   -0.106892
   9 H :   -0.106892
  10 H :   -0.106892
  11 H :   -0.106892
Sum of atomic charges:   -0.0000000

LOEWDIN ATOMIC CHARGES
----------------------
   0 C :   -0.075186
   1 C :   -0.075186
   2 N :    0.171361
   3 N :    0.171361
   4 H :   -0.055233
   5 H :   -0.055233
   6 H :   -0.055233
   7 H :   -0.055233
   8 H :    0.007145
   9 H :    0.007145
  10 H :    0.007145
  11 H :    0.007145

  Mayer bond orders larger than 0.100000
B(  0-C ,  1-C ) :   1.1188 B(  0-C ,  2-N ) :   0.8090 B(  0-C , 10-H ) :   0.9111
B(  0-C , 11-H ) :   0.9111 B(  1-C ,  3-N ) :   0.8090 B(  1-C ,  8-H ) :   0.9111
B(  1-C ,  9-H ) :   0.9111 B(  2-N ,  6-H ) :   1.0649 B(  2-N ,  7-H ) :   1.0649
B(  3-N ,  4-H ) :   1.0649 B(  3-N ,  5-H ) :   1.0649 B(  8-H ,  9-H ) :  -0.1184
B( 10-H , 11-H ) :  -0.1184

MP2 TOTAL ENERGY:     -189.975021384 Eh
FINAL SINGLE POINT ENERGY      -189.975021383792

DIPOLE MOMENT
-------------
                                X             Y             Z
Electronic contribution:     -0.00000       0.00000       0.00000
Nuclear contribution   :      0.00000       0.00000       0.00000
                        -----------------------------------------
Total Dipole Moment    :     -0.00000       0.00000       0.00000
                        -----------------------------------------
Magnitude (a.u.)       :      0.00000
Magnitude (Debye)      :      0.00000

Rotational constants in cm-1:     0.883295     0.124023     0.117491
Rotational constants in MHz : 26480.505471  3718.117259  3522.298743

                             ****ORCA TERMINATED NORMALLY****
TOTAL RUN TIME: 0 days 0 hours 0 minutes 39 seconds 911 msec
