                         Program Version 5.0.3 -  RELEASE  -
|  1> !ri-mp2 aug-cc-pvdz aug-cc-pvdz/c tightscf
|  2> %pal nprocs 16 end
|  3>
|  4> * xyz 0 1
|  5> C      2.774263    0.471453    0.018406
|  6> H      3.025428    1.225242   -0.732402
|  7> H      2.694425    0.968642    0.985285
|  8> H      3.620197   -0.219765    0.061021
|  9> C      1.508736   -0.244855   -0.337967
| 10> H      1.506561   -0.764857   -1.293079
| 11> C      0.414083   -0.292101    0.413417
| 12> H      0.408451    0.231044    1.366497
| 13> C     -0.843677   -1.027566    0.061292
| 14> H     -0.699053   -1.585556   -0.870041
| 15> H     -1.042235   -1.789762    0.825223
| 16> C     -2.083249   -0.179059   -0.069246
| 17> H     -3.009282   -0.738490   -0.164929
| 18> C     -2.134346    1.146986   -0.084084
| 19> H     -3.075965    1.668839   -0.188328
| 20> H     -1.243382    1.755515   -0.000158
| 21> *
| 22>
| 23>                          ****END OF INPUT****

CARTESIAN COORDINATES (ANGSTROEM)
---------------------------------
  C      2.774263    0.471453    0.018406
  H      3.025428    1.225242   -0.732402
  H      2.694425    0.968642    0.985285
  H      3.620197   -0.219765    0.061021
  C      1.508736   -0.244855   -0.337967
  H      1.506561   -0.764857   -1.293079
  C      0.414083   -0.292101    0.413417
  H      0.408451    0.231044    1.366497
  C     -0.843677   -1.027566    0.061292
  H     -0.699053   -1.585556   -0.870041
  H     -1.042235   -1.789762    0.825223
  C     -2.083249   -0.179059   -0.069246
  H     -3.009282   -0.738490   -0.164929
  C     -2.134346    1.146986   -0.084084
  H     -3.075965    1.668839   -0.188328
  H     -1.243382    1.755515   -0.000158

 Total Charge           Charge          ....    0
 Multiplicity           Mult            ....    1
 Number of Electrons    NEL             ....   46
 Basis Dimension        Dim             ....  228

ORBITAL ENERGIES
----------------

  NO   OCC          E(Eh)            E(eV)
   0   2.0000     -11.238313      -305.8101
   1   2.0000     -11.236227      -305.7533
   2   2.0000     -11.232380      -305.6486
   3   2.0000     -11.228194      -305.5347
   4   2.0000     -11.226491      -305.4884
   5   2.0000     -11.221922      -305.3640
   6   2.0000      -1.100510       -29.9464
   7   2.0000      -1.048232       -28.5239
   8   2.0000      -0.969326       -26.3767
   9   2.0000      -0.891531       -24.2598
  10   2.0000      -0.770497       -20.9663
  11   2.0000      -0.733393       -19.9566
  12   2.0000      -0.641848       -17.4656
  13   2.0000      -0.615090       -16.7374
  14   2.0000      -0.609593       -16.5879
  15   2.0000      -0.566592       -15.4177
  16   2.0000      -0.557401       -15.1677
  17   2.0000      -0.535717       -14.5776
  18   2.0000      -0.517272       -14.0757
  19   2.0000      -0.496298       -13.5050
  20   2.0000      -0.471249       -12.8233
  21   2.0000      -0.360810        -9.8181
  22   2.0000      -0.346622        -9.4321
  23   0.0000       0.037102         1.0096
  24   0.0000       0.041967         1.1420
  25   0.0000       0.046349         1.2612
  26   0.0000       0.049770         1.3543
  27   0.0000       0.060109         1.6356

MULLIKEN ATOMIC CHARGES
-----------------------
   0 C :    0.234510
   1 H :    0.051159
   2 H :   -0.137866
   3 H :    0.048762
   4 C :   -0.033492
   5 H :   -0.478170
   6 C :    1.092955
   7 H :   -0.511943
   8 C :    0.008857
   9 H :   -0.083817
  10 H :    0.058296
  11 C :    0.338665
  12 H :   -0.436985
  13 C :    0.464886
  14 H :   -0.321617
  15 H :   -0.294198
Sum of atomic charges:    0.0000000

LOEWDIN ATOMIC CHARGES
----------------------
   0 C :    0.131475
   1 H :   -0.018445
   2 H :   -0.018873
   3 H :   -0.018651
   4 C :   -0.046324
   5 H :   -0.001126
   6 C :   -0.027280
   7 H :    0.006877
   8 C :   -0.042620
   9 H :    0.017363
  10 H :    0.017330
  11 C :   -0.062433
  12 H :   -0.004774
  13 C :    0.157887
  14 H :   -0.045252
  15 H :   -0.045152

  Mayer bond orders larger than 0.100000
B(  0-C ,  1-H ) :   0.9055 B(  0-C ,  2-H ) :   0.9394 B(  0-C ,  3-H ) :   0.8988
B(  0-C ,  4-C ) :   1.2308 B(  0-C ,  6-C ) :  -0.1868 B(  4-C ,  5-H ) :   0.6299
B(  4-C ,  6-C ) :   2.0429 B(  4-C ,  7-H ) :   0.1377 B(  4-C , 13-C ) :   0.1355
B(  6-C ,  7-H ) :   0.3033 B(  6-C ,  8-C ) :   1.1810 B(  6-C ,  9-H ) :  -0.1549
B(  6-C , 11-C ) :  -0.1136 B(  7-H ,  8-C ) :   0.1287 B(  8-C ,  9-H ) :   0.8164
B(  8-C , 10-H ) :   0.8158 B(  8-C , 11-C ) :   1.3600 B(  8-C , 13-C ) :  -0.2607
B(  8-C , 15-H ) :  -0.1539 B(  9-H , 11-C ) :   0.1481 B( 11-C , 12-H ) :   0.7080
B( 11-C , 13-C ) :   2.1172 B( 11-C , 14-H ) :   0.1327 B( 11-C , 15-H ) :   0.1194
B( 13-C , 14-H ) :   0.7371 B( 13-C , 15-H ) :   0.8600 B( 14-H , 15-H ) :  -0.2262

MP2 TOTAL ENERGY:     -233.865707557 Eh
FINAL SINGLE POINT ENERGY      -233.865707557376

DIPOLE MOMENT
-------------
                                X             Y             Z
Electronic contribution:     -2.17149      -0.90873      -0.01170
Nuclear contribution   :      2.29807       0.78966      -0.01147
                        -----------------------------------------
Total Dipole Moment    :      0.12658      -0.11907      -0.02318
                        -----------------------------------------
Magnitude (a.u.)       :      0.17532
Magnitude (Debye)      :      0.44563

Rotational constants in cm-1:     0.286445     0.055929     0.049598
Rotational constants in MHz :  8587.394675  1676.699162  1486.923092

                             ****ORCA TERMINATED NORMALLY****
TOTAL RUN TIME: 0 days 0 hours 0 minutes 30 seconds 745 msec
