                         Program Version 5.0.3 -  RELEASE  -
|  1> !ri-mp2 aug-cc-pvdz aug-cc-pvdz/c tightscf
|  2> %pal nprocs 16 end
|  3>
|  4> * xyz 0 1
|  5> C     1.188032     2.829092       0.000000
|  6> C    -1.188032    -2.829092       0.000000
|  7> C     1.188032     1.492100       0.000000
|  8> C    -1.188032    -1.492100       0.000000
|  9> C    -0.002470     0.672860       0.000000
| 10> C     0.002470    -0.672860       0.000000
| 11> H     2.108575     3.395117       0.000000
| 12> H     0.264255     3.394397       0.000000
| 13> H    -2.108575    -3.395117       0.000000
| 14> H    -0.264255    -3.394397       0.000000
| 15> H     2.137085     0.964589       0.000000
| 16> H    -2.137085    -0.964589       0.000000
| 17> H    -0.955353     1.194813       0.000000
| 18> H     0.955353    -1.194813       0.000000
| 19> *
| 20>
| 21>                          ****END OF INPUT****

CARTESIAN COORDINATES (ANGSTROEM)
---------------------------------
  C      1.188032    2.829092    0.000000
  C     -1.188032   -2.829092    0.000000
  C      1.188032    1.492100    0.000000
  C     -1.188032   -1.492100    0.000000
  C     -0.002470    0.672860    0.000000
  C      0.002470   -0.672860    0.000000
  H      2.108575    3.395117    0.000000
  H      0.264255    3.394397    0.000000
  H     -2.108575   -3.395117    0.000000
  H     -0.264255   -3.394397    0.000000
  H      2.137085    0.964589    0.000000
  H     -2.137085   -0.964589    0.000000
  H     -0.955353    1.194813    0.000000
  H      0.955353   -1.194813    0.000000

 Total Charge           Charge          ....    0
 Multiplicity           Mult            ....    1
 Number of Electrons    NEL             ....   44
 Basis Dimension        Dim             ....  210

ORBITAL ENERGIES
----------------

  NO   OCC          E(Eh)            E(eV)
   0   2.0000     -11.246865      -306.0428
   1   2.0000     -11.246699      -306.0382
   2   2.0000     -11.245900      -306.0165
   3   2.0000     -11.244491      -305.9782
   4   2.0000     -11.236694      -305.7660
   5   2.0000     -11.236694      -305.7660
   6   2.0000      -1.115891       -30.3649
   7   2.0000      -1.063415       -28.9370
   8   2.0000      -0.988328       -26.8938
   9   2.0000      -0.852486       -23.1973
  10   2.0000      -0.764592       -20.8056
  11   2.0000      -0.763339       -20.7715
  12   2.0000      -0.668085       -18.1795
  13   2.0000      -0.637192       -17.3389
  14   2.0000      -0.602781       -16.4025
  15   2.0000      -0.570803       -15.5323
  16   2.0000      -0.543580       -14.7916
  17   2.0000      -0.515126       -14.0173
  18   2.0000      -0.494320       -13.4511
  19   2.0000      -0.469301       -12.7703
  20   2.0000      -0.398145       -10.8341
  21   2.0000      -0.295236        -8.0338
  22   0.0000       0.037134         1.0105
  23   0.0000       0.039290         1.0691
  24   0.0000       0.040492         1.1019
  25   0.0000       0.055713         1.5160
  26   0.0000       0.058540         1.5930

MULLIKEN ATOMIC CHARGES
-----------------------
   0 C :    0.590534
   1 C :    0.590534
   2 C :    0.691727
   3 C :    0.691727
   4 C :    0.478027
   5 C :    0.478027
   6 H :   -0.323051
   7 H :   -0.334775
   8 H :   -0.323051
   9 H :   -0.334775
  10 H :   -0.555992
  11 H :   -0.555992
  12 H :   -0.546469
  13 H :   -0.546469
Sum of atomic charges:    0.0000000

LOEWDIN ATOMIC CHARGES
----------------------
   0 C :    0.174710
   1 C :    0.174710
   2 C :   -0.078774
   3 C :   -0.078774
   4 C :   -0.018765
   5 C :   -0.018765
   6 H :   -0.045189
   7 H :   -0.040116
   8 H :   -0.045189
   9 H :   -0.040116
  10 H :    0.001046
  11 H :    0.001046
  12 H :    0.007088
  13 H :    0.007088

  Mayer bond orders larger than 0.100000
B(  0-C ,  1-C ) :   0.1351 B(  0-C ,  2-C ) :   1.8658 B(  0-C ,  4-C ) :  -0.2264
B(  0-C ,  5-C ) :   0.2340 B(  0-C ,  6-H ) :   0.7074 B(  0-C ,  7-H ) :   0.8330
B(  1-C ,  3-C ) :   1.8658 B(  1-C ,  4-C ) :   0.2340 B(  1-C ,  5-C ) :  -0.2264
B(  1-C ,  8-H ) :   0.7074 B(  1-C ,  9-H ) :   0.8330 B(  2-C ,  3-C ) :   0.1413
B(  2-C ,  4-C ) :   1.4419 B(  2-C ,  5-C ) :  -0.3231 B(  2-C ,  6-H ) :   0.1653
B(  2-C , 10-H ) :   0.3094 B(  3-C ,  4-C ) :  -0.3231 B(  3-C ,  5-C ) :   1.4419
B(  3-C ,  8-H ) :   0.1653 B(  3-C , 11-H ) :   0.3094 B(  4-C ,  5-C ) :   2.2860
B(  4-C , 10-H ) :   0.4009 B(  4-C , 11-H ) :  -0.1359 B(  4-C , 12-H ) :   0.2376
B(  4-C , 13-H ) :   0.5124 B(  5-C , 10-H ) :  -0.1359 B(  5-C , 11-H ) :   0.4009
B(  5-C , 12-H ) :   0.5124 B(  5-C , 13-H ) :   0.2376 B(  6-H ,  7-H ) :  -0.1798
B(  8-H ,  9-H ) :  -0.1798

MP2 TOTAL ENERGY:     -232.661595336 Eh
FINAL SINGLE POINT ENERGY      -232.661595335926

DIPOLE MOMENT
-------------
                                X             Y             Z
Electronic contribution:     -0.00000      -0.00000       0.00000
Nuclear contribution   :      0.00000       0.00000       0.00000
                        -----------------------------------------
Total Dipole Moment    :     -0.00000      -0.00000       0.00000
                        -----------------------------------------
Magnitude (a.u.)       :      0.00000
Magnitude (Debye)      :      0.00000

Rotational constants in cm-1:     0.896251     0.044716     0.042591
Rotational constants in MHz : 26868.927144  1340.541294  1276.837472

                             ****ORCA TERMINATED NORMALLY****
TOTAL RUN TIME: 0 days 0 hours 0 minutes 27 seconds 203 msec
