                         Program Version 5.0.3 -  RELEASE  -
|  1> !ri-mp2 aug-cc-pvdz aug-cc-pvdz/c tightscf
|  2> %pal nprocs 16 end
|  3>
|  4> * xyz 0 1
|  5> C     -1.237894   -1.104197   -0.000349
|  6> C     -0.280575    0.059414   -0.004593
|  7> N     -0.872923    1.267541    0.000200
|  8> S      1.365722   -0.118344    0.000090
|  9> H     -1.971419   -1.006290   -0.804504
| 10> H     -0.698836   -2.036611   -0.119837
| 11> H     -1.784470   -1.132530    0.945767
| 12> H     -1.873504    1.369103   -0.005404
| 13> H     -0.302047    2.095742    0.010785
| 14> *
| 15>
| 16>                          ****END OF INPUT****

CARTESIAN COORDINATES (ANGSTROEM)
---------------------------------
  C     -1.237894   -1.104197   -0.000349
  C     -0.280575    0.059414   -0.004593
  N     -0.872923    1.267541    0.000200
  S      1.365722   -0.118344    0.000090
  H     -1.971419   -1.006290   -0.804504
  H     -0.698836   -2.036611   -0.119837
  H     -1.784470   -1.132530    0.945767
  H     -1.873504    1.369103   -0.005404
  H     -0.302047    2.095742    0.010785

 Total Charge           Charge          ....    0
 Multiplicity           Mult            ....    1
 Number of Electrons    NEL             ....   40
 Basis Dimension        Dim             ....  141

ORBITAL ENERGIES
----------------

  NO   OCC          E(Eh)            E(eV)
   0   2.0000     -91.902014     -2500.7810
   1   2.0000     -15.619661      -425.0326
   2   2.0000     -11.360297      -309.1294
   3   2.0000     -11.256236      -306.2978
   4   2.0000      -8.905552      -242.3324
   5   2.0000      -6.587866      -179.2650
   6   2.0000      -6.585278      -179.1945
   7   2.0000      -6.584036      -179.1607
   8   2.0000      -1.274862       -34.6908
   9   2.0000      -1.046493       -28.4765
  10   2.0000      -0.953488       -25.9457
  11   2.0000      -0.798610       -21.7313
  12   2.0000      -0.736703       -20.0467
  13   2.0000      -0.633001       -17.2248
  14   2.0000      -0.611608       -16.6427
  15   2.0000      -0.570358       -15.5202
  16   2.0000      -0.507423       -13.8077
  17   2.0000      -0.499157       -13.5827
  18   2.0000      -0.336827        -9.1655
  19   2.0000      -0.324012        -8.8168
  20   0.0000       0.023459         0.6383
  21   0.0000       0.044058         1.1989
  22   0.0000       0.049792         1.3549
  23   0.0000       0.056192         1.5291
  24   0.0000       0.075434         2.0527

MULLIKEN ATOMIC CHARGES
-----------------------
   0 C :    0.385275
   1 C :    0.029011
   2 N :   -0.324744
   3 S :   -0.079930
   4 H :   -0.001286
   5 H :   -0.012266
   6 H :    0.044748
   7 H :   -0.042593
   8 H :    0.001785
Sum of atomic charges:    0.0000000

LOEWDIN ATOMIC CHARGES
----------------------
   0 C :    0.125327
   1 C :   -0.760360
   2 N :    0.192728
   3 S :    0.506946
   4 H :   -0.009442
   5 H :   -0.022727
   6 H :   -0.005058
   7 H :   -0.013302
   8 H :   -0.014112

  Mayer bond orders larger than 0.100000
B(  0-C ,  1-C ) :   1.2714 B(  0-C ,  4-H ) :   0.8900 B(  0-C ,  5-H ) :   0.9152
B(  0-C ,  6-H ) :   0.8839 B(  1-C ,  2-N ) :   1.0402 B(  1-C ,  3-S ) :   1.7154
B(  1-C ,  7-H ) :  -0.1125 B(  2-N ,  7-H ) :   1.1399 B(  2-N ,  8-H ) :   1.1159

MP2 TOTAL ENERGY:     -531.259139585 Eh
FINAL SINGLE POINT ENERGY      -531.259139585234

DIPOLE MOMENT
-------------
                                X             Y             Z
Electronic contribution:      4.75146       1.21684      -0.02004
Nuclear contribution   :     -6.67700      -0.69944       0.02680
                        -----------------------------------------
Total Dipole Moment    :     -1.92554       0.51740       0.00677
                        -----------------------------------------
Magnitude (a.u.)       :      1.99385
Magnitude (Debye)      :      5.06797

Rotational constants in cm-1:     0.324743     0.165015     0.111691
Rotational constants in MHz :  9735.544947  4947.029251  3348.411278

                             ****ORCA TERMINATED NORMALLY****
TOTAL RUN TIME: 0 days 0 hours 0 minutes 34 seconds 958 msec
