                         Program Version 5.0.3 -  RELEASE  -
|  1> !ri-mp2 aug-cc-pvdz aug-cc-pvdz/c tightscf
|  2> %pal nprocs 16 end
|  3>
|  4> * xyz 0 1
|  5> C    -0.332378     0.570025       0.000000
|  6> C     0.332378    -0.570025       0.000000
|  7> F     0.332378     1.740937       0.000000
|  8> F    -0.332378    -1.740937       0.000000
|  9> H    -1.407427     0.668528       0.000000
| 10> H     1.407427    -0.668528       0.000000
| 11> *
| 12>
| 13>                          ****END OF INPUT****

CARTESIAN COORDINATES (ANGSTROEM)
---------------------------------
  C     -0.332378    0.570025    0.000000
  C      0.332378   -0.570025    0.000000
  F      0.332378    1.740937    0.000000
  F     -0.332378   -1.740937    0.000000
  H     -1.407427    0.668528    0.000000
  H      1.407427   -0.668528    0.000000

 Total Charge           Charge          ....    0
 Multiplicity           Mult            ....    1
 Number of Electrons    NEL             ....   32
 Basis Dimension        Dim             ....  110

ORBITAL ENERGIES
----------------

  NO   OCC          E(Eh)            E(eV)
   0   2.0000     -26.336861      -716.6624
   1   2.0000     -26.336860      -716.6624
   2   2.0000     -11.345695      -308.7321
   3   2.0000     -11.343892      -308.6830
   4   2.0000      -1.646901       -44.8144
   5   2.0000      -1.642141       -44.6849
   6   2.0000      -1.070398       -29.1270
   7   2.0000      -0.866278       -23.5726
   8   2.0000      -0.770691       -20.9716
   9   2.0000      -0.764971       -20.8159
  10   2.0000      -0.714972       -19.4554
  11   2.0000      -0.694581       -18.9005
  12   2.0000      -0.692390       -18.8409
  13   2.0000      -0.638363       -17.3707
  14   2.0000      -0.574148       -15.6234
  15   2.0000      -0.392695       -10.6858
  16   0.0000       0.039891         1.0855
  17   0.0000       0.044314         1.2058
  18   0.0000       0.078751         2.1429
  19   0.0000       0.104422         2.8415
  20   0.0000       0.105387         2.8677

MULLIKEN ATOMIC CHARGES
-----------------------
   0 C :    0.738352
   1 C :    0.738352
   2 F :   -0.600470
   3 F :   -0.600470
   4 H :   -0.137883
   5 H :   -0.137883
Sum of atomic charges:   -0.0000000

LOEWDIN ATOMIC CHARGES
----------------------
   0 C :   -0.016282
   1 C :   -0.016282
   2 F :    0.024427
   3 F :    0.024427
   4 H :   -0.008145
   5 H :   -0.008145

  Mayer bond orders larger than 0.100000
B(  0-C ,  1-C ) :   2.2048 B(  0-C ,  2-F ) :   0.3082 B(  0-C ,  3-F ) :   0.1294
B(  0-C ,  4-H ) :   0.8321 B(  1-C ,  2-F ) :   0.1294 B(  1-C ,  3-F ) :   0.3082
B(  1-C ,  5-H ) :   0.8321

MP2 TOTAL ENERGY:     -276.433691725 Eh
FINAL SINGLE POINT ENERGY      -276.433691724773

DIPOLE MOMENT
-------------
                                X             Y             Z
Electronic contribution:      0.00000      -0.00000      -0.00000
Nuclear contribution   :      0.00000       0.00000       0.00000
                        -----------------------------------------
Total Dipole Moment    :      0.00000      -0.00000      -0.00000
                        -----------------------------------------
Magnitude (a.u.)       :      0.00000
Magnitude (Debye)      :      0.00000

Rotational constants in cm-1:     1.927120     0.133829     0.125138
Rotational constants in MHz : 57773.615184  4012.084347  3751.557705

                             ****ORCA TERMINATED NORMALLY****
TOTAL RUN TIME: 0 days 0 hours 0 minutes 14 seconds 630 msec
