                         Program Version 5.0.3 -  RELEASE  -
|  1> !ri-mp2 aug-cc-pvdz aug-cc-pvdz/c tightscf
|  2> %pal nprocs 16 end
|  3>
|  4> * xyz 0 1
|  5> S    -1.676534   -0.926064    0.051194
|  6> O     3.331516   -0.631562   -0.252865
|  7> N     2.397628    1.405048    0.103813
|  8> N    -3.577023    1.191000   -0.109127
|  9> C     1.020168   -0.608219    0.179875
| 10> C     2.350109    0.042718    0.002223
| 11> C    -0.149655   -0.019457   -0.048702
| 12> C    -2.785853    0.351530   -0.044843
| 13> H     1.086429   -1.657050    0.439278
| 14> H    -0.254458    1.009404   -0.361619
| 15> H     1.678256    1.917370    0.581658
| 16> H     3.309355    1.828033    0.050389
| 17> *
| 18>
| 19>                          ****END OF INPUT****

CARTESIAN COORDINATES (ANGSTROEM)
---------------------------------
  S     -1.676534   -0.926064    0.051194
  O      3.331516   -0.631562   -0.252865
  N      2.397628    1.405048    0.103813
  N     -3.577023    1.191000   -0.109127
  C      1.020168   -0.608219    0.179875
  C      2.350109    0.042718    0.002223
  C     -0.149655   -0.019457   -0.048702
  C     -2.785853    0.351530   -0.044843
  H      1.086429   -1.657050    0.439278
  H     -0.254458    1.009404   -0.361619
  H      1.678256    1.917370    0.581658
  H      3.309355    1.828033    0.050389

 Total Charge           Charge          ....    0
 Multiplicity           Mult            ....    1
 Number of Electrons    NEL             ....   66
 Basis Dimension        Dim             ....  224

ORBITAL ENERGIES
----------------

  NO   OCC          E(Eh)            E(eV)
   0   2.0000     -92.050629     -2504.8250
   1   2.0000     -20.554360      -559.3126
   2   2.0000     -15.614241      -424.8851
   3   2.0000     -15.612515      -424.8381
   4   2.0000     -11.389306      -309.9188
   5   2.0000     -11.334469      -308.4266
   6   2.0000     -11.325618      -308.1857
   7   2.0000     -11.291305      -307.2520
   8   2.0000      -9.051484      -246.3034
   9   2.0000      -6.733735      -183.2342
  10   2.0000      -6.731826      -183.1823
  11   2.0000      -6.729691      -183.1242
  12   2.0000      -1.410399       -38.3789
  13   2.0000      -1.255634       -34.1675
  14   2.0000      -1.237175       -33.6653
  15   2.0000      -1.153043       -31.3759
  16   2.0000      -1.053264       -28.6608
  17   2.0000      -0.889450       -24.2032
  18   2.0000      -0.809207       -22.0196
  19   2.0000      -0.765117       -20.8199
  20   2.0000      -0.713058       -19.4033
  21   2.0000      -0.698893       -19.0178
  22   2.0000      -0.632043       -17.1988
  23   2.0000      -0.624933       -17.0053
  24   2.0000      -0.594227       -16.1697
  25   2.0000      -0.580568       -15.7981
  26   2.0000      -0.559884       -15.2352
  27   2.0000      -0.550561       -14.9815
  28   2.0000      -0.487475       -13.2649
  29   2.0000      -0.474709       -12.9175
  30   2.0000      -0.453912       -12.3516
  31   2.0000      -0.435106       -11.8398
  32   2.0000      -0.375560       -10.2195
  33   0.0000       0.024336         0.6622
  34   0.0000       0.039845         1.0843
  35   0.0000       0.050334         1.3697
  36   0.0000       0.053736         1.4622
  37   0.0000       0.061510         1.6738

MULLIKEN ATOMIC CHARGES
-----------------------
   0 S :    0.759846
   1 O :   -0.761078
   2 N :   -0.203928
   3 N :   -0.295910
   4 C :    1.079055
   5 C :    0.568221
   6 C :    0.157087
   7 C :   -0.389425
   8 H :   -0.357120
   9 H :   -0.553088
  10 H :   -0.012291
  11 H :    0.008631
Sum of atomic charges:    0.0000000

LOEWDIN ATOMIC CHARGES
----------------------
   0 S :    0.936220
   1 O :    0.026018
   2 N :    0.273362
   3 N :   -0.000806
   4 C :   -0.008923
   5 C :   -0.380582
   6 C :   -0.253689
   7 C :   -0.532671
   8 H :    0.004507
   9 H :   -0.035931
  10 H :   -0.023799
  11 H :   -0.003707

  Mayer bond orders larger than 0.100000
B(  0-S ,  4-C ) :  -0.1219 B(  0-S ,  6-C ) :   0.9108 B(  0-S ,  7-C ) :   0.8069
B(  1-O ,  5-C ) :   1.3564 B(  2-N ,  5-C ) :   0.9823 B(  2-N , 10-H ) :   1.0781
B(  2-N , 11-H ) :   1.0772 B(  3-N ,  7-C ) :   2.4212 B(  4-C ,  5-C ) :   0.7506
B(  4-C ,  6-C ) :   1.7733 B(  4-C ,  8-H ) :   0.4831 B(  5-C ,  8-H ) :   0.1176
B(  6-C ,  8-H ) :   0.1666 B(  6-C ,  9-H ) :   0.8454

MP2 TOTAL ENERGY:     -736.312368335 Eh
FINAL SINGLE POINT ENERGY      -736.312368334930

DIPOLE MOMENT
-------------
                                X             Y             Z
Electronic contribution:     -5.46083      -2.62846      -0.15902
Nuclear contribution   :      5.72316       3.02907       0.68105
                        -----------------------------------------
Total Dipole Moment    :      0.26233       0.40061       0.52203
                        -----------------------------------------
Magnitude (a.u.)       :      0.70839
Magnitude (Debye)      :      1.80059

Rotational constants in cm-1:     0.167592     0.023504     0.020741
Rotational constants in MHz :  5024.279412   704.625347   621.803912

                             ****ORCA TERMINATED NORMALLY****
TOTAL RUN TIME: 0 days 0 hours 0 minutes 50 seconds 221 msec
