                         Program Version 5.0.3 -  RELEASE  -
|  1> !ri-mp2 aug-cc-pvdz aug-cc-pvdz/c tightscf
|  2> %pal nprocs 16 end
|  3>
|  4> * xyz 0 1
|  5> H      0.284273   -0.845671    1.087487
|  6> C      0.403159   -0.010172    0.405810
|  7> H     -0.632701    1.282616   -0.927159
|  8> Cl    -2.268012   -0.194803   -0.026317
|  9> C     -0.658000    0.458163   -0.230058
| 10> H      1.762492    1.394082   -0.449259
| 11> H      2.138737    0.922123    1.195638
| 12> C      1.787551    0.540851    0.231531
| 13> H      3.784823   -0.084931   -0.358058
| 14> H      2.833963   -1.363785    0.395683
| 15> H      2.491345   -0.877346   -1.263208
| 16> C      2.782835   -0.508081   -0.279571
| 17> *
| 18>
| 19>                          ****END OF INPUT****

CARTESIAN COORDINATES (ANGSTROEM)
---------------------------------
  H      0.284273   -0.845671    1.087487
  C      0.403159   -0.010172    0.405810
  H     -0.632701    1.282616   -0.927159
  Cl    -2.268012   -0.194803   -0.026317
  C     -0.658000    0.458163   -0.230058
  H      1.762492    1.394082   -0.449259
  H      2.138737    0.922123    1.195638
  C      1.787551    0.540851    0.231531
  H      3.784823   -0.084931   -0.358058
  H      2.833963   -1.363785    0.395683
  H      2.491345   -0.877346   -1.263208
  C      2.782835   -0.508081   -0.279571

 Total Charge           Charge          ....    0
 Multiplicity           Mult            ....    1
 Number of Electrons    NEL             ....   48
 Basis Dimension        Dim             ....  182

ORBITAL ENERGIES
----------------

  NO   OCC          E(Eh)            E(eV)
   0   2.0000    -104.832790     -2852.6452
   1   2.0000     -11.295922      -307.3777
   2   2.0000     -11.254748      -306.2573
   3   2.0000     -11.247374      -306.0566
   4   2.0000     -11.232333      -305.6473
   5   2.0000     -10.558784      -287.3191
   6   2.0000      -8.026574      -218.4142
   7   2.0000      -8.023266      -218.3242
   8   2.0000      -8.023197      -218.3223
   9   2.0000      -1.153897       -31.3991
  10   2.0000      -1.077948       -29.3325
  11   2.0000      -0.983991       -26.7758
  12   2.0000      -0.857817       -23.3424
  13   2.0000      -0.776419       -21.1274
  14   2.0000      -0.646052       -17.5800
  15   2.0000      -0.635989       -17.3061
  16   2.0000      -0.590487       -16.0680
  17   2.0000      -0.558761       -15.2047
  18   2.0000      -0.532353       -14.4861
  19   2.0000      -0.500438       -13.6176
  20   2.0000      -0.494545       -13.4573
  21   2.0000      -0.494345       -13.4518
  22   2.0000      -0.447658       -12.1814
  23   2.0000      -0.357344        -9.7238
  24   0.0000       0.034770         0.9461
  25   0.0000       0.044267         1.2046
  26   0.0000       0.048918         1.3311
  27   0.0000       0.049592         1.3495
  28   0.0000       0.069497         1.8911

MULLIKEN ATOMIC CHARGES
-----------------------
   0 H :   -0.322558
   1 C :    1.354104
   2 H :   -0.375754
   3 Cl:   -0.286505
   4 C :   -0.272825
   5 H :   -0.117513
   6 H :    0.003975
   7 C :   -0.065877
   8 H :   -0.093835
   9 H :   -0.066213
  10 H :   -0.065852
  11 C :    0.308853
Sum of atomic charges:   -0.0000000

LOEWDIN ATOMIC CHARGES
----------------------
   0 H :   -0.000365
   1 C :   -0.083888
   2 H :   -0.051621
   3 Cl:    0.485813
   4 C :   -0.379471
   5 H :    0.010616
   6 H :    0.013809
   7 C :   -0.074651
   8 H :   -0.019641
   9 H :   -0.019467
  10 H :   -0.017182
  11 C :    0.136050

  Mayer bond orders larger than 0.100000
B(  0-H ,  1-C ) :   0.7313 B(  1-C ,  2-H ) :  -0.1524 B(  1-C ,  3-Cl) :  -0.2465
B(  1-C ,  4-C ) :   1.0958 B(  1-C ,  7-C ) :   1.0590 B(  2-H ,  4-C ) :   1.0334
B(  3-Cl,  4-C ) :   1.0424 B(  5-H ,  7-C ) :   0.9051 B(  6-H ,  7-C ) :   0.8600
B(  7-C , 11-C ) :   1.2378 B(  8-H , 11-C ) :   0.9017 B(  9-H , 11-C ) :   0.9402
B( 10-H , 11-C ) :   0.9673

MP2 TOTAL ENERGY:     -615.771924379 Eh
FINAL SINGLE POINT ENERGY      -615.771924378814

DIPOLE MOMENT
-------------
                                X             Y             Z
Electronic contribution:    -14.92282      -0.48609       0.26815
Nuclear contribution   :     15.83644       0.70262      -0.27997
                        -----------------------------------------
Total Dipole Moment    :      0.91362       0.21653      -0.01181
                        -----------------------------------------
Magnitude (a.u.)       :      0.93900
Magnitude (Debye)      :      2.38675

Rotational constants in cm-1:     0.599699     0.046198     0.045119
Rotational constants in MHz : 17978.528810  1384.969394  1352.634733

                             ****ORCA TERMINATED NORMALLY****
TOTAL RUN TIME: 0 days 0 hours 0 minutes 21 seconds 604 msec
