                         Program Version 5.0.3 -  RELEASE  -
|  1> !ri-mp2 aug-cc-pvdz aug-cc-pvdz/c tightscf
|  2> %pal nprocs 16 end
|  3>
|  4> * xyz 0 1
|  5> C      0.000000    0.452712    0.000000
|  6> C      0.928558   -0.489343    0.000000
|  7> C      2.397943   -0.202796    0.000000
|  8> Cl    -1.714743    0.109952    0.000000
|  9> H      0.209814    1.512034    0.000000
| 10> H      0.622206   -1.529082    0.000000
| 11> H      2.601687    0.867563    0.000000
| 12> H      2.878957   -0.641565    0.877384
| 13> H      2.878957   -0.641565   -0.877384
| 14> *
| 15>
| 16>                          ****END OF INPUT****

CARTESIAN COORDINATES (ANGSTROEM)
---------------------------------
  C      0.000000    0.452712    0.000000
  C      0.928558   -0.489343    0.000000
  C      2.397943   -0.202796    0.000000
  Cl    -1.714743    0.109952    0.000000
  H      0.209814    1.512034    0.000000
  H      0.622206   -1.529082    0.000000
  H      2.601687    0.867563    0.000000
  H      2.878957   -0.641565    0.877384
  H      2.878957   -0.641565   -0.877384

 Total Charge           Charge          ....    0
 Multiplicity           Mult            ....    1
 Number of Electrons    NEL             ....   40
 Basis Dimension        Dim             ....  141

ORBITAL ENERGIES
----------------

  NO   OCC          E(Eh)            E(eV)
   0   2.0000    -104.833340     -2852.6602
   1   2.0000     -11.296358      -307.3895
   2   2.0000     -11.258350      -306.3553
   3   2.0000     -11.244922      -305.9899
   4   2.0000     -10.559365      -287.3349
   5   2.0000      -8.027156      -218.4300
   6   2.0000      -8.023841      -218.3398
   7   2.0000      -8.023768      -218.3378
   8   2.0000      -1.153887       -31.3989
   9   2.0000      -1.058574       -28.8053
  10   2.0000      -0.928582       -25.2680
  11   2.0000      -0.777708       -21.1625
  12   2.0000      -0.636503       -17.3201
  13   2.0000      -0.623124       -16.9561
  14   2.0000      -0.583823       -15.8866
  15   2.0000      -0.539235       -14.6733
  16   2.0000      -0.514110       -13.9896
  17   2.0000      -0.498754       -13.5718
  18   2.0000      -0.448718       -12.2102
  19   2.0000      -0.358162        -9.7461
  20   0.0000       0.034652         0.9429
  21   0.0000       0.046389         1.2623
  22   0.0000       0.053007         1.4424
  23   0.0000       0.056296         1.5319
  24   0.0000       0.073669         2.0046

MULLIKEN ATOMIC CHARGES
-----------------------
   0 C :   -0.159904
   1 C :    0.934990
   2 C :    0.192491
   3 Cl:   -0.281746
   4 H :   -0.337312
   5 H :   -0.284029
   6 H :   -0.133480
   7 H :    0.034495
   8 H :    0.034495
Sum of atomic charges:    0.0000000

LOEWDIN ATOMIC CHARGES
----------------------
   0 C :   -0.387863
   1 C :   -0.116550
   2 C :    0.131108
   3 Cl:    0.483989
   4 H :   -0.053817
   5 H :   -0.007768
   6 H :   -0.018202
   7 H :   -0.015448
   8 H :   -0.015448

  Mayer bond orders larger than 0.100000
B(  0-C ,  1-C ) :   1.2252 B(  0-C ,  3-Cl) :   1.0507 B(  0-C ,  4-H ) :   1.0635
B(  1-C ,  2-C ) :   1.1617 B(  1-C ,  3-Cl) :  -0.2234 B(  1-C ,  4-H ) :  -0.1704
B(  1-C ,  5-H ) :   0.8546 B(  2-C ,  6-H ) :   1.0088 B(  2-C ,  7-H ) :   0.9015
B(  2-C ,  8-H ) :   0.9015

MP2 TOTAL ENERGY:     -576.584238636 Eh
FINAL SINGLE POINT ENERGY      -576.584238635840

DIPOLE MOMENT
-------------
                                X             Y             Z
Electronic contribution:    -10.52087       0.58991      -0.00000
Nuclear contribution   :     11.43132      -0.57910       0.00000
                        -----------------------------------------
Total Dipole Moment    :      0.91045       0.01081      -0.00000
                        -----------------------------------------
Magnitude (a.u.)       :      0.91052
Magnitude (Debye)      :      2.31435

Rotational constants in cm-1:     1.403118     0.080475     0.077191
Rotational constants in MHz : 42064.424391  2412.580115  2314.142782

                             ****ORCA TERMINATED NORMALLY****
TOTAL RUN TIME: 0 days 0 hours 0 minutes 16 seconds 17 msec
