                         Program Version 5.0.3 -  RELEASE  -
|  1> !ri-mp2 aug-cc-pvdz aug-cc-pvdz/c tightscf
|  2> %pal nprocs 16 end
|  3>
|  4> * xyz 0 1
|  5> N     -1.442941    2.799964    0.000000
|  6> C     -0.809520    1.836292    0.000000
|  7> H      1.068858    0.833466    0.000000
|  8> C      0.000000    0.664830    0.000000
|  9> H     -1.596381   -0.669835    0.000000
| 10> C     -0.516510   -0.567384    0.000000
| 11> H     -0.069250   -2.431965    0.866379
| 12> H     -0.069250   -2.431965   -0.866379
| 13> C      0.258117   -1.846322    0.000000
| 14> H      2.237470   -2.709684    0.000000
| 15> H      2.135946   -1.190903   -0.882660
| 16> H      2.135946   -1.190903    0.882660
| 17> C      1.777455   -1.722075    0.000000
| 18> *
| 19>
| 20>                          ****END OF INPUT****

CARTESIAN COORDINATES (ANGSTROEM)
---------------------------------
  N     -1.442941    2.799964    0.000000
  C     -0.809520    1.836292    0.000000
  H      1.068858    0.833466    0.000000
  C      0.000000    0.664830    0.000000
  H     -1.596381   -0.669835    0.000000
  C     -0.516510   -0.567384    0.000000
  H     -0.069250   -2.431965    0.866379
  H     -0.069250   -2.431965   -0.866379
  C      0.258117   -1.846322    0.000000
  H      2.237470   -2.709684    0.000000
  H      2.135946   -1.190903   -0.882660
  H      2.135946   -1.190903    0.882660
  C      1.777455   -1.722075    0.000000

 Total Charge           Charge          ....    0
 Multiplicity           Mult            ....    1
 Number of Electrons    NEL             ....   44
 Basis Dimension        Dim             ....  201

ORBITAL ENERGIES
----------------

  NO   OCC          E(Eh)            E(eV)
   0   2.0000     -15.576748      -423.8649
   1   2.0000     -11.288539      -307.1768
   2   2.0000     -11.281188      -306.9767
   3   2.0000     -11.280195      -306.9497
   4   2.0000     -11.263233      -306.4881
   5   2.0000     -11.244308      -305.9732
   6   2.0000      -1.222245       -33.2590
   7   2.0000      -1.128164       -30.6989
   8   2.0000      -1.036964       -28.2172
   9   2.0000      -0.920781       -25.0557
  10   2.0000      -0.811390       -22.0790
  11   2.0000      -0.728821       -19.8322
  12   2.0000      -0.638938       -17.3864
  13   2.0000      -0.638708       -17.3801
  14   2.0000      -0.602885       -16.4053
  15   2.0000      -0.553739       -15.0680
  16   2.0000      -0.528379       -14.3779
  17   2.0000      -0.525848       -14.3091
  18   2.0000      -0.519195       -14.1280
  19   2.0000      -0.505678       -13.7602
  20   2.0000      -0.461592       -12.5606
  21   2.0000      -0.378560       -10.3011
  22   0.0000       0.026978         0.7341
  23   0.0000       0.037666         1.0249
  24   0.0000       0.044665         1.2154
  25   0.0000       0.045873         1.2483
  26   0.0000       0.065435         1.7806

MULLIKEN ATOMIC CHARGES
-----------------------
   0 N :   -0.188151
   1 C :   -1.224817
   2 H :   -0.590416
   3 C :    1.676072
   4 H :   -0.487861
   5 C :    0.160626
   6 H :    0.066814
   7 H :    0.066814
   8 C :    0.066912
   9 H :   -0.144323
  10 H :   -0.000123
  11 H :   -0.000123
  12 C :    0.598577
Sum of atomic charges:   -0.0000000

LOEWDIN ATOMIC CHARGES
----------------------
   0 N :    0.068841
   1 C :   -0.169598
   2 H :   -0.004183
   3 C :   -0.030410
   4 H :    0.019729
   5 C :    0.033086
   6 H :    0.022375
   7 H :    0.022375
   8 C :   -0.057345
   9 H :   -0.015855
  10 H :   -0.012789
  11 H :   -0.012789
  12 C :    0.136561

  Mayer bond orders larger than 0.100000
B(  0-N ,  1-C ) :   2.5168 B(  0-N ,  3-C ) :  -0.1193 B(  0-N ,  5-C ) :   0.1206
B(  1-C ,  2-H ) :   0.5106 B(  1-C ,  3-C ) :  -0.6156 B(  1-C ,  4-H ) :   0.1145
B(  2-H ,  5-C ) :   0.1680 B(  2-H ,  8-C ) :  -0.2401 B(  3-C ,  5-C ) :   2.0391
B(  4-H ,  5-C ) :   0.5108 B(  5-C ,  6-H ) :   0.1312 B(  5-C ,  7-H ) :   0.1312
B(  5-C ,  8-C ) :   1.3709 B(  6-H ,  8-C ) :   0.8006 B(  7-H ,  8-C ) :   0.8006
B(  8-C , 12-C ) :   1.1890 B(  9-H , 12-C ) :   0.9207 B( 10-H , 12-C ) :   0.8865
B( 11-H , 12-C ) :   0.8865

MP2 TOTAL ENERGY:     -248.727524917 Eh
FINAL SINGLE POINT ENERGY      -248.727524916806

DIPOLE MOMENT
-------------
                                X             Y             Z
Electronic contribution:     -5.04707       8.04183      -0.00000
Nuclear contribution   :      5.94400      -9.95819       0.00000
                        -----------------------------------------
Total Dipole Moment    :      0.89693      -1.91636      -0.00000
                        -----------------------------------------
Magnitude (a.u.)       :      2.11587
Magnitude (Debye)      :      5.37812

Rotational constants in cm-1:     0.489856     0.051628     0.047517
Rotational constants in MHz : 14685.504899  1547.753948  1424.526429

                             ****ORCA TERMINATED NORMALLY****
TOTAL RUN TIME: 0 days 0 hours 0 minutes 33 seconds 604 msec
