                         Program Version 5.0.3 -  RELEASE  -
|  1> !ri-mp2 aug-cc-pvdz aug-cc-pvdz/c tightscf
|  2> %pal nprocs 16 end
|  3>
|  4> * xyz 0 1
|  5> S     -0.485479    1.616939   -0.499622
|  6> S      0.485479   -1.616939   -0.499622
|  7> N      0.485479    4.238358    0.048550
|  8> N     -0.485479   -4.238358    0.048550
|  9> C      0.219813    0.726015    0.967138
| 10> C     -0.219813   -0.726015    0.967138
| 11> C      0.100064    3.168473   -0.157999
| 12> C     -0.100064   -3.168473   -0.157999
| 13> H     -0.158457    1.213127    1.862783
| 14> H      1.302444    0.822259    0.936478
| 15> H     -1.302444   -0.822259    0.936478
| 16> H      0.158457   -1.213127    1.862783
| 17> *
| 18>
| 19>                          ****END OF INPUT****

CARTESIAN COORDINATES (ANGSTROEM)
---------------------------------
  S     -0.485479    1.616939   -0.499622
  S      0.485479   -1.616939   -0.499622
  N      0.485479    4.238358    0.048550
  N     -0.485479   -4.238358    0.048550
  C      0.219813    0.726015    0.967138
  C     -0.219813   -0.726015    0.967138
  C      0.100064    3.168473   -0.157999
  C     -0.100064   -3.168473   -0.157999
  H     -0.158457    1.213127    1.862783
  H      1.302444    0.822259    0.936478
  H     -1.302444   -0.822259    0.936478
  H      0.158457   -1.213127    1.862783

 Total Charge           Charge          ....    0
 Multiplicity           Mult            ....    1
 Number of Electrons    NEL             ....   74
 Basis Dimension        Dim             ....  228

ORBITAL ENERGIES
----------------

  NO   OCC          E(Eh)            E(eV)
   0   2.0000     -92.039146     -2504.5125
   1   2.0000     -92.039146     -2504.5125
   2   2.0000     -15.608974      -424.7418
   3   2.0000     -15.608973      -424.7418
   4   2.0000     -11.337005      -308.4956
   5   2.0000     -11.336379      -308.4786
   6   2.0000     -11.320899      -308.0573
   7   2.0000     -11.320899      -308.0573
   8   2.0000      -9.039923      -245.9888
   9   2.0000      -9.039920      -245.9887
  10   2.0000      -6.722198      -182.9203
  11   2.0000      -6.722198      -182.9203
  12   2.0000      -6.720149      -182.8645
  13   2.0000      -6.720148      -182.8645
  14   2.0000      -6.718081      -182.8083
  15   2.0000      -6.718080      -182.8083
  16   2.0000      -1.250764       -34.0350
  17   2.0000      -1.249867       -34.0106
  18   2.0000      -1.163531       -31.6613
  19   2.0000      -1.087336       -29.5879
  20   2.0000      -1.008312       -27.4376
  21   2.0000      -0.881796       -23.9949
  22   2.0000      -0.733931       -19.9713
  23   2.0000      -0.718899       -19.5622
  24   2.0000      -0.655773       -17.8445
  25   2.0000      -0.629138       -17.1197
  26   2.0000      -0.616493       -16.7756
  27   2.0000      -0.577241       -15.7075
  28   2.0000      -0.574789       -15.6408
  29   2.0000      -0.552884       -15.0447
  30   2.0000      -0.549169       -14.9436
  31   2.0000      -0.533728       -14.5235
  32   2.0000      -0.532508       -14.4903
  33   2.0000      -0.472574       -12.8594
  34   2.0000      -0.466333       -12.6896
  35   2.0000      -0.408945       -11.1280
  36   2.0000      -0.396010       -10.7760
  37   0.0000       0.021670         0.5897
  38   0.0000       0.039041         1.0624
  39   0.0000       0.047466         1.2916
  40   0.0000       0.050286         1.3684
  41   0.0000       0.063707         1.7335

MULLIKEN ATOMIC CHARGES
-----------------------
   0 S :    0.784728
   1 S :    0.784728
   2 N :   -0.275743
   3 N :   -0.275743
   4 C :    0.086606
   5 C :    0.086606
   6 C :   -0.420040
   7 C :   -0.420040
   8 H :   -0.043502
   9 H :   -0.132049
  10 H :   -0.132049
  11 H :   -0.043502
Sum of atomic charges:   -0.0000000

LOEWDIN ATOMIC CHARGES
----------------------
   0 S :    0.881500
   1 S :    0.881500
   2 N :   -0.004873
   3 N :   -0.004873
   4 C :   -0.291116
   5 C :   -0.291116
   6 C :   -0.545286
   7 C :   -0.545286
   8 H :   -0.016771
   9 H :   -0.023454
  10 H :   -0.023454
  11 H :   -0.016771

  Mayer bond orders larger than 0.100000
B(  0-S ,  4-C ) :   1.0160 B(  0-S ,  5-C ) :  -0.1128 B(  0-S ,  6-C ) :   0.8408
B(  1-S ,  4-C ) :  -0.1128 B(  1-S ,  5-C ) :   1.0160 B(  1-S ,  7-C ) :   0.8408
B(  2-N ,  6-C ) :   2.4174 B(  3-N ,  7-C ) :   2.4174 B(  4-C ,  5-C ) :   1.3756
B(  4-C ,  8-H ) :   0.8834 B(  4-C ,  9-H ) :   0.9806 B(  4-C , 11-H ) :   0.1010
B(  5-C ,  8-H ) :   0.1010 B(  5-C , 10-H ) :   0.9806 B(  5-C , 11-H ) :   0.8834

MP2 TOTAL ENERGY:    -1058.901691970 Eh
FINAL SINGLE POINT ENERGY     -1058.901691970457

DIPOLE MOMENT
-------------
                                X             Y             Z
Electronic contribution:     -0.00000       0.00000      -4.69532
Nuclear contribution   :     -0.00000       0.00000       5.42565
                        -----------------------------------------
Total Dipole Moment    :     -0.00000       0.00000       0.73033
                        -----------------------------------------
Magnitude (a.u.)       :      0.73033
Magnitude (Debye)      :      1.85635

Rotational constants in cm-1:     0.228402     0.017641     0.017251
Rotational constants in MHz :  6847.320561   528.851772   517.179693

                             ****ORCA TERMINATED NORMALLY****
TOTAL RUN TIME: 0 days 0 hours 1 minutes 0 seconds 530 msec
