                         Program Version 5.0.3 -  RELEASE  -
|  1> !ri-mp2 aug-cc-pvdz aug-cc-pvdz/c tightscf
|  2> %pal nprocs 16 end
|  3>
|  4> * xyz 0 1
|  5> C      0.000000    0.531086    0.000000
|  6> C     -1.331860    0.464679    0.000000
|  7> C      0.850788   -0.688356    0.000000
|  8> C     -2.260297    1.629509    0.000000
|  9> C      2.345543   -0.454617    0.000000
| 10> O      0.383363   -1.811009    0.000000
| 11> H      0.503575    1.491936    0.000000
| 12> H     -1.777905   -0.525425    0.000000
| 13> H     -1.728950    2.580430    0.000000
| 14> H     -2.916004    1.597195    0.874296
| 15> H     -2.916004    1.597195   -0.874296
| 16> H      2.872893   -1.404393    0.000000
| 17> H      2.635225    0.128660    0.877308
| 18> H      2.635225    0.128660   -0.877308
| 19> *
| 20>
| 21>                          ****END OF INPUT****

CARTESIAN COORDINATES (ANGSTROEM)
---------------------------------
  C      0.000000    0.531086    0.000000
  C     -1.331860    0.464679    0.000000
  C      0.850788   -0.688356    0.000000
  C     -2.260297    1.629509    0.000000
  C      2.345543   -0.454617    0.000000
  O      0.383363   -1.811009    0.000000
  H      0.503575    1.491936    0.000000
  H     -1.777905   -0.525425    0.000000
  H     -1.728950    2.580430    0.000000
  H     -2.916004    1.597195    0.874296
  H     -2.916004    1.597195   -0.874296
  H      2.872893   -1.404393    0.000000
  H      2.635225    0.128660    0.877308
  H      2.635225    0.128660   -0.877308

 Total Charge           Charge          ....    0
 Multiplicity           Mult            ....    1
 Number of Electrons    NEL             ....   46
 Basis Dimension        Dim             ....  210

ORBITAL ENERGIES
----------------

  NO   OCC          E(Eh)            E(eV)
   0   2.0000     -20.544710      -559.0500
   1   2.0000     -11.334657      -308.4317
   2   2.0000     -11.265806      -306.5582
   3   2.0000     -11.244281      -305.9725
   4   2.0000     -11.236932      -305.7725
   5   2.0000     -11.236190      -305.7523
   6   2.0000      -1.380975       -37.5782
   7   2.0000      -1.096059       -29.8253
   8   2.0000      -1.019109       -27.7314
   9   2.0000      -0.957697       -26.0603
  10   2.0000      -0.811959       -22.0945
  11   2.0000      -0.731328       -19.9005
  12   2.0000      -0.666776       -18.1439
  13   2.0000      -0.634817       -17.2742
  14   2.0000      -0.598767       -16.2933
  15   2.0000      -0.580360       -15.7924
  16   2.0000      -0.579045       -15.7566
  17   2.0000      -0.573873       -15.6159
  18   2.0000      -0.537086       -14.6148
  19   2.0000      -0.515803       -14.0357
  20   2.0000      -0.500596       -13.6219
  21   2.0000      -0.410157       -11.1609
  22   2.0000      -0.371004       -10.0955
  23   0.0000       0.032171         0.8754
  24   0.0000       0.039411         1.0724
  25   0.0000       0.049836         1.3561
  26   0.0000       0.052817         1.4372
  27   0.0000       0.062536         1.7017

MULLIKEN ATOMIC CHARGES
-----------------------
   0 C :    0.937087
   1 C :    0.180293
   2 C :   -0.076669
   3 C :    0.244228
   4 C :    0.402229
   5 O :   -0.833835
   6 H :   -0.543024
   7 H :   -0.439409
   8 H :   -0.120643
   9 H :    0.097948
  10 H :    0.097948
  11 H :   -0.087447
  12 H :    0.070647
  13 H :    0.070647
Sum of atomic charges:   -0.0000000

LOEWDIN ATOMIC CHARGES
----------------------
   0 C :    0.020615
   1 C :   -0.003108
   2 C :   -0.328233
   3 C :    0.149321
   4 C :    0.186303
   5 O :    0.029913
   6 H :   -0.005276
   7 H :    0.012603
   8 H :   -0.015039
   9 H :   -0.010004
  10 H :   -0.010004
  11 H :   -0.010712
  12 H :   -0.008189
  13 H :   -0.008189

  Mayer bond orders larger than 0.100000
B(  0-C ,  1-C ) :   1.9046 B(  0-C ,  2-C ) :   1.0035 B(  0-C ,  3-C ) :  -0.1529
B(  0-C ,  6-H ) :   0.4170 B(  0-C ,  7-H ) :   0.2892 B(  0-C ,  8-H ) :  -0.1002
B(  1-C ,  3-C ) :   1.2608 B(  1-C ,  7-H ) :   0.5183 B(  1-C ,  9-H ) :   0.1082
B(  1-C , 10-H ) :   0.1082 B(  2-C ,  4-C ) :   1.1431 B(  2-C ,  5-O ) :   1.3953
B(  2-C ,  6-H ) :   0.1337 B(  2-C , 11-H ) :   0.1670 B(  3-C ,  8-H ) :   0.9599
B(  3-C ,  9-H ) :   0.8790 B(  3-C , 10-H ) :   0.8790 B(  4-C , 11-H ) :   0.8170
B(  4-C , 12-H ) :   0.9247 B(  4-C , 13-H ) :   0.9247

MP2 TOTAL ENERGY:     -269.776798106 Eh
FINAL SINGLE POINT ENERGY      -269.776798106290

DIPOLE MOMENT
-------------
                                X             Y             Z
Electronic contribution:      0.70854      -4.37561      -0.00000
Nuclear contribution   :     -0.70444       5.71613       0.00000
                        -----------------------------------------
Total Dipole Moment    :      0.00410       1.34051      -0.00000
                        -----------------------------------------
Magnitude (a.u.)       :      1.34052
Magnitude (Debye)      :      3.40733

Rotational constants in cm-1:     0.306449     0.062105     0.052637
Rotational constants in MHz :  9187.107124  1861.875078  1578.028416

                             ****ORCA TERMINATED NORMALLY****
TOTAL RUN TIME: 0 days 0 hours 0 minutes 36 seconds 652 msec
