                         Program Version 5.0.3 -  RELEASE  -
|  1> !ri-mp2 aug-cc-pvdz aug-cc-pvdz/c tightscf
|  2> %pal nprocs 16 end
|  3>
|  4> * xyz 0 1
|  5> C      2.445855   -0.294356   -0.000008
|  6> H      2.499430   -1.373583    0.000358
|  7> H      3.364930    0.269880   -0.000226
|  8> C      1.282938    0.346338   -0.000141
|  9> H      1.226582    1.430931   -0.000503
| 10> O      0.088531   -0.298764    0.000118
| 11> C     -1.073605    0.536374    0.000222
| 12> H     -1.057562    1.179175   -0.885919
| 13> H     -1.057825    1.178653    0.886755
| 14> C     -2.298114   -0.351311   -0.000172
| 15> H     -2.312414   -0.988238   -0.884210
| 16> H     -2.312552   -0.988828    0.883437
| 17> H     -3.201281    0.259848   -0.000035
| 18> *
| 19>
| 20>                          ****END OF INPUT****

CARTESIAN COORDINATES (ANGSTROEM)
---------------------------------
  C      2.445855   -0.294356   -0.000008
  H      2.499430   -1.373583    0.000358
  H      3.364930    0.269880   -0.000226
  C      1.282938    0.346338   -0.000141
  H      1.226582    1.430931   -0.000503
  O      0.088531   -0.298764    0.000118
  C     -1.073605    0.536374    0.000222
  H     -1.057562    1.179175   -0.885919
  H     -1.057825    1.178653    0.886755
  C     -2.298114   -0.351311   -0.000172
  H     -2.312414   -0.988238   -0.884210
  H     -2.312552   -0.988828    0.883437
  H     -3.201281    0.259848   -0.000035

 Total Charge           Charge          ....    0
 Multiplicity           Mult            ....    1
 Number of Electrons    NEL             ....   40
 Basis Dimension        Dim             ....  187

ORBITAL ENERGIES
----------------

  NO   OCC          E(Eh)            E(eV)
   0   2.0000     -20.586349      -560.1830
   1   2.0000     -11.295678      -307.3710
   2   2.0000     -11.294868      -307.3490
   3   2.0000     -11.229143      -305.5605
   4   2.0000     -11.213750      -305.1416
   5   2.0000      -1.406207       -38.2649
   6   2.0000      -1.058233       -28.7960
   7   2.0000      -0.995506       -27.0891
   8   2.0000      -0.854187       -23.2436
   9   2.0000      -0.794624       -21.6228
  10   2.0000      -0.690583       -18.7917
  11   2.0000      -0.666904       -18.1474
  12   2.0000      -0.634401       -17.2629
  13   2.0000      -0.566602       -15.4180
  14   2.0000      -0.554500       -15.0887
  15   2.0000      -0.535245       -14.5648
  16   2.0000      -0.530035       -14.4230
  17   2.0000      -0.491342       -13.3701
  18   2.0000      -0.483648       -13.1607
  19   2.0000      -0.336483        -9.1562
  20   0.0000       0.035502         0.9661
  21   0.0000       0.044825         1.2197
  22   0.0000       0.047786         1.3003
  23   0.0000       0.051557         1.4029
  24   0.0000       0.062873         1.7109

MULLIKEN ATOMIC CHARGES
-----------------------
   0 C :    0.606322
   1 H :   -0.365072
   2 H :   -0.252100
   3 C :    0.815164
   4 H :   -0.418205
   5 O :   -0.952252
   6 C :    0.778763
   7 H :   -0.173854
   8 H :   -0.173784
   9 C :    0.225480
  10 H :   -0.035033
  11 H :   -0.035026
  12 H :   -0.020404
Sum of atomic charges:    0.0000000

LOEWDIN ATOMIC CHARGES
----------------------
   0 C :    0.148231
   1 H :   -0.042898
   2 H :   -0.054594
   3 C :   -0.112001
   4 H :   -0.003019
   5 O :    0.021394
   6 C :   -0.066887
   7 H :    0.007877
   8 H :    0.007894
   9 C :    0.138633
  10 H :   -0.014539
  11 H :   -0.014538
  12 H :   -0.015553

  Mayer bond orders larger than 0.100000
B(  0-C ,  1-H ) :   0.7167 B(  0-C ,  2-H ) :   0.6720 B(  0-C ,  3-C ) :   2.2358
B(  0-C ,  4-H ) :   0.1059 B(  1-H ,  2-H ) :  -0.1820 B(  1-H ,  3-C ) :   0.2328
B(  2-H ,  3-C ) :   0.2561 B(  3-C ,  4-H ) :   0.5564 B(  3-C ,  5-O ) :   0.5675
B(  5-O ,  6-C ) :   0.5763 B(  6-C ,  7-H ) :   0.8556 B(  6-C ,  8-H ) :   0.8556
B(  6-C ,  9-C ) :   1.2562 B(  9-C , 10-H ) :   0.9481 B(  9-C , 11-H ) :   0.9481
B(  9-C , 12-H ) :   0.9086

MP2 TOTAL ENERGY:     -231.757752940 Eh
FINAL SINGLE POINT ENERGY      -231.757752939895

DIPOLE MOMENT
-------------
                                X             Y             Z
Electronic contribution:      2.49390      -0.44003       0.00031
Nuclear contribution   :     -2.96847       1.00341      -0.00036
                        -----------------------------------------
Total Dipole Moment    :     -0.47457       0.56338      -0.00005
                        -----------------------------------------
Magnitude (a.u.)       :      0.73662
Magnitude (Debye)      :      1.87235

Rotational constants in cm-1:     0.807689     0.078529     0.073543
Rotational constants in MHz : 24213.902303  2354.251437  2204.768494

                             ****ORCA TERMINATED NORMALLY****
TOTAL RUN TIME: 0 days 0 hours 0 minutes 42 seconds 852 msec
