                         Program Version 5.0.3 -  RELEASE  -
|  1> !ri-mp2 aug-cc-pvdz aug-cc-pvdz/c tightscf
|  2> %pal nprocs 16 end
|  3>
|  4> * xyz 0 1
|  5> C     -1.792925    0.132342   -0.066839
|  6> N     -0.414567   -0.229123   -0.392738
|  7> N      0.414567    0.229123    0.392738
|  8> C      1.792925   -0.132342    0.066839
|  9> H     -2.215579    0.652316   -0.927812
| 10> H     -1.855580    0.753706    0.827894
| 11> H     -2.359533   -0.790722    0.064186
| 12> H      2.215579   -0.652316    0.927812
| 13> H      1.855580   -0.753706   -0.827894
| 14> H      2.359533    0.790722   -0.064186
| 15> *
| 16>
| 17>                          ****END OF INPUT****

CARTESIAN COORDINATES (ANGSTROEM)
---------------------------------
  C     -1.792925    0.132342   -0.066839
  N     -0.414567   -0.229123   -0.392738
  N      0.414567    0.229123    0.392738
  C      1.792925   -0.132342    0.066839
  H     -2.215579    0.652316   -0.927812
  H     -1.855580    0.753706    0.827894
  H     -2.359533   -0.790722    0.064186
  H      2.215579   -0.652316    0.927812
  H      1.855580   -0.753706   -0.827894
  H      2.359533    0.790722   -0.064186

 Total Charge           Charge          ....    0
 Multiplicity           Mult            ....    1
 Number of Electrons    NEL             ....   32
 Basis Dimension        Dim             ....  146

ORBITAL ENERGIES
----------------

  NO   OCC          E(Eh)            E(eV)
   0   2.0000     -15.627093      -425.2348
   1   2.0000     -15.625664      -425.1959
   2   2.0000     -11.255426      -306.2757
   3   2.0000     -11.255421      -306.2756
   4   2.0000      -1.367888       -37.2221
   5   2.0000      -1.065302       -28.9884
   6   2.0000      -0.939932       -25.5768
   7   2.0000      -0.777791       -21.1648
   8   2.0000      -0.655347       -17.8329
   9   2.0000      -0.648694       -17.6519
  10   2.0000      -0.623409       -16.9638
  11   2.0000      -0.576245       -15.6804
  12   2.0000      -0.544111       -14.8060
  13   2.0000      -0.516206       -14.0467
  14   2.0000      -0.449374       -12.2281
  15   2.0000      -0.377716       -10.2782
  16   0.0000       0.038204         1.0396
  17   0.0000       0.045458         1.2370
  18   0.0000       0.054373         1.4796
  19   0.0000       0.058076         1.5803
  20   0.0000       0.069063         1.8793

MULLIKEN ATOMIC CHARGES
-----------------------
   0 C :    0.784065
   1 N :   -0.526933
   2 N :   -0.526933
   3 C :    0.784065
   4 H :   -0.076930
   5 H :   -0.103134
   6 H :   -0.077068
   7 H :   -0.076930
   8 H :   -0.103134
   9 H :   -0.077068
Sum of atomic charges:    0.0000000

LOEWDIN ATOMIC CHARGES
----------------------
   0 C :    0.115207
   1 N :   -0.026851
   2 N :   -0.026851
   3 C :    0.115207
   4 H :   -0.028263
   5 H :   -0.031812
   6 H :   -0.028281
   7 H :   -0.028263
   8 H :   -0.031812
   9 H :   -0.028281

  Mayer bond orders larger than 0.100000
B(  0-C ,  1-N ) :   0.8357 B(  0-C ,  2-N ) :  -0.1374 B(  0-C ,  4-H ) :   0.9406
B(  0-C ,  5-H ) :   1.0161 B(  0-C ,  6-H ) :   0.9406 B(  1-N ,  2-N ) :   1.6778
B(  1-N ,  3-C ) :  -0.1374 B(  2-N ,  3-C ) :   0.8357 B(  3-C ,  7-H ) :   0.9406
B(  3-C ,  8-H ) :   1.0161 B(  3-C ,  9-H ) :   0.9406

MP2 TOTAL ENERGY:     -188.736709092 Eh
FINAL SINGLE POINT ENERGY      -188.736709092352

DIPOLE MOMENT
-------------
                                X             Y             Z
Electronic contribution:     -0.00000       0.00000       0.00000
Nuclear contribution   :      0.00000       0.00000      -0.00000
                        -----------------------------------------
Total Dipole Moment    :     -0.00000       0.00000       0.00000
                        -----------------------------------------
Magnitude (a.u.)       :      0.00000
Magnitude (Debye)      :      0.00000

Rotational constants in cm-1:     1.423719     0.147775     0.140840
Rotational constants in MHz : 42682.011679  4430.170228  4222.274461

                             ****ORCA TERMINATED NORMALLY****
TOTAL RUN TIME: 0 days 0 hours 0 minutes 26 seconds 789 msec
