                         Program Version 5.0.3 -  RELEASE  -
|  1> !ri-mp2 aug-cc-pvdz aug-cc-pvdz/c tightscf
|  2> %pal nprocs 16 end
|  3>
|  4> * xyz 0 1
|  5> C      1.353737   -0.368467    0.037834
|  6> C      0.245113    0.262988    0.434823
|  7> C      2.645333    0.319343   -0.004122
|  8> C     -3.556610   -0.151254   -0.231842
|  9> C     -1.123680   -0.325197    0.512772
| 10> C     -2.146913    0.421382   -0.360045
| 11> O      3.687325   -0.191449   -0.351651
| 12> H      1.345138   -1.409243   -0.265925
| 13> H      0.332449    1.309202    0.722433
| 14> H      2.616706    1.382207    0.314022
| 15> H     -3.585524   -1.200760   -0.530463
| 16> H     -3.915768   -0.089864    0.797239
| 17> H     -4.260573    0.392160   -0.862658
| 18> H     -1.094232   -1.380186    0.232496
| 19> H     -1.463655   -0.283003    1.554077
| 20> H     -2.152324    1.478782   -0.082114
| 21> H     -1.822698    0.379526   -1.402423
| 22> *
| 23>
| 24>                          ****END OF INPUT****

CARTESIAN COORDINATES (ANGSTROEM)
---------------------------------
  C      1.353737   -0.368467    0.037834
  C      0.245113    0.262988    0.434823
  C      2.645333    0.319343   -0.004122
  C     -3.556610   -0.151254   -0.231842
  C     -1.123680   -0.325197    0.512772
  C     -2.146913    0.421382   -0.360045
  O      3.687325   -0.191449   -0.351651
  H      1.345138   -1.409243   -0.265925
  H      0.332449    1.309202    0.722433
  H      2.616706    1.382207    0.314022
  H     -3.585524   -1.200760   -0.530463
  H     -3.915768   -0.089864    0.797239
  H     -4.260573    0.392160   -0.862658
  H     -1.094232   -1.380186    0.232496
  H     -1.463655   -0.283003    1.554077
  H     -2.152324    1.478782   -0.082114
  H     -1.822698    0.379526   -1.402423

 Total Charge           Charge          ....    0
 Multiplicity           Mult            ....    1
 Number of Electrons    NEL             ....   54
 Basis Dimension        Dim             ....  251

ORBITAL ENERGIES
----------------

  NO   OCC          E(Eh)            E(eV)
   0   2.0000     -20.558721      -559.4312
   1   2.0000     -11.336153      -308.4724
   2   2.0000     -11.276722      -306.8552
   3   2.0000     -11.251678      -306.1737
   4   2.0000     -11.247317      -306.0550
   5   2.0000     -11.244987      -305.9917
   6   2.0000     -11.232907      -305.6629
   7   2.0000      -1.388757       -37.7900
   8   2.0000      -1.122007       -30.5314
   9   2.0000      -1.059148       -28.8209
  10   2.0000      -0.965602       -26.2754
  11   2.0000      -0.856680       -23.3115
  12   2.0000      -0.809881       -22.0380
  13   2.0000      -0.782347       -21.2887
  14   2.0000      -0.682217       -18.5641
  15   2.0000      -0.652482       -17.7549
  16   2.0000      -0.636065       -17.3082
  17   2.0000      -0.603839       -16.4313
  18   2.0000      -0.584314       -15.9000
  19   2.0000      -0.565923       -15.3995
  20   2.0000      -0.536168       -14.5899
  21   2.0000      -0.531842       -14.4722
  22   2.0000      -0.505807       -13.7637
  23   2.0000      -0.498295       -13.5593
  24   2.0000      -0.489108       -13.3093
  25   2.0000      -0.421029       -11.4568
  26   2.0000      -0.380257       -10.3473
  27   0.0000       0.030924         0.8415
  28   0.0000       0.037140         1.0106
  29   0.0000       0.042306         1.1512
  30   0.0000       0.044971         1.2237
  31   0.0000       0.058245         1.5849

MULLIKEN ATOMIC CHARGES
-----------------------
   0 C :    0.421950
   1 C :    0.828827
   2 C :    0.835314
   3 C :    0.395746
   4 C :    0.086824
   5 C :    0.102656
   6 O :   -0.747443
   7 H :   -0.499325
   8 H :   -0.552344
   9 H :   -0.161250
  10 H :   -0.081765
  11 H :   -0.065556
  12 H :   -0.073416
  13 H :   -0.193526
  14 H :   -0.011317
  15 H :   -0.155135
  16 H :   -0.130241
Sum of atomic charges:   -0.0000000

LOEWDIN ATOMIC CHARGES
----------------------
   0 C :    0.008446
   1 C :    0.015123
   2 C :   -0.117892
   3 C :    0.134991
   4 C :   -0.027940
   5 C :   -0.065067
   6 O :    0.007876
   7 H :    0.006020
   8 H :    0.012839
   9 H :    0.010757
  10 H :   -0.017620
  11 H :   -0.018350
  12 H :   -0.019099
  13 H :    0.020488
  14 H :    0.023894
  15 H :    0.011423
  16 H :    0.014112

  Mayer bond orders larger than 0.100000
B(  0-C ,  1-C ) :   2.0984 B(  0-C ,  2-C ) :   1.1512 B(  0-C ,  4-C ) :  -0.1154
B(  0-C ,  7-H ) :   0.4616 B(  0-C ,  8-H ) :   0.1482 B(  1-C ,  2-C ) :  -0.1077
B(  1-C ,  4-C ) :   1.2880 B(  1-C ,  7-H ) :   0.2061 B(  1-C ,  8-H ) :   0.3290
B(  2-C ,  4-C ) :   0.1017 B(  2-C ,  6-O ) :   1.4539 B(  2-C ,  9-H ) :   0.7931
B(  3-C ,  5-C ) :   1.2015 B(  3-C , 10-H ) :   0.9322 B(  3-C , 11-H ) :   0.9456
B(  3-C , 12-H ) :   0.9138 B(  4-C ,  5-C ) :   1.2286 B(  4-C ,  8-H ) :   0.1032
B(  4-C , 13-H ) :   0.7819 B(  4-C , 14-H ) :   0.8644 B(  5-C , 15-H ) :   0.8140
B(  5-C , 16-H ) :   0.8568

MP2 TOTAL ENERGY:     -308.957513352 Eh
FINAL SINGLE POINT ENERGY      -308.957513351698

DIPOLE MOMENT
-------------
                                X             Y             Z
Electronic contribution:     12.61684      -0.16450      -0.09439
Nuclear contribution   :    -14.40702       0.59499       0.48684
                        -----------------------------------------
Total Dipole Moment    :     -1.79018       0.43049       0.39245
                        -----------------------------------------
Magnitude (a.u.)       :      1.88257
Magnitude (Debye)      :      4.78512

Rotational constants in cm-1:     0.468135     0.026838     0.026697
Rotational constants in MHz : 14034.331672   804.572683   800.355631

                             ****ORCA TERMINATED NORMALLY****
TOTAL RUN TIME: 0 days 0 hours 0 minutes 52 seconds 293 msec
