                         Program Version 5.0.3 -  RELEASE  -
|  1> !ri-mp2 aug-cc-pvdz aug-cc-pvdz/c tightscf
|  2> %pal nprocs 16 end
|  3>
|  4> * xyz 0 1
|  5> C      0.232915   -2.318566    0.000000
|  6> C      0.234056   -1.617939    1.200385
|  7> C      0.234056   -1.617939   -1.200385
|  8> C      0.234056   -0.228276    1.197195
|  9> C      0.234056   -0.228276   -1.197195
| 10> C      0.231803    0.488886    0.000000
| 11> C     -1.235575    2.562053    0.000000
| 12> C      0.192517    1.998175    0.000000
| 13> H      0.236268   -3.400335    0.000000
| 14> H      0.239777   -2.153732    2.140626
| 15> H      0.239777   -2.153732   -2.140626
| 16> H      0.241085    0.308775    2.138169
| 17> H      0.241085    0.308775   -2.138169
| 18> H     -1.787127    2.229520   -0.880348
| 19> H     -1.223850    3.653141    0.000000
| 20> H     -1.787127    2.229520    0.880348
| 21> H      0.726399    2.374684    0.875281
| 22> H      0.726399    2.374684   -0.875281
| 23> *
| 24>
| 25>                          ****END OF INPUT****

CARTESIAN COORDINATES (ANGSTROEM)
---------------------------------
  C      0.232915   -2.318566    0.000000
  C      0.234056   -1.617939    1.200385
  C      0.234056   -1.617939   -1.200385
  C      0.234056   -0.228276    1.197195
  C      0.234056   -0.228276   -1.197195
  C      0.231803    0.488886    0.000000
  C     -1.235575    2.562053    0.000000
  C      0.192517    1.998175    0.000000
  H      0.236268   -3.400335    0.000000
  H      0.239777   -2.153732    2.140626
  H      0.239777   -2.153732   -2.140626
  H      0.241085    0.308775    2.138169
  H      0.241085    0.308775   -2.138169
  H     -1.787127    2.229520   -0.880348
  H     -1.223850    3.653141    0.000000
  H     -1.787127    2.229520    0.880348
  H      0.726399    2.374684    0.875281
  H      0.726399    2.374684   -0.875281

 Total Charge           Charge          ....    0
 Multiplicity           Mult            ....    1
 Number of Electrons    NEL             ....   58
 Basis Dimension        Dim             ....  274

ORBITAL ENERGIES
----------------

  NO   OCC          E(Eh)            E(eV)
   0   2.0000     -11.241660      -305.9011
   1   2.0000     -11.237421      -305.7858
   2   2.0000     -11.237244      -305.7810
   3   2.0000     -11.233524      -305.6797
   4   2.0000     -11.233198      -305.6709
   5   2.0000     -11.232835      -305.6610
   6   2.0000     -11.232730      -305.6581
   7   2.0000     -11.222642      -305.3836
   8   2.0000      -1.156966       -31.4826
   9   2.0000      -1.064102       -28.9557
  10   2.0000      -1.014156       -27.5966
  11   2.0000      -0.983846       -26.7718
  12   2.0000      -0.865229       -23.5441
  13   2.0000      -0.826511       -22.4905
  14   2.0000      -0.789365       -21.4797
  15   2.0000      -0.693572       -18.8731
  16   2.0000      -0.641556       -17.4576
  17   2.0000      -0.634865       -17.2755
  18   2.0000      -0.592388       -16.1197
  19   2.0000      -0.586864       -15.9694
  20   2.0000      -0.578150       -15.7322
  21   2.0000      -0.545679       -14.8487
  22   2.0000      -0.520496       -14.1634
  23   2.0000      -0.499136       -13.5822
  24   2.0000      -0.484597       -13.1866
  25   2.0000      -0.477044       -12.9810
  26   2.0000      -0.472564       -12.8591
  27   2.0000      -0.334024        -9.0893
  28   2.0000      -0.323796        -8.8109
  29   0.0000       0.035571         0.9679
  30   0.0000       0.039945         1.0870
  31   0.0000       0.041865         1.1392
  32   0.0000       0.052415         1.4263
  33   0.0000       0.054435         1.4812

MULLIKEN ATOMIC CHARGES
-----------------------
   0 C :    0.482264
   1 C :    0.261318
   2 C :    0.261318
   3 C :    0.378176
   4 C :    0.378176
   5 C :    0.969851
   6 C :    0.321956
   7 C :    0.145225
   8 H :   -0.447537
   9 H :   -0.453383
  10 H :   -0.453383
  11 H :   -0.619680
  12 H :   -0.619680
  13 H :   -0.101176
  14 H :   -0.084111
  15 H :   -0.101176
  16 H :   -0.159080
  17 H :   -0.159080
Sum of atomic charges:   -0.0000000

LOEWDIN ATOMIC CHARGES
----------------------
   0 C :    0.001156
   1 C :    0.007101
   2 C :    0.007101
   3 C :    0.039979
   4 C :    0.039979
   5 C :   -0.186688
   6 C :    0.145355
   7 C :   -0.034397
   8 H :   -0.002979
   9 H :   -0.000539
  10 H :   -0.000539
  11 H :    0.006066
  12 H :    0.006066
  13 H :   -0.017454
  14 H :   -0.020172
  15 H :   -0.017454
  16 H :    0.013709
  17 H :    0.013709

  Mayer bond orders larger than 0.100000
B(  0-C ,  1-C ) :   1.8257 B(  0-C ,  2-C ) :   1.8257 B(  0-C ,  5-C ) :   0.2755
B(  0-C ,  8-H ) :   0.2672 B(  0-C ,  9-H ) :   0.1776 B(  0-C , 10-H ) :   0.1776
B(  1-C ,  3-C ) :   1.8868 B(  1-C ,  5-C ) :  -0.4652 B(  1-C ,  7-C ) :   0.1856
B(  1-C ,  8-H ) :   0.2406 B(  1-C ,  9-H ) :   0.2210 B(  1-C , 11-H ) :   0.2261
B(  2-C ,  4-C ) :   1.8868 B(  2-C ,  5-C ) :  -0.4652 B(  2-C ,  7-C ) :   0.1856
B(  2-C ,  8-H ) :   0.2406 B(  2-C , 10-H ) :   0.2210 B(  2-C , 12-H ) :   0.2261
B(  3-C ,  4-C ) :  -0.7150 B(  3-C ,  5-C ) :   1.8717 B(  3-C ,  7-C ) :  -0.3542
B(  3-C ,  9-H ) :   0.3682 B(  3-C , 11-H ) :  -0.1278 B(  4-C ,  5-C ) :   1.8717
B(  4-C ,  7-C ) :  -0.3542 B(  4-C , 10-H ) :   0.3682 B(  4-C , 12-H ) :  -0.1278
B(  5-C ,  6-C ) :  -0.1018 B(  5-C ,  7-C ) :   1.3717 B(  5-C , 11-H ) :   0.5443
B(  5-C , 12-H ) :   0.5443 B(  6-C ,  7-C ) :   1.1911 B(  6-C , 13-H ) :   0.9515
B(  6-C , 14-H ) :   0.9189 B(  6-C , 15-H ) :   0.9515 B(  7-C , 16-H ) :   0.7939
B(  7-C , 17-H ) :   0.7939

MP2 TOTAL ENERGY:     -309.919123399 Eh
FINAL SINGLE POINT ENERGY      -309.919123399028

DIPOLE MOMENT
-------------
                                X             Y             Z
Electronic contribution:      2.18190      -5.75816      -0.00000
Nuclear contribution   :     -2.20314       5.92134       0.00000
                        -----------------------------------------
Total Dipole Moment    :     -0.02124       0.16318      -0.00000
                        -----------------------------------------
Magnitude (a.u.)       :      0.16456
Magnitude (Debye)      :      0.41828

Rotational constants in cm-1:     0.152532     0.048711     0.040449
Rotational constants in MHz :  4572.788388  1460.333908  1212.629493

                             ****ORCA TERMINATED NORMALLY****
TOTAL RUN TIME: 0 days 0 hours 1 minutes 25 seconds 21 msec
