                         Program Version 5.0.3 -  RELEASE  -
|  1> !ri-mp2 aug-cc-pvdz aug-cc-pvdz/c tightscf
|  2> %pal nprocs 16 end
|  3>
|  4> * xyz 0 1
|  5> C      2.782896    0.485045    0.000000
|  6> C      2.194136   -0.770352    0.000000
|  7> C      1.968374    1.616338    0.000000
|  8> C      0.807719   -0.912627    0.000000
|  9> C      0.589648    1.491986    0.000000
| 10> C      0.000000    0.224518    0.000000
| 11> C     -3.525326   -0.782670    0.000000
| 12> C     -2.036225   -1.053818    0.000000
| 13> O     -1.362668    0.203627    0.000000
| 14> H      3.859197    0.585368    0.000000
| 15> H      2.812468   -1.658314    0.000000
| 16> H      2.412071    2.603099    0.000000
| 17> H      0.376293   -1.901643    0.000000
| 18> H     -0.052598    2.361690    0.000000
| 19> H     -4.074153   -1.725007    0.000000
| 20> H     -3.814766   -0.215005    0.883932
| 21> H     -3.814766   -0.215005   -0.883932
| 22> H     -1.744865   -1.627360   -0.885629
| 23> H     -1.744865   -1.627360    0.885629
| 24> *
| 25>
| 26>                          ****END OF INPUT****

CARTESIAN COORDINATES (ANGSTROEM)
---------------------------------
  C      2.782896    0.485045    0.000000
  C      2.194136   -0.770352    0.000000
  C      1.968374    1.616338    0.000000
  C      0.807719   -0.912627    0.000000
  C      0.589648    1.491986    0.000000
  C      0.000000    0.224518    0.000000
  C     -3.525326   -0.782670    0.000000
  C     -2.036225   -1.053818    0.000000
  O     -1.362668    0.203627    0.000000
  H      3.859197    0.585368    0.000000
  H      2.812468   -1.658314    0.000000
  H      2.412071    2.603099    0.000000
  H      0.376293   -1.901643    0.000000
  H     -0.052598    2.361690    0.000000
  H     -4.074153   -1.725007    0.000000
  H     -3.814766   -0.215005    0.883932
  H     -3.814766   -0.215005   -0.883932
  H     -1.744865   -1.627360   -0.885629
  H     -1.744865   -1.627360    0.885629

 Total Charge           Charge          ....    0
 Multiplicity           Mult            ....    1
 Number of Electrons    NEL             ....   66
 Basis Dimension        Dim             ....  297

ORBITAL ENERGIES
----------------

  NO   OCC          E(Eh)            E(eV)
   0   2.0000     -20.589857      -560.2785
   1   2.0000     -11.303953      -307.5962
   2   2.0000     -11.293909      -307.3229
   3   2.0000     -11.242565      -305.9257
   4   2.0000     -11.241269      -305.8905
   5   2.0000     -11.233668      -305.6837
   6   2.0000     -11.229661      -305.5746
   7   2.0000     -11.228825      -305.5519
   8   2.0000     -11.228696      -305.5483
   9   2.0000      -1.410266       -38.3753
  10   2.0000      -1.149995       -31.2930
  11   2.0000      -1.048190       -28.5227
  12   2.0000      -1.019044       -27.7296
  13   2.0000      -0.989315       -26.9206
  14   2.0000      -0.873535       -23.7701
  15   2.0000      -0.827541       -22.5185
  16   2.0000      -0.802728       -21.8434
  17   2.0000      -0.725253       -19.7351
  18   2.0000      -0.669513       -18.2184
  19   2.0000      -0.668008       -18.1774
  20   2.0000      -0.651370       -17.7247
  21   2.0000      -0.615602       -16.7514
  22   2.0000      -0.587792       -15.9946
  23   2.0000      -0.562318       -15.3014
  24   2.0000      -0.561830       -15.2882
  25   2.0000      -0.547095       -14.8872
  26   2.0000      -0.514990       -14.0136
  27   2.0000      -0.506840       -13.7918
  28   2.0000      -0.502470       -13.6729
  29   2.0000      -0.476935       -12.9781
  30   2.0000      -0.461723       -12.5641
  31   2.0000      -0.338769        -9.2184
  32   2.0000      -0.309841        -8.4312
  33   0.0000       0.034642         0.9426
  34   0.0000       0.038571         1.0496
  35   0.0000       0.041807         1.1376
  36   0.0000       0.052275         1.4225
  37   0.0000       0.053652         1.4599

MULLIKEN ATOMIC CHARGES
-----------------------
   0 C :    0.384206
   1 C :    0.906477
   2 C :    0.813922
   3 C :   -0.074705
   4 C :    0.280463
   5 C :    1.114539
   6 C :    0.324849
   7 C :    0.562355
   8 O :   -1.126324
   9 H :   -0.447762
  10 H :   -0.469247
  11 H :   -0.441978
  12 H :   -0.771606
  13 H :   -0.567759
  14 H :   -0.036055
  15 H :   -0.020903
  16 H :   -0.020903
  17 H :   -0.204785
  18 H :   -0.204785
Sum of atomic charges:   -0.0000000

LOEWDIN ATOMIC CHARGES
----------------------
   0 C :   -0.006092
   1 C :    0.005451
   2 C :    0.006558
   3 C :    0.038576
   4 C :    0.047697
   5 C :   -0.201713
   6 C :    0.144750
   7 C :   -0.061064
   8 O :    0.055492
   9 H :   -0.006626
  10 H :    0.001343
  11 H :    0.001805
  12 H :   -0.014007
  13 H :    0.006643
  14 H :   -0.014908
  15 H :   -0.013858
  16 H :   -0.013858
  17 H :    0.011906
  18 H :    0.011906

  Mayer bond orders larger than 0.100000
B(  0-C ,  1-C ) :   1.4855 B(  0-C ,  2-C ) :   1.6318 B(  0-C ,  3-C ) :   0.3750
B(  0-C ,  4-C ) :   0.2380 B(  0-C ,  9-H ) :   0.3389 B(  0-C , 10-H ) :   0.1179
B(  0-C , 11-H ) :   0.1720 B(  1-C ,  2-C ) :  -0.1759 B(  1-C ,  3-C ) :   1.5300
B(  1-C ,  5-C ) :  -0.1594 B(  1-C ,  6-C ) :   0.1275 B(  1-C ,  9-H ) :   0.2226
B(  1-C , 12-H ) :   0.2325 B(  2-C ,  3-C ) :   0.1776 B(  2-C ,  4-C ) :   1.8432
B(  2-C ,  5-C ) :  -0.2172 B(  2-C ,  9-H ) :   0.1285 B(  2-C , 10-H ) :  -0.1350
B(  2-C , 11-H ) :   0.2853 B(  2-C , 13-H ) :   0.1094 B(  3-C ,  4-C ) :   0.1955
B(  3-C ,  5-C ) :   1.2478 B(  3-C ,  8-O ) :   0.1719 B(  3-C , 10-H ) :   0.7090
B(  3-C , 12-H ) :  -0.1577 B(  4-C ,  5-C ) :   1.8049 B(  4-C , 11-H ) :   0.2973
B(  5-C , 12-H ) :   0.3334 B(  5-C , 13-H ) :   0.5629 B(  6-C ,  7-C ) :   1.1581
B(  6-C , 14-H ) :   0.8937 B(  6-C , 15-H ) :   0.9141 B(  6-C , 16-H ) :   0.9141
B(  7-C ,  8-O ) :   0.7752 B(  7-C , 17-H ) :   0.8378 B(  7-C , 18-H ) :   0.8378

MP2 TOTAL ENERGY:     -384.969726296 Eh
FINAL SINGLE POINT ENERGY      -384.969726296006

DIPOLE MOMENT
-------------
                                X             Y             Z
Electronic contribution:      5.69345       2.95404       0.00000
Nuclear contribution   :     -5.89236      -3.46627       0.00000
                        -----------------------------------------
Total Dipole Moment    :     -0.19891      -0.51222       0.00000
                        -----------------------------------------
Magnitude (a.u.)       :      0.54949
Magnitude (Debye)      :      1.39669

Rotational constants in cm-1:     0.163524     0.030655     0.026067
Rotational constants in MHz :  4902.334029   919.011793   781.482870

                             ****ORCA TERMINATED NORMALLY****
TOTAL RUN TIME: 0 days 0 hours 1 minutes 32 seconds 36 msec
