                         Program Version 5.0.3 -  RELEASE  -
|  1> !ri-mp2 aug-cc-pvdz aug-cc-pvdz/c tightscf
|  2> %pal nprocs 16 end
|  3>
|  4> * xyz 0 1
|  5> N      0.512308    0.546801   -0.071754
|  6> N      1.510698   -0.467956   -0.034828
|  7> C     -0.763301    0.125139   -0.013554
|  8> C     -1.913127   -0.223847    0.004210
|  9> H      0.705929    1.370690    0.481900
| 10> H      1.827585   -0.633181    0.915230
| 11> H      2.290894   -0.164761   -0.602259
| 12> H     -2.926878   -0.532418    0.007263
| 13> *
| 14>
| 15>                          ****END OF INPUT****

CARTESIAN COORDINATES (ANGSTROEM)
---------------------------------
  N      0.512308    0.546801   -0.071754
  N      1.510698   -0.467956   -0.034828
  C     -0.763301    0.125139   -0.013554
  C     -1.913127   -0.223847    0.004210
  H      0.705929    1.370690    0.481900
  H      1.827585   -0.633181    0.915230
  H      2.290894   -0.164761   -0.602259
  H     -2.926878   -0.532418    0.007263

 Total Charge           Charge          ....    0
 Multiplicity           Mult            ....    1
 Number of Electrons    NEL             ....   30
 Basis Dimension        Dim             ....  128

ORBITAL ENERGIES
----------------

  NO   OCC          E(Eh)            E(eV)
   0   2.0000     -15.626046      -425.2063
   1   2.0000     -15.604879      -424.6303
   2   2.0000     -11.267148      -306.5947
   3   2.0000     -11.219255      -305.2914
   4   2.0000      -1.313084       -35.7308
   5   2.0000      -1.096312       -29.8322
   6   2.0000      -0.986974       -26.8569
   7   2.0000      -0.763873       -20.7860
   8   2.0000      -0.710068       -19.3219
   9   2.0000      -0.693896       -18.8819
  10   2.0000      -0.670039       -18.2327
  11   2.0000      -0.505551       -13.7567
  12   2.0000      -0.443538       -12.0693
  13   2.0000      -0.390873       -10.6362
  14   2.0000      -0.339789        -9.2461
  15   0.0000       0.028333         0.7710
  16   0.0000       0.045540         1.2392
  17   0.0000       0.052007         1.4152
  18   0.0000       0.056063         1.5255
  19   0.0000       0.111436         3.0323

MULLIKEN ATOMIC CHARGES
-----------------------
   0 N :   -0.341536
   1 N :   -0.186394
   2 C :   -0.111895
   3 C :    0.825703
   4 H :    0.031573
   5 H :    0.052891
   6 H :    0.092454
   7 H :   -0.362797
Sum of atomic charges:    0.0000000

LOEWDIN ATOMIC CHARGES
----------------------
   0 N :   -0.015425
   1 N :    0.210416
   2 C :   -0.175126
   3 C :    0.194347
   4 H :   -0.004601
   5 H :   -0.045283
   6 H :   -0.048700
   7 H :   -0.115627

  Mayer bond orders larger than 0.100000
B(  0-N ,  1-N ) :   1.1256 B(  0-N ,  2-C ) :   1.3109 B(  0-N ,  3-C ) :  -0.1981
B(  0-N ,  4-H ) :   0.9925 B(  1-N ,  2-C ) :  -0.2413 B(  1-N ,  5-H ) :   1.0679
B(  1-N ,  6-H ) :   1.0253 B(  2-C ,  3-C ) :   2.9682 B(  2-C ,  7-H ) :   0.3727
B(  3-C ,  7-H ) :   0.2126

MP2 TOTAL ENERGY:     -187.479168159 Eh
FINAL SINGLE POINT ENERGY      -187.479168159150

DIPOLE MOMENT
-------------
                                X             Y             Z
Electronic contribution:     -1.11471       0.40747      -0.25942
Nuclear contribution   :      1.91874       0.04099       0.80543
                        -----------------------------------------
Total Dipole Moment    :      0.80404       0.44846       0.54601
                        -----------------------------------------
Magnitude (a.u.)       :      1.07038
Magnitude (Debye)      :      2.72069

Rotational constants in cm-1:     1.385602     0.159240     0.146593
Rotational constants in MHz : 41539.305636  4773.889620  4394.757194

                             ****ORCA TERMINATED NORMALLY****
TOTAL RUN TIME: 0 days 0 hours 0 minutes 45 seconds 968 msec
