                         Program Version 5.0.3 -  RELEASE  -
|  1> !ri-mp2 aug-cc-pvdz aug-cc-pvdz/c tightscf
|  2> %pal nprocs 16 end
|  3>
|  4> * xyz 0 1
|  5> Cl    4.447941   -0.116167    0.000012
|  6> N    -3.025270   -0.496796   -0.000055
|  7> N    -4.225241   -0.238014   -0.000076
|  8> N    -5.349023   -0.121568   -0.000107
|  9> C    -2.135877    0.693862    0.000077
| 10> C    -0.744389    0.279137    0.000046
| 11> C     0.418235   -0.030637    0.000023
| 12> C     1.770768   -0.449000   -0.000006
| 13> C     2.794415    0.405041    0.000048
| 14> H    -2.339149    1.308733   -0.883213
| 15> H    -2.339163    1.308547    0.883494
| 16> H     1.960606   -1.516013   -0.000076
| 17> H     2.680539    1.477792    0.000117
| 18> *
| 19>
| 20>                          ****END OF INPUT****

CARTESIAN COORDINATES (ANGSTROEM)
---------------------------------
  Cl     4.447941   -0.116167    0.000012
  N     -3.025270   -0.496796   -0.000055
  N     -4.225241   -0.238014   -0.000076
  N     -5.349023   -0.121568   -0.000107
  C     -2.135877    0.693862    0.000077
  C     -0.744389    0.279137    0.000046
  C      0.418235   -0.030637    0.000023
  C      1.770768   -0.449000   -0.000006
  C      2.794415    0.405041    0.000048
  H     -2.339149    1.308733   -0.883213
  H     -2.339163    1.308547    0.883494
  H      1.960606   -1.516013   -0.000076
  H      2.680539    1.477792    0.000117

 Total Charge           Charge          ....    0
 Multiplicity           Mult            ....    1
 Number of Electrons    NEL             ....   72
 Basis Dimension        Dim             ....  247

ORBITAL ENERGIES
----------------

  NO   OCC          E(Eh)            E(eV)
   0   2.0000    -104.852225     -2853.1741
   1   2.0000     -15.802630      -430.0114
   2   2.0000     -15.688155      -426.8964
   3   2.0000     -15.628365      -425.2694
   4   2.0000     -11.327640      -308.2408
   5   2.0000     -11.323683      -308.1331
   6   2.0000     -11.285689      -307.0992
   7   2.0000     -11.261600      -306.4437
   8   2.0000     -11.257815      -306.3407
   9   2.0000     -10.578209      -287.8477
  10   2.0000      -8.046049      -218.9441
  11   2.0000      -8.042596      -218.8502
  12   2.0000      -8.042577      -218.8496
  13   2.0000      -1.523689       -41.4617
  14   2.0000      -1.311879       -35.6980
  15   2.0000      -1.177411       -32.0390
  16   2.0000      -1.103388       -30.0247
  17   2.0000      -1.057143       -28.7663
  18   2.0000      -0.978201       -26.6182
  19   2.0000      -0.833701       -22.6861
  20   2.0000      -0.767073       -20.8731
  21   2.0000      -0.739483       -20.1223
  22   2.0000      -0.723875       -19.6977
  23   2.0000      -0.712457       -19.3869
  24   2.0000      -0.682059       -18.5598
  25   2.0000      -0.642072       -17.4717
  26   2.0000      -0.639058       -17.3896
  27   2.0000      -0.630344       -17.1525
  28   2.0000      -0.562567       -15.3082
  29   2.0000      -0.530049       -14.4234
  30   2.0000      -0.466430       -12.6922
  31   2.0000      -0.459709       -12.5093
  32   2.0000      -0.457585       -12.4515
  33   2.0000      -0.407621       -11.0919
  34   2.0000      -0.392052       -10.6683
  35   2.0000      -0.342012        -9.3066
  36   0.0000       0.031056         0.8451
  37   0.0000       0.044523         1.2115
  38   0.0000       0.046740         1.2718
  39   0.0000       0.050430         1.3723
  40   0.0000       0.078123         2.1258

MULLIKEN ATOMIC CHARGES
-----------------------
   0 Cl:   -0.312232
   1 N :   -0.522549
   2 N :    0.333167
   3 N :   -0.304469
   4 C :    0.654810
   5 C :   -0.285461
   6 C :   -0.312128
   7 C :    1.352733
   8 C :   -0.159348
   9 H :    0.075470
  10 H :    0.075472
  11 H :   -0.307514
  12 H :   -0.287951
Sum of atomic charges:   -0.0000000

LOEWDIN ATOMIC CHARGES
----------------------
   0 Cl:    0.524274
   1 N :    0.054868
   2 N :   -0.289828
   3 N :    0.258516
   4 C :   -0.055181
   5 C :    0.006137
   6 C :   -0.024960
   7 C :   -0.107787
   8 C :   -0.359813
   9 H :    0.017509
  10 H :    0.017510
  11 H :    0.001394
  12 H :   -0.042639

  Mayer bond orders larger than 0.100000
B(  0-Cl,  6-C ) :   0.1573 B(  0-Cl,  7-C ) :  -0.4137 B(  0-Cl,  8-C ) :   1.1034
B(  1-N ,  2-N ) :   1.0529 B(  1-N ,  3-N ) :   0.2242 B(  1-N ,  4-C ) :   0.7255
B(  2-N ,  3-N ) :   1.8162 B(  4-C ,  5-C ) :   1.0539 B(  4-C ,  6-C ) :   0.3404
B(  4-C ,  9-H ) :   0.7772 B(  4-C , 10-H ) :   0.7772 B(  5-C ,  6-C ) :   2.7047
B(  5-C ,  7-C ) :   0.1989 B(  5-C ,  9-H ) :   0.2636 B(  5-C , 10-H ) :   0.2636
B(  6-C ,  7-C ) :   1.6466 B(  6-C ,  8-C ) :   0.1084 B(  6-C , 11-H ) :   0.2445
B(  6-C , 12-H ) :  -0.1310 B(  7-C ,  8-C ) :   0.9680 B(  7-C , 11-H ) :   0.4383
B(  8-C , 12-H ) :   0.9732

MP2 TOTAL ENERGY:     -815.716726117 Eh
FINAL SINGLE POINT ENERGY      -815.716726117448

DIPOLE MOMENT
-------------
                                X             Y             Z
Electronic contribution:      6.03417      -1.85063      -0.00021
Nuclear contribution   :     -6.18463       2.61751       0.00029
                        -----------------------------------------
Total Dipole Moment    :     -0.15046       0.76688       0.00008
                        -----------------------------------------
Magnitude (a.u.)       :      0.78150
Magnitude (Debye)      :      1.98642

Rotational constants in cm-1:     0.660128     0.009923     0.009794
Rotational constants in MHz : 19790.143717   297.478130   293.608462

                             ****ORCA TERMINATED NORMALLY****
TOTAL RUN TIME: 0 days 0 hours 0 minutes 51 seconds 19 msec
