                         Program Version 5.0.3 -  RELEASE  -
|  1> !ri-mp2 aug-cc-pvdz aug-cc-pvdz/c tightscf
|  2> %pal nprocs 16 end
|  3>
|  4> * xyz 0 1
|  5> S    -1.085714    0.117394    0.777209
|  6> S     1.616055   -1.007193    0.004656
|  7> C    -0.092200   -0.704472   -0.547441
|  8> C    -2.551811    0.291449   -0.041856
|  9> C     2.295903    0.534104   -0.121587
| 10> C    -3.614199    0.432090   -0.592782
| 11> C     2.852247    1.598818   -0.193854
| 12> H    -0.096062   -0.091324   -1.442322
| 13> H    -0.512041   -1.685333   -0.754731
| 14> H    -4.551006    0.558816   -1.074999
| 15> H     3.334006    2.542688   -0.252663
| 16> *
| 17>
| 18>                          ****END OF INPUT****

CARTESIAN COORDINATES (ANGSTROEM)
---------------------------------
  S     -1.085714    0.117394    0.777209
  S      1.616055   -1.007193    0.004656
  C     -0.092200   -0.704472   -0.547441
  C     -2.551811    0.291449   -0.041856
  C      2.295903    0.534104   -0.121587
  C     -3.614199    0.432090   -0.592782
  C      2.852247    1.598818   -0.193854
  H     -0.096062   -0.091324   -1.442322
  H     -0.512041   -1.685333   -0.754731
  H     -4.551006    0.558816   -1.074999
  H      3.334006    2.542688   -0.252663

 Total Charge           Charge          ....    0
 Multiplicity           Mult            ....    1
 Number of Electrons    NEL             ....   66
 Basis Dimension        Dim             ....  205

ORBITAL ENERGIES
----------------

  NO   OCC          E(Eh)            E(eV)
   0   2.0000     -92.009384     -2503.7026
   1   2.0000     -92.000046     -2503.4485
   2   2.0000     -11.325510      -308.1828
   3   2.0000     -11.274034      -306.7821
   4   2.0000     -11.272740      -306.7469
   5   2.0000     -11.256002      -306.2914
   6   2.0000     -11.253636      -306.2270
   7   2.0000      -9.009623      -245.1643
   8   2.0000      -9.000338      -244.9117
   9   2.0000      -6.691937      -182.0969
  10   2.0000      -6.690097      -182.0468
  11   2.0000      -6.688104      -181.9926
  12   2.0000      -6.682525      -181.8408
  13   2.0000      -6.680739      -181.7921
  14   2.0000      -6.678590      -181.7337
  15   2.0000      -1.133239       -30.8370
  16   2.0000      -1.083957       -29.4960
  17   2.0000      -1.031387       -28.0655
  18   2.0000      -0.975769       -26.5520
  19   2.0000      -0.884274       -24.0623
  20   2.0000      -0.735009       -20.0006
  21   2.0000      -0.732763       -19.9395
  22   2.0000      -0.664304       -18.0766
  23   2.0000      -0.642967       -17.4960
  24   2.0000      -0.604601       -16.4520
  25   2.0000      -0.525014       -14.2864
  26   2.0000      -0.515008       -14.0141
  27   2.0000      -0.478553       -13.0221
  28   2.0000      -0.469763       -12.7829
  29   2.0000      -0.414405       -11.2765
  30   2.0000      -0.397602       -10.8193
  31   2.0000      -0.349759        -9.5174
  32   2.0000      -0.343801        -9.3553
  33   0.0000       0.034262         0.9323
  34   0.0000       0.038347         1.0435
  35   0.0000       0.045857         1.2478
  36   0.0000       0.059686         1.6241
  37   0.0000       0.078412         2.1337

MULLIKEN ATOMIC CHARGES
-----------------------
   0 S :    0.385444
   1 S :    0.465843
   2 C :   -0.266673
   3 C :   -0.218671
   4 C :   -0.310602
   5 C :    0.402381
   6 C :    0.503655
   7 H :   -0.064048
   8 H :   -0.104002
   9 H :   -0.389194
  10 H :   -0.404133
Sum of atomic charges:   -0.0000000

LOEWDIN ATOMIC CHARGES
----------------------
   0 S :    0.826647
   1 S :    0.833437
   2 C :   -0.516189
   3 C :   -0.507524
   4 C :   -0.505205
   5 C :    0.115444
   6 C :    0.120426
   7 H :   -0.068557
   8 H :   -0.074720
   9 H :   -0.113225
  10 H :   -0.110534

  Mayer bond orders larger than 0.100000
B(  0-S ,  2-C ) :   1.0190 B(  0-S ,  3-C ) :   1.1384 B(  0-S ,  5-C ) :  -0.1566
B(  0-S ,  9-H ) :   0.1021 B(  1-S ,  2-C ) :   1.0648 B(  1-S ,  4-C ) :   1.0585
B(  1-S ,  6-C ) :  -0.1195 B(  1-S ,  8-H ) :  -0.1091 B(  1-S , 10-H ) :   0.1064
B(  2-C ,  7-H ) :   1.0707 B(  2-C ,  8-H ) :   1.0075 B(  3-C ,  5-C ) :   2.6371
B(  3-C ,  9-H ) :   0.1738 B(  4-C ,  6-C ) :   2.7892 B(  4-C , 10-H ) :   0.2687
B(  5-C ,  9-H ) :   0.3634 B(  6-C , 10-H ) :   0.2732

MP2 TOTAL ENERGY:     -987.534725904 Eh
FINAL SINGLE POINT ENERGY      -987.534725903843

DIPOLE MOMENT
-------------
                                X             Y             Z
Electronic contribution:      1.58235      -1.24632       2.76582
Nuclear contribution   :     -1.78036       1.30743      -3.43108
                        -----------------------------------------
Total Dipole Moment    :     -0.19801       0.06111      -0.66527
                        -----------------------------------------
Magnitude (a.u.)       :      0.69680
Magnitude (Debye)      :      1.77111

Rotational constants in cm-1:     0.143462     0.028974     0.026500
Rotational constants in MHz :  4300.888737   868.615847   794.458291

                             ****ORCA TERMINATED NORMALLY****
TOTAL RUN TIME: 0 days 0 hours 0 minutes 57 seconds 615 msec
