                         Program Version 5.0.3 -  RELEASE  -
|  1> !ri-mp2 aug-cc-pvdz aug-cc-pvdz/c tightscf
|  2> %pal nprocs 16 end
|  3>
|  4> * xyz 0 1
|  5> O     -0.000024    0.000054    1.941721
|  6> N      0.000008   -0.000047    0.729470
|  7> C     -0.000025    0.000042   -1.881444
|  8> C      0.000075   -0.000109   -0.425458
|  9> H     -0.063200    1.018651   -2.266021
| 10> H      0.913597   -0.454486   -2.266367
| 11> H     -0.850557   -0.563861   -2.266253
| 12> *
| 13>
| 14>                          ****END OF INPUT****

CARTESIAN COORDINATES (ANGSTROEM)
---------------------------------
  O     -0.000024    0.000054    1.941721
  N      0.000008   -0.000047    0.729470
  C     -0.000025    0.000042   -1.881444
  C      0.000075   -0.000109   -0.425458
  H     -0.063200    1.018651   -2.266021
  H      0.913597   -0.454486   -2.266367
  H     -0.850557   -0.563861   -2.266253

 Total Charge           Charge          ....    0
 Multiplicity           Mult            ....    1
 Number of Electrons    NEL             ....   30
 Basis Dimension        Dim             ....  119

ORBITAL ENERGIES
----------------

  NO   OCC          E(Eh)            E(eV)
   0   2.0000     -20.569000      -559.7109
   1   2.0000     -15.740753      -428.3277
   2   2.0000     -11.318898      -308.0029
   3   2.0000     -11.304668      -307.6157
   4   2.0000      -1.486828       -40.4586
   5   2.0000      -1.222380       -33.2627
   6   2.0000      -1.048579       -28.5333
   7   2.0000      -0.732532       -19.9332
   8   2.0000      -0.685525       -18.6541
   9   2.0000      -0.673180       -18.3182
  10   2.0000      -0.673177       -18.3181
  11   2.0000      -0.611719       -16.6457
  12   2.0000      -0.611714       -16.6456
  13   2.0000      -0.384638       -10.4665
  14   2.0000      -0.384638       -10.4665
  15   0.0000       0.022751         0.6191
  16   0.0000       0.048442         1.3182
  17   0.0000       0.048443         1.3182
  18   0.0000       0.065627         1.7858
  19   0.0000       0.107665         2.9297

MULLIKEN ATOMIC CHARGES
-----------------------
   0 O :   -0.889948
   1 N :    0.356070
   2 C :    0.362489
   3 C :   -0.034732
   4 H :    0.068740
   5 H :    0.068678
   6 H :    0.068701
Sum of atomic charges:    0.0000000

LOEWDIN ATOMIC CHARGES
----------------------
   0 O :   -0.040851
   1 N :   -0.206767
   2 C :    0.159915
   3 C :    0.096037
   4 H :   -0.002780
   5 H :   -0.002779
   6 H :   -0.002775

  Mayer bond orders larger than 0.100000
B(  0-O ,  1-N ) :   1.0112 B(  1-N ,  3-C ) :   2.5724 B(  2-C ,  3-C ) :   0.7327
B(  2-C ,  4-H ) :   0.9213 B(  2-C ,  5-H ) :   0.9214 B(  2-C ,  6-H ) :   0.9213

MP2 TOTAL ENERGY:     -207.364050945 Eh
FINAL SINGLE POINT ENERGY      -207.364050945439

DIPOLE MOMENT
-------------
                                X             Y             Z
Electronic contribution:      0.00015      -0.00030       4.47302
Nuclear contribution   :     -0.00016       0.00030      -6.67960
                        -----------------------------------------
Total Dipole Moment    :     -0.00001      -0.00000      -2.20658
                        -----------------------------------------
Magnitude (a.u.)       :      2.20658
Magnitude (Debye)      :      5.60869

Rotational constants in cm-1:     5.352922     0.130904     0.130904
Rotational constants in MHz : 160476.554324  3924.414632  3924.413224

                             ****ORCA TERMINATED NORMALLY****
TOTAL RUN TIME: 0 days 0 hours 0 minutes 46 seconds 769 msec
