                         Program Version 5.0.3 -  RELEASE  -
|  1> !ri-mp2 aug-cc-pvdz aug-cc-pvdz/c tightscf
|  2> %pal nprocs 16 end
|  3>
|  4> * xyz 0 1
|  5> C     0.000000     2.382161    0.411002
|  6> C     0.000000    -2.382161    0.411002
|  7> C     0.000000     1.185118   -0.517097
|  8> C     0.000000    -1.185118   -0.517097
|  9> O     0.000000     0.000000    0.260427
| 10> H     0.000000     3.307756   -0.166158
| 11> H    -0.883458     2.373885    1.049360
| 12> H     0.883458     2.373885    1.049360
| 13> H     0.000000    -3.307756   -0.166158
| 14> H     0.883458    -2.373885    1.049360
| 15> H    -0.883458    -2.373885    1.049360
| 16> H     0.884361     1.201870   -1.168850
| 17> H    -0.884361     1.201870   -1.168850
| 18> H    -0.884361    -1.201870   -1.168850
| 19> H     0.884361    -1.201870   -1.168850
| 20> *
| 21>
| 22>                          ****END OF INPUT****

CARTESIAN COORDINATES (ANGSTROEM)
---------------------------------
  C      0.000000    2.382161    0.411002
  C      0.000000   -2.382161    0.411002
  C      0.000000    1.185118   -0.517097
  C      0.000000   -1.185118   -0.517097
  O      0.000000    0.000000    0.260427
  H      0.000000    3.307756   -0.166158
  H     -0.883458    2.373885    1.049360
  H      0.883458    2.373885    1.049360
  H      0.000000   -3.307756   -0.166158
  H      0.883458   -2.373885    1.049360
  H     -0.883458   -2.373885    1.049360
  H      0.884361    1.201870   -1.168850
  H     -0.884361    1.201870   -1.168850
  H     -0.884361   -1.201870   -1.168850
  H      0.884361   -1.201870   -1.168850

 Total Charge           Charge          ....    0
 Multiplicity           Mult            ....    1
 Number of Electrons    NEL             ....   42
 Basis Dimension        Dim             ....  205

ORBITAL ENERGIES
----------------

  NO   OCC          E(Eh)            E(eV)
   0   2.0000     -20.558577      -559.4273
   1   2.0000     -11.277451      -306.8751
   2   2.0000     -11.277429      -306.8744
   3   2.0000     -11.218343      -305.2666
   4   2.0000     -11.218342      -305.2666
   5   2.0000      -1.371572       -37.3224
   6   2.0000      -1.042380       -28.3646
   7   2.0000      -0.984012       -26.7763
   8   2.0000      -0.842658       -22.9299
   9   2.0000      -0.826041       -22.4777
  10   2.0000      -0.672828       -18.3086
  11   2.0000      -0.661932       -18.0121
  12   2.0000      -0.603554       -16.4235
  13   2.0000      -0.595683       -16.2094
  14   2.0000      -0.548583       -14.9277
  15   2.0000      -0.528448       -14.3798
  16   2.0000      -0.519937       -14.1482
  17   2.0000      -0.492797       -13.4097
  18   2.0000      -0.485312       -13.2060
  19   2.0000      -0.468929       -12.7602
  20   2.0000      -0.415424       -11.3043
  21   0.0000       0.037713         1.0262
  22   0.0000       0.044976         1.2239
  23   0.0000       0.048596         1.3224
  24   0.0000       0.049446         1.3455
  25   0.0000       0.065110         1.7717

MULLIKEN ATOMIC CHARGES
-----------------------
   0 C :    0.287172
   1 C :    0.287172
   2 C :    0.606334
   3 C :    0.606334
   4 O :   -0.922857
   5 H :   -0.051100
   6 H :   -0.047350
   7 H :   -0.047350
   8 H :   -0.051100
   9 H :   -0.047350
  10 H :   -0.047350
  11 H :   -0.143138
  12 H :   -0.143138
  13 H :   -0.143138
  14 H :   -0.143138
Sum of atomic charges:    0.0000000

LOEWDIN ATOMIC CHARGES
----------------------
   0 C :    0.134901
   1 C :    0.134901
   2 C :   -0.090962
   3 C :   -0.090962
   4 O :   -0.004599
   5 H :   -0.018440
   6 H :   -0.017080
   7 H :   -0.017080
   8 H :   -0.018440
   9 H :   -0.017080
  10 H :   -0.017080
  11 H :    0.005480
  12 H :    0.005480
  13 H :    0.005480
  14 H :    0.005480

  Mayer bond orders larger than 0.100000
B(  0-C ,  2-C ) :   1.2657 B(  0-C ,  5-H ) :   0.8967 B(  0-C ,  6-H ) :   0.9541
B(  0-C ,  7-H ) :   0.9541 B(  1-C ,  3-C ) :   1.2657 B(  1-C ,  8-H ) :   0.8967
B(  1-C ,  9-H ) :   0.9541 B(  1-C , 10-H ) :   0.9541 B(  2-C ,  4-O ) :   0.6710
B(  2-C , 11-H ) :   0.8813 B(  2-C , 12-H ) :   0.8813 B(  3-C ,  4-O ) :   0.6710
B(  3-C , 13-H ) :   0.8813 B(  3-C , 14-H ) :   0.8813

MP2 TOTAL ENERGY:     -232.975058895 Eh
FINAL SINGLE POINT ENERGY      -232.975058895188

DIPOLE MOMENT
-------------
                                X             Y             Z
Electronic contribution:     -0.00000       0.00000       0.35480
Nuclear contribution   :      0.00000       0.00000      -0.85790
                        -----------------------------------------
Total Dipole Moment    :     -0.00000       0.00000      -0.50309
                        -----------------------------------------
Magnitude (a.u.)       :      0.50309
Magnitude (Debye)      :      1.27877

Rotational constants in cm-1:     0.605041     0.074276     0.069596
Rotational constants in MHz : 18138.686183  2226.731620  2086.435838

                             ****ORCA TERMINATED NORMALLY****
TOTAL RUN TIME: 0 days 0 hours 0 minutes 49 seconds 156 msec
