                         Program Version 5.0.3 -  RELEASE  -
|  1> !ri-mp2 aug-cc-pvdz aug-cc-pvdz/c tightscf
|  2> %pal nprocs 16 end
|  3>
|  4> * xyz 0 1
|  5> H      2.655683    0.401193    0.000000
|  6> H      2.622682   -1.138527    0.875361
|  7> H      2.622682   -1.138527   -0.875361
|  8> C      2.242257   -0.606309    0.000000
|  9> H      0.256482   -1.562903    0.000000
| 10> C      0.752473   -0.598413    0.000000
| 11> H      0.451575    1.489847    0.000000
| 12> C      0.000000    0.504802    0.000000
| 13> N     -2.576635    0.473241    0.000000
| 14> C     -1.423506    0.472625    0.000000
| 15> *
| 16>
| 17>                          ****END OF INPUT****

CARTESIAN COORDINATES (ANGSTROEM)
---------------------------------
  H      2.655683    0.401193    0.000000
  H      2.622682   -1.138527    0.875361
  H      2.622682   -1.138527   -0.875361
  C      2.242257   -0.606309    0.000000
  H      0.256482   -1.562903    0.000000
  C      0.752473   -0.598413    0.000000
  H      0.451575    1.489847    0.000000
  C      0.000000    0.504802    0.000000
  N     -2.576635    0.473241    0.000000
  C     -1.423506    0.472625    0.000000

 Total Charge           Charge          ....    0
 Multiplicity           Mult            ....    1
 Number of Electrons    NEL             ....   36
 Basis Dimension        Dim             ....  160

ORBITAL ENERGIES
----------------

  NO   OCC          E(Eh)            E(eV)
   0   2.0000     -15.578918      -423.9239
   1   2.0000     -11.292347      -307.2804
   2   2.0000     -11.283752      -307.0465
   3   2.0000     -11.282441      -307.0108
   4   2.0000     -11.260087      -306.4026
   5   2.0000      -1.224096       -33.3093
   6   2.0000      -1.121024       -30.5046
   7   2.0000      -0.996222       -27.1086
   8   2.0000      -0.835514       -22.7355
   9   2.0000      -0.734317       -19.9818
  10   2.0000      -0.641539       -17.4572
  11   2.0000      -0.599718       -16.3191
  12   2.0000      -0.584156       -15.8957
  13   2.0000      -0.553064       -15.0496
  14   2.0000      -0.540664       -14.7122
  15   2.0000      -0.510418       -13.8892
  16   2.0000      -0.464540       -12.6408
  17   2.0000      -0.380834       -10.3630
  18   0.0000       0.027292         0.7427
  19   0.0000       0.040352         1.0980
  20   0.0000       0.049142         1.3372
  21   0.0000       0.050022         1.3612
  22   0.0000       0.069254         1.8845

MULLIKEN ATOMIC CHARGES
-----------------------
   0 H :   -0.113196
   1 H :    0.084949
   2 H :    0.084949
   3 C :    0.321574
   4 H :   -0.399013
   5 C :    0.081377
   6 H :   -0.436541
   7 C :    1.487968
   8 N :   -0.243126
   9 C :   -0.868941
Sum of atomic charges:   -0.0000000

LOEWDIN ATOMIC CHARGES
----------------------
   0 H :   -0.012109
   1 H :   -0.007726
   2 H :   -0.007726
   3 C :    0.152130
   4 H :    0.015357
   5 C :   -0.006329
   6 H :    0.003785
   7 C :   -0.034948
   8 N :    0.069011
   9 C :   -0.171447

  Mayer bond orders larger than 0.100000
B(  0-H ,  3-C ) :   0.9527 B(  1-H ,  3-C ) :   0.8844 B(  2-H ,  3-C ) :   0.8844
B(  3-C ,  5-C ) :   1.3642 B(  3-C ,  6-H ) :  -0.1489 B(  3-C ,  7-C ) :  -0.1590
B(  4-H ,  5-C ) :   0.7054 B(  5-C ,  6-H ) :   0.1021 B(  5-C ,  7-C ) :   1.9317
B(  6-H ,  7-C ) :   0.3255 B(  6-H ,  9-C ) :   0.3815 B(  7-C ,  8-N ) :  -0.1139
B(  8-N ,  9-C ) :   2.6005

MP2 TOTAL ENERGY:     -209.539954552 Eh
FINAL SINGLE POINT ENERGY      -209.539954552237

DIPOLE MOMENT
-------------
                                X             Y             Z
Electronic contribution:     -6.65186       1.64293       0.00000
Nuclear contribution   :      8.66054      -1.96121       0.00000
                        -----------------------------------------
Total Dipole Moment    :      2.00868      -0.31828       0.00000
                        -----------------------------------------
Magnitude (a.u.)       :      2.03374
Magnitude (Debye)      :      5.16936

Rotational constants in cm-1:     1.303389     0.076677     0.073391
Rotational constants in MHz : 39074.619986  2298.710543  2200.194675

                             ****ORCA TERMINATED NORMALLY****
TOTAL RUN TIME: 0 days 0 hours 0 minutes 18 seconds 337 msec
