                         Program Version 5.0.3 -  RELEASE  -
|  1> !ri-mp2 aug-cc-pvdz aug-cc-pvdz/c tightscf
|  2> %pal nprocs 16 end
|  3>
|  4> * xyz 0 1
|  5> C     -0.679556    0.246701    0.000059
|  6> C     -1.868935    0.053330   -0.000014
|  7> C      0.712990    0.524010    0.000070
|  8> C      1.678405   -0.401807    0.000097
|  9> C     -3.302324   -0.193398   -0.000060
| 10> C      3.141388   -0.102342   -0.000083
| 11> H      0.991810    1.574332    0.000000
| 12> H      1.392525   -1.448439    0.000167
| 13> H     -3.608764   -0.738322    0.895198
| 14> H     -3.862184    0.743039   -0.028117
| 15> H     -3.600383   -0.786260   -0.867207
| 16> H      3.630920   -0.536953   -0.875960
| 17> H      3.631186   -0.536992    0.875622
| 18> H      3.333073    0.970625   -0.000115
| 19> *
| 20>
| 21>                          ****END OF INPUT****

CARTESIAN COORDINATES (ANGSTROEM)
---------------------------------
  C     -0.679556    0.246701    0.000059
  C     -1.868935    0.053330   -0.000014
  C      0.712990    0.524010    0.000070
  C      1.678405   -0.401807    0.000097
  C     -3.302324   -0.193398   -0.000060
  C      3.141388   -0.102342   -0.000083
  H      0.991810    1.574332    0.000000
  H      1.392525   -1.448439    0.000167
  H     -3.608764   -0.738322    0.895198
  H     -3.862184    0.743039   -0.028117
  H     -3.600383   -0.786260   -0.867207
  H      3.630920   -0.536953   -0.875960
  H      3.631186   -0.536992    0.875622
  H      3.333073    0.970625   -0.000115

 Total Charge           Charge          ....    0
 Multiplicity           Mult            ....    1
 Number of Electrons    NEL             ....   44
 Basis Dimension        Dim             ....  210

ORBITAL ENERGIES
----------------

  NO   OCC          E(Eh)            E(eV)
   0   2.0000     -11.250999      -306.1553
   1   2.0000     -11.249328      -306.1098
   2   2.0000     -11.247641      -306.0639
   3   2.0000     -11.233860      -305.6889
   4   2.0000     -11.230051      -305.5852
   5   2.0000     -11.223524      -305.4076
   6   2.0000      -1.097824       -29.8733
   7   2.0000      -1.048622       -28.5345
   8   2.0000      -0.980832       -26.6898
   9   2.0000      -0.921439       -25.0736
  10   2.0000      -0.788076       -21.4446
  11   2.0000      -0.689917       -18.7736
  12   2.0000      -0.622047       -16.9267
  13   2.0000      -0.604233       -16.4420
  14   2.0000      -0.584486       -15.9047
  15   2.0000      -0.582058       -15.8386
  16   2.0000      -0.571672       -15.5560
  17   2.0000      -0.541239       -14.7279
  18   2.0000      -0.509146       -13.8546
  19   2.0000      -0.438636       -11.9359
  20   2.0000      -0.369187       -10.0461
  21   2.0000      -0.316220        -8.6048
  22   0.0000       0.035950         0.9783
  23   0.0000       0.039202         1.0667
  24   0.0000       0.047289         1.2868
  25   0.0000       0.055983         1.5234
  26   0.0000       0.059295         1.6135

MULLIKEN ATOMIC CHARGES
-----------------------
   0 C :   -0.093099
   1 C :   -0.750499
   2 C :    0.824035
   3 C :   -0.031374
   4 C :    0.296095
   5 C :    0.229752
   6 H :   -0.448708
   7 H :   -0.413902
   8 H :    0.118943
   9 H :    0.098649
  10 H :    0.117721
  11 H :    0.085369
  12 H :    0.085419
  13 H :   -0.118402
Sum of atomic charges:   -0.0000000

LOEWDIN ATOMIC CHARGES
----------------------
   0 C :   -0.039922
   1 C :   -0.050979
   2 C :   -0.059011
   3 C :   -0.024615
   4 C :    0.114122
   5 C :    0.135124
   6 H :    0.000299
   7 H :    0.004823
   8 H :   -0.010715
   9 H :   -0.010960
  10 H :   -0.010718
  11 H :   -0.015161
  12 H :   -0.015165
  13 H :   -0.017121

  Mayer bond orders larger than 0.100000
B(  0-C ,  1-C ) :   2.8105 B(  0-C ,  2-C ) :   1.7333 B(  0-C ,  4-C ) :   0.2500
B(  0-C ,  5-C ) :   0.1172 B(  0-C ,  6-H ) :   0.2384 B(  1-C ,  2-C ) :   0.3096
B(  1-C ,  4-C ) :   1.1981 B(  1-C ,  5-C ) :  -0.1085 B(  1-C ,  8-H ) :   0.3161
B(  1-C ,  9-H ) :   0.3089 B(  1-C , 10-H ) :   0.3158 B(  2-C ,  3-C ) :   1.8740
B(  2-C ,  5-C ) :  -0.2381 B(  2-C ,  6-H ) :   0.2818 B(  2-C ,  7-H ) :   0.2472
B(  2-C , 13-H ) :  -0.1201 B(  3-C ,  5-C ) :   1.4088 B(  3-C ,  6-H ) :   0.1516
B(  3-C ,  7-H ) :   0.5182 B(  3-C , 13-H ) :   0.1473 B(  4-C ,  8-H ) :   0.7692
B(  4-C ,  9-H ) :   0.7906 B(  4-C , 10-H ) :   0.7690 B(  5-C ,  6-H ) :  -0.1144
B(  5-C , 11-H ) :   0.8770 B(  5-C , 12-H ) :   0.8771 B(  5-C , 13-H ) :   0.9351

MP2 TOTAL ENERGY:     -232.643682350 Eh
FINAL SINGLE POINT ENERGY      -232.643682350069

DIPOLE MOMENT
-------------
                                X             Y             Z
Electronic contribution:     -1.90048       0.66168       0.00031
Nuclear contribution   :      1.96784      -0.78270      -0.00043
                        -----------------------------------------
Total Dipole Moment    :      0.06736      -0.12102      -0.00012
                        -----------------------------------------
Magnitude (a.u.)       :      0.13851
Magnitude (Debye)      :      0.35205

Rotational constants in cm-1:     0.960491     0.039949     0.038905
Rotational constants in MHz : 28794.782458  1197.634304  1166.332140

                             ****ORCA TERMINATED NORMALLY****
TOTAL RUN TIME: 0 days 0 hours 0 minutes 34 seconds 96 msec
