                         Program Version 5.0.3 -  RELEASE  -
|  1> !ri-mp2 aug-cc-pvdz aug-cc-pvdz/c tightscf
|  2> %pal nprocs 16 end
|  3>
|  4> * xyz 0 1
|  5> H     -0.081998    3.962781    0.000000
|  6> H      1.401922    2.867737    0.000000
|  7> C      0.322716    2.960628    0.000000
|  8> H     -1.546765    2.025344    0.000000
|  9> C     -0.469613    1.886059    0.000000
| 10> H      1.076131    0.373269    0.000000
| 11> C      0.000000    0.512043    0.000000
| 12> H     -1.883157   -0.373116    0.000000
| 13> C     -0.810602   -0.551298    0.000000
| 14> H     -0.872163   -2.479687    0.867089
| 15> H     -0.872163   -2.479687   -0.867089
| 16> C     -0.407996   -1.995454    0.000000
| 17> H      1.273015   -3.356046    0.000000
| 18> H      1.577427   -1.862279   -0.881724
| 19> H      1.577427   -1.862279    0.881724
| 20> C      1.090549   -2.281317    0.000000
| 21> *
| 22>
| 23>                          ****END OF INPUT****

CARTESIAN COORDINATES (ANGSTROEM)
---------------------------------
  H     -0.081998    3.962781    0.000000
  H      1.401922    2.867737    0.000000
  C      0.322716    2.960628    0.000000
  H     -1.546765    2.025344    0.000000
  C     -0.469613    1.886059    0.000000
  H      1.076131    0.373269    0.000000
  C      0.000000    0.512043    0.000000
  H     -1.883157   -0.373116    0.000000
  C     -0.810602   -0.551298    0.000000
  H     -0.872163   -2.479687    0.867089
  H     -0.872163   -2.479687   -0.867089
  C     -0.407996   -1.995454    0.000000
  H      1.273015   -3.356046    0.000000
  H      1.577427   -1.862279   -0.881724
  H      1.577427   -1.862279    0.881724
  C      1.090549   -2.281317    0.000000

 Total Charge           Charge          ....    0
 Multiplicity           Mult            ....    1
 Number of Electrons    NEL             ....   46
 Basis Dimension        Dim             ....  228

ORBITAL ENERGIES
----------------

  NO   OCC          E(Eh)            E(eV)
   0   2.0000     -11.240217      -305.8619
   1   2.0000     -11.239278      -305.8363
   2   2.0000     -11.235926      -305.7451
   3   2.0000     -11.231407      -305.6221
   4   2.0000     -11.227459      -305.5147
   5   2.0000     -11.222814      -305.3883
   6   2.0000      -1.105010       -30.0688
   7   2.0000      -1.050543       -28.5867
   8   2.0000      -0.975440       -26.5431
   9   2.0000      -0.878643       -23.9091
  10   2.0000      -0.784462       -21.3463
  11   2.0000      -0.742375       -20.2011
  12   2.0000      -0.642854       -17.4929
  13   2.0000      -0.627223       -17.0676
  14   2.0000      -0.613086       -16.6829
  15   2.0000      -0.567076       -15.4309
  16   2.0000      -0.561794       -15.2872
  17   2.0000      -0.507300       -13.8043
  18   2.0000      -0.501023       -13.6335
  19   2.0000      -0.492980       -13.4147
  20   2.0000      -0.478325       -13.0159
  21   2.0000      -0.433145       -11.7865
  22   2.0000      -0.310497        -8.4490
  23   0.0000       0.035991         0.9794
  24   0.0000       0.040183         1.0934
  25   0.0000       0.042499         1.1565
  26   0.0000       0.053737         1.4623
  27   0.0000       0.057619         1.5679

MULLIKEN ATOMIC CHARGES
-----------------------
   0 H :   -0.338346
   1 H :   -0.346081
   2 C :    0.696335
   3 H :   -0.552283
   4 C :    0.576683
   5 H :   -0.707432
   6 C :    0.581783
   7 H :   -0.561698
   8 C :    0.133158
   9 H :    0.099688
  10 H :    0.099688
  11 C :   -0.111943
  12 H :   -0.164971
  13 H :    0.003167
  14 H :    0.003167
  15 C :    0.589086
Sum of atomic charges:    0.0000000

LOEWDIN ATOMIC CHARGES
----------------------
   0 H :   -0.047564
   1 H :   -0.042093
   2 C :    0.166068
   3 H :   -0.000387
   4 C :   -0.079396
   5 H :   -0.004334
   6 C :   -0.032353
   7 H :    0.003307
   8 C :    0.000824
   9 H :    0.014788
  10 H :    0.014788
  11 C :   -0.071722
  12 H :   -0.020155
  13 H :   -0.015480
  14 H :   -0.015480
  15 C :    0.129188

  Mayer bond orders larger than 0.100000
B(  0-H ,  1-H ) :  -0.1905 B(  0-H ,  2-C ) :   0.6443 B(  0-H ,  4-C ) :   0.2137
B(  1-H ,  2-C ) :   0.7394 B(  1-H ,  4-C ) :   0.1420 B(  1-H ,  6-C ) :  -0.1021
B(  2-C ,  4-C ) :   1.8864 B(  2-C ,  6-C ) :  -0.1940 B(  2-C ,  8-C ) :   0.2514
B(  3-H ,  4-C ) :   0.3421 B(  3-H ,  6-C ) :   0.2812 B(  4-C ,  6-C ) :   1.1366
B(  4-C , 15-C ) :   0.1064 B(  5-H ,  6-C ) :   0.1899 B(  5-H ,  8-C ) :   0.3237
B(  5-H , 11-C ) :  -0.1520 B(  5-H , 15-C ) :   0.1709 B(  6-C ,  7-H ) :   0.5094
B(  6-C ,  8-C ) :   1.8471 B(  6-C , 11-C ) :  -0.1230 B(  7-H ,  8-C ) :   0.1744
B(  8-C , 11-C ) :   1.2359 B(  8-C , 15-C ) :  -0.2471 B(  9-H , 10-H ) :  -0.1022
B(  9-H , 11-C ) :   0.7846 B( 10-H , 11-C ) :   0.7846 B( 11-C , 15-C ) :   1.1826
B( 12-H , 15-C ) :   0.9077 B( 13-H , 15-C ) :   0.8806 B( 14-H , 15-C ) :   0.8806

MP2 TOTAL ENERGY:     -233.872632290 Eh
FINAL SINGLE POINT ENERGY      -233.872632290155

DIPOLE MOMENT
-------------
                                X             Y             Z
Electronic contribution:     -1.79907       3.03992      -0.00000
Nuclear contribution   :      1.73493      -3.34851       0.00000
                        -----------------------------------------
Total Dipole Moment    :     -0.06414      -0.30860      -0.00000
                        -----------------------------------------
Magnitude (a.u.)       :      0.31519
Magnitude (Debye)      :      0.80115

Rotational constants in cm-1:     0.356464     0.051311     0.045603
Rotational constants in MHz : 10686.529924  1538.267844  1367.134846

                             ****ORCA TERMINATED NORMALLY****
TOTAL RUN TIME: 0 days 0 hours 0 minutes 32 seconds 61 msec
