                         Program Version 5.0.3 -  RELEASE  -
|  1> !ri-mp2 aug-cc-pvdz aug-cc-pvdz/c tightscf
|  2> %pal nprocs 16 end
|  3>
|  4> * xyz 0 1
|  5> O    -0.050156    0.740035    0.079572
|  6> O     1.936027    1.687629   -0.182327
|  7> N     3.213504   -0.696582   -0.044778
|  8> N     4.330864   -0.709304   -0.134489
|  9> C     1.298833    0.673982   -0.023993
| 10> C     1.909663   -0.650513    0.057625
| 11> C    -0.856529   -0.436953    0.311416
| 12> C    -2.276948   -0.004647    0.447772
| 13> C    -3.260722   -0.448114   -0.326484
| 14> C    -4.699726   -0.063453   -0.200434
| 15> H     1.420216   -1.598861    0.184598
| 16> H    -0.512068   -0.920689    1.230337
| 17> H    -0.746910   -1.133819   -0.522395
| 18> H    -2.482030    0.705676    1.242038
| 19> H    -3.020014   -1.148491   -1.122413
| 20> H    -5.062145    0.389855   -1.126289
| 21> H    -4.856995    0.645101    0.612065
| 22> H    -5.325023   -0.940694   -0.016433
| 23> *
| 24>
| 25>                          ****END OF INPUT****

CARTESIAN COORDINATES (ANGSTROEM)
---------------------------------
  O     -0.050156    0.740035    0.079572
  O      1.936027    1.687629   -0.182327
  N      3.213504   -0.696582   -0.044778
  N      4.330864   -0.709304   -0.134489
  C      1.298833    0.673982   -0.023993
  C      1.909663   -0.650513    0.057625
  C     -0.856529   -0.436953    0.311416
  C     -2.276948   -0.004647    0.447772
  C     -3.260722   -0.448114   -0.326484
  C     -4.699726   -0.063453   -0.200434
  H      1.420216   -1.598861    0.184598
  H     -0.512068   -0.920689    1.230337
  H     -0.746910   -1.133819   -0.522395
  H     -2.482030    0.705676    1.242038
  H     -3.020014   -1.148491   -1.122413
  H     -5.062145    0.389855   -1.126289
  H     -4.856995    0.645101    0.612065
  H     -5.325023   -0.940694   -0.016433

 Total Charge           Charge          ....    0
 Multiplicity           Mult            ....    1
 Number of Electrons    NEL             ....   74
 Basis Dimension        Dim             ....  302

ORBITAL ENERGIES
----------------

  NO   OCC          E(Eh)            E(eV)
   0   2.0000     -20.610606      -560.8431
   1   2.0000     -20.539775      -558.9157
   2   2.0000     -15.783051      -429.4786
   3   2.0000     -15.717493      -427.6947
   4   2.0000     -11.399021      -310.1831
   5   2.0000     -11.315513      -307.9108
   6   2.0000     -11.296643      -307.3973
   7   2.0000     -11.255192      -306.2693
   8   2.0000     -11.245201      -305.9975
   9   2.0000     -11.239362      -305.8386
  10   2.0000      -1.513688       -41.1895
  11   2.0000      -1.455402       -39.6035
  12   2.0000      -1.360150       -37.0116
  13   2.0000      -1.164772       -31.6951
  14   2.0000      -1.103977       -30.0407
  15   2.0000      -1.010511       -27.4974
  16   2.0000      -0.911135       -24.7932
  17   2.0000      -0.882474       -24.0133
  18   2.0000      -0.775249       -21.0956
  19   2.0000      -0.756218       -20.5777
  20   2.0000      -0.744042       -20.2464
  21   2.0000      -0.703578       -19.1453
  22   2.0000      -0.697504       -18.9801
  23   2.0000      -0.676765       -18.4157
  24   2.0000      -0.661266       -17.9940
  25   2.0000      -0.634079       -17.2542
  26   2.0000      -0.607633       -16.5345
  27   2.0000      -0.602982       -16.4080
  28   2.0000      -0.578036       -15.7292
  29   2.0000      -0.555597       -15.1186
  30   2.0000      -0.545240       -14.8367
  31   2.0000      -0.525829       -14.3085
  32   2.0000      -0.502923       -13.6852
  33   2.0000      -0.458748       -12.4832
  34   2.0000      -0.449057       -12.2195
  35   2.0000      -0.372150       -10.1267
  36   2.0000      -0.357305        -9.7228
  37   0.0000       0.026735         0.7275
  38   0.0000       0.035812         0.9745
  39   0.0000       0.042063         1.1446
  40   0.0000       0.053175         1.4470
  41   0.0000       0.057050         1.5524

MULLIKEN ATOMIC CHARGES
-----------------------
   0 O :   -0.858828
   1 O :   -0.830303
   2 N :    0.127106
   3 N :   -0.477342
   4 C :    0.916313
   5 C :    1.020235
   6 C :    0.427771
   7 C :    1.236022
   8 C :   -0.023570
   9 C :    0.278714
  10 H :   -0.459225
  11 H :   -0.098106
  12 H :   -0.287618
  13 H :   -0.504591
  14 H :   -0.470360
  15 H :    0.070063
  16 H :   -0.140475
  17 H :    0.074195
Sum of atomic charges:   -0.0000000

LOEWDIN ATOMIC CHARGES
----------------------
   0 O :    0.078680
   1 O :    0.028800
   2 N :   -0.123282
   3 N :    0.305011
   4 C :   -0.372120
   5 C :    0.042114
   6 C :   -0.013498
   7 C :   -0.005689
   8 C :   -0.036578
   9 C :    0.140402
  10 H :   -0.030294
  11 H :    0.011542
  12 H :    0.010552
  13 H :    0.007961
  14 H :    0.001640
  15 H :   -0.013950
  16 H :   -0.015726
  17 H :   -0.015566

  Mayer bond orders larger than 0.100000
B(  0-O ,  4-C ) :   0.5579 B(  0-O ,  5-C ) :   0.1524 B(  0-O ,  6-C ) :   0.6486
B(  0-O ,  7-C ) :  -0.1101 B(  0-O , 12-H ) :   0.1009 B(  1-O ,  4-C ) :   1.4382
B(  2-N ,  3-N ) :   1.8166 B(  2-N ,  5-C ) :   1.0660 B(  3-N ,  5-C ) :  -0.2362
B(  4-C ,  5-C ) :   0.9833 B(  5-C , 10-H ) :   0.6989 B(  6-C ,  7-C ) :   1.1113
B(  6-C ,  8-C ) :   0.1888 B(  6-C , 11-H ) :   0.8790 B(  6-C , 12-H ) :   0.7979
B(  6-C , 13-H ) :   0.4851 B(  7-C ,  8-C ) :   1.9221 B(  7-C ,  9-C ) :  -0.2087
B(  7-C , 14-H ) :   0.1209 B(  7-C , 16-H ) :  -0.1133 B(  8-C ,  9-C ) :   1.2093
B(  8-C , 13-H ) :   0.2566 B(  8-C , 14-H ) :   0.6182 B(  8-C , 16-H ) :   0.1225
B(  9-C , 13-H ) :  -0.1081 B(  9-C , 15-H ) :   0.9021 B(  9-C , 16-H ) :   0.9150
B(  9-C , 17-H ) :   0.9064

MP2 TOTAL ENERGY:     -492.026540831 Eh
FINAL SINGLE POINT ENERGY      -492.026540831148

DIPOLE MOMENT
-------------
                                X             Y             Z
Electronic contribution:     19.32069       1.97997      -0.25880
Nuclear contribution   :    -20.34051      -3.93890       0.47486
                        -----------------------------------------
Total Dipole Moment    :     -1.01981      -1.95893       0.21605
                        -----------------------------------------
Magnitude (a.u.)       :      2.21903
Magnitude (Debye)      :      5.64033

Rotational constants in cm-1:     0.162126     0.015303     0.014281
Rotational constants in MHz :  4860.407825   458.768662   428.137905

                             ****ORCA TERMINATED NORMALLY****
TOTAL RUN TIME: 0 days 0 hours 1 minutes 11 seconds 728 msec
