                         Program Version 5.0.3 -  RELEASE  -
|  1> !ri-mp2 aug-cc-pvdz aug-cc-pvdz/c tightscf
|  2> %pal nprocs 16 end
|  3>
|  4> * xyz 0 1
|  5> O      1.114134   -0.637896    0.000386
|  6> O     -1.114134   -0.637904   -0.000379
|  7> C     -0.000004    0.243836    0.000033
|  8> C      2.273010   -0.042046    0.000077
|  9> C     -2.273014   -0.042063   -0.000138
| 10> C      3.353062    0.474479   -0.000141
| 11> C     -3.353053    0.474491    0.000162
| 12> H     -0.000326    0.856536    0.903526
| 13> H      0.000313    0.856601   -0.903415
| 14> H      4.314214    0.920528   -0.000423
| 15> H     -4.314202    0.920549    0.000292
| 16> *
| 17>
| 18>                          ****END OF INPUT****

CARTESIAN COORDINATES (ANGSTROEM)
---------------------------------
  O      1.114134   -0.637896    0.000386
  O     -1.114134   -0.637904   -0.000379
  C     -0.000004    0.243836    0.000033
  C      2.273010   -0.042046    0.000077
  C     -2.273014   -0.042063   -0.000138
  C      3.353062    0.474479   -0.000141
  C     -3.353053    0.474491    0.000162
  H     -0.000326    0.856536    0.903526
  H      0.000313    0.856601   -0.903415
  H      4.314214    0.920528   -0.000423
  H     -4.314202    0.920549    0.000292

 Total Charge           Charge          ....    0
 Multiplicity           Mult            ....    1
 Number of Electrons    NEL             ....   50
 Basis Dimension        Dim             ....  197

ORBITAL ENERGIES
----------------

  NO   OCC          E(Eh)            E(eV)
   0   2.0000     -20.658286      -562.1405
   1   2.0000     -20.658277      -562.1403
   2   2.0000     -11.401257      -310.2440
   3   2.0000     -11.316956      -307.9500
   4   2.0000     -11.316955      -307.9500
   5   2.0000     -11.244419      -305.9762
   6   2.0000     -11.244418      -305.9762
   7   2.0000      -1.510254       -41.0961
   8   2.0000      -1.454072       -39.5673
   9   2.0000      -1.064263       -28.9601
  10   2.0000      -1.034147       -28.1406
  11   2.0000      -0.982872       -26.7453
  12   2.0000      -0.827286       -22.5116
  13   2.0000      -0.776950       -21.1419
  14   2.0000      -0.750046       -20.4098
  15   2.0000      -0.716744       -19.5036
  16   2.0000      -0.713872       -19.4254
  17   2.0000      -0.674982       -18.3672
  18   2.0000      -0.634146       -17.2560
  19   2.0000      -0.611972       -16.6526
  20   2.0000      -0.540400       -14.7050
  21   2.0000      -0.411602       -11.2003
  22   2.0000      -0.402848       -10.9621
  23   2.0000      -0.388587       -10.5740
  24   2.0000      -0.386596       -10.5198
  25   0.0000       0.031888         0.8677
  26   0.0000       0.036438         0.9915
  27   0.0000       0.051673         1.4061
  28   0.0000       0.056290         1.5317
  29   0.0000       0.078466         2.1352

MULLIKEN ATOMIC CHARGES
-----------------------
   0 O :   -0.798079
   1 O :   -0.798072
   2 C :    1.241921
   3 C :   -0.147899
   4 C :   -0.147886
   5 C :    0.912781
   6 C :    0.912748
   7 H :   -0.187866
   8 H :   -0.187865
   9 H :   -0.399900
  10 H :   -0.399884
Sum of atomic charges:    0.0000000

LOEWDIN ATOMIC CHARGES
----------------------
   0 O :    0.060560
   1 O :    0.060560
   2 C :    0.049745
   3 C :   -0.202395
   4 C :   -0.202395
   5 C :    0.201719
   6 C :    0.201719
   7 H :    0.022591
   8 H :    0.022589
   9 H :   -0.107347
  10 H :   -0.107347

  Mayer bond orders larger than 0.100000
B(  0-O ,  1-O ) :   0.1110 B(  0-O ,  2-C ) :   0.6113 B(  0-O ,  3-C ) :   0.7703
B(  0-O ,  5-C ) :  -0.1817 B(  1-O ,  2-C ) :   0.6113 B(  1-O ,  4-C ) :   0.7704
B(  1-O ,  6-C ) :  -0.1817 B(  2-C ,  7-H ) :   0.9957 B(  2-C ,  8-H ) :   0.9957
B(  3-C ,  5-C ) :   2.8058 B(  3-C ,  9-H ) :   0.3882 B(  4-C ,  6-C ) :   2.8058
B(  4-C , 10-H ) :   0.3881 B(  5-C ,  9-H ) :   0.2520 B(  6-C , 10-H ) :   0.2521

MP2 TOTAL ENERGY:     -342.270290634 Eh
FINAL SINGLE POINT ENERGY      -342.270290633595

DIPOLE MOMENT
-------------
                                X             Y             Z
Electronic contribution:     -0.00000      -2.52022      -0.00004
Nuclear contribution   :     -0.00000       3.45387      -0.00002
                        -----------------------------------------
Total Dipole Moment    :     -0.00000       0.93365      -0.00005
                        -----------------------------------------
Magnitude (a.u.)       :      0.93365
Magnitude (Debye)      :      2.37315

Rotational constants in cm-1:     0.705635     0.035634     0.034147
Rotational constants in MHz : 21154.407662  1068.279410  1023.705024

                             ****ORCA TERMINATED NORMALLY****
TOTAL RUN TIME: 0 days 0 hours 0 minutes 43 seconds 70 msec
