                         Program Version 5.0.3 -  RELEASE  -
|  1> !ri-mp2 aug-cc-pvdz aug-cc-pvdz/c tightscf
|  2> %pal nprocs 16 end
|  3>
|  4> * xyz 0 1
|  5> C    -0.323065     0.580595    0.000000
|  6> C     0.323065    -0.580595    0.000000
|  7> C     0.323065     1.931514    0.000000
|  8> C    -0.323065    -1.931514    0.000000
|  9> H    -1.410554     0.569817    0.000000
| 10> H     1.410554    -0.569817    0.000000
| 11> H     0.024557     2.513142    0.876335
| 12> H     1.410604     1.854162    0.000000
| 13> H     0.024557     2.513142   -0.876335
| 14> H    -0.024557    -2.513142    0.876335
| 15> H    -1.410604    -1.854162    0.000000
| 16> H    -0.024557    -2.513142   -0.876335
| 17> *
| 18>
| 19>                          ****END OF INPUT****

CARTESIAN COORDINATES (ANGSTROEM)
---------------------------------
  C     -0.323065    0.580595    0.000000
  C      0.323065   -0.580595    0.000000
  C      0.323065    1.931514    0.000000
  C     -0.323065   -1.931514    0.000000
  H     -1.410554    0.569817    0.000000
  H      1.410554   -0.569817    0.000000
  H      0.024557    2.513142    0.876335
  H      1.410604    1.854162    0.000000
  H      0.024557    2.513142   -0.876335
  H     -0.024557   -2.513142    0.876335
  H     -1.410604   -1.854162    0.000000
  H     -0.024557   -2.513142   -0.876335

 Total Charge           Charge          ....    0
 Multiplicity           Mult            ....    1
 Number of Electrons    NEL             ....   32
 Basis Dimension        Dim             ....  164

ORBITAL ENERGIES
----------------

  NO   OCC          E(Eh)            E(eV)
   0   2.0000     -11.228483      -305.5425
   1   2.0000     -11.226779      -305.4962
   2   2.0000     -11.223940      -305.4189
   3   2.0000     -11.223919      -305.4184
   4   2.0000      -1.079594       -29.3773
   5   2.0000      -0.984962       -26.8022
   6   2.0000      -0.880180       -23.9509
   7   2.0000      -0.744541       -20.2600
   8   2.0000      -0.606708       -16.5094
   9   2.0000      -0.605974       -16.4894
  10   2.0000      -0.569506       -15.4970
  11   2.0000      -0.552385       -15.0312
  12   2.0000      -0.521275       -14.1846
  13   2.0000      -0.509043       -13.8518
  14   2.0000      -0.479533       -13.0488
  15   2.0000      -0.342390        -9.3169
  16   0.0000       0.038238         1.0405
  17   0.0000       0.045227         1.2307
  18   0.0000       0.049026         1.3341
  19   0.0000       0.055624         1.5136
  20   0.0000       0.066337         1.8051

MULLIKEN ATOMIC CHARGES
-----------------------
   0 C :    0.317028
   1 C :    0.317028
   2 C :    0.172823
   3 C :    0.172823
   4 H :   -0.452794
   5 H :   -0.452794
   6 H :    0.048944
   7 H :   -0.134945
   8 H :    0.048944
   9 H :    0.048944
  10 H :   -0.134945
  11 H :    0.048944
Sum of atomic charges:    0.0000000

LOEWDIN ATOMIC CHARGES
----------------------
   0 C :   -0.060470
   1 C :   -0.060470
   2 C :    0.126094
   3 C :    0.126094
   4 H :   -0.005368
   5 H :   -0.005368
   6 H :   -0.019892
   7 H :   -0.020472
   8 H :   -0.019892
   9 H :   -0.019892
  10 H :   -0.020472
  11 H :   -0.019892

  Mayer bond orders larger than 0.100000
B(  0-C ,  1-C ) :   2.0326 B(  0-C ,  2-C ) :   1.1825 B(  0-C ,  4-H ) :   0.6590
B(  1-C ,  3-C ) :   1.1825 B(  1-C ,  5-H ) :   0.6590 B(  2-C ,  6-H ) :   0.9046
B(  2-C ,  7-H ) :   0.9752 B(  2-C ,  8-H ) :   0.9046 B(  3-C ,  9-H ) :   0.9046
B(  3-C , 10-H ) :   0.9752 B(  3-C , 11-H ) :   0.9046

MP2 TOTAL ENERGY:     -156.709856959 Eh
FINAL SINGLE POINT ENERGY      -156.709856958887

DIPOLE MOMENT
-------------
                                X             Y             Z
Electronic contribution:      0.00000       0.00000      -0.00000
Nuclear contribution   :     -0.00000       0.00000       0.00000
                        -----------------------------------------
Total Dipole Moment    :      0.00000       0.00000      -0.00000
                        -----------------------------------------
Magnitude (a.u.)       :      0.00000
Magnitude (Debye)      :      0.00000

Rotational constants in cm-1:     1.170376     0.124321     0.117223
Rotational constants in MHz : 35087.000806  3727.061140  3514.263691

                             ****ORCA TERMINATED NORMALLY****
TOTAL RUN TIME: 0 days 0 hours 0 minutes 18 seconds 8 msec
