                         Program Version 5.0.3 -  RELEASE  -
|  1> !ri-mp2 aug-cc-pvdz aug-cc-pvdz/c tightscf
|  2> %pal nprocs 16 end
|  3>
|  4> * xyz 0 1
|  5> C     -2.624091   -0.223414    0.002412
|  6> H     -2.704638   -0.964618    0.799272
|  7> H     -3.440588    0.487321    0.123953
|  8> H     -2.754705   -0.730974   -0.953978
|  9> C     -1.283867    0.494871    0.060801
| 10> H     -1.250407    1.248579   -0.732964
| 11> H     -1.188350    1.024473    1.014316
| 12> N     -0.191108   -0.449863   -0.112715
| 13> H     -0.395796   -1.431081   -0.024719
| 14> N      1.480161    1.166240    0.046537
| 15> H      2.460546    1.348304   -0.083400
| 16> H      0.852393    1.859667   -0.321530
| 17> C      1.149206   -0.174524   -0.013340
| 18> O      1.993836   -1.054739    0.042882
| 19> *
| 20>
| 21>                          ****END OF INPUT****

CARTESIAN COORDINATES (ANGSTROEM)
---------------------------------
  C     -2.624091   -0.223414    0.002412
  H     -2.704638   -0.964618    0.799272
  H     -3.440588    0.487321    0.123953
  H     -2.754705   -0.730974   -0.953978
  C     -1.283867    0.494871    0.060801
  H     -1.250407    1.248579   -0.732964
  H     -1.188350    1.024473    1.014316
  N     -0.191108   -0.449863   -0.112715
  H     -0.395796   -1.431081   -0.024719
  N      1.480161    1.166240    0.046537
  H      2.460546    1.348304   -0.083400
  H      0.852393    1.859667   -0.321530
  C      1.149206   -0.174524   -0.013340
  O      1.993836   -1.054739    0.042882

 Total Charge           Charge          ....    0
 Multiplicity           Mult            ....    1
 Number of Electrons    NEL             ....   48
 Basis Dimension        Dim             ....  210

ORBITAL ENERGIES
----------------

  NO   OCC          E(Eh)            E(eV)
   0   2.0000     -20.512127      -558.1633
   1   2.0000     -15.586594      -424.1328
   2   2.0000     -15.584376      -424.0724
   3   2.0000     -11.380473      -309.6784
   4   2.0000     -11.286770      -307.1286
   5   2.0000     -11.244426      -305.9764
   6   2.0000      -1.387744       -37.7624
   7   2.0000      -1.243195       -33.8290
   8   2.0000      -1.190868       -32.4052
   9   2.0000      -1.033524       -28.1236
  10   2.0000      -0.874879       -23.8067
  11   2.0000      -0.820002       -22.3134
  12   2.0000      -0.739218       -20.1152
  13   2.0000      -0.682595       -18.5744
  14   2.0000      -0.660182       -17.9645
  15   2.0000      -0.633062       -17.2265
  16   2.0000      -0.600763       -16.3476
  17   2.0000      -0.584951       -15.9173
  18   2.0000      -0.554656       -15.0930
  19   2.0000      -0.531270       -14.4566
  20   2.0000      -0.522720       -14.2239
  21   2.0000      -0.433440       -11.7945
  22   2.0000      -0.420271       -11.4361
  23   2.0000      -0.389990       -10.6122
  24   0.0000       0.027718         0.7543
  25   0.0000       0.038195         1.0393
  26   0.0000       0.047012         1.2793
  27   0.0000       0.048376         1.3164
  28   0.0000       0.061727         1.6797

MULLIKEN ATOMIC CHARGES
-----------------------
   0 C :    0.214211
   1 H :   -0.051127
   2 H :   -0.057847
   3 H :   -0.023543
   4 C :    0.969508
   5 H :   -0.254329
   6 H :   -0.220314
   7 N :   -0.521381
   8 H :   -0.103122
   9 N :   -0.215820
  10 H :   -0.019273
  11 H :    0.011361
  12 C :    1.021469
  13 O :   -0.749794
Sum of atomic charges:    0.0000000

LOEWDIN ATOMIC CHARGES
----------------------
   0 C :    0.150932
   1 H :   -0.013399
   2 H :   -0.014004
   3 H :   -0.011846
   4 C :   -0.052746
   5 H :    0.009529
   6 H :    0.017212
   7 N :    0.102926
   8 H :    0.007712
   9 N :    0.279095
  10 H :   -0.012829
  11 H :   -0.040192
  12 C :   -0.421308
  13 O :   -0.001082

  Mayer bond orders larger than 0.100000
B(  0-C ,  1-H ) :   0.9590 B(  0-C ,  2-H ) :   0.9138 B(  0-C ,  3-H ) :   0.9625
B(  0-C ,  4-C ) :   1.1861 B(  4-C ,  5-H ) :   0.8025 B(  4-C ,  6-H ) :   0.7209
B(  4-C ,  7-N ) :   0.6745 B(  4-C ,  8-H ) :  -0.1096 B(  6-H ,  7-N ) :   0.1056
B(  7-N ,  8-H ) :   1.1534 B(  7-N , 12-C ) :   1.0933 B(  9-N , 10-H ) :   1.0801
B(  9-N , 11-H ) :   1.0718 B(  9-N , 12-C ) :   0.9610 B( 12-C , 13-O ) :   1.4805

MP2 TOTAL ENERGY:     -303.078893587 Eh
FINAL SINGLE POINT ENERGY      -303.078893587331

DIPOLE MOMENT
-------------
                                X             Y             Z
Electronic contribution:      7.13306      -1.67522      -0.03894
Nuclear contribution   :     -8.57639       2.89467      -0.18290
                        -----------------------------------------
Total Dipole Moment    :     -1.44333       1.21945      -0.22184
                        -----------------------------------------
Magnitude (a.u.)       :      1.90250
Magnitude (Debye)      :      4.83576

Rotational constants in cm-1:     0.287509     0.066626     0.055350
Rotational constants in MHz :  8619.295585  1997.408619  1659.344388

                             ****ORCA TERMINATED NORMALLY****
TOTAL RUN TIME: 0 days 0 hours 0 minutes 45 seconds 106 msec
