                         Program Version 5.0.3 -  RELEASE  -
|  1> !ri-mp2 aug-cc-pvdz aug-cc-pvdz/c tightscf
|  2> %pal nprocs 16 end
|  3>
|  4> * xyz 0 1
|  5> S      0.004284    0.891567    0.012200
|  6> S     -1.557225   -0.508946   -0.087104
|  7> C      1.406295   -0.051449   -0.001347
|  8> C      2.452012   -0.649297   -0.003520
|  9> H     -1.672295   -0.734996    1.238559
| 10> H      3.369516   -1.182461   -0.010889
| 11> *
| 12>
| 13>                          ****END OF INPUT****

CARTESIAN COORDINATES (ANGSTROEM)
---------------------------------
  S      0.004284    0.891567    0.012200
  S     -1.557225   -0.508946   -0.087104
  C      1.406295   -0.051449   -0.001347
  C      2.452012   -0.649297   -0.003520
  H     -1.672295   -0.734996    1.238559
  H      3.369516   -1.182461   -0.010889

 Total Charge           Charge          ....    0
 Multiplicity           Mult            ....    1
 Number of Electrons    NEL             ....   46
 Basis Dimension        Dim             ....  118

ORBITAL ENERGIES
----------------

  NO   OCC          E(Eh)            E(eV)
   0   2.0000     -92.025162     -2504.1320
   1   2.0000     -92.004578     -2503.5718
   2   2.0000     -11.275401      -306.8193
   3   2.0000     -11.258705      -306.3649
   4   2.0000      -9.023539      -245.5430
   5   2.0000      -9.004479      -245.0243
   6   2.0000      -6.705564      -182.4677
   7   2.0000      -6.703787      -182.4193
   8   2.0000      -6.701401      -182.3544
   9   2.0000      -6.686235      -181.9417
  10   2.0000      -6.684667      -181.8990
  11   2.0000      -6.682306      -181.8348
  12   2.0000      -1.108487       -30.1635
  13   2.0000      -1.025432       -27.9034
  14   2.0000      -0.919371       -25.0174
  15   2.0000      -0.735622       -20.0173
  16   2.0000      -0.635923       -17.3043
  17   2.0000      -0.570642       -15.5280
  18   2.0000      -0.516770       -14.0620
  19   2.0000      -0.474043       -12.8994
  20   2.0000      -0.405283       -11.0283
  21   2.0000      -0.395310       -10.7569
  22   2.0000      -0.354708        -9.6521
  23   0.0000       0.035397         0.9632
  24   0.0000       0.040237         1.0949
  25   0.0000       0.056979         1.5505
  26   0.0000       0.078609         2.1390
  27   0.0000       0.093426         2.5423

MULLIKEN ATOMIC CHARGES
-----------------------
   0 S :   -0.035855
   1 S :   -0.119252
   2 C :   -0.031658
   3 C :    0.356327
   4 H :    0.205835
   5 H :   -0.375397
Sum of atomic charges:   -0.0000000

LOEWDIN ATOMIC CHARGES
----------------------
   0 S :    0.481390
   1 S :    0.370384
   2 C :   -0.576920
   3 C :    0.108434
   4 H :   -0.270378
   5 H :   -0.112909

  Mayer bond orders larger than 0.100000
B(  0-S ,  1-S ) :   1.1876 B(  0-S ,  2-C ) :   0.9552 B(  0-S ,  3-C ) :  -0.1310
B(  0-S ,  5-H ) :   0.1143 B(  1-S ,  2-C ) :  -0.2035 B(  1-S ,  4-H ) :   0.9264
B(  2-C ,  3-C ) :   2.4148 B(  3-C ,  5-H ) :   0.5243

MP2 TOTAL ENERGY:     -872.433620206 Eh
FINAL SINGLE POINT ENERGY      -872.433620206116

DIPOLE MOMENT
-------------
                                X             Y             Z
Electronic contribution:     -1.54037       1.52557      -0.82869
Nuclear contribution   :      1.67223      -1.84866       1.17859
                        -----------------------------------------
Total Dipole Moment    :      0.13186      -0.32309       0.34991
                        -----------------------------------------
Magnitude (a.u.)       :      0.49417
Magnitude (Debye)      :      1.25609

Rotational constants in cm-1:     0.396664     0.088839     0.073684
Rotational constants in MHz : 11891.698476  2663.337792  2208.987107

                             ****ORCA TERMINATED NORMALLY****
TOTAL RUN TIME: 0 days 0 hours 0 minutes 48 seconds 429 msec
