                         Program Version 5.0.3 -  RELEASE  -
|  1> !ri-mp2 aug-cc-pvdz aug-cc-pvdz/c tightscf
|  2> %pal nprocs 16 end
|  3>
|  4> * xyz 0 1
|  5> C     -2.219388   -1.031508    0.000000
|  6> H     -2.709797   -0.060794    0.000000
|  7> H     -2.567570   -1.583635    0.876540
|  8> H     -2.567570   -1.583635   -0.876540
|  9> C      0.000000    0.174336    0.000000
| 10> H     -0.192077   -1.881945    0.000000
| 11> C     -0.724178   -0.938568    0.000000
| 12> H     -0.067567    2.120550    0.878325
| 13> H     -0.067567    2.120550   -0.878325
| 14> C     -0.449589    1.597487    0.000000
| 15> Cl     1.768594    0.022859    0.000000
| 16> H     -1.535021    1.669819    0.000000
| 17> *
| 18>
| 19>                          ****END OF INPUT****

CARTESIAN COORDINATES (ANGSTROEM)
---------------------------------
  C     -2.219388   -1.031508    0.000000
  H     -2.709797   -0.060794    0.000000
  H     -2.567570   -1.583635    0.876540
  H     -2.567570   -1.583635   -0.876540
  C      0.000000    0.174336    0.000000
  H     -0.192077   -1.881945    0.000000
  C     -0.724178   -0.938568    0.000000
  H     -0.067567    2.120550    0.878325
  H     -0.067567    2.120550   -0.878325
  C     -0.449589    1.597487    0.000000
  Cl     1.768594    0.022859    0.000000
  H     -1.535021    1.669819    0.000000

 Total Charge           Charge          ....    0
 Multiplicity           Mult            ....    1
 Number of Electrons    NEL             ....   48
 Basis Dimension        Dim             ....  182

ORBITAL ENERGIES
----------------

  NO   OCC          E(Eh)            E(eV)
   0   2.0000    -104.825293     -2852.4412
   1   2.0000     -11.301410      -307.5270
   2   2.0000     -11.248532      -306.0881
   3   2.0000     -11.243971      -305.9640
   4   2.0000     -11.241175      -305.8879
   5   2.0000     -10.551412      -287.1185
   6   2.0000      -8.019097      -218.2107
   7   2.0000      -8.015961      -218.1254
   8   2.0000      -8.015834      -218.1219
   9   2.0000      -1.158497       -31.5243
  10   2.0000      -1.052896       -28.6508
  11   2.0000      -0.990689       -26.9580
  12   2.0000      -0.908661       -24.7259
  13   2.0000      -0.723810       -19.6959
  14   2.0000      -0.651993       -17.7416
  15   2.0000      -0.602638       -16.3986
  16   2.0000      -0.597776       -16.2663
  17   2.0000      -0.570317       -15.5191
  18   2.0000      -0.554778       -15.0963
  19   2.0000      -0.532559       -14.4917
  20   2.0000      -0.493787       -13.4366
  21   2.0000      -0.477060       -12.9815
  22   2.0000      -0.442452       -12.0397
  23   2.0000      -0.347974        -9.4689
  24   0.0000       0.034161         0.9296
  25   0.0000       0.044152         1.2014
  26   0.0000       0.051854         1.4110
  27   0.0000       0.054821         1.4918
  28   0.0000       0.067488         1.8364

MULLIKEN ATOMIC CHARGES
-----------------------
   0 C :    0.261927
   1 H :   -0.164302
   2 H :    0.090845
   3 H :    0.090845
   4 C :   -0.616734
   5 H :   -0.372115
   6 C :    0.547900
   7 H :    0.108863
   8 H :    0.108863
   9 C :    0.381217
  10 Cl:   -0.361251
  11 H :   -0.076059
Sum of atomic charges:   -0.0000000

LOEWDIN ATOMIC CHARGES
----------------------
   0 C :    0.144079
   1 H :   -0.032186
   2 H :   -0.012398
   3 H :   -0.012398
   4 C :   -0.574834
   5 H :   -0.011439
   6 C :   -0.079443
   7 H :   -0.010832
   8 H :   -0.010832
   9 C :    0.107689
  10 Cl:    0.520968
  11 H :   -0.028372

  Mayer bond orders larger than 0.100000
B(  0-C ,  1-H ) :   0.9883 B(  0-C ,  2-H ) :   0.8823 B(  0-C ,  3-H ) :   0.8823
B(  0-C ,  4-C ) :  -0.1211 B(  0-C ,  6-C ) :   1.1941 B(  1-H ,  6-C ) :   0.1085
B(  4-C ,  5-H ) :   0.1046 B(  4-C ,  6-C ) :   1.6336 B(  4-C ,  9-C ) :   1.2664
B(  4-C , 10-Cl) :   1.2424 B(  4-C , 11-H ) :   0.2136 B(  5-H ,  6-C ) :   0.6961
B(  6-C , 10-Cl) :  -0.2883 B(  6-C , 11-H ) :  -0.1126 B(  7-H ,  9-C ) :   0.8500
B(  8-H ,  9-C ) :   0.8500 B(  9-C , 10-Cl) :  -0.1692 B(  9-C , 11-H ) :   0.9111

MP2 TOTAL ENERGY:     -615.778164395 Eh
FINAL SINGLE POINT ENERGY      -615.778164395440

DIPOLE MOMENT
-------------
                                X             Y             Z
Electronic contribution:     11.23703      -0.69272       0.00000
Nuclear contribution   :    -12.18262       0.76477       0.00000
                        -----------------------------------------
Total Dipole Moment    :     -0.94558       0.07205       0.00000
                        -----------------------------------------
Magnitude (a.u.)       :      0.94833
Magnitude (Debye)      :      2.41045

Rotational constants in cm-1:     0.243719     0.079443     0.061265
Rotational constants in MHz :  7306.523781  2381.633802  1836.684820

                             ****ORCA TERMINATED NORMALLY****
TOTAL RUN TIME: 0 days 0 hours 0 minutes 27 seconds 621 msec
