                         Program Version 5.0.3 -  RELEASE  -
|  1> !ri-mp2 aug-cc-pvdz aug-cc-pvdz/c tightscf
|  2> %pal nprocs 16 end
|  3>
|  4> * xyz 0 1
|  5> C      0.000000    0.000000       0.598150
|  6> C      0.000000    0.000000      -0.598150
|  7> H      0.000000    0.000000       1.659779
|  8> H      0.000000    0.000000      -1.659779
|  9> *
| 10>
| 11>                          ****END OF INPUT****

CARTESIAN COORDINATES (ANGSTROEM)
---------------------------------
  C      0.000000    0.000000    0.598150
  C      0.000000    0.000000   -0.598150
  H      0.000000    0.000000    1.659779
  H      0.000000    0.000000   -1.659779

 Total Charge           Charge          ....    0
 Multiplicity           Mult            ....    1
 Number of Electrons    NEL             ....   14
 Basis Dimension        Dim             ....   64

ORBITAL ENERGIES
----------------

  NO   OCC          E(Eh)            E(eV)
   0   2.0000     -11.251389      -306.1659
   1   2.0000     -11.247511      -306.0603
   2   2.0000      -1.035945       -28.1895
   3   2.0000      -0.767436       -20.8830
   4   2.0000      -0.681131       -18.5345
   5   2.0000      -0.412557       -11.2262
   6   2.0000      -0.412557       -11.2262
   7   0.0000       0.037530         1.0213
   8   0.0000       0.039888         1.0854
   9   0.0000       0.108616         2.9556
  10   0.0000       0.108616         2.9556
  11   0.0000       0.120080         3.2675

MULLIKEN ATOMIC CHARGES
-----------------------
   0 C :    0.253134
   1 C :    0.253134
   2 H :   -0.253134
   3 H :   -0.253134
Sum of atomic charges:    0.0000000

LOEWDIN ATOMIC CHARGES
----------------------
   0 C :    0.111011
   1 C :    0.111011
   2 H :   -0.111011
   3 H :   -0.111011

  Mayer bond orders larger than 0.100000
B(  0-C ,  1-C ) :   3.2741 B(  0-C ,  2-H ) :   0.6470 B(  0-C ,  3-H ) :   0.1036
B(  1-C ,  2-H ) :   0.1036 B(  1-C ,  3-H ) :   0.6470

MP2 TOTAL ENERGY:      -77.090443917 Eh
FINAL SINGLE POINT ENERGY       -77.090443916864

DIPOLE MOMENT
-------------
                                X             Y             Z
Electronic contribution:     -0.00000      -0.00000      -0.00000
Nuclear contribution   :      0.00000       0.00000       0.00000
                        -----------------------------------------
Total Dipole Moment    :     -0.00000      -0.00000      -0.00000
                        -----------------------------------------
Magnitude (a.u.)       :      0.00000
Magnitude (Debye)      :      0.00000

Rotational constants in cm-1:     0.000000     1.191481     1.191481
Rotational constants in MHz :     0.000000 35719.691485 35719.691485

                             ****ORCA TERMINATED NORMALLY****
TOTAL RUN TIME: 0 days 0 hours 0 minutes 46 seconds 521 msec
