                         Program Version 5.0.3 -  RELEASE  -
|  1> !ri-mp2 aug-cc-pvdz aug-cc-pvdz/c tightscf
|  2> %pal nprocs 16 end
|  3>
|  4> * xyz 0 1
|  5> C      1.217924   -0.353536    0.000000
|  6> C      0.000000    0.571510    0.000000
|  7> N     -1.306888   -0.088652    0.000000
|  8> H      1.220384   -0.996853    0.882589
|  9> H      1.220384   -0.996853   -0.882589
| 10> H      2.148415    0.218943    0.000000
| 11> H      0.037134    1.227011   -0.872854
| 12> H      0.037134    1.227011    0.872854
| 13> H     -1.411390   -0.683272    0.813701
| 14> H     -1.411390   -0.683272   -0.813701
| 15> *
| 16>
| 17>                          ****END OF INPUT****

CARTESIAN COORDINATES (ANGSTROEM)
---------------------------------
  C      1.217924   -0.353536    0.000000
  C      0.000000    0.571510    0.000000
  N     -1.306888   -0.088652    0.000000
  H      1.220384   -0.996853    0.882589
  H      1.220384   -0.996853   -0.882589
  H      2.148415    0.218943    0.000000
  H      0.037134    1.227011   -0.872854
  H      0.037134    1.227011    0.872854
  H     -1.411390   -0.683272    0.813701
  H     -1.411390   -0.683272   -0.813701

 Total Charge           Charge          ....    0
 Multiplicity           Mult            ....    1
 Number of Electrons    NEL             ....   26
 Basis Dimension        Dim             ....  132

ORBITAL ENERGIES
----------------

  NO   OCC          E(Eh)            E(eV)
   0   2.0000     -15.545254      -423.0079
   1   2.0000     -11.252670      -306.2007
   2   2.0000     -11.220287      -305.3195
   3   2.0000      -1.176245       -32.0073
   4   2.0000      -0.988275       -26.8923
   5   2.0000      -0.831383       -22.6231
   6   2.0000      -0.671565       -18.2742
   7   2.0000      -0.597760       -16.2659
   8   2.0000      -0.569815       -15.5054
   9   2.0000      -0.563807       -15.3420
  10   2.0000      -0.505705       -13.7609
  11   2.0000      -0.481967       -13.1150
  12   2.0000      -0.385893       -10.5007
  13   0.0000       0.036556         0.9947
  14   0.0000       0.047955         1.3049
  15   0.0000       0.049811         1.3554
  16   0.0000       0.053157         1.4465
  17   0.0000       0.076190         2.0732

MULLIKEN ATOMIC CHARGES
-----------------------
   0 C :    0.332721
   1 C :    0.540672
   2 N :   -0.441853
   3 H :   -0.062236
   4 H :   -0.062236
   5 H :   -0.071280
   6 H :   -0.118861
   7 H :   -0.118861
   8 H :    0.000967
   9 H :    0.000967
Sum of atomic charges:   -0.0000000

LOEWDIN ATOMIC CHARGES
----------------------
   0 C :    0.126361
   1 C :   -0.114757
   2 N :    0.164556
   3 H :   -0.023954
   4 H :   -0.023954
   5 H :   -0.021980
   6 H :    0.003537
   7 H :    0.003537
   8 H :   -0.056673
   9 H :   -0.056673

  Mayer bond orders larger than 0.100000
B(  0-C ,  1-C ) :   1.2126 B(  0-C ,  3-H ) :   0.9489 B(  0-C ,  4-H ) :   0.9489
B(  0-C ,  5-H ) :   0.9099 B(  1-C ,  2-N ) :   0.8221 B(  1-C ,  6-H ) :   0.9311
B(  1-C ,  7-H ) :   0.9311 B(  2-N ,  8-H ) :   1.0635 B(  2-N ,  9-H ) :   1.0635

MP2 TOTAL ENERGY:     -134.762785206 Eh
FINAL SINGLE POINT ENERGY      -134.762785206433

DIPOLE MOMENT
-------------
                                X             Y             Z
Electronic contribution:     -1.58592       0.38358      -0.00000
Nuclear contribution   :      1.98525      -0.74494       0.00000
                        -----------------------------------------
Total Dipole Moment    :      0.39933      -0.36136      -0.00000
                        -----------------------------------------
Magnitude (a.u.)       :      0.53856
Magnitude (Debye)      :      1.36891

Rotational constants in cm-1:     1.073184     0.290318     0.259780
Rotational constants in MHz : 32173.250292  8703.503075  7788.009275

                             ****ORCA TERMINATED NORMALLY****
TOTAL RUN TIME: 0 days 0 hours 0 minutes 36 seconds 679 msec
