                         Program Version 5.0.3 -  RELEASE  -
|  1> !ri-mp2 aug-cc-pvdz aug-cc-pvdz/c tightscf
|  2> %pal nprocs 16 end
|  3>
|  4> * xyz 0 1
|  5> C     -0.721786    0.465243    0.000043
|  6> O      0.102893   -0.724419   -0.000006
|  7> C     -2.163450    0.006048    0.000234
|  8> H     -0.479504    1.060827    0.881644
|  9> H     -0.479710    1.060747   -0.881667
| 10> N      1.487781   -0.524975   -0.000126
| 11> O      1.827924    0.603525   -0.000194
| 12> H     -2.384003   -0.591203   -0.883644
| 13> H     -2.822542    0.874902    0.000221
| 14> H     -2.383821   -0.591040    0.884268
| 15> *
| 16>
| 17>                          ****END OF INPUT****

CARTESIAN COORDINATES (ANGSTROEM)
---------------------------------
  C     -0.721786    0.465243    0.000043
  O      0.102893   -0.724419   -0.000006
  C     -2.163450    0.006048    0.000234
  H     -0.479504    1.060827    0.881644
  H     -0.479710    1.060747   -0.881667
  N      1.487781   -0.524975   -0.000126
  O      1.827924    0.603525   -0.000194
  H     -2.384003   -0.591203   -0.883644
  H     -2.822542    0.874902    0.000221
  H     -2.383821   -0.591040    0.884268

 Total Charge           Charge          ....    0
 Multiplicity           Mult            ....    1
 Number of Electrons    NEL             ....   40
 Basis Dimension        Dim             ....  160

ORBITAL ENERGIES
----------------

  NO   OCC          E(Eh)            E(eV)
   0   2.0000     -20.659160      -562.1643
   1   2.0000     -20.637685      -561.5800
   2   2.0000     -15.792468      -429.7349
   3   2.0000     -11.304298      -307.6056
   4   2.0000     -11.240575      -305.8716
   5   2.0000      -1.601541       -43.5802
   6   2.0000      -1.401333       -38.1322
   7   2.0000      -1.063736       -28.9457
   8   2.0000      -0.940966       -25.6050
   9   2.0000      -0.843705       -22.9584
  10   2.0000      -0.762583       -20.7509
  11   2.0000      -0.714882       -19.4529
  12   2.0000      -0.705665       -19.2021
  13   2.0000      -0.625916       -17.0320
  14   2.0000      -0.580926       -15.8078
  15   2.0000      -0.565718       -15.3940
  16   2.0000      -0.536785       -14.6067
  17   2.0000      -0.525943       -14.3116
  18   2.0000      -0.475834       -12.9481
  19   2.0000      -0.450351       -12.2547
  20   0.0000       0.034809         0.9472
  21   0.0000       0.049150         1.3374
  22   0.0000       0.049464         1.3460
  23   0.0000       0.059907         1.6301
  24   0.0000       0.077597         2.1115

MULLIKEN ATOMIC CHARGES
-----------------------
   0 C :    0.879034
   1 O :   -0.734926
   2 C :    0.143003
   3 H :   -0.147940
   4 H :   -0.147961
   5 N :    0.518961
   6 O :   -0.430450
   7 H :   -0.038238
   8 H :   -0.003252
   9 H :   -0.038232
Sum of atomic charges:   -0.0000000

LOEWDIN ATOMIC CHARGES
----------------------
   0 C :   -0.075247
   1 O :   -0.032407
   2 C :    0.134877
   3 H :   -0.003469
   4 H :   -0.003469
   5 N :    0.003204
   6 O :    0.021812
   7 H :   -0.015703
   8 H :   -0.013895
   9 H :   -0.015703

  Mayer bond orders larger than 0.100000
B(  0-C ,  1-O ) :   0.5005 B(  0-C ,  2-C ) :   1.2184 B(  0-C ,  3-H ) :   0.8975
B(  0-C ,  4-H ) :   0.8975 B(  1-O ,  5-N ) :   0.5501 B(  2-C ,  7-H ) :   0.9836
B(  2-C ,  8-H ) :   0.9285 B(  2-C ,  9-H ) :   0.9836 B(  5-N ,  6-O ) :   1.3854

MP2 TOTAL ENERGY:     -283.617516790 Eh
FINAL SINGLE POINT ENERGY      -283.617516790135

DIPOLE MOMENT
-------------
                                X             Y             Z
Electronic contribution:      7.69966      -1.41024      -0.00075
Nuclear contribution   :     -8.51675       1.81059       0.00082
                        -----------------------------------------
Total Dipole Moment    :     -0.81709       0.40036       0.00007
                        -----------------------------------------
Magnitude (a.u.)       :      0.90990
Magnitude (Debye)      :      2.31279

Rotational constants in cm-1:     0.612499     0.099601     0.088496
Rotational constants in MHz : 18362.268563  2985.955886  2653.046905

                             ****ORCA TERMINATED NORMALLY****
TOTAL RUN TIME: 0 days 0 hours 0 minutes 44 seconds 345 msec
