                         Program Version 5.0.3 -  RELEASE  -
|  1> !ri-mp2 aug-cc-pvdz aug-cc-pvdz/c tightscf
|  2> %pal nprocs 16 end
|  3>
|  4> * xyz 0 1
|  5> C      1.335737    0.637655    0.000000
|  6> C     -2.183624   -0.287568    0.000000
|  7> C     -0.700940   -0.578325    0.000000
|  8> O      2.002533   -0.361066    0.000000
|  9> O      0.000000    0.693290    0.000000
| 10> H      1.739533    1.657904    0.000000
| 11> H     -2.739422   -1.225778    0.000000
| 12> H     -2.471547    0.280474    0.884202
| 13> H     -2.471547    0.280474   -0.884202
| 14> H     -0.392160   -1.140715   -0.880841
| 15> H     -0.392160   -1.140715    0.880841
| 16> *
| 17>
| 18>                          ****END OF INPUT****

CARTESIAN COORDINATES (ANGSTROEM)
---------------------------------
  C      1.335737    0.637655    0.000000
  C     -2.183624   -0.287568    0.000000
  C     -0.700940   -0.578325    0.000000
  O      2.002533   -0.361066    0.000000
  O      0.000000    0.693290    0.000000
  H      1.739533    1.657904    0.000000
  H     -2.739422   -1.225778    0.000000
  H     -2.471547    0.280474    0.884202
  H     -2.471547    0.280474   -0.884202
  H     -0.392160   -1.140715   -0.880841
  H     -0.392160   -1.140715    0.880841

 Total Charge           Charge          ....    0
 Multiplicity           Mult            ....    1
 Number of Electrons    NEL             ....   40
 Basis Dimension        Dim             ....  169

ORBITAL ENERGIES
----------------

  NO   OCC          E(Eh)            E(eV)
   0   2.0000     -20.618971      -561.0707
   1   2.0000     -20.565401      -559.6130
   2   2.0000     -11.392506      -310.0059
   3   2.0000     -11.302070      -307.5450
   4   2.0000     -11.236991      -305.7741
   5   2.0000      -1.468845       -39.9693
   6   2.0000      -1.372774       -37.3551
   7   2.0000      -1.051818       -28.6214
   8   2.0000      -0.899821       -24.4854
   9   2.0000      -0.808513       -22.0008
  10   2.0000      -0.731495       -19.9050
  11   2.0000      -0.685257       -18.6468
  12   2.0000      -0.681417       -18.5423
  13   2.0000      -0.589479       -16.0405
  14   2.0000      -0.577760       -15.7217
  15   2.0000      -0.555578       -15.1180
  16   2.0000      -0.518787       -14.1169
  17   2.0000      -0.516646       -14.0586
  18   2.0000      -0.464042       -12.6272
  19   2.0000      -0.460136       -12.5209
  20   0.0000       0.034681         0.9437
  21   0.0000       0.043354         1.1797
  22   0.0000       0.050455         1.3729
  23   0.0000       0.051705         1.4070
  24   0.0000       0.067570         1.8387

MULLIKEN ATOMIC CHARGES
-----------------------
   0 C :    0.924014
   1 C :    0.254669
   2 C :    0.742009
   3 O :   -0.584028
   4 O :   -0.730352
   5 H :   -0.180236
   6 H :   -0.019688
   7 H :   -0.034844
   8 H :   -0.034844
   9 H :   -0.168351
  10 H :   -0.168351
Sum of atomic charges:   -0.0000000

LOEWDIN ATOMIC CHARGES
----------------------
   0 C :   -0.152370
   1 C :    0.139277
   2 C :   -0.031295
   3 O :    0.016825
   4 O :    0.038074
   5 H :    0.014367
   6 H :   -0.013399
   7 H :   -0.014912
   8 H :   -0.014912
   9 H :    0.009172
  10 H :    0.009172

  Mayer bond orders larger than 0.100000
B(  0-C ,  3-O ) :   1.6774 B(  0-C ,  4-O ) :   0.9151 B(  0-C ,  5-H ) :   1.0355
B(  1-C ,  2-C ) :   1.2600 B(  1-C ,  6-H ) :   0.9162 B(  1-C ,  7-H ) :   0.9612
B(  1-C ,  8-H ) :   0.9612 B(  2-C ,  4-O ) :   0.5408 B(  2-C ,  9-H ) :   0.8872
B(  2-C , 10-H ) :   0.8872

MP2 TOTAL ENERGY:     -267.686387308 Eh
FINAL SINGLE POINT ENERGY      -267.686387308110

DIPOLE MOMENT
-------------
                                X             Y             Z
Electronic contribution:      5.92731       1.60407       0.00000
Nuclear contribution   :     -6.79009      -1.30120       0.00000
                        -----------------------------------------
Total Dipole Moment    :     -0.86278       0.30287       0.00000
                        -----------------------------------------
Magnitude (a.u.)       :      0.91440
Magnitude (Debye)      :      2.32421

Rotational constants in cm-1:     0.603343     0.095534     0.085089
Rotational constants in MHz : 18087.774761  2864.032061  2550.912870

                             ****ORCA TERMINATED NORMALLY****
TOTAL RUN TIME: 0 days 0 hours 0 minutes 55 seconds 88 msec
