                         Program Version 5.0.3 -  RELEASE  -
|  1> !ri-mp2 aug-cc-pvdz aug-cc-pvdz/c tightscf
|  2> %pal nprocs 16 end
|  3>
|  4> * xyz 0 1
|  5> S     -4.596838   -0.003107   -0.000137
|  6> S      4.596838    0.003103   -0.000056
|  7> N     -1.832054   -0.149686    0.000108
|  8> N      1.832054    0.149689    0.000098
|  9> C     -0.565103    0.514998    0.000097
| 10> C      0.565103   -0.514994    0.000093
| 11> C     -3.015809   -0.039311   -0.000005
| 12> C      3.015809    0.039311    0.000027
| 13> H     -0.483266    1.151721    0.883482
| 14> H     -0.483277    1.151723   -0.883288
| 15> H      0.483272   -1.151716   -0.883294
| 16> H      0.483270   -1.151720    0.883476
| 17> *
| 18>
| 19>                          ****END OF INPUT****

CARTESIAN COORDINATES (ANGSTROEM)
---------------------------------
  S     -4.596838   -0.003107   -0.000137
  S      4.596838    0.003103   -0.000056
  N     -1.832054   -0.149686    0.000108
  N      1.832054    0.149689    0.000098
  C     -0.565103    0.514998    0.000097
  C      0.565103   -0.514994    0.000093
  C     -3.015809   -0.039311   -0.000005
  C      3.015809    0.039311    0.000027
  H     -0.483266    1.151721    0.883482
  H     -0.483277    1.151723   -0.883288
  H      0.483272   -1.151716   -0.883294
  H      0.483270   -1.151720    0.883476

 Total Charge           Charge          ....    0
 Multiplicity           Mult            ....    1
 Number of Electrons    NEL             ....   74
 Basis Dimension        Dim             ....  228

ORBITAL ENERGIES
----------------

  NO   OCC          E(Eh)            E(eV)
   0   2.0000     -91.962341     -2502.4225
   1   2.0000     -91.962341     -2502.4225
   2   2.0000     -15.630119      -425.3172
   3   2.0000     -15.630117      -425.3171
   4   2.0000     -11.396796      -310.1226
   5   2.0000     -11.396795      -310.1226
   6   2.0000     -11.333753      -308.4071
   7   2.0000     -11.333147      -308.3906
   8   2.0000      -8.965649      -243.9677
   9   2.0000      -8.965649      -243.9677
  10   2.0000      -6.648317      -180.9099
  11   2.0000      -6.648316      -180.9099
  12   2.0000      -6.644518      -180.8065
  13   2.0000      -6.644518      -180.8065
  14   2.0000      -6.644199      -180.7978
  15   2.0000      -6.644198      -180.7978
  16   2.0000      -1.321386       -35.9567
  17   2.0000      -1.309160       -35.6241
  18   2.0000      -1.119426       -30.4611
  19   2.0000      -1.056582       -28.7511
  20   2.0000      -1.027544       -27.9609
  21   2.0000      -0.949632       -25.8408
  22   2.0000      -0.781880       -21.2760
  23   2.0000      -0.724215       -19.7069
  24   2.0000      -0.713076       -19.4038
  25   2.0000      -0.654775       -17.8173
  26   2.0000      -0.628478       -17.1018
  27   2.0000      -0.605675       -16.4813
  28   2.0000      -0.602512       -16.3952
  29   2.0000      -0.572485       -15.5781
  30   2.0000      -0.548658       -14.9297
  31   2.0000      -0.524698       -14.2778
  32   2.0000      -0.523650       -14.2492
  33   2.0000      -0.378035       -10.2869
  34   2.0000      -0.375936       -10.2297
  35   2.0000      -0.368888       -10.0379
  36   2.0000      -0.365498        -9.9457
  37   0.0000       0.025872         0.7040
  38   0.0000       0.040793         1.1100
  39   0.0000       0.042300         1.1510
  40   0.0000       0.059164         1.6099
  41   0.0000       0.064006         1.7417

MULLIKEN ATOMIC CHARGES
-----------------------
   0 S :    0.130968
   1 S :    0.130969
   2 N :   -0.306372
   3 N :   -0.306373
   4 C :    0.870437
   5 C :    0.870436
   6 C :   -0.416221
   7 C :   -0.416220
   8 H :   -0.139408
   9 H :   -0.139404
  10 H :   -0.139403
  11 H :   -0.139409
Sum of atomic charges:    0.0000000

LOEWDIN ATOMIC CHARGES
----------------------
   0 S :    0.594734
   1 S :    0.594734
   2 N :   -0.016084
   3 N :   -0.016084
   4 C :   -0.004339
   5 C :   -0.004339
   6 C :   -0.631362
   7 C :   -0.631361
   8 H :    0.028525
   9 H :    0.028525
  10 H :    0.028526
  11 H :    0.028525

  Mayer bond orders larger than 0.100000
B(  0-S ,  6-C ) :   1.8808 B(  1-S ,  7-C ) :   1.8808 B(  2-N ,  4-C ) :   0.6148
B(  2-N ,  5-C ) :  -0.1176 B(  2-N ,  6-C ) :   1.9812 B(  3-N ,  4-C ) :  -0.1176
B(  3-N ,  5-C ) :   0.6148 B(  3-N ,  7-C ) :   1.9812 B(  4-C ,  5-C ) :   1.3640
B(  4-C ,  8-H ) :   0.8805 B(  4-C ,  9-H ) :   0.8804 B(  5-C , 10-H ) :   0.8804
B(  5-C , 11-H ) :   0.8805

MP2 TOTAL ENERGY:    -1058.924051225 Eh
FINAL SINGLE POINT ENERGY     -1058.924051225312

DIPOLE MOMENT
-------------
                                X             Y             Z
Electronic contribution:      0.00000      -0.00001      -0.00031
Nuclear contribution   :     -0.00000       0.00001       0.00037
                        -----------------------------------------
Total Dipole Moment    :      0.00000       0.00000       0.00006
                        -----------------------------------------
Magnitude (a.u.)       :      0.00006
Magnitude (Debye)      :      0.00016

Rotational constants in cm-1:     1.085603     0.010039     0.009984
Rotational constants in MHz : 32545.573212   300.966902   299.320649

                             ****ORCA TERMINATED NORMALLY****
TOTAL RUN TIME: 0 days 0 hours 0 minutes 50 seconds 873 msec
