                         Program Version 5.0.3 -  RELEASE  -
|  1> !ri-mp2 aug-cc-pvdz aug-cc-pvdz/c tightscf
|  2> %pal nprocs 16 end
|  3>
|  4> * xyz 0 1
|  5> C     -2.410690    0.780868    0.000000
|  6> C     -1.408259   -0.101026    0.000000
|  7> C      0.000000    0.249530    0.000000
|  8> C      0.998002   -0.639690    0.000000
|  9> C      2.453681   -0.304012    0.000000
| 10> H     -2.224937    1.847997    0.000000
| 11> H     -3.443962    0.464039    0.000000
| 12> H     -1.639093   -1.162269    0.000000
| 13> H      0.236275    1.310487    0.000000
| 14> H      0.747222   -1.697270    0.000000
| 15> H      2.617556    0.773488    0.000000
| 16> H      2.955266   -0.725245    0.875717
| 17> H      2.955266   -0.725245   -0.875717
| 18> *
| 19>
| 20>                          ****END OF INPUT****

CARTESIAN COORDINATES (ANGSTROEM)
---------------------------------
  C     -2.410690    0.780868    0.000000
  C     -1.408259   -0.101026    0.000000
  C      0.000000    0.249530    0.000000
  C      0.998002   -0.639690    0.000000
  C      2.453681   -0.304012    0.000000
  H     -2.224937    1.847997    0.000000
  H     -3.443962    0.464039    0.000000
  H     -1.639093   -1.162269    0.000000
  H      0.236275    1.310487    0.000000
  H      0.747222   -1.697270    0.000000
  H      2.617556    0.773488    0.000000
  H      2.955266   -0.725245    0.875717
  H      2.955266   -0.725245   -0.875717

 Total Charge           Charge          ....    0
 Multiplicity           Mult            ....    1
 Number of Electrons    NEL             ....   38
 Basis Dimension        Dim             ....  187

ORBITAL ENERGIES
----------------

  NO   OCC          E(Eh)            E(eV)
   0   2.0000     -11.241745      -305.9034
   1   2.0000     -11.241116      -305.8863
   2   2.0000     -11.233454      -305.6778
   3   2.0000     -11.231228      -305.6173
   4   2.0000     -11.228787      -305.5508
   5   2.0000      -1.100926       -29.9577
   6   2.0000      -1.032359       -28.0919
   7   2.0000      -0.934659       -25.4334
   8   2.0000      -0.794809       -21.6279
   9   2.0000      -0.753233       -20.4965
  10   2.0000      -0.648190       -17.6381
  11   2.0000      -0.618829       -16.8392
  12   2.0000      -0.569064       -15.4850
  13   2.0000      -0.568648       -15.4737
  14   2.0000      -0.537859       -14.6359
  15   2.0000      -0.513228       -13.9657
  16   2.0000      -0.486928       -13.2500
  17   2.0000      -0.434721       -11.8294
  18   2.0000      -0.311631        -8.4799
  19   0.0000       0.037103         1.0096
  20   0.0000       0.041770         1.1366
  21   0.0000       0.044848         1.2204
  22   0.0000       0.059962         1.6317
  23   0.0000       0.061863         1.6834

MULLIKEN ATOMIC CHARGES
-----------------------
   0 C :    0.672205
   1 C :    0.479247
   2 C :    0.862548
   3 C :   -0.079116
   4 C :    0.189672
   5 H :   -0.342353
   6 H :   -0.326827
   7 H :   -0.527069
   8 H :   -0.510806
   9 H :   -0.463527
  10 H :   -0.143470
  11 H :    0.094748
  12 H :    0.094748
Sum of atomic charges:    0.0000000

LOEWDIN ATOMIC CHARGES
----------------------
   0 C :    0.165234
   1 C :   -0.082624
   2 C :   -0.037312
   3 C :   -0.038658
   4 C :    0.131903
   5 H :   -0.042061
   6 H :   -0.047290
   7 H :   -0.000712
   8 H :    0.003633
   9 H :   -0.001330
  10 H :   -0.017897
  11 H :   -0.016443
  12 H :   -0.016443

  Mayer bond orders larger than 0.100000
B(  0-C ,  1-C ) :   1.8850 B(  0-C ,  2-C ) :  -0.1467 B(  0-C ,  3-C ) :   0.1696
B(  0-C ,  5-H ) :   0.7672 B(  0-C ,  6-H ) :   0.6584 B(  1-C ,  2-C ) :   1.2092
B(  1-C ,  6-H ) :   0.2187 B(  1-C ,  7-H ) :   0.5666 B(  2-C ,  3-C ) :   1.9676
B(  2-C ,  4-C ) :  -0.2323 B(  2-C ,  7-H ) :   0.1437 B(  2-C ,  8-H ) :   0.4771
B(  2-C ,  9-H ) :   0.2878 B(  2-C , 10-H ) :  -0.1348 B(  3-C ,  4-C ) :   1.3132
B(  3-C ,  8-H ) :   0.1437 B(  3-C ,  9-H ) :   0.5469 B(  3-C , 10-H ) :   0.1299
B(  4-C ,  9-H ) :  -0.1264 B(  4-C , 10-H ) :   0.9488 B(  4-C , 11-H ) :   0.8843
B(  4-C , 12-H ) :   0.8843 B(  5-H ,  6-H ) :  -0.1847

MP2 TOTAL ENERGY:     -194.685323074 Eh
FINAL SINGLE POINT ENERGY      -194.685323073660

DIPOLE MOMENT
-------------
                                X             Y             Z
Electronic contribution:     -2.05670      -0.17884       0.00000
Nuclear contribution   :      2.30866       0.09008       0.00000
                        -----------------------------------------
Total Dipole Moment    :      0.25195      -0.08876       0.00000
                        -----------------------------------------
Magnitude (a.u.)       :      0.26713
Magnitude (Debye)      :      0.67899

Rotational constants in cm-1:     0.965731     0.072107     0.067933
Rotational constants in MHz : 28951.879797  2161.702151  2036.576110

                             ****ORCA TERMINATED NORMALLY****
TOTAL RUN TIME: 0 days 0 hours 0 minutes 21 seconds 123 msec
