                         Program Version 5.0.3 -  RELEASE  -
|  1> !ri-mp2 aug-cc-pvdz aug-cc-pvdz/c tightscf
|  2> %pal nprocs 16 end
|  3>
|  4> * xyz 0 1
|  5> C      3.184312    0.214662   -0.156388
|  6> C      1.804466   -0.364204   -0.216238
|  7> C      0.743151    0.105154    0.431736
|  8> C     -0.640500   -0.468565    0.368176
|  9> C     -1.685118    0.519417   -0.171606
| 10> C     -3.099443   -0.056883   -0.186480
| 11> H      3.223229    1.089985    0.492451
| 12> H      3.904316   -0.517661    0.218689
| 13> H      3.531684    0.512657   -1.149293
| 14> H      1.681810   -1.243047   -0.845147
| 15> H      0.864249    0.985574    1.060220
| 16> H     -0.950299   -0.782190    1.372044
| 17> H     -0.636597   -1.370501   -0.250054
| 18> H     -1.397617    0.823029   -1.181416
| 19> H     -1.666289    1.428500    0.436494
| 20> H     -3.819163    0.665084   -0.574592
| 21> H     -3.155216   -0.949735   -0.812711
| 22> H     -3.421316   -0.339183    0.818118
| 23> *
| 24>
| 25>                          ****END OF INPUT****

CARTESIAN COORDINATES (ANGSTROEM)
---------------------------------
  C      3.184312    0.214662   -0.156388
  C      1.804466   -0.364204   -0.216238
  C      0.743151    0.105154    0.431736
  C     -0.640500   -0.468565    0.368176
  C     -1.685118    0.519417   -0.171606
  C     -3.099443   -0.056883   -0.186480
  H      3.223229    1.089985    0.492451
  H      3.904316   -0.517661    0.218689
  H      3.531684    0.512657   -1.149293
  H      1.681810   -1.243047   -0.845147
  H      0.864249    0.985574    1.060220
  H     -0.950299   -0.782190    1.372044
  H     -0.636597   -1.370501   -0.250054
  H     -1.397617    0.823029   -1.181416
  H     -1.666289    1.428500    0.436494
  H     -3.819163    0.665084   -0.574592
  H     -3.155216   -0.949735   -0.812711
  H     -3.421316   -0.339183    0.818118

 Total Charge           Charge          ....    0
 Multiplicity           Mult            ....    1
 Number of Electrons    NEL             ....   48
 Basis Dimension        Dim             ....  246

ORBITAL ENERGIES
----------------

  NO   OCC          E(Eh)            E(eV)
   0   2.0000     -11.227914      -305.5271
   1   2.0000     -11.224806      -305.4425
   2   2.0000     -11.224069      -305.4225
   3   2.0000     -11.223734      -305.4133
   4   2.0000     -11.222955      -305.3921
   5   2.0000     -11.217182      -305.2350
   6   2.0000      -1.092007       -29.7150
   7   2.0000      -1.041695       -28.3460
   8   2.0000      -0.964436       -26.2436
   9   2.0000      -0.885157       -24.0864
  10   2.0000      -0.801430       -21.8080
  11   2.0000      -0.745605       -20.2889
  12   2.0000      -0.633698       -17.2438
  13   2.0000      -0.619256       -16.8508
  14   2.0000      -0.586133       -15.9495
  15   2.0000      -0.565678       -15.3929
  16   2.0000      -0.558488       -15.1972
  17   2.0000      -0.534795       -14.5525
  18   2.0000      -0.520760       -14.1706
  19   2.0000      -0.496655       -13.5147
  20   2.0000      -0.477996       -13.0069
  21   2.0000      -0.466724       -12.7002
  22   2.0000      -0.463337       -12.6080
  23   2.0000      -0.341398        -9.2899
  24   0.0000       0.038053         1.0355
  25   0.0000       0.042100         1.1456
  26   0.0000       0.045195         1.2298
  27   0.0000       0.048573         1.3217
  28   0.0000       0.058868         1.6019

MULLIKEN ATOMIC CHARGES
-----------------------
   0 C :    0.212272
   1 C :   -0.037407
   2 C :    1.064825
   3 C :    0.132696
   4 C :    0.097407
   5 C :    0.391913
   6 H :   -0.143874
   7 H :    0.060537
   8 H :    0.055007
   9 H :   -0.485683
  10 H :   -0.537638
  11 H :   -0.061093
  12 H :   -0.213562
  13 H :   -0.137866
  14 H :   -0.162925
  15 H :   -0.076517
  16 H :   -0.088438
  17 H :   -0.069652
Sum of atomic charges:   -0.0000000

LOEWDIN ATOMIC CHARGES
----------------------
   0 C :    0.128989
   1 C :   -0.051040
   2 C :   -0.019948
   3 C :   -0.043490
   4 C :   -0.072887
   5 C :    0.129023
   6 H :   -0.019850
   7 H :   -0.019626
   8 H :   -0.019471
   9 H :   -0.002801
  10 H :    0.002754
  11 H :    0.015416
  12 H :    0.014548
  13 H :    0.011665
  14 H :    0.009503
  15 H :   -0.022168
  16 H :   -0.020059
  17 H :   -0.020558

  Mayer bond orders larger than 0.100000
B(  0-C ,  1-C ) :   1.2123 B(  0-C ,  2-C ) :  -0.1847 B(  0-C ,  6-H ) :   0.9352
B(  0-C ,  7-H ) :   0.9109 B(  0-C ,  8-H ) :   0.9055 B(  1-C ,  2-C ) :   2.0053
B(  1-C ,  9-H ) :   0.6089 B(  1-C , 10-H ) :   0.1591 B(  2-C ,  3-C ) :   1.2649
B(  2-C , 10-H ) :   0.2198 B(  3-C ,  4-C ) :   1.2430 B(  3-C , 10-H ) :   0.2035
B(  3-C , 11-H ) :   0.8672 B(  3-C , 12-H ) :   0.7365 B(  4-C ,  5-C ) :   1.1981
B(  4-C , 13-H ) :   0.8573 B(  4-C , 14-H ) :   0.8108 B(  5-C , 15-H ) :   0.9135
B(  5-C , 16-H ) :   0.9316 B(  5-C , 17-H ) :   0.9451

MP2 TOTAL ENERGY:     -235.085236861 Eh
FINAL SINGLE POINT ENERGY      -235.085236860629

DIPOLE MOMENT
-------------
                                X             Y             Z
Electronic contribution:      1.97400      -0.30862       0.42493
Nuclear contribution   :     -1.97215       0.32403      -0.44473
                        -----------------------------------------
Total Dipole Moment    :      0.00185       0.01541      -0.01980
                        -----------------------------------------
Magnitude (a.u.)       :      0.02516
Magnitude (Debye)      :      0.06395

Rotational constants in cm-1:     0.505049     0.040082     0.039580
Rotational constants in MHz : 15140.987069  1201.621236  1186.587239

                             ****ORCA TERMINATED NORMALLY****
TOTAL RUN TIME: 0 days 0 hours 0 minutes 46 seconds 73 msec
