                         Program Version 5.0.3 -  RELEASE  -
|  1> !ri-mp2 aug-cc-pvdz aug-cc-pvdz/c tightscf
|  2> %pal nprocs 16 end
|  3>
|  4> * xyz 0 1
|  5> O      0.000000    0.875253    0.000000
|  6> H     -1.597409   -0.112403    0.885605
|  7> H     -1.597409   -0.112403   -0.885605
|  8> C     -1.403897    0.489442    0.000000
|  9> H     -1.992692    2.365984    0.884747
| 10> H     -3.270428    1.523039    0.000000
| 11> H     -1.992692    2.365984   -0.884747
| 12> C     -2.208098    1.768537    0.000000
| 13> O      2.148853    0.326496    0.000000
| 14> Cl     0.523259   -1.724654    0.000000
| 15> C      1.006061    0.021175    0.000000
| 16> *
| 17>
| 18>                          ****END OF INPUT****

CARTESIAN COORDINATES (ANGSTROEM)
---------------------------------
  O      0.000000    0.875253    0.000000
  H     -1.597409   -0.112403    0.885605
  H     -1.597409   -0.112403   -0.885605
  C     -1.403897    0.489442    0.000000
  H     -1.992692    2.365984    0.884747
  H     -3.270428    1.523039    0.000000
  H     -1.992692    2.365984   -0.884747
  C     -2.208098    1.768537    0.000000
  O      2.148853    0.326496    0.000000
  Cl     0.523259   -1.724654    0.000000
  C      1.006061    0.021175    0.000000

 Total Charge           Charge          ....    0
 Multiplicity           Mult            ....    1
 Number of Electrons    NEL             ....   56
 Basis Dimension        Dim             ....  187

ORBITAL ENERGIES
----------------

  NO   OCC          E(Eh)            E(eV)
   0   2.0000    -104.860166     -2853.3902
   1   2.0000     -20.646561      -561.8215
   2   2.0000     -20.589699      -560.2742
   3   2.0000     -11.466648      -312.0233
   4   2.0000     -11.326973      -308.2226
   5   2.0000     -11.250653      -306.1458
   6   2.0000     -10.586417      -288.0710
   7   2.0000      -8.053951      -219.1591
   8   2.0000      -8.050716      -219.0711
   9   2.0000      -8.050626      -219.0687
  10   2.0000      -1.503290       -40.9066
  11   2.0000      -1.412336       -38.4316
  12   2.0000      -1.134695       -30.8766
  13   2.0000      -1.070683       -29.1348
  14   2.0000      -0.905340       -24.6356
  15   2.0000      -0.814605       -22.1665
  16   2.0000      -0.725089       -19.7307
  17   2.0000      -0.714108       -19.4319
  18   2.0000      -0.697479       -18.9794
  19   2.0000      -0.626241       -17.0409
  20   2.0000      -0.594167       -16.1681
  21   2.0000      -0.574774       -15.6404
  22   2.0000      -0.544708       -14.8223
  23   2.0000      -0.536905       -14.6099
  24   2.0000      -0.496348       -13.5063
  25   2.0000      -0.493751       -13.4356
  26   2.0000      -0.470106       -12.7922
  27   2.0000      -0.462678       -12.5901
  28   0.0000       0.029342         0.7984
  29   0.0000       0.045844         1.2475
  30   0.0000       0.046319         1.2604
  31   0.0000       0.055268         1.5039
  32   0.0000       0.074295         2.0217

MULLIKEN ATOMIC CHARGES
-----------------------
   0 O :   -0.668748
   1 H :   -0.154863
   2 H :   -0.154863
   3 C :    0.813578
   4 H :   -0.033360
   5 H :   -0.011037
   6 H :   -0.033360
   7 C :    0.261190
   8 O :   -0.551157
   9 Cl:   -0.129291
  10 C :    0.661909
Sum of atomic charges:    0.0000000

LOEWDIN ATOMIC CHARGES
----------------------
   0 O :    0.037570
   1 H :   -0.005642
   2 H :   -0.005642
   3 C :   -0.054504
   4 H :   -0.011097
   5 H :   -0.010172
   6 H :   -0.011097
   7 C :    0.145360
   8 O :    0.024948
   9 Cl:    0.507624
  10 C :   -0.617349

  Mayer bond orders larger than 0.100000
B(  0-O ,  3-C ) :   0.4785 B(  0-O , 10-C ) :   0.9251 B(  1-H ,  3-C ) :   0.9016
B(  2-H ,  3-C ) :   0.9016 B(  3-C ,  7-C ) :   1.2424 B(  4-H ,  7-C ) :   0.9632
B(  5-H ,  7-C ) :   0.9153 B(  6-H ,  7-C ) :   0.9632 B(  8-O , 10-C ) :   1.6933
B(  9-Cl, 10-C ) :   1.0788

MP2 TOTAL ENERGY:     -726.750815899 Eh
FINAL SINGLE POINT ENERGY      -726.750815899074

DIPOLE MOMENT
-------------
                                X             Y             Z
Electronic contribution:      9.07784      -8.20632      -0.00000
Nuclear contribution   :    -10.82050       8.25349       0.00000
                        -----------------------------------------
Total Dipole Moment    :     -1.74266       0.04716      -0.00000
                        -----------------------------------------
Magnitude (a.u.)       :      1.74330
Magnitude (Debye)      :      4.43111

Rotational constants in cm-1:     0.168722     0.060200     0.045119
Rotational constants in MHz :  5058.149373  1804.740297  1352.640490

                             ****ORCA TERMINATED NORMALLY****
TOTAL RUN TIME: 0 days 0 hours 0 minutes 54 seconds 53 msec
