                         Program Version 5.0.3 -  RELEASE  -
|  1> !ri-mp2 aug-cc-pvdz aug-cc-pvdz/c tightscf
|  2> %pal nprocs 16 end
|  3>
|  4> * xyz 0 1
|  5> C      0.909826   -0.524796    0.000000
|  6> C      2.312486    0.022275    0.000000
|  7> C     -2.229581    1.332555    0.000000
|  8> C     -1.391432    0.074275    0.000000
|  9> O      0.616627   -1.694503    0.000000
| 10> O      0.000000    0.471377    0.000000
| 11> H      2.468339    0.648836    0.878091
| 12> H      2.468339    0.648836   -0.878091
| 13> H      3.022001   -0.799004    0.000000
| 14> H     -3.287649    1.068275    0.000000
| 15> H     -2.028233    1.937197    0.884062
| 16> H     -2.028233    1.937197   -0.884062
| 17> H     -1.577685   -0.541093   -0.880090
| 18> H     -1.577685   -0.541093    0.880090
| 19> *
| 20>
| 21>                          ****END OF INPUT****

CARTESIAN COORDINATES (ANGSTROEM)
---------------------------------
  C      0.909826   -0.524796    0.000000
  C      2.312486    0.022275    0.000000
  C     -2.229581    1.332555    0.000000
  C     -1.391432    0.074275    0.000000
  O      0.616627   -1.694503    0.000000
  O      0.000000    0.471377    0.000000
  H      2.468339    0.648836    0.878091
  H      2.468339    0.648836   -0.878091
  H      3.022001   -0.799004    0.000000
  H     -3.287649    1.068275    0.000000
  H     -2.028233    1.937197    0.884062
  H     -2.028233    1.937197   -0.884062
  H     -1.577685   -0.541093   -0.880090
  H     -1.577685   -0.541093    0.880090

 Total Charge           Charge          ....    0
 Multiplicity           Mult            ....    1
 Number of Electrons    NEL             ....   48
 Basis Dimension        Dim             ....  210

ORBITAL ENERGIES
----------------

  NO   OCC          E(Eh)            E(eV)
   0   2.0000     -20.607353      -560.7546
   1   2.0000     -20.552321      -559.2571
   2   2.0000     -11.386894      -309.8531
   3   2.0000     -11.294565      -307.3407
   4   2.0000     -11.246044      -306.0204
   5   2.0000     -11.232216      -305.6441
   6   2.0000      -1.459788       -39.7229
   7   2.0000      -1.360369       -37.0175
   8   2.0000      -1.056505       -28.7490
   9   2.0000      -1.002299       -27.2739
  10   2.0000      -0.866972       -23.5915
  11   2.0000      -0.780368       -21.2349
  12   2.0000      -0.691055       -18.8046
  13   2.0000      -0.682996       -18.5853
  14   2.0000      -0.665026       -18.0963
  15   2.0000      -0.609390       -16.5823
  16   2.0000      -0.579932       -15.7807
  17   2.0000      -0.565466       -15.3871
  18   2.0000      -0.550649       -14.9839
  19   2.0000      -0.538758       -14.6603
  20   2.0000      -0.510879       -13.9017
  21   2.0000      -0.502360       -13.6699
  22   2.0000      -0.456814       -12.4305
  23   2.0000      -0.445092       -12.1116
  24   0.0000       0.034215         0.9310
  25   0.0000       0.042467         1.1556
  26   0.0000       0.049088         1.3357
  27   0.0000       0.051786         1.4092
  28   0.0000       0.065839         1.7916

MULLIKEN ATOMIC CHARGES
-----------------------
   0 C :    0.647898
   1 C :    0.283269
   2 C :    0.284237
   3 C :    0.769549
   4 O :   -0.706113
   5 O :   -0.869790
   6 H :    0.027905
   7 H :    0.027905
   8 H :   -0.029602
   9 H :   -0.031817
  10 H :   -0.041479
  11 H :   -0.041479
  12 H :   -0.160241
  13 H :   -0.160241
Sum of atomic charges:    0.0000000

LOEWDIN ATOMIC CHARGES
----------------------
   0 C :   -0.370775
   1 C :    0.205913
   2 C :    0.139616
   3 C :   -0.031065
   4 O :    0.040064
   5 O :    0.063195
   6 H :   -0.006598
   7 H :   -0.006598
   8 H :   -0.008158
   9 H :   -0.014125
  10 H :   -0.015545
  11 H :   -0.015545
  12 H :    0.009810
  13 H :    0.009810

  Mayer bond orders larger than 0.100000
B(  0-C ,  1-C ) :   1.0562 B(  0-C ,  4-O ) :   1.5338 B(  0-C ,  5-O ) :   0.7768
B(  0-C ,  8-H ) :   0.1107 B(  1-C ,  6-H ) :   0.9434 B(  1-C ,  7-H ) :   0.9434
B(  1-C ,  8-H ) :   0.8737 B(  2-C ,  3-C ) :   1.2524 B(  2-C ,  9-H ) :   0.9112
B(  2-C , 10-H ) :   0.9550 B(  2-C , 11-H ) :   0.9550 B(  3-C ,  5-O ) :   0.5833
B(  3-C , 12-H ) :   0.8783 B(  3-C , 13-H ) :   0.8783

MP2 TOTAL ENERGY:     -306.883560843 Eh
FINAL SINGLE POINT ENERGY      -306.883560842707

DIPOLE MOMENT
-------------
                                X             Y             Z
Electronic contribution:      2.51395      -3.56416       0.00000
Nuclear contribution   :     -2.58973       4.44043       0.00000
                        -----------------------------------------
Total Dipole Moment    :     -0.07579       0.87627       0.00000
                        -----------------------------------------
Magnitude (a.u.)       :      0.87954
Magnitude (Debye)      :      2.23561

Rotational constants in cm-1:     0.282016     0.069306     0.057411
Rotational constants in MHz :  8454.636223  2077.727979  1721.150451

                             ****ORCA TERMINATED NORMALLY****
TOTAL RUN TIME: 0 days 0 hours 0 minutes 56 seconds 176 msec
