                         Program Version 5.0.3 -  RELEASE  -
|  1> !ri-mp2 aug-cc-pvdz aug-cc-pvdz/c tightscf
|  2> %pal nprocs 16 end
|  3>
|  4> * xyz 0 1
|  5> C      1.516650    0.705578    0.000000
|  6> C      0.000000    0.834467    0.000000
|  7> S     -0.755427   -0.847361    0.000000
|  8> H      1.868133    0.170753    0.882762
|  9> H      1.868133    0.170753   -0.882762
| 10> H      1.975965    1.695046    0.000000
| 11> H     -0.341365    1.368763   -0.884290
| 12> H     -0.341365    1.368763    0.884290
| 13> H     -2.042577   -0.456566    0.000000
| 14> *
| 15>
| 16>                          ****END OF INPUT****

CARTESIAN COORDINATES (ANGSTROEM)
---------------------------------
  C      1.516650    0.705578    0.000000
  C      0.000000    0.834467    0.000000
  S     -0.755427   -0.847361    0.000000
  H      1.868133    0.170753    0.882762
  H      1.868133    0.170753   -0.882762
  H      1.975965    1.695046    0.000000
  H     -0.341365    1.368763   -0.884290
  H     -0.341365    1.368763    0.884290
  H     -2.042577   -0.456566    0.000000

 Total Charge           Charge          ....    0
 Multiplicity           Mult            ....    1
 Number of Electrons    NEL             ....   34
 Basis Dimension        Dim             ....  127

ORBITAL ENERGIES
----------------

  NO   OCC          E(Eh)            E(eV)
   0   2.0000     -91.951656     -2502.1318
   1   2.0000     -11.269997      -306.6722
   2   2.0000     -11.234961      -305.7188
   3   2.0000      -8.953332      -243.6326
   4   2.0000      -6.635436      -180.5594
   5   2.0000      -6.634051      -180.5217
   6   2.0000      -6.631938      -180.4642
   7   2.0000      -1.070525       -29.1305
   8   2.0000      -0.944201       -25.6930
   9   2.0000      -0.820183       -22.3183
  10   2.0000      -0.631486       -17.1836
  11   2.0000      -0.614561       -16.7231
  12   2.0000      -0.541797       -14.7430
  13   2.0000      -0.514591       -14.0027
  14   2.0000      -0.500801       -13.6275
  15   2.0000      -0.446057       -12.1378
  16   2.0000      -0.354210        -9.6385
  17   0.0000       0.035398         0.9632
  18   0.0000       0.046493         1.2651
  19   0.0000       0.052411         1.4262
  20   0.0000       0.053836         1.4649
  21   0.0000       0.072099         1.9619

MULLIKEN ATOMIC CHARGES
-----------------------
   0 C :    0.314897
   1 C :   -0.131997
   2 S :    0.138656
   3 H :   -0.060663
   4 H :   -0.060663
   5 H :   -0.054209
   6 H :   -0.117304
   7 H :   -0.117304
   8 H :    0.088588
Sum of atomic charges:   -0.0000000

LOEWDIN ATOMIC CHARGES
----------------------
   0 C :    0.056100
   1 C :   -0.355525
   2 S :    0.691322
   3 H :   -0.025676
   4 H :   -0.025676
   5 H :   -0.021850
   6 H :   -0.041148
   7 H :   -0.041148
   8 H :   -0.236399

  Mayer bond orders larger than 0.100000
B(  0-C ,  1-C ) :   1.2904 B(  0-C ,  3-H ) :   0.9587 B(  0-C ,  4-H ) :   0.9587
B(  0-C ,  5-H ) :   0.9084 B(  1-C ,  2-S ) :   1.1265 B(  1-C ,  6-H ) :   0.9412
B(  1-C ,  7-H ) :   0.9412 B(  2-S ,  8-H ) :   0.9606

MP2 TOTAL ENERGY:     -477.221139952 Eh
FINAL SINGLE POINT ENERGY      -477.221139951583

DIPOLE MOMENT
-------------
                                X             Y             Z
Electronic contribution:     -3.06041      -3.73866       0.00000
Nuclear contribution   :      3.09379       4.46422       0.00000
                        -----------------------------------------
Total Dipole Moment    :      0.03338       0.72556       0.00000
                        -----------------------------------------
Magnitude (a.u.)       :      0.72633
Magnitude (Debye)      :      1.84618

Rotational constants in cm-1:     0.958860     0.179508     0.160249
Rotational constants in MHz : 28745.894957  5381.500081  4804.145513

                             ****ORCA TERMINATED NORMALLY****
TOTAL RUN TIME: 0 days 0 hours 0 minutes 33 seconds 988 msec
