                         Program Version 5.0.3 -  RELEASE  -
|  1> !ri-mp2 aug-cc-pvdz aug-cc-pvdz/c tightscf
|  2> %pal nprocs 16 end
|  3>
|  4> * xyz 0 1
|  5> C      1.211962   -0.100418        0.000000
|  6> C      0.000000    0.441434        0.000000
|  7> O     -1.190822   -0.218573        0.000000
|  8> H      1.366451   -1.172202        0.000000
|  9> H      2.084447    0.533775        0.000000
| 10> H     -0.160334    1.511121        0.000000
| 11> H     -1.035759   -1.170209        0.000000
| 12> *
| 13>
| 14>                          ****END OF INPUT****

CARTESIAN COORDINATES (ANGSTROEM)
---------------------------------
  C      1.211962   -0.100418    0.000000
  C      0.000000    0.441434    0.000000
  O     -1.190822   -0.218573    0.000000
  H      1.366451   -1.172202    0.000000
  H      2.084447    0.533775    0.000000
  H     -0.160334    1.511121    0.000000
  H     -1.035759   -1.170209    0.000000

 Total Charge           Charge          ....    0
 Multiplicity           Mult            ....    1
 Number of Electrons    NEL             ....   24
 Basis Dimension        Dim             ....  105

ORBITAL ENERGIES
----------------

  NO   OCC          E(Eh)            E(eV)
   0   2.0000     -20.602426      -560.6205
   1   2.0000     -11.307866      -307.7027
   2   2.0000     -11.223719      -305.4129
   3   2.0000      -1.409260       -38.3479
   4   2.0000      -1.028257       -27.9803
   5   2.0000      -0.835846       -22.7445
   6   2.0000      -0.682634       -18.5754
   7   2.0000      -0.672100       -18.2888
   8   2.0000      -0.579778       -15.7766
   9   2.0000      -0.549453       -14.9514
  10   2.0000      -0.542036       -14.7495
  11   2.0000      -0.352225        -9.5845
  12   0.0000       0.036982         1.0063
  13   0.0000       0.045380         1.2348
  14   0.0000       0.052107         1.4179
  15   0.0000       0.070768         1.9257
  16   0.0000       0.112003         3.0478

MULLIKEN ATOMIC CHARGES
-----------------------
   0 C :    0.498996
   1 C :    0.856823
   2 O :   -0.667221
   3 H :   -0.320425
   4 H :   -0.267563
   5 H :   -0.253793
   6 H :    0.153183
Sum of atomic charges:    0.0000000

LOEWDIN ATOMIC CHARGES
----------------------
   0 C :    0.136010
   1 C :   -0.120148
   2 O :    0.143065
   3 H :   -0.051757
   4 H :   -0.055936
   5 H :   -0.007911
   6 H :   -0.043322

  Mayer bond orders larger than 0.100000
B(  0-C ,  1-C ) :   2.0330 B(  0-C ,  3-H ) :   0.8269 B(  0-C ,  4-H ) :   0.8922
B(  1-C ,  2-O ) :   0.4008 B(  1-C ,  5-H ) :   0.9045 B(  1-C ,  6-H ) :  -0.1150
B(  2-O ,  5-H ) :  -0.1006 B(  2-O ,  6-H ) :   1.0769 B(  3-H ,  4-H ) :  -0.1508

MP2 TOTAL ENERGY:     -153.399736838 Eh
FINAL SINGLE POINT ENERGY      -153.399736838257

DIPOLE MOMENT
-------------
                                X             Y             Z
Electronic contribution:     -2.01891      -0.00129       0.00000
Nuclear contribution   :      2.28784      -0.30793       0.00000
                        -----------------------------------------
Total Dipole Moment    :      0.26893      -0.30923       0.00000
                        -----------------------------------------
Magnitude (a.u.)       :      0.40981
Magnitude (Debye)      :      1.04166

Rotational constants in cm-1:     2.026845     0.352317     0.300144
Rotational constants in MHz : 60763.284504 10562.193895  8998.097272

                             ****ORCA TERMINATED NORMALLY****
TOTAL RUN TIME: 0 days 0 hours 0 minutes 42 seconds 965 msec
