                         Program Version 5.0.3 -  RELEASE  -
|  1> !ri-mp2 aug-cc-pvdz aug-cc-pvdz/c tightscf
|  2> %pal nprocs 16 end
|  3>
|  4> * xyz 0 1
|  5> C    -0.324304     0.589828       0.000000
|  6> C     0.324304    -0.589828       0.000000
|  7> C     0.324304     1.845570       0.000000
|  8> C    -0.324304    -1.845570       0.000000
|  9> H    -1.408272     0.599713       0.000000
| 10> H     1.408272    -0.599713       0.000000
| 11> C     0.841122     2.932151       0.000000
| 12> C    -0.841122    -2.932151       0.000000
| 13> H     1.305614     3.886246       0.000000
| 14> H    -1.305614    -3.886246       0.000000
| 15> *
| 16>
| 17>                          ****END OF INPUT****

CARTESIAN COORDINATES (ANGSTROEM)
---------------------------------
  C     -0.324304    0.589828    0.000000
  C      0.324304   -0.589828    0.000000
  C      0.324304    1.845570    0.000000
  C     -0.324304   -1.845570    0.000000
  H     -1.408272    0.599713    0.000000
  H      1.408272   -0.599713    0.000000
  C      0.841122    2.932151    0.000000
  C     -0.841122   -2.932151    0.000000
  H      1.305614    3.886246    0.000000
  H     -1.305614   -3.886246    0.000000

 Total Charge           Charge          ....    0
 Multiplicity           Mult            ....    1
 Number of Electrons    NEL             ....   40
 Basis Dimension        Dim             ....  174

ORBITAL ENERGIES
----------------

  NO   OCC          E(Eh)            E(eV)
   0   2.0000     -11.284285      -307.0610
   1   2.0000     -11.282721      -307.0184
   2   2.0000     -11.256495      -306.3048
   3   2.0000     -11.256494      -306.3048
   4   2.0000     -11.249438      -306.1128
   5   2.0000     -11.249437      -306.1128
   6   2.0000      -1.128054       -30.6959
   7   2.0000      -1.056553       -28.7503
   8   2.0000      -1.006254       -27.3816
   9   2.0000      -0.885030       -24.0829
  10   2.0000      -0.741247       -20.1704
  11   2.0000      -0.735849       -20.0235
  12   2.0000      -0.693557       -18.8727
  13   2.0000      -0.663384       -18.0516
  14   2.0000      -0.578952       -15.7541
  15   2.0000      -0.499240       -13.5850
  16   2.0000      -0.431614       -11.7448
  17   2.0000      -0.410110       -11.1597
  18   2.0000      -0.403294       -10.9742
  19   2.0000      -0.328965        -8.9516
  20   0.0000       0.035437         0.9643
  21   0.0000       0.036167         0.9841
  22   0.0000       0.048994         1.3332
  23   0.0000       0.051406         1.3988
  24   0.0000       0.057761         1.5717

MULLIKEN ATOMIC CHARGES
-----------------------
   0 C :    0.444159
   1 C :    0.444159
   2 C :   -0.370383
   3 C :   -0.370383
   4 H :   -0.415118
   5 H :   -0.415118
   6 C :    0.871376
   7 C :    0.871376
   8 H :   -0.530034
   9 H :   -0.530034
Sum of atomic charges:   -0.0000000

LOEWDIN ATOMIC CHARGES
----------------------
   0 C :   -0.029393
   1 C :   -0.029393
   2 C :   -0.107978
   3 C :   -0.107978
   4 H :    0.012523
   5 H :    0.012523
   6 C :    0.226769
   7 C :    0.226769
   8 H :   -0.101921
   9 H :   -0.101921

  Mayer bond orders larger than 0.100000
B(  0-C ,  1-C ) :   2.0061 B(  0-C ,  2-C ) :   1.8450 B(  0-C ,  3-C ) :  -0.1432
B(  0-C ,  4-H ) :   0.6132 B(  0-C ,  8-H ) :   0.1447 B(  1-C ,  2-C ) :  -0.1432
B(  1-C ,  3-C ) :   1.8450 B(  1-C ,  5-H ) :   0.6132 B(  1-C ,  9-H ) :   0.1447
B(  2-C ,  3-C ) :   0.1131 B(  2-C ,  6-C ) :   2.9578 B(  2-C ,  7-C ) :  -0.1119
B(  2-C ,  8-H ) :   0.5999 B(  3-C ,  6-C ) :  -0.1119 B(  3-C ,  7-C ) :   2.9578
B(  3-C ,  9-H ) :   0.5999 B(  6-C ,  7-C ) :   0.2344 B(  6-C ,  8-H ) :  -0.3082
B(  7-C ,  9-H ) :  -0.3082

MP2 TOTAL ENERGY:     -230.186004440 Eh
FINAL SINGLE POINT ENERGY      -230.186004440495

DIPOLE MOMENT
-------------
                                X             Y             Z
Electronic contribution:     -0.00000      -0.00000       0.00000
Nuclear contribution   :      0.00000       0.00000       0.00000
                        -----------------------------------------
Total Dipole Moment    :     -0.00000      -0.00000       0.00000
                        -----------------------------------------
Magnitude (a.u.)       :      0.00000
Magnitude (Debye)      :      0.00000

Rotational constants in cm-1:     1.600912     0.048604     0.047172
Rotational constants in MHz : 47994.136245  1457.122198  1414.186888

                             ****ORCA TERMINATED NORMALLY****
TOTAL RUN TIME: 0 days 0 hours 0 minutes 28 seconds 480 msec
