                         Program Version 5.0.3 -  RELEASE  -
|  1> !ri-mp2 aug-cc-pvdz aug-cc-pvdz/c tightscf
|  2> %pal nprocs 16 end
|  3>
|  4> * xyz 0 1
|  5> C     -2.320917   -0.461628    0.000000
|  6> H     -2.746079   -0.959757    0.875622
|  7> H     -2.746079   -0.959757   -0.875622
|  8> H     -2.655927    0.575371    0.000000
|  9> C     -0.831837   -0.562138    0.000000
| 10> H     -0.407944   -1.560710    0.000000
| 11> C      0.000000    0.484435    0.000000
| 12> H     -0.409236    1.490531    0.000000
| 13> C      1.415974    0.385941    0.000000
| 14> C      2.618043    0.340629    0.000000
| 15> H      3.677687    0.290883    0.000000
| 16> *
| 17>
| 18>                          ****END OF INPUT****

CARTESIAN COORDINATES (ANGSTROEM)
---------------------------------
  C     -2.320917   -0.461628    0.000000
  H     -2.746079   -0.959757    0.875622
  H     -2.746079   -0.959757   -0.875622
  H     -2.655927    0.575371    0.000000
  C     -0.831837   -0.562138    0.000000
  H     -0.407944   -1.560710    0.000000
  C      0.000000    0.484435    0.000000
  H     -0.409236    1.490531    0.000000
  C      1.415974    0.385941    0.000000
  C      2.618043    0.340629    0.000000
  H      3.677687    0.290883    0.000000

 Total Charge           Charge          ....    0
 Multiplicity           Mult            ....    1
 Number of Electrons    NEL             ....   36
 Basis Dimension        Dim             ....  169

ORBITAL ENERGIES
----------------

  NO   OCC          E(Eh)            E(eV)
   0   2.0000     -11.259278      -306.3805
   1   2.0000     -11.255357      -306.2738
   2   2.0000     -11.242910      -305.9351
   3   2.0000     -11.239998      -305.8559
   4   2.0000     -11.231837      -305.6338
   5   2.0000      -1.105745       -30.0889
   6   2.0000      -1.028731       -27.9932
   7   2.0000      -0.950243       -25.8574
   8   2.0000      -0.803204       -21.8563
   9   2.0000      -0.723467       -19.6865
  10   2.0000      -0.672592       -18.3021
  11   2.0000      -0.611247       -16.6329
  12   2.0000      -0.578280       -15.7358
  13   2.0000      -0.548852       -14.9350
  14   2.0000      -0.517471       -14.0811
  15   2.0000      -0.455336       -12.3903
  16   2.0000      -0.391518       -10.6537
  17   2.0000      -0.331701        -9.0260
  18   0.0000       0.035630         0.9695
  19   0.0000       0.041275         1.1232
  20   0.0000       0.047918         1.3039
  21   0.0000       0.057028         1.5518
  22   0.0000       0.058748         1.5986

MULLIKEN ATOMIC CHARGES
-----------------------
   0 C :    0.160384
   1 H :    0.082154
   2 H :    0.082154
   3 H :   -0.114437
   4 C :    0.173314
   5 H :   -0.409489
   6 C :    0.545671
   7 H :   -0.450354
   8 C :   -0.227953
   9 C :    0.648055
  10 H :   -0.489501
Sum of atomic charges:    0.0000000

LOEWDIN ATOMIC CHARGES
----------------------
   0 C :    0.139139
   1 H :   -0.013300
   2 H :   -0.013300
   3 H :   -0.015961
   4 C :   -0.020258
   5 H :    0.007400
   6 C :   -0.064334
   7 H :    0.001196
   8 C :   -0.121873
   9 C :    0.209841
  10 H :   -0.108550

  Mayer bond orders larger than 0.100000
B(  0-C ,  1-H ) :   0.8869 B(  0-C ,  2-H ) :   0.8869 B(  0-C ,  3-H ) :   0.9591
B(  0-C ,  4-C ) :   1.3452 B(  0-C ,  6-C ) :  -0.1092 B(  0-C ,  8-C ) :   0.1008
B(  4-C ,  5-H ) :   0.5997 B(  4-C ,  6-C ) :   1.9138 B(  4-C ,  8-C ) :  -0.1054
B(  5-H ,  6-C ) :   0.1720 B(  6-C ,  7-H ) :   0.5475 B(  6-C ,  8-C ) :   1.6233
B(  6-C ,  9-C ) :   0.1476 B(  8-C ,  9-C ) :   2.7867 B(  8-C , 10-H ) :   0.3135

MP2 TOTAL ENERGY:     -193.448528914 Eh
FINAL SINGLE POINT ENERGY      -193.448528913805

DIPOLE MOMENT
-------------
                                X             Y             Z
Electronic contribution:      4.94810       0.98908       0.00000
Nuclear contribution   :     -5.40817      -1.14906       0.00000
                        -----------------------------------------
Total Dipole Moment    :     -0.46007      -0.15998       0.00000
                        -----------------------------------------
Magnitude (a.u.)       :      0.48709
Magnitude (Debye)      :      1.23809

Rotational constants in cm-1:     1.317498     0.074961     0.071860
Rotational constants in MHz : 39497.602125  2247.259660  2154.302195

                             ****ORCA TERMINATED NORMALLY****
TOTAL RUN TIME: 0 days 0 hours 0 minutes 26 seconds 718 msec
