                         Program Version 5.0.3 -  RELEASE  -
|  1> !ri-mp2 aug-cc-pvdz aug-cc-pvdz/c tightscf
|  2> %pal nprocs 16 end
|  3>
|  4> * xyz 0 1
|  5> C      1.170211    0.338779    0.232071
|  6> C      0.066000   -0.045993   -0.399570
|  7> C      2.527893   -0.268148    0.055662
|  8> C     -2.338851   -0.455053    0.271000
|  9> C     -1.295746    0.556611   -0.220194
| 10> H      1.103462    1.163582    0.937874
| 11> H      0.129624   -0.873234   -1.104350
| 12> H      3.251170    0.475143   -0.290413
| 13> H      2.510259   -1.084591   -0.666589
| 14> H      2.912006   -0.659771    1.001395
| 15> H     -3.323952    0.006212    0.354652
| 16> H     -2.066008   -0.853268    1.249121
| 17> H     -2.423715   -1.297719   -0.417841
| 18> H     -1.635193    0.971610   -1.175306
| 19> H     -1.234696    1.394857    0.477641
| 20> *
| 21>
| 22>                          ****END OF INPUT****

CARTESIAN COORDINATES (ANGSTROEM)
---------------------------------
  C      1.170211    0.338779    0.232071
  C      0.066000   -0.045993   -0.399570
  C      2.527893   -0.268148    0.055662
  C     -2.338851   -0.455053    0.271000
  C     -1.295746    0.556611   -0.220194
  H      1.103462    1.163582    0.937874
  H      0.129624   -0.873234   -1.104350
  H      3.251170    0.475143   -0.290413
  H      2.510259   -1.084591   -0.666589
  H      2.912006   -0.659771    1.001395
  H     -3.323952    0.006212    0.354652
  H     -2.066008   -0.853268    1.249121
  H     -2.423715   -1.297719   -0.417841
  H     -1.635193    0.971610   -1.175306
  H     -1.234696    1.394857    0.477641

 Total Charge           Charge          ....    0
 Multiplicity           Mult            ....    1
 Number of Electrons    NEL             ....   40
 Basis Dimension        Dim             ....  205

ORBITAL ENERGIES
----------------

  NO   OCC          E(Eh)            E(eV)
   0   2.0000     -11.228156      -305.5337
   1   2.0000     -11.227359      -305.5120
   2   2.0000     -11.224473      -305.4334
   3   2.0000     -11.223911      -305.4182
   4   2.0000     -11.218792      -305.2789
   5   2.0000      -1.087569       -29.5943
   6   2.0000      -1.019152       -27.7325
   7   2.0000      -0.926941       -25.2233
   8   2.0000      -0.831655       -22.6305
   9   2.0000      -0.745266       -20.2797
  10   2.0000      -0.620574       -16.8867
  11   2.0000      -0.618929       -16.8419
  12   2.0000      -0.569390       -15.4939
  13   2.0000      -0.560012       -15.2387
  14   2.0000      -0.549773       -14.9601
  15   2.0000      -0.510978       -13.9044
  16   2.0000      -0.504168       -13.7191
  17   2.0000      -0.480790       -13.0830
  18   2.0000      -0.467486       -12.7209
  19   2.0000      -0.342229        -9.3125
  20   0.0000       0.038039         1.0351
  21   0.0000       0.043241         1.1766
  22   0.0000       0.046942         1.2774
  23   0.0000       0.050489         1.3739
  24   0.0000       0.061780         1.6811

MULLIKEN ATOMIC CHARGES
-----------------------
   0 C :    0.076629
   1 C :    0.797861
   2 C :    0.168890
   3 C :    0.313648
   4 C :    0.067959
   5 H :   -0.482669
   6 H :   -0.510996
   7 H :    0.055170
   8 H :   -0.137347
   9 H :    0.054878
  10 H :   -0.098974
  11 H :   -0.077792
  12 H :   -0.074269
  13 H :   -0.007204
  14 H :   -0.145784
Sum of atomic charges:   -0.0000000

LOEWDIN ATOMIC CHARGES
----------------------
   0 C :   -0.052551
   1 C :   -0.027525
   2 C :    0.128748
   3 C :    0.130549
   4 C :   -0.074944
   5 H :   -0.003139
   6 H :    0.001864
   7 H :   -0.019636
   8 H :   -0.019993
   9 H :   -0.019473
  10 H :   -0.022464
  11 H :   -0.019208
  12 H :   -0.021716
  13 H :    0.010322
  14 H :    0.009166

  Mayer bond orders larger than 0.100000
B(  0-C ,  1-C ) :   2.0097 B(  0-C ,  2-C ) :   1.2104 B(  0-C ,  5-H ) :   0.6376
B(  0-C ,  6-H ) :   0.1146 B(  1-C ,  2-C ) :  -0.1260 B(  1-C ,  4-C ) :   1.1951
B(  1-C ,  6-H ) :   0.4622 B(  2-C ,  7-H ) :   0.9102 B(  2-C ,  8-H ) :   0.9543
B(  2-C ,  9-H ) :   0.9037 B(  3-C ,  4-C ) :   1.1943 B(  3-C , 10-H ) :   0.9015
B(  3-C , 11-H ) :   0.9744 B(  3-C , 12-H ) :   0.9404 B(  4-C , 13-H ) :   0.8674
B(  4-C , 14-H ) :   0.8204

MP2 TOTAL ENERGY:     -195.897367912 Eh
FINAL SINGLE POINT ENERGY      -195.897367911990

DIPOLE MOMENT
-------------
                                X             Y             Z
Electronic contribution:      0.83620       0.82599      -0.38439
Nuclear contribution   :     -0.83231      -0.81103       0.39223
                        -----------------------------------------
Total Dipole Moment    :      0.00389       0.01496       0.00783
                        -----------------------------------------
Magnitude (a.u.)       :      0.01733
Magnitude (Debye)      :      0.04405

Rotational constants in cm-1:     0.580923     0.069491     0.067581
Rotational constants in MHz : 17415.638708  2083.297150  2026.025760

                             ****ORCA TERMINATED NORMALLY****
TOTAL RUN TIME: 0 days 0 hours 0 minutes 33 seconds 957 msec
