                         Program Version 5.0.3 -  RELEASE  -
|  1> !ri-mp2 aug-cc-pvdz aug-cc-pvdz/c tightscf
|  2> %pal nprocs 16 end
|  3>
|  4> * xyz 0 1
|  5> C     0.000000     0.000000       0.763540
|  6> C     0.000000     0.000000      -0.763540
|  7> H     0.000000     1.016074       1.160929
|  8> H     0.000000    -1.016074      -1.160929
|  9> H    -0.879946    -0.508037       1.160929
| 10> H     0.879946     0.508037      -1.160929
| 11> H     0.879946    -0.508037       1.160929
| 12> H    -0.879946     0.508037      -1.160929
| 13> *
| 14>
| 15>                          ****END OF INPUT****

CARTESIAN COORDINATES (ANGSTROEM)
---------------------------------
  C      0.000000    0.000000    0.763540
  C      0.000000    0.000000   -0.763540
  H      0.000000    1.016074    1.160929
  H      0.000000   -1.016074   -1.160929
  H     -0.879946   -0.508037    1.160929
  H      0.879946    0.508037   -1.160929
  H      0.879946   -0.508037    1.160929
  H     -0.879946    0.508037   -1.160929

 Total Charge           Charge          ....    0
 Multiplicity           Mult            ....    1
 Number of Electrons    NEL             ....   18
 Basis Dimension        Dim             ....  100

ORBITAL ENERGIES
----------------

  NO   OCC          E(Eh)            E(eV)
   0   2.0000     -11.218674      -305.2756
   1   2.0000     -11.218084      -305.2596
   2   2.0000      -1.018425       -27.7128
   3   2.0000      -0.842426       -22.9236
   4   2.0000      -0.595302       -16.1990
   5   2.0000      -0.595302       -16.1990
   6   2.0000      -0.509615       -13.8673
   7   2.0000      -0.485390       -13.2081
   8   2.0000      -0.485390       -13.2081
   9   0.0000       0.038419         1.0454
  10   0.0000       0.050955         1.3865
  11   0.0000       0.053663         1.4602
  12   0.0000       0.053663         1.4602
  13   0.0000       0.082557         2.2465

MULLIKEN ATOMIC CHARGES
-----------------------
   0 C :    0.220670
   1 C :    0.220670
   2 H :   -0.073557
   3 H :   -0.073557
   4 H :   -0.073556
   5 H :   -0.073556
   6 H :   -0.073556
   7 H :   -0.073556
Sum of atomic charges:   -0.0000000

LOEWDIN ATOMIC CHARGES
----------------------
   0 C :    0.086314
   1 C :    0.086314
   2 H :   -0.028771
   3 H :   -0.028771
   4 H :   -0.028771
   5 H :   -0.028771
   6 H :   -0.028771
   7 H :   -0.028771

  Mayer bond orders larger than 0.100000
B(  0-C ,  1-C ) :   1.2621 B(  0-C ,  2-H ) :   0.9557 B(  0-C ,  4-H ) :   0.9557
B(  0-C ,  6-H ) :   0.9557 B(  1-C ,  3-H ) :   0.9557 B(  1-C ,  5-H ) :   0.9557
B(  1-C ,  7-H ) :   0.9557

MP2 TOTAL ENERGY:      -79.550614558 Eh
FINAL SINGLE POINT ENERGY       -79.550614557626

DIPOLE MOMENT
-------------
                                X             Y             Z
Electronic contribution:      0.00000      -0.00000      -0.00000
Nuclear contribution   :      0.00000       0.00000       0.00000
                        -----------------------------------------
Total Dipole Moment    :      0.00000      -0.00000      -0.00000
                        -----------------------------------------
Magnitude (a.u.)       :      0.00000
Magnitude (Debye)      :      0.00000

Rotational constants in cm-1:     2.699817     0.666893     0.666893
Rotational constants in MHz : 80938.489135 19992.944148 19992.943565

                             ****ORCA TERMINATED NORMALLY****
TOTAL RUN TIME: 0 days 0 hours 0 minutes 21 seconds 783 msec
