                         Program Version 5.0.3 -  RELEASE  -
|  1> !ri-mp2 aug-cc-pvdz aug-cc-pvdz/c tightscf
|  2> %pal nprocs 16 end
|  3>
|  4> * xyz 0 1
|  5> Cl   -3.711306   -0.250025   -0.222443
|  6> Cl    3.245768   -0.766998   -0.070147
|  7> O     1.080001    0.724444   -0.457102
|  8> N     2.390823    0.873305   -0.035920
|  9> C     0.233303    0.411497    0.671316
| 10> C    -1.182193    0.586458    0.237594
| 11> C    -2.040512   -0.420694    0.228155
| 12> H     0.492240    1.094323    1.483319
| 13> H     0.434639   -0.612867    0.990518
| 14> H    -1.495582    1.578817   -0.060378
| 15> H    -1.781946   -1.432223    0.504925
| 16> H     2.825450    1.289086   -0.858485
| 17> *
| 18>
| 19>                          ****END OF INPUT****

CARTESIAN COORDINATES (ANGSTROEM)
---------------------------------
  Cl    -3.711306   -0.250025   -0.222443
  Cl     3.245768   -0.766998   -0.070147
  O      1.080001    0.724444   -0.457102
  N      2.390823    0.873305   -0.035920
  C      0.233303    0.411497    0.671316
  C     -1.182193    0.586458    0.237594
  C     -2.040512   -0.420694    0.228155
  H      0.492240    1.094323    1.483319
  H      0.434639   -0.612867    0.990518
  H     -1.495582    1.578817   -0.060378
  H     -1.781946   -1.432223    0.504925
  H      2.825450    1.289086   -0.858485

 Total Charge           Charge          ....    0
 Multiplicity           Mult            ....    1
 Number of Electrons    NEL             ....   72
 Basis Dimension        Dim             ....  214

ORBITAL ENERGIES
----------------

  NO   OCC          E(Eh)            E(eV)
   0   2.0000    -104.850955     -2853.1395
   1   2.0000    -104.848463     -2853.0717
   2   2.0000     -20.643037      -561.7256
   3   2.0000     -15.716240      -427.6606
   4   2.0000     -11.318754      -307.9990
   5   2.0000     -11.317576      -307.9669
   6   2.0000     -11.269365      -306.6550
   7   2.0000     -10.574583      -287.7490
   8   2.0000     -10.574556      -287.7483
   9   2.0000      -8.042375      -218.8441
  10   2.0000      -8.042110      -218.8369
  11   2.0000      -8.038946      -218.7508
  12   2.0000      -8.038925      -218.7503
  13   2.0000      -8.038611      -218.7417
  14   2.0000      -8.038348      -218.7346
  15   2.0000      -1.474079       -40.1117
  16   2.0000      -1.186039       -32.2738
  17   2.0000      -1.165652       -31.7190
  18   2.0000      -1.072576       -29.1863
  19   2.0000      -1.010567       -27.4989
  20   2.0000      -0.910228       -24.7686
  21   2.0000      -0.802360       -21.8333
  22   2.0000      -0.732680       -19.9372
  23   2.0000      -0.697253       -18.9732
  24   2.0000      -0.680632       -18.5210
  25   2.0000      -0.634483       -17.2652
  26   2.0000      -0.623793       -16.9743
  27   2.0000      -0.561872       -15.2893
  28   2.0000      -0.539514       -14.6809
  29   2.0000      -0.526240       -14.3197
  30   2.0000      -0.516803       -14.0629
  31   2.0000      -0.464781       -12.6473
  32   2.0000      -0.462901       -12.5962
  33   2.0000      -0.457054       -12.4371
  34   2.0000      -0.422066       -11.4850
  35   2.0000      -0.380166       -10.3448
  36   0.0000       0.035367         0.9624
  37   0.0000       0.042402         1.1538
  38   0.0000       0.049873         1.3571
  39   0.0000       0.054202         1.4749
  40   0.0000       0.066680         1.8145

MULLIKEN ATOMIC CHARGES
-----------------------
   0 Cl:   -0.260108
   1 Cl:    0.186011
   2 O :   -0.845953
   3 N :   -0.114330
   4 C :    0.718892
   5 C :    1.278579
   6 C :   -0.243100
   7 H :   -0.066355
   8 H :   -0.228906
   9 H :   -0.283625
  10 H :   -0.344860
  11 H :    0.203754
Sum of atomic charges:    0.0000000

LOEWDIN ATOMIC CHARGES
----------------------
   0 Cl:    0.516641
   1 Cl:    0.329267
   2 O :   -0.045723
   3 N :   -0.175589
   4 C :   -0.036942
   5 C :   -0.074782
   6 C :   -0.372335
   7 H :    0.005876
   8 H :   -0.004258
   9 H :   -0.000317
  10 H :   -0.045156
  11 H :   -0.096682

  Mayer bond orders larger than 0.100000
B(  0-Cl,  5-C ) :  -0.2607 B(  0-Cl,  6-C ) :   1.0708 B(  1-Cl,  3-N ) :   0.9215
B(  2-O ,  3-N ) :   0.8877 B(  2-O ,  4-C ) :   0.5404 B(  3-N , 11-H ) :   0.9535
B(  4-C ,  5-C ) :   1.0384 B(  4-C ,  6-C ) :   0.1869 B(  4-C ,  7-H ) :   0.9079
B(  4-C ,  8-H ) :   0.9791 B(  5-C ,  6-C ) :   1.0010 B(  5-C ,  9-H ) :   0.7085
B(  5-C , 10-H ) :  -0.1421 B(  6-C , 10-H ) :   1.0383

MP2 TOTAL ENERGY:    -1165.829047431 Eh
FINAL SINGLE POINT ENERGY     -1165.829047430680

DIPOLE MOMENT
-------------
                                X             Y             Z
Electronic contribution:     -0.99988      -2.85301      -2.15275
Nuclear contribution   :      1.11606       3.22726       2.35336
                        -----------------------------------------
Total Dipole Moment    :      0.11617       0.37425       0.20061
                        -----------------------------------------
Magnitude (a.u.)       :      0.44024
Magnitude (Debye)      :      1.11899

Rotational constants in cm-1:     0.226800     0.015932     0.015323
Rotational constants in MHz :  6799.296843   477.623269   459.368975

                             ****ORCA TERMINATED NORMALLY****
TOTAL RUN TIME: 0 days 0 hours 0 minutes 28 seconds 931 msec
