                         Program Version 5.0.3 -  RELEASE  -
|  1> !ri-mp2 aug-cc-pvdz aug-cc-pvdz/c tightscf
|  2> %pal nprocs 16 end
|  3>
|  4> * xyz 0 1
|  5> C     -1.215127   -0.241882   -0.021159
|  6> C      0.077656    0.555024    0.046899
|  7> O      1.241995   -0.256233   -0.108913
|  8> H     -2.078754    0.421353    0.059053
|  9> H     -1.283191   -0.786082   -0.963270
| 10> H     -1.275073   -0.964301    0.796308
| 11> H      0.129488    1.119523    0.984758
| 12> H      0.123133    1.276394   -0.768848
| 13> H      1.273257   -0.895870    0.608864
| 14> *
| 15>
| 16>                          ****END OF INPUT****

CARTESIAN COORDINATES (ANGSTROEM)
---------------------------------
  C     -1.215127   -0.241882   -0.021159
  C      0.077656    0.555024    0.046899
  O      1.241995   -0.256233   -0.108913
  H     -2.078754    0.421353    0.059053
  H     -1.283191   -0.786082   -0.963270
  H     -1.275073   -0.964301    0.796308
  H      0.129488    1.119523    0.984758
  H      0.123133    1.276394   -0.768848
  H      1.273257   -0.895870    0.608864

 Total Charge           Charge          ....    0
 Multiplicity           Mult            ....    1
 Number of Electrons    NEL             ....   26
 Basis Dimension        Dim             ....  123

ORBITAL ENERGIES
----------------

  NO   OCC          E(Eh)            E(eV)
   0   2.0000     -20.564593      -559.5910
   1   2.0000     -11.281811      -306.9937
   2   2.0000     -11.226095      -305.4776
   3   2.0000      -1.357942       -36.9515
   4   2.0000      -1.014288       -27.6002
   5   2.0000      -0.849553       -23.1175
   6   2.0000      -0.686024       -18.6677
   7   2.0000      -0.622083       -16.9277
   8   2.0000      -0.605882       -16.4869
   9   2.0000      -0.544676       -14.8214
  10   2.0000      -0.524860       -14.2822
  11   2.0000      -0.481489       -13.1020
  12   2.0000      -0.442874       -12.0512
  13   0.0000       0.035365         0.9623
  14   0.0000       0.047369         1.2890
  15   0.0000       0.050336         1.3697
  16   0.0000       0.055276         1.5041
  17   0.0000       0.077324         2.1041

MULLIKEN ATOMIC CHARGES
-----------------------
   0 C :    0.211123
   1 C :    0.791348
   2 O :   -0.682241
   3 H :   -0.040492
   4 H :   -0.019062
   5 H :   -0.101192
   6 H :   -0.112020
   7 H :   -0.179479
   8 H :    0.132015
Sum of atomic charges:    0.0000000

LOEWDIN ATOMIC CHARGES
----------------------
   0 C :    0.124779
   1 C :   -0.091553
   2 O :    0.100985
   3 H :   -0.018942
   4 H :   -0.017590
   5 H :   -0.024160
   6 H :   -0.001996
   7 H :   -0.003179
   8 H :   -0.068343

  Mayer bond orders larger than 0.100000
B(  0-C ,  1-C ) :   1.2680 B(  0-C ,  3-H ) :   0.9175 B(  0-C ,  4-H ) :   0.9523
B(  0-C ,  5-H ) :   0.9521 B(  1-C ,  2-O ) :   0.5206 B(  1-C ,  6-H ) :   0.9155
B(  1-C ,  7-H ) :   0.9346 B(  2-O ,  8-H ) :   1.0630

MP2 TOTAL ENERGY:     -154.612893086 Eh
FINAL SINGLE POINT ENERGY      -154.612893086435

DIPOLE MOMENT
-------------
                                X             Y             Z
Electronic contribution:      2.74241      -0.21772      -0.27122
Nuclear contribution   :     -3.27684       0.17698       0.75801
                        -----------------------------------------
Total Dipole Moment    :     -0.53442      -0.04074       0.48678
                        -----------------------------------------
Magnitude (a.u.)       :      0.72403
Magnitude (Debye)      :      1.84035

Rotational constants in cm-1:     1.153023     0.304716     0.269527
Rotational constants in MHz : 34566.765893  9135.152043  8080.219190

                             ****ORCA TERMINATED NORMALLY****
TOTAL RUN TIME: 0 days 0 hours 0 minutes 47 seconds 387 msec
