                         Program Version 5.0.3 -  RELEASE  -
|  1> !ri-mp2 aug-cc-pvdz aug-cc-pvdz/c tightscf
|  2> %pal nprocs 16 end
|  3>
|  4> * xyz 0 1
|  5> C      0.075104    0.359100    0.000098
|  6> C     -3.701789   -0.602670   -0.000001
|  7> C      3.556061   -0.733886   -0.000152
|  8> C     -1.168900   -0.499935    0.000212
|  9> C     -2.468473    0.298186   -0.000293
| 10> C      2.452426    0.299222    0.000029
| 11> O      0.097456    1.565027    0.000074
| 12> O      1.188412   -0.404077    0.000059
| 13> H     -4.618593   -0.012460   -0.000388
| 14> H     -3.723582   -1.248219   -0.880573
| 15> H     -3.723777   -1.247370    0.881188
| 16> H      4.525714   -0.234679   -0.000156
| 17> H      3.498825   -1.368972    0.883727
| 18> H      3.498716   -1.368774   -0.884166
| 19> H     -1.114011   -1.161253   -0.869006
| 20> H     -1.114289   -1.160543    0.869994
| 21> H     -2.485329    0.956406    0.869828
| 22> H     -2.485160    0.955591   -0.871038
| 23> H      2.493919    0.941368   -0.879840
| 24> H      2.494054    0.941198    0.880017
| 25> *
| 26>
| 27>                          ****END OF INPUT****

CARTESIAN COORDINATES (ANGSTROEM)
---------------------------------
  C      0.075104    0.359100    0.000098
  C     -3.701789   -0.602670   -0.000001
  C      3.556061   -0.733886   -0.000152
  C     -1.168900   -0.499935    0.000212
  C     -2.468473    0.298186   -0.000293
  C      2.452426    0.299222    0.000029
  O      0.097456    1.565027    0.000074
  O      1.188412   -0.404077    0.000059
  H     -4.618593   -0.012460   -0.000388
  H     -3.723582   -1.248219   -0.880573
  H     -3.723777   -1.247370    0.881188
  H      4.525714   -0.234679   -0.000156
  H      3.498825   -1.368972    0.883727
  H      3.498716   -1.368774   -0.884166
  H     -1.114011   -1.161253   -0.869006
  H     -1.114289   -1.160543    0.869994
  H     -2.485329    0.956406    0.869828
  H     -2.485160    0.955591   -0.871038
  H      2.493919    0.941368   -0.879840
  H      2.494054    0.941198    0.880017

 Total Charge           Charge          ....    0
 Multiplicity           Mult            ....    1
 Number of Electrons    NEL             ....   64
 Basis Dimension        Dim             ....  292

ORBITAL ENERGIES
----------------

  NO   OCC          E(Eh)            E(eV)
   0   2.0000     -20.605051      -560.6919
   1   2.0000     -20.550835      -559.2167
   2   2.0000     -11.382425      -309.7315
   3   2.0000     -11.293241      -307.3047
   4   2.0000     -11.245197      -305.9974
   5   2.0000     -11.231186      -305.6161
   6   2.0000     -11.229129      -305.5601
   7   2.0000     -11.223364      -305.4033
   8   2.0000      -1.457722       -39.6666
   9   2.0000      -1.358610       -36.9697
  10   2.0000      -1.082834       -29.4654
  11   2.0000      -1.041058       -28.3286
  12   2.0000      -0.967496       -26.3269
  13   2.0000      -0.871718       -23.7207
  14   2.0000      -0.819741       -22.3063
  15   2.0000      -0.769274       -20.9330
  16   2.0000      -0.694123       -18.8880
  17   2.0000      -0.683856       -18.6087
  18   2.0000      -0.665578       -18.1113
  19   2.0000      -0.640445       -17.4274
  20   2.0000      -0.585151       -15.9228
  21   2.0000      -0.579446       -15.7675
  22   2.0000      -0.568515       -15.4701
  23   2.0000      -0.551724       -15.0132
  24   2.0000      -0.539947       -14.6927
  25   2.0000      -0.512332       -13.9413
  26   2.0000      -0.501626       -13.6499
  27   2.0000      -0.499251       -13.5853
  28   2.0000      -0.485988       -13.2244
  29   2.0000      -0.476690       -12.9714
  30   2.0000      -0.454245       -12.3606
  31   2.0000      -0.440206       -11.9786
  32   0.0000       0.034793         0.9468
  33   0.0000       0.039435         1.0731
  34   0.0000       0.046466         1.2644
  35   0.0000       0.047547         1.2938
  36   0.0000       0.056785         1.5452

MULLIKEN ATOMIC CHARGES
-----------------------
   0 C :    0.605380
   1 C :    0.472413
   2 C :    0.288554
   3 C :    0.213092
   4 C :    0.397623
   5 C :    0.738167
   6 O :   -0.693834
   7 O :   -0.819904
   8 H :   -0.059744
   9 H :   -0.080757
  10 H :   -0.080762
  11 H :   -0.043489
  12 H :   -0.037527
  13 H :   -0.037534
  14 H :   -0.101789
  15 H :   -0.101613
  16 H :   -0.169684
  17 H :   -0.169721
  18 H :   -0.159437
  19 H :   -0.159433
Sum of atomic charges:    0.0000000

LOEWDIN ATOMIC CHARGES
----------------------
   0 C :   -0.327044
   1 C :    0.133633
   2 C :    0.139600
   3 C :    0.024076
   4 C :   -0.061621
   5 C :   -0.030252
   6 O :    0.051516
   7 O :    0.069265
   8 H :   -0.019765
   9 H :   -0.019835
  10 H :   -0.019835
  11 H :   -0.014282
  12 H :   -0.015494
  13 H :   -0.015494
  14 H :    0.026821
  15 H :    0.026830
  16 H :    0.015764
  17 H :    0.015771
  18 H :    0.010171
  19 H :    0.010175

  Mayer bond orders larger than 0.100000
B(  0-C ,  3-C ) :   1.0122 B(  0-C ,  6-O ) :   1.7087 B(  0-C ,  7-O ) :   0.5659
B(  1-C ,  3-C ) :  -0.1119 B(  1-C ,  4-C ) :   1.2312 B(  1-C ,  8-H ) :   0.9251
B(  1-C ,  9-H ) :   0.9312 B(  1-C , 10-H ) :   0.9313 B(  2-C ,  5-C ) :   1.2524
B(  2-C , 11-H ) :   0.9207 B(  2-C , 12-H ) :   0.9465 B(  2-C , 13-H ) :   0.9465
B(  3-C ,  4-C ) :   1.1680 B(  3-C ,  6-O ) :  -0.1126 B(  3-C , 14-H ) :   0.8944
B(  3-C , 15-H ) :   0.8945 B(  4-C , 16-H ) :   0.7981 B(  4-C , 17-H ) :   0.7981
B(  5-C ,  7-O ) :   0.6598 B(  5-C , 18-H ) :   0.8647 B(  5-C , 19-H ) :   0.8647

MP2 TOTAL ENERGY:     -385.258658355 Eh
FINAL SINGLE POINT ENERGY      -385.258658354502

DIPOLE MOMENT
-------------
                                X             Y             Z
Electronic contribution:      3.03353       3.38386       0.00045
Nuclear contribution   :     -2.82823      -4.12804      -0.00043
                        -----------------------------------------
Total Dipole Moment    :      0.20531      -0.74418       0.00002
                        -----------------------------------------
Magnitude (a.u.)       :      0.77198
Magnitude (Debye)      :      1.96223

Rotational constants in cm-1:     0.210049     0.026712     0.024226
Rotational constants in MHz :  6297.104177   800.799472   726.281277

                             ****ORCA TERMINATED NORMALLY****
TOTAL RUN TIME: 0 days 0 hours 1 minutes 26 seconds 407 msec
