                         Program Version 5.0.3 -  RELEASE  -
|  1> !ri-mp2 aug-cc-pvdz aug-cc-pvdz/c tightscf
|  2> %pal nprocs 16 end
|  3>
|  4> * xyz 0 1
|  5> Cl    -2.048706    0.016035   -0.000004
|  6> N      3.079563   -0.194242    0.000006
|  7> C      0.597673    0.488341    0.000004
|  8> C     -0.380235   -0.415943   -0.000003
|  9> C      1.964239    0.097426    0.000005
| 10> H      0.384661    1.548887    0.000008
| 11> H     -0.203660   -1.480729   -0.000008
| 12> *
| 13>
| 14>                          ****END OF INPUT****

CARTESIAN COORDINATES (ANGSTROEM)
---------------------------------
  Cl    -2.048706    0.016035   -0.000004
  N      3.079563   -0.194242    0.000006
  C      0.597673    0.488341    0.000004
  C     -0.380235   -0.415943   -0.000003
  C      1.964239    0.097426    0.000005
  H      0.384661    1.548887    0.000008
  H     -0.203660   -1.480729   -0.000008

 Total Charge           Charge          ....    0
 Multiplicity           Mult            ....    1
 Number of Electrons    NEL             ....   44
 Basis Dimension        Dim             ....  137

ORBITAL ENERGIES
----------------

  NO   OCC          E(Eh)            E(eV)
   0   2.0000    -104.877284     -2853.8560
   1   2.0000     -15.599176      -424.4752
   2   2.0000     -11.359288      -309.1019
   3   2.0000     -11.313118      -307.8456
   4   2.0000     -11.301466      -307.5285
   5   2.0000     -10.603415      -288.5336
   6   2.0000      -8.071267      -219.6303
   7   2.0000      -8.067705      -219.5334
   8   2.0000      -8.067654      -219.5320
   9   2.0000      -1.244225       -33.8571
  10   2.0000      -1.202435       -32.7199
  11   2.0000      -1.083155       -29.4742
  12   2.0000      -0.874082       -23.7850
  13   2.0000      -0.762591       -20.7512
  14   2.0000      -0.673869       -18.3369
  15   2.0000      -0.603608       -16.4250
  16   2.0000      -0.567768       -15.4497
  17   2.0000      -0.562232       -15.2991
  18   2.0000      -0.511105       -13.9079
  19   2.0000      -0.491225       -13.3669
  20   2.0000      -0.482246       -13.1226
  21   2.0000      -0.393732       -10.7140
  22   0.0000       0.033091         0.9005
  23   0.0000       0.041264         1.1229
  24   0.0000       0.057504         1.5648
  25   0.0000       0.068404         1.8614
  26   0.0000       0.092775         2.5245

MULLIKEN ATOMIC CHARGES
-----------------------
   0 Cl:   -0.214137
   1 N :   -0.240761
   2 C :    1.774347
   3 C :   -0.127972
   4 C :   -0.695069
   5 H :   -0.247889
   6 H :   -0.248518
Sum of atomic charges:    0.0000000

LOEWDIN ATOMIC CHARGES
----------------------
   0 Cl:    0.562998
   1 N :    0.083857
   2 C :   -0.091804
   3 C :   -0.351894
   4 C :   -0.171531
   5 H :    0.000865
   6 H :   -0.032491

  Mayer bond orders larger than 0.100000
B(  0-Cl,  2-C ) :  -0.2602 B(  0-Cl,  3-C ) :   1.1147 B(  1-N ,  2-C ) :  -0.1260
B(  1-N ,  4-C ) :   2.6471 B(  2-C ,  3-C ) :   1.1545 B(  2-C ,  4-C ) :   0.2459
B(  2-C ,  5-H ) :   0.6976 B(  2-C ,  6-H ) :  -0.1392 B(  3-C ,  4-C ) :   0.1394
B(  3-C ,  6-H ) :   1.0815

MP2 TOTAL ENERGY:     -629.409449846 Eh
FINAL SINGLE POINT ENERGY      -629.409449845550

DIPOLE MOMENT
-------------
                                X             Y             Z
Electronic contribution:     -4.13341       0.10103      -0.00001
Nuclear contribution   :      2.95574       0.04162       0.00001
                        -----------------------------------------
Total Dipole Moment    :     -1.17767       0.14265      -0.00000
                        -----------------------------------------
Magnitude (a.u.)       :      1.18627
Magnitude (Debye)      :      3.01527

Rotational constants in cm-1:     1.649546     0.050458     0.048960
Rotational constants in MHz : 49452.130015  1512.691630  1467.793289

                             ****ORCA TERMINATED NORMALLY****
TOTAL RUN TIME: 0 days 0 hours 0 minutes 23 seconds 580 msec
