                         Program Version 5.0.3 -  RELEASE  -
|  1> !ri-mp2 aug-cc-pvdz aug-cc-pvdz/c tightscf
|  2> %pal nprocs 16 end
|  3>
|  4> * xyz 0 1
|  5> C      2.426570    0.268454   -0.038318
|  6> H      2.760369    0.116017    0.990136
|  7> H      3.253108    0.001930   -0.698500
|  8> H      2.233139    1.334903   -0.166770
|  9> C      1.182111   -0.565869   -0.339346
| 10> H      1.417681   -1.627286   -0.214177
| 11> H      0.901208   -0.440117   -1.390298
| 12> C     -1.860514    0.318742   -0.486059
| 13> H     -2.881941    0.608681   -0.244065
| 14> H     -1.761084    0.301163   -1.570736
| 15> C     -0.724980    1.118216    0.203651
| 16> H     -1.069190    1.647720    1.091661
| 17> H     -0.170207    1.821261   -0.418230
| 18> C     -0.010079   -0.222816    0.548294
| 19> H      0.287769   -0.318234    1.594712
| 20> C     -1.322720   -0.972916    0.181963
| 21> H     -1.213766   -1.850521   -0.456380
| 22> H     -1.899417   -1.258384    1.061532
| 23> *
| 24>
| 25>                          ****END OF INPUT****

CARTESIAN COORDINATES (ANGSTROEM)
---------------------------------
  C      2.426570    0.268454   -0.038318
  H      2.760369    0.116017    0.990136
  H      3.253108    0.001930   -0.698500
  H      2.233139    1.334903   -0.166770
  C      1.182111   -0.565869   -0.339346
  H      1.417681   -1.627286   -0.214177
  H      0.901208   -0.440117   -1.390298
  C     -1.860514    0.318742   -0.486059
  H     -2.881941    0.608681   -0.244065
  H     -1.761084    0.301163   -1.570736
  C     -0.724980    1.118216    0.203651
  H     -1.069190    1.647720    1.091661
  H     -0.170207    1.821261   -0.418230
  C     -0.010079   -0.222816    0.548294
  H      0.287769   -0.318234    1.594712
  C     -1.322720   -0.972916    0.181963
  H     -1.213766   -1.850521   -0.456380
  H     -1.899417   -1.258384    1.061532

 Total Charge           Charge          ....    0
 Multiplicity           Mult            ....    1
 Number of Electrons    NEL             ....   48
 Basis Dimension        Dim             ....  246

ORBITAL ENERGIES
----------------

  NO   OCC          E(Eh)            E(eV)
   0   2.0000     -11.222667      -305.3843
   1   2.0000     -11.220439      -305.3237
   2   2.0000     -11.218446      -305.2694
   3   2.0000     -11.216991      -305.2298
   4   2.0000     -11.216745      -305.2231
   5   2.0000     -11.215437      -305.1876
   6   2.0000      -1.128531       -30.7089
   7   2.0000      -1.024524       -27.8787
   8   2.0000      -0.901529       -24.5319
   9   2.0000      -0.891281       -24.2530
  10   2.0000      -0.817557       -22.2469
  11   2.0000      -0.724782       -19.7223
  12   2.0000      -0.655908       -17.8482
  13   2.0000      -0.631735       -17.1904
  14   2.0000      -0.595310       -16.1992
  15   2.0000      -0.561294       -15.2736
  16   2.0000      -0.537584       -14.6284
  17   2.0000      -0.522837       -14.2271
  18   2.0000      -0.499809       -13.6005
  19   2.0000      -0.486721       -13.2443
  20   2.0000      -0.462783       -12.5930
  21   2.0000      -0.436595       -11.8804
  22   2.0000      -0.420172       -11.4335
  23   2.0000      -0.417783       -11.3684
  24   0.0000       0.037965         1.0331
  25   0.0000       0.043763         1.1909
  26   0.0000       0.046187         1.2568
  27   0.0000       0.047205         1.2845
  28   0.0000       0.061867         1.6835

MULLIKEN ATOMIC CHARGES
-----------------------
   0 C :    0.459293
   1 H :   -0.076790
   2 H :   -0.071352
   3 H :   -0.098591
   4 C :    0.314858
   5 H :   -0.121292
   6 H :   -0.121619
   7 C :    0.403217
   8 H :   -0.271817
   9 H :   -0.250482
  10 C :    0.775148
  11 H :   -0.248130
  12 H :   -0.318826
  13 C :   -0.311885
  14 H :   -0.426014
  15 C :    0.874339
  16 H :   -0.289917
  17 H :   -0.220139
Sum of atomic charges:   -0.0000000

LOEWDIN ATOMIC CHARGES
----------------------
   0 C :    0.137604
   1 H :   -0.018316
   2 H :   -0.020703
   3 H :   -0.024150
   4 C :   -0.055832
   5 H :    0.015827
   6 H :    0.018021
   7 C :    0.020099
   8 H :   -0.005910
   9 H :   -0.000364
  10 C :    0.038241
  11 H :    0.004783
  12 H :   -0.003398
  13 C :   -0.177982
  14 H :    0.027528
  15 C :    0.040123
  16 H :    0.000766
  17 H :    0.003664

  Mayer bond orders larger than 0.100000
B(  0-C ,  1-H ) :   0.9231 B(  0-C ,  2-H ) :   0.8903 B(  0-C ,  3-H ) :   0.9537
B(  0-C ,  4-C ) :   1.1661 B(  4-C ,  5-H ) :   0.7724 B(  4-C ,  6-H ) :   0.7299
B(  4-C , 13-C ) :   1.2538 B(  5-H ,  6-H ) :  -0.1320 B(  6-H , 10-C ) :  -0.1029
B(  6-H , 13-C ) :   0.3378 B(  6-H , 15-C ) :  -0.1022 B(  7-C ,  8-H ) :   0.8123
B(  7-C ,  9-H ) :   0.7921 B(  7-C , 10-C ) :   1.1635 B(  7-C , 15-C ) :   1.1565
B(  8-H ,  9-H ) :  -0.1736 B( 10-C , 11-H ) :   0.7153 B( 10-C , 12-H ) :   0.7021
B( 10-C , 13-C ) :   1.1104 B( 10-C , 14-H ) :   0.1273 B( 10-C , 15-C ) :  -0.1458
B( 11-H , 12-H ) :  -0.1738 B( 11-H , 13-C ) :   0.1223 B( 13-C , 14-H ) :   0.4400
B( 13-C , 15-C ) :   1.0906 B( 13-C , 16-H ) :   0.1035 B( 13-C , 17-H ) :   0.1393
B( 15-C , 16-H ) :   0.6965 B( 15-C , 17-H ) :   0.6805 B( 16-H , 17-H ) :  -0.1678

MP2 TOTAL ENERGY:     -235.079606035 Eh
FINAL SINGLE POINT ENERGY      -235.079606034993

DIPOLE MOMENT
-------------
                                X             Y             Z
Electronic contribution:     -1.98149      -0.37918       0.47003
Nuclear contribution   :      1.98978       0.36111      -0.45106
                        -----------------------------------------
Total Dipole Moment    :      0.00829      -0.01807       0.01897
                        -----------------------------------------
Magnitude (a.u.)       :      0.02748
Magnitude (Debye)      :      0.06984

Rotational constants in cm-1:     0.243048     0.076432     0.067495
Rotational constants in MHz :  7286.380766  2291.373917  2023.437919

                             ****ORCA TERMINATED NORMALLY****
TOTAL RUN TIME: 0 days 0 hours 0 minutes 54 seconds 482 msec
