                         Program Version 5.0.3 -  RELEASE  -
|  1> !ri-mp2 aug-cc-pvdz aug-cc-pvdz/c tightscf
|  2> %pal nprocs 16 end
|  3>
|  4> * xyz 0 1
|  5> C     -1.030686   -0.636526    0.000000
|  6> C      0.000000    0.445344    0.000000
|  7> N      1.241167    0.190751    0.000000
|  8> H     -0.556818   -1.615743    0.000000
|  9> H     -1.676866   -0.544559    0.876683
| 10> H     -1.676866   -0.544559   -0.876683
| 11> H     -0.389088    1.470939    0.000000
| 12> H      1.795584    1.045760    0.000000
| 13> *
| 14>
| 15>                          ****END OF INPUT****

CARTESIAN COORDINATES (ANGSTROEM)
---------------------------------
  C     -1.030686   -0.636526    0.000000
  C      0.000000    0.445344    0.000000
  N      1.241167    0.190751    0.000000
  H     -0.556818   -1.615743    0.000000
  H     -1.676866   -0.544559    0.876683
  H     -1.676866   -0.544559   -0.876683
  H     -0.389088    1.470939    0.000000
  H      1.795584    1.045760    0.000000

 Total Charge           Charge          ....    0
 Multiplicity           Mult            ....    1
 Number of Electrons    NEL             ....   24
 Basis Dimension        Dim             ....  114

ORBITAL ENERGIES
----------------

  NO   OCC          E(Eh)            E(eV)
   0   2.0000     -15.559371      -423.3920
   1   2.0000     -11.292230      -307.2772
   2   2.0000     -11.234122      -305.6960
   3   2.0000      -1.213171       -33.0121
   4   2.0000      -0.995205       -27.0809
   5   2.0000      -0.779268       -21.2050
   6   2.0000      -0.695469       -18.9247
   7   2.0000      -0.581103       -15.8126
   8   2.0000      -0.568793       -15.4777
   9   2.0000      -0.545433       -14.8420
  10   2.0000      -0.428714       -11.6659
  11   2.0000      -0.419289       -11.4094
  12   0.0000       0.033648         0.9156
  13   0.0000       0.047186         1.2840
  14   0.0000       0.056401         1.5348
  15   0.0000       0.057055         1.5526
  16   0.0000       0.077105         2.0981

MULLIKEN ATOMIC CHARGES
-----------------------
   0 C :    0.179082
   1 C :    0.569864
   2 N :   -0.530867
   3 H :   -0.051779
   4 H :    0.013975
   5 H :    0.013975
   6 H :   -0.228884
   7 H :    0.034635
Sum of atomic charges:   -0.0000000

LOEWDIN ATOMIC CHARGES
----------------------
   0 C :    0.139311
   1 C :   -0.140675
   2 N :    0.135122
   3 H :   -0.015333
   4 H :   -0.016899
   5 H :   -0.016899
   6 H :    0.005873
   7 H :   -0.090500

  Mayer bond orders larger than 0.100000
B(  0-C ,  1-C ) :   1.1810 B(  0-C ,  3-H ) :   0.9730 B(  0-C ,  4-H ) :   0.9200
B(  0-C ,  5-H ) :   0.9200 B(  1-C ,  2-N ) :   1.7896 B(  1-C ,  6-H ) :   0.8005
B(  2-N ,  7-H ) :   1.0007

MP2 TOTAL ENERGY:     -133.558203402 Eh
FINAL SINGLE POINT ENERGY      -133.558203401674

DIPOLE MOMENT
-------------
                                X             Y             Z
Electronic contribution:      1.92507       0.77618       0.00000
Nuclear contribution   :     -2.61299      -0.19575       0.00000
                        -----------------------------------------
Total Dipole Moment    :     -0.68792       0.58043       0.00000
                        -----------------------------------------
Magnitude (a.u.)       :      0.90007
Magnitude (Debye)      :      2.28780

Rotational constants in cm-1:     1.807848     0.326557     0.291412
Rotational constants in MHz : 54197.928559  9789.941817  8736.314692

                             ****ORCA TERMINATED NORMALLY****
TOTAL RUN TIME: 0 days 0 hours 0 minutes 44 seconds 921 msec
