                         Program Version 5.0.3 -  RELEASE  -
|  1> !ri-mp2 aug-cc-pvdz aug-cc-pvdz/c tightscf
|  2> %pal nprocs 16 end
|  3>
|  4> * xyz 0 1
|  5> C      1.249205   -0.196057    0.013814
|  6> C      0.069711    0.426754   -0.000397
|  7> N     -1.181689   -0.169404   -0.079242
|  8> H      1.330242   -1.275684    0.016682
|  9> H      2.164905    0.373573    0.006405
| 10> H      0.029960    1.509834   -0.008170
| 11> H     -1.221005   -1.153102    0.136560
| 12> H     -1.945772    0.347030    0.322711
| 13> *
| 14>
| 15>                          ****END OF INPUT****

CARTESIAN COORDINATES (ANGSTROEM)
---------------------------------
  C      1.249205   -0.196057    0.013814
  C      0.069711    0.426754   -0.000397
  N     -1.181689   -0.169404   -0.079242
  H      1.330242   -1.275684    0.016682
  H      2.164905    0.373573    0.006405
  H      0.029960    1.509834   -0.008170
  H     -1.221005   -1.153102    0.136560
  H     -1.945772    0.347030    0.322711

 Total Charge           Charge          ....    0
 Multiplicity           Mult            ....    1
 Number of Electrons    NEL             ....   24
 Basis Dimension        Dim             ....  114

ORBITAL ENERGIES
----------------

  NO   OCC          E(Eh)            E(eV)
   0   2.0000     -15.572510      -423.7496
   1   2.0000     -11.275654      -306.8261
   2   2.0000     -11.205752      -304.9240
   3   2.0000      -1.214002       -33.0347
   4   2.0000      -0.997171       -27.1344
   5   2.0000      -0.792006       -21.5516
   6   2.0000      -0.702335       -19.1115
   7   2.0000      -0.638403       -17.3718
   8   2.0000      -0.573556       -15.6072
   9   2.0000      -0.518389       -14.1061
  10   2.0000      -0.493816       -13.4374
  11   2.0000      -0.315998        -8.5988
  12   0.0000       0.034256         0.9322
  13   0.0000       0.046990         1.2787
  14   0.0000       0.050339         1.3698
  15   0.0000       0.069857         1.9009
  16   0.0000       0.074846         2.0367

MULLIKEN ATOMIC CHARGES
-----------------------
   0 C :    0.605166
   1 C :    0.741582
   2 N :   -0.368081
   3 H :   -0.321144
   4 H :   -0.283944
   5 H :   -0.330863
   6 H :   -0.036662
   7 H :   -0.006054
Sum of atomic charges:   -0.0000000

LOEWDIN ATOMIC CHARGES
----------------------
   0 C :    0.131325
   1 C :   -0.137156
   2 N :    0.196601
   3 H :   -0.055215
   4 H :   -0.061981
   5 H :   -0.000131
   6 H :   -0.033042
   7 H :   -0.040401

  Mayer bond orders larger than 0.100000
B(  0-C ,  1-C ) :   2.0065 B(  0-C ,  3-H ) :   0.8484 B(  0-C ,  4-H ) :   0.8073
B(  1-C ,  2-N ) :   0.7971 B(  1-C ,  4-H ) :   0.1024 B(  1-C ,  5-H ) :   0.8331
B(  2-N ,  6-H ) :   1.1277 B(  2-N ,  7-H ) :   1.1141 B(  3-H ,  4-H ) :  -0.1650

MP2 TOTAL ENERGY:     -133.551680279 Eh
FINAL SINGLE POINT ENERGY      -133.551680279029

DIPOLE MOMENT
-------------
                                X             Y             Z
Electronic contribution:     -0.85072       0.22463      -0.13480
Nuclear contribution   :      0.36775      -0.20862       0.49577
                        -----------------------------------------
Total Dipole Moment    :     -0.48297       0.01601       0.36098
                        -----------------------------------------
Magnitude (a.u.)       :      0.60318
Magnitude (Debye)      :      1.53315

Rotational constants in cm-1:     1.918156     0.334511     0.286749
Rotational constants in MHz : 57504.874685 10028.375310  8596.529436

                             ****ORCA TERMINATED NORMALLY****
TOTAL RUN TIME: 0 days 0 hours 0 minutes 47 seconds 902 msec
