                         Program Version 5.0.3 -  RELEASE  -
|  1> !ri-mp2 aug-cc-pvdz aug-cc-pvdz/c tightscf
|  2> %pal nprocs 16 end
|  3>
|  4> * xyz 0 1
|  5> C      0.146734   -1.257992   -0.001003
|  6> F      1.486654   -1.231502    0.002109
|  7> H     -0.279000   -2.250688   -0.004801
|  8> C     -0.595977   -0.163277    0.000497
|  9> F     -1.944444   -0.328243   -0.001783
| 10> C     -0.254498    1.291824    0.004837
| 11> F      1.109404    1.503367   -0.004948
| 12> H     -0.674434    1.763787    0.897350
| 13> H     -0.688638    1.770979   -0.876947
| 14> *
| 15>
| 16>                          ****END OF INPUT****

CARTESIAN COORDINATES (ANGSTROEM)
---------------------------------
  C      0.146734   -1.257992   -0.001003
  F      1.486654   -1.231502    0.002109
  H     -0.279000   -2.250688   -0.004801
  C     -0.595977   -0.163277    0.000497
  F     -1.944444   -0.328243   -0.001783
  C     -0.254498    1.291824    0.004837
  F      1.109404    1.503367   -0.004948
  H     -0.674434    1.763787    0.897350
  H     -0.688638    1.770979   -0.876947

 Total Charge           Charge          ....    0
 Multiplicity           Mult            ....    1
 Number of Electrons    NEL             ....   48
 Basis Dimension        Dim             ....  165

ORBITAL ENERGIES
----------------

  NO   OCC          E(Eh)            E(eV)
   0   2.0000     -26.344739      -716.8768
   1   2.0000     -26.334883      -716.6086
   2   2.0000     -26.314861      -716.0638
   3   2.0000     -11.355252      -308.9921
   4   2.0000     -11.353484      -308.9440
   5   2.0000     -11.346350      -308.7499
   6   2.0000      -1.652418       -44.9646
   7   2.0000      -1.643566       -44.7237
   8   2.0000      -1.617781       -44.0221
   9   2.0000      -1.098322       -29.8869
  10   2.0000      -0.994013       -27.0485
  11   2.0000      -0.844525       -22.9807
  12   2.0000      -0.777391       -21.1539
  13   2.0000      -0.765825       -20.8392
  14   2.0000      -0.740909       -20.1612
  15   2.0000      -0.708153       -19.2698
  16   2.0000      -0.706137       -19.2150
  17   2.0000      -0.696732       -18.9591
  18   2.0000      -0.693259       -18.8645
  19   2.0000      -0.658000       -17.9051
  20   2.0000      -0.621852       -16.9214
  21   2.0000      -0.561348       -15.2750
  22   2.0000      -0.544897       -14.8274
  23   2.0000      -0.388685       -10.5767
  24   0.0000       0.035113         0.9555
  25   0.0000       0.044089         1.1997
  26   0.0000       0.052530         1.4294
  27   0.0000       0.078272         2.1299
  28   0.0000       0.099387         2.7045

MULLIKEN ATOMIC CHARGES
-----------------------
   0 C :    1.113097
   1 F :   -0.650379
   2 H :   -0.210536
   3 C :    0.088540
   4 F :   -0.741175
   5 C :    1.007218
   6 F :   -0.586623
   7 H :   -0.009310
   8 H :   -0.010832
Sum of atomic charges:    0.0000000

LOEWDIN ATOMIC CHARGES
----------------------
   0 C :    0.038340
   1 F :    0.043803
   2 H :   -0.000771
   3 C :   -0.219486
   4 F :    0.053029
   5 C :    0.042337
   6 F :    0.013432
   7 H :    0.014702
   8 H :    0.014614

  Mayer bond orders larger than 0.100000
B(  0-C ,  1-F ) :   0.2593 B(  0-C ,  2-H ) :   0.6465 B(  0-C ,  3-C ) :   2.0210
B(  0-C ,  4-F ) :   0.1222 B(  1-F ,  3-C ) :   0.2011 B(  2-H ,  3-C ) :   0.1790
B(  3-C ,  4-F ) :   0.1052 B(  3-C ,  5-C ) :   1.1397 B(  3-C ,  6-F ) :   0.1929
B(  3-C ,  7-H ) :   0.1033 B(  3-C ,  8-H ) :   0.1042 B(  5-C ,  6-F ) :   0.3124
B(  5-C ,  7-H ) :   0.8811 B(  5-C ,  8-H ) :   0.8801

MP2 TOTAL ENERGY:     -414.675828923 Eh
FINAL SINGLE POINT ENERGY      -414.675828923293

DIPOLE MOMENT
-------------
                                X             Y             Z
Electronic contribution:      1.46094      -1.22200      -0.01356
Nuclear contribution   :     -2.14512       1.25741       0.01893
                        -----------------------------------------
Total Dipole Moment    :     -0.68418       0.03541       0.00537
                        -----------------------------------------
Magnitude (a.u.)       :      0.68512
Magnitude (Debye)      :      1.74143

Rotational constants in cm-1:     0.133925     0.116004     0.062898
Rotational constants in MHz :  4014.978174  3477.715466  1885.622088

                             ****ORCA TERMINATED NORMALLY****
TOTAL RUN TIME: 0 days 0 hours 0 minutes 18 seconds 943 msec
