                         Program Version 5.0.3 -  RELEASE  -
|  1> !ri-mp2 aug-cc-pvdz aug-cc-pvdz/c tightscf
|  2> %pal nprocs 16 end
|  3>
|  4> * xyz 0 1
|  5> C      3.202611   -0.606388   -0.196480
|  6> C      2.057940    0.309114    0.175790
|  7> O      0.826178   -0.417197   -0.065662
|  8> S     -0.533353    0.384629    0.403904
|  9> O     -0.730154    1.533535   -0.482721
| 10> O     -1.448610   -0.871512   -0.158233
| 11> C     -2.865846   -0.639006   -0.072695
| 12> H      3.194710   -1.508286    0.414470
| 13> H      3.137485   -0.896520   -1.244359
| 14> H      4.150175   -0.089481   -0.039400
| 15> H      2.057795    1.214467   -0.432283
| 16> H      2.110019    0.595329    1.230062
| 17> H     -3.159148    0.196081   -0.707639
| 18> H     -3.330310   -1.554113   -0.428240
| 19> H     -3.174611   -0.452460    0.958160
| 20> *
| 21>
| 22>                          ****END OF INPUT****

CARTESIAN COORDINATES (ANGSTROEM)
---------------------------------
  C      3.202611   -0.606388   -0.196480
  C      2.057940    0.309114    0.175790
  O      0.826178   -0.417197   -0.065662
  S     -0.533353    0.384629    0.403904
  O     -0.730154    1.533535   -0.482721
  O     -1.448610   -0.871512   -0.158233
  C     -2.865846   -0.639006   -0.072695
  H      3.194710   -1.508286    0.414470
  H      3.137485   -0.896520   -1.244359
  H      4.150175   -0.089481   -0.039400
  H      2.057795    1.214467   -0.432283
  H      2.110019    0.595329    1.230062
  H     -3.159148    0.196081   -0.707639
  H     -3.330310   -1.554113   -0.428240
  H     -3.174611   -0.452460    0.958160

 Total Charge           Charge          ....    0
 Multiplicity           Mult            ....    1
 Number of Electrons    NEL             ....   66
 Basis Dimension        Dim             ....  237

ORBITAL ENERGIES
----------------

  NO   OCC          E(Eh)            E(eV)
   0   2.0000     -92.177628     -2508.2808
   1   2.0000     -20.612942      -560.9067
   2   2.0000     -20.611009      -560.8541
   3   2.0000     -20.555755      -559.3505
   4   2.0000     -11.306010      -307.6522
   5   2.0000     -11.302167      -307.5476
   6   2.0000     -11.236298      -305.7552
   7   2.0000      -9.152388      -249.0491
   8   2.0000      -6.834809      -185.9846
   9   2.0000      -6.834248      -185.9693
  10   2.0000      -6.830847      -185.8768
  11   2.0000      -1.471227       -40.0341
  12   2.0000      -1.380290       -37.5596
  13   2.0000      -1.352983       -36.8165
  14   2.0000      -1.048892       -28.5418
  15   2.0000      -0.973972       -26.5031
  16   2.0000      -0.879955       -23.9448
  17   2.0000      -0.844570       -22.9819
  18   2.0000      -0.720426       -19.6038
  19   2.0000      -0.697099       -18.9690
  20   2.0000      -0.683224       -18.5915
  21   2.0000      -0.659873       -17.9561
  22   2.0000      -0.624421       -16.9914
  23   2.0000      -0.596540       -16.2327
  24   2.0000      -0.592938       -16.1347
  25   2.0000      -0.549829       -14.9616
  26   2.0000      -0.547600       -14.9010
  27   2.0000      -0.536181       -14.5902
  28   2.0000      -0.525513       -14.2999
  29   2.0000      -0.484521       -13.1845
  30   2.0000      -0.475501       -12.9390
  31   2.0000      -0.464132       -12.6297
  32   2.0000      -0.407712       -11.0944
  33   0.0000       0.035599         0.9687
  34   0.0000       0.039584         1.0771
  35   0.0000       0.048333         1.3152
  36   0.0000       0.053212         1.4480
  37   0.0000       0.060842         1.6556

MULLIKEN ATOMIC CHARGES
-----------------------
   0 C :    0.292350
   1 C :    0.656943
   2 O :   -1.030581
   3 S :    2.097268
   4 O :   -1.035876
   5 O :   -1.028931
   6 C :    0.833198
   7 H :   -0.060614
   8 H :   -0.057706
   9 H :   -0.045791
  10 H :   -0.144172
  11 H :   -0.113521
  12 H :   -0.060539
  13 H :   -0.245963
  14 H :   -0.056063
Sum of atomic charges:    0.0000000

LOEWDIN ATOMIC CHARGES
----------------------
   0 C :    0.132228
   1 C :   -0.113372
   2 O :   -0.251516
   3 S :    1.076506
   4 O :   -0.505619
   5 O :   -0.275133
   6 C :    0.093928
   7 H :   -0.015607
   8 H :   -0.013861
   9 H :   -0.013972
  10 H :   -0.004342
  11 H :   -0.006468
  12 H :   -0.034802
  13 H :   -0.032123
  14 H :   -0.035848

  Mayer bond orders larger than 0.100000
B(  0-C ,  1-C ) :   1.2744 B(  0-C ,  7-H ) :   0.9560 B(  0-C ,  8-H ) :   0.9541
B(  0-C ,  9-H ) :   0.9165 B(  1-C ,  2-O ) :   0.5907 B(  1-C , 10-H ) :   0.9071
B(  1-C , 11-H ) :   0.9072 B(  2-O ,  3-S ) :   0.6092 B(  2-O ,  4-O ) :   0.1219
B(  2-O ,  5-O ) :  -0.1229 B(  3-S ,  4-O ) :   1.1745 B(  3-S ,  5-O ) :   0.5757
B(  5-O ,  6-C ) :   0.6785 B(  6-C , 12-H ) :   0.9550 B(  6-C , 13-H ) :   1.0379
B(  6-C , 14-H ) :   0.9516

MP2 TOTAL ENERGY:     -741.542009698 Eh
FINAL SINGLE POINT ENERGY      -741.542009697616

DIPOLE MOMENT
-------------
                                X             Y             Z
Electronic contribution:     -4.81424       2.10993       1.00491
Nuclear contribution   :      4.97318      -2.49894      -0.27239
                        -----------------------------------------
Total Dipole Moment    :      0.15893      -0.38901       0.73252
                        -----------------------------------------
Magnitude (a.u.)       :      0.84449
Magnitude (Debye)      :      2.14653

Rotational constants in cm-1:     0.185780     0.039408     0.034562
Rotational constants in MHz :  5569.544100  1181.431062  1036.143402

                             ****ORCA TERMINATED NORMALLY****
TOTAL RUN TIME: 0 days 0 hours 1 minutes 32 seconds 566 msec
