                         Program Version 5.0.3 -  RELEASE  -
|  1> !ri-mp2 aug-cc-pvdz aug-cc-pvdz/c tightscf
|  2> %pal nprocs 16 end
|  3>
|  4> * xyz 0 1
|  5> C     -2.527968   -0.340410    0.248367
|  6> H     -2.845198   -0.840786    1.167646
|  7> H     -3.212398   -0.673991   -0.536560
|  8> H     -2.678013    0.728124    0.387385
|  9> C     -0.091832    1.594432   -0.057239
| 10> H     -1.098162    1.981097    0.081533
| 11> H      0.337517    2.085539   -0.935154
| 12> H      0.504466    1.914750    0.800675
| 13> C      2.353687   -0.333741    0.539518
| 14> H      2.021622   -0.818646    1.458831
| 15> H      2.559701    0.712205    0.768285
| 16> C      1.300293   -0.481395   -0.567402
| 17> H      1.676589    0.006126   -1.473854
| 18> H      1.184446   -1.539282   -0.809716
| 19> C     -1.113898   -0.703078   -0.090968
| 20> H     -0.948822   -1.766018   -0.246586
| 21> C     -0.053177    0.098298   -0.222235
| 22> H      3.295617   -0.793751    0.237267
| 23> *
| 24>
| 25>                          ****END OF INPUT****

CARTESIAN COORDINATES (ANGSTROEM)
---------------------------------
  C     -2.527968   -0.340410    0.248367
  H     -2.845198   -0.840786    1.167646
  H     -3.212398   -0.673991   -0.536560
  H     -2.678013    0.728124    0.387385
  C     -0.091832    1.594432   -0.057239
  H     -1.098162    1.981097    0.081533
  H      0.337517    2.085539   -0.935154
  H      0.504466    1.914750    0.800675
  C      2.353687   -0.333741    0.539518
  H      2.021622   -0.818646    1.458831
  H      2.559701    0.712205    0.768285
  C      1.300293   -0.481395   -0.567402
  H      1.676589    0.006126   -1.473854
  H      1.184446   -1.539282   -0.809716
  C     -1.113898   -0.703078   -0.090968
  H     -0.948822   -1.766018   -0.246586
  C     -0.053177    0.098298   -0.222235
  H      3.295617   -0.793751    0.237267

 Total Charge           Charge          ....    0
 Multiplicity           Mult            ....    1
 Number of Electrons    NEL             ....   48
 Basis Dimension        Dim             ....  246

ORBITAL ENERGIES
----------------

  NO   OCC          E(Eh)            E(eV)
   0   2.0000     -11.230453      -305.5961
   1   2.0000     -11.224511      -305.4345
   2   2.0000     -11.221328      -305.3478
   3   2.0000     -11.221060      -305.3406
   4   2.0000     -11.219810      -305.3066
   5   2.0000     -11.217688      -305.2488
   6   2.0000      -1.101834       -29.9824
   7   2.0000      -1.015752       -27.6400
   8   2.0000      -0.967340       -26.3226
   9   2.0000      -0.902459       -24.5572
  10   2.0000      -0.829151       -22.5623
  11   2.0000      -0.701569       -19.0907
  12   2.0000      -0.638597       -17.3771
  13   2.0000      -0.613977       -16.7072
  14   2.0000      -0.576887       -15.6979
  15   2.0000      -0.558985       -15.2107
  16   2.0000      -0.554426       -15.0867
  17   2.0000      -0.544734       -14.8230
  18   2.0000      -0.526156       -14.3174
  19   2.0000      -0.504112       -13.7176
  20   2.0000      -0.498158       -13.5556
  21   2.0000      -0.475427       -12.9370
  22   2.0000      -0.452949       -12.3254
  23   2.0000      -0.329925        -8.9777
  24   0.0000       0.036997         1.0067
  25   0.0000       0.042525         1.1572
  26   0.0000       0.046428         1.2634
  27   0.0000       0.049421         1.3448
  28   0.0000       0.059370         1.6155

MULLIKEN ATOMIC CHARGES
-----------------------
   0 C :    0.246390
   1 H :    0.103455
   2 H :    0.096761
   3 H :   -0.180112
   4 C :    0.318316
   5 H :   -0.148879
   6 H :    0.090839
   7 H :    0.074037
   8 C :    0.406165
   9 H :   -0.109740
  10 H :   -0.129061
  11 C :    0.291792
  12 H :   -0.109535
  13 H :   -0.201108
  14 C :    0.044126
  15 H :   -0.586084
  16 C :   -0.112427
  17 H :   -0.094934
Sum of atomic charges:   -0.0000000

LOEWDIN ATOMIC CHARGES
----------------------
   0 C :    0.141271
   1 H :   -0.015804
   2 H :   -0.016346
   3 H :   -0.036061
   4 C :    0.173654
   5 H :   -0.031913
   6 H :   -0.005533
   7 H :   -0.013337
   8 C :    0.140988
   9 H :   -0.014872
  10 H :   -0.027831
  11 C :   -0.040780
  12 H :    0.015173
  13 H :    0.009102
  14 C :   -0.014402
  15 H :   -0.004690
  16 C :   -0.238062
  17 H :   -0.020557

  Mayer bond orders larger than 0.100000
B(  0-C ,  1-H ) :   0.8785 B(  0-C ,  2-H ) :   0.8946 B(  0-C ,  3-H ) :   0.9145
B(  0-C , 14-C ) :   1.1898 B(  0-C , 16-C ) :  -0.1703 B(  3-H , 14-C ) :   0.1450
B(  4-C ,  5-H ) :   0.8338 B(  4-C ,  6-H ) :   0.8121 B(  4-C ,  7-H ) :   0.8787
B(  4-C , 11-C ) :  -0.2222 B(  4-C , 16-C ) :   1.3358 B(  5-H , 16-C ) :   0.2588
B(  6-H , 16-C ) :   0.1516 B(  7-H , 16-C ) :   0.1337 B(  8-C ,  9-H ) :   0.9652
B(  8-C , 10-H ) :   0.9475 B(  8-C , 11-C ) :   1.1947 B(  8-C , 17-H ) :   0.8920
B( 11-C , 12-H ) :   0.8754 B( 11-C , 13-H ) :   0.6127 B( 11-C , 16-C ) :   1.1845
B( 13-H , 16-C ) :   0.2374 B( 14-C , 15-H ) :   0.3757 B( 14-C , 16-C ) :   1.6460
B( 15-H , 16-C ) :   0.3191

MP2 TOTAL ENERGY:     -235.088096505 Eh
FINAL SINGLE POINT ENERGY      -235.088096504673

DIPOLE MOMENT
-------------
                                X             Y             Z
Electronic contribution:     -0.83157      -0.99531      -0.95958
Nuclear contribution   :      0.85407       1.06616       0.96374
                        -----------------------------------------
Total Dipole Moment    :      0.02250       0.07084       0.00416
                        -----------------------------------------
Magnitude (a.u.)       :      0.07444
Magnitude (Debye)      :      0.18922

Rotational constants in cm-1:     0.207944     0.067235     0.056946
Rotational constants in MHz :  6234.002815  2015.667157  1707.212107

                             ****ORCA TERMINATED NORMALLY****
TOTAL RUN TIME: 0 days 0 hours 0 minutes 48 seconds 549 msec
