                         Program Version 5.0.3 -  RELEASE  -
|  1> !ri-mp2 aug-cc-pvdz aug-cc-pvdz/c tightscf
|  2> %pal nprocs 16 end
|  3>
|  4> * xyz 0 1
|  5> C      2.441663    0.162598   -0.365182
|  6> C      1.385172    0.126631    0.440416
|  7> C      3.766263   -0.479321   -0.089056
|  8> C     -3.620200   -0.583267   -0.136932
|  9> C      0.056507    0.764266    0.164386
| 10> C     -2.466044    0.416907   -0.102935
| 11> C     -1.104645   -0.239625    0.126643
| 12> H      2.358643    0.700966   -1.306573
| 13> H      1.466900   -0.412762    1.382304
| 14> H      4.569757    0.262058   -0.075544
| 15> H      4.024236   -1.204082   -0.865896
| 16> H      3.767683   -0.996869    0.870489
| 17> H     -3.485464   -1.314681   -0.936498
| 18> H     -3.692335   -1.134107    0.803175
| 19> H     -4.576083   -0.084249   -0.302393
| 20> H     -0.155903    1.508409    0.940995
| 21> H      0.100952    1.309497   -0.782195
| 22> H     -2.646373    1.155223    0.684348
| 23> H     -2.441268    0.977092   -1.042548
| 24> H     -1.127620   -0.800201    1.066921
| 25> H     -0.915420   -0.975427   -0.660622
| 26> *
| 27>
| 28>                          ****END OF INPUT****

CARTESIAN COORDINATES (ANGSTROEM)
---------------------------------
  C      2.441663    0.162598   -0.365182
  C      1.385172    0.126631    0.440416
  C      3.766263   -0.479321   -0.089056
  C     -3.620200   -0.583267   -0.136932
  C      0.056507    0.764266    0.164386
  C     -2.466044    0.416907   -0.102935
  C     -1.104645   -0.239625    0.126643
  H      2.358643    0.700966   -1.306573
  H      1.466900   -0.412762    1.382304
  H      4.569757    0.262058   -0.075544
  H      4.024236   -1.204082   -0.865896
  H      3.767683   -0.996869    0.870489
  H     -3.485464   -1.314681   -0.936498
  H     -3.692335   -1.134107    0.803175
  H     -4.576083   -0.084249   -0.302393
  H     -0.155903    1.508409    0.940995
  H      0.100952    1.309497   -0.782195
  H     -2.646373    1.155223    0.684348
  H     -2.441268    0.977092   -1.042548
  H     -1.127620   -0.800201    1.066921
  H     -0.915420   -0.975427   -0.660622

 Total Charge           Charge          ....    0
 Multiplicity           Mult            ....    1
 Number of Electrons    NEL             ....   56
 Basis Dimension        Dim             ....  287

ORBITAL ENERGIES
----------------

  NO   OCC          E(Eh)            E(eV)
   0   2.0000     -11.227623      -305.5192
   1   2.0000     -11.224668      -305.4387
   2   2.0000     -11.223953      -305.4193
   3   2.0000     -11.223560      -305.4086
   4   2.0000     -11.221611      -305.3556
   5   2.0000     -11.220327      -305.3206
   6   2.0000     -11.216406      -305.2139
   7   2.0000      -1.094659       -29.7872
   8   2.0000      -1.056474       -28.7481
   9   2.0000      -0.994178       -27.0530
  10   2.0000      -0.922458       -25.1013
  11   2.0000      -0.848004       -23.0754
  12   2.0000      -0.789944       -21.4955
  13   2.0000      -0.744618       -20.2621
  14   2.0000      -0.642427       -17.4813
  15   2.0000      -0.613305       -16.6889
  16   2.0000      -0.599041       -16.3007
  17   2.0000      -0.583236       -15.8706
  18   2.0000      -0.561029       -15.2664
  19   2.0000      -0.549331       -14.9480
  20   2.0000      -0.534694       -14.5498
  21   2.0000      -0.514233       -13.9930
  22   2.0000      -0.497059       -13.5257
  23   2.0000      -0.482890       -13.1401
  24   2.0000      -0.470077       -12.7914
  25   2.0000      -0.461266       -12.5517
  26   2.0000      -0.453884       -12.3508
  27   2.0000      -0.341008        -9.2793
  28   0.0000       0.037808         1.0288
  29   0.0000       0.040884         1.1125
  30   0.0000       0.044200         1.2027
  31   0.0000       0.047672         1.2972
  32   0.0000       0.054958         1.4955

MULLIKEN ATOMIC CHARGES
-----------------------
   0 C :   -0.073854
   1 C :    1.209476
   2 C :    0.238718
   3 C :    0.481022
   4 C :    0.253786
   5 C :    0.301241
   6 C :   -0.051448
   7 H :   -0.499089
   8 H :   -0.544106
   9 H :    0.063601
  10 H :    0.057184
  11 H :   -0.148618
  12 H :   -0.079274
  13 H :   -0.085604
  14 H :   -0.071719
  15 H :   -0.069038
  16 H :   -0.224872
  17 H :   -0.168669
  18 H :   -0.187034
  19 H :   -0.211346
  20 H :   -0.190357
Sum of atomic charges:    0.0000000

LOEWDIN ATOMIC CHARGES
----------------------
   0 C :   -0.050877
   1 C :   -0.018479
   2 C :    0.129006
   3 C :    0.130173
   4 C :   -0.036450
   5 C :   -0.074738
   6 C :   -0.041790
   7 H :   -0.002810
   8 H :    0.003040
   9 H :   -0.019640
  10 H :   -0.019513
  11 H :   -0.019893
  12 H :   -0.020101
  13 H :   -0.020417
  14 H :   -0.022367
  15 H :    0.016155
  16 H :    0.015134
  17 H :    0.010501
  18 H :    0.011069
  19 H :    0.014821
  20 H :    0.017176

  Mayer bond orders larger than 0.100000
B(  0-C ,  1-C ) :   1.9644 B(  0-C ,  2-C ) :   1.2155 B(  0-C ,  7-H ) :   0.5804
B(  0-C ,  8-H ) :   0.1845 B(  1-C ,  2-C ) :  -0.2138 B(  1-C ,  4-C ) :   1.3216
B(  2-C ,  8-H ) :  -0.1056 B(  2-C ,  9-H ) :   0.9093 B(  2-C , 10-H ) :   0.9063
B(  2-C , 11-H ) :   0.9248 B(  3-C ,  5-C ) :   1.1700 B(  3-C , 12-H ) :   0.9264
B(  3-C , 13-H ) :   0.9290 B(  3-C , 14-H ) :   0.9004 B(  4-C ,  6-C ) :   1.2048
B(  4-C ,  8-H ) :   0.2559 B(  4-C , 15-H ) :   0.8229 B(  4-C , 16-H ) :   0.6846
B(  4-C , 20-H ) :  -0.1094 B(  5-C ,  6-C ) :   1.2178 B(  5-C , 17-H ) :   0.7817
B(  5-C , 18-H ) :   0.7647 B(  6-C , 16-H ) :   0.1384 B(  6-C , 19-H ) :   0.8211
B(  6-C , 20-H ) :   0.9058

MP2 TOTAL ENERGY:     -274.272908333 Eh
FINAL SINGLE POINT ENERGY      -274.272908332698

DIPOLE MOMENT
-------------
                                X             Y             Z
Electronic contribution:      2.93850       1.08996       0.22489
Nuclear contribution   :     -2.94804      -1.08090      -0.23997
                        -----------------------------------------
Total Dipole Moment    :     -0.00953       0.00905      -0.01509
                        -----------------------------------------
Magnitude (a.u.)       :      0.02001
Magnitude (Debye)      :      0.05086

Rotational constants in cm-1:     0.353593     0.026008     0.025416
Rotational constants in MHz : 10600.446206   779.695495   761.949883

                             ****ORCA TERMINATED NORMALLY****
TOTAL RUN TIME: 0 days 0 hours 0 minutes 54 seconds 56 msec
