                         Program Version 5.0.3 -  RELEASE  -
|  1> !ri-mp2 aug-cc-pvdz aug-cc-pvdz/c tightscf
|  2> %pal nprocs 16 end
|  3>
|  4> * xyz 0 1
|  5> C      0.000000    0.000000       0.662415
|  6> C      0.000000    0.000000      -0.662415
|  7> H      0.000000    0.920717       1.231649
|  8> H      0.000000   -0.920717       1.231649
|  9> H      0.000000   -0.920717      -1.231649
| 10> H      0.000000    0.920717      -1.231649
| 11> *
| 12>
| 13>                          ****END OF INPUT****

CARTESIAN COORDINATES (ANGSTROEM)
---------------------------------
  C      0.000000    0.000000    0.662415
  C      0.000000    0.000000   -0.662415
  H      0.000000    0.920717    1.231649
  H      0.000000   -0.920717    1.231649
  H      0.000000   -0.920717   -1.231649
  H      0.000000    0.920717   -1.231649

 Total Charge           Charge          ....    0
 Multiplicity           Mult            ....    1
 Number of Electrons    NEL             ....   16
 Basis Dimension        Dim             ....   82

ORBITAL ENERGIES
----------------

  NO   OCC          E(Eh)            E(eV)
   0   2.0000     -11.238133      -305.8051
   1   2.0000     -11.236388      -305.7577
   2   2.0000      -1.038563       -28.2607
   3   2.0000      -0.793602       -21.5950
   4   2.0000      -0.643659       -17.5148
   5   2.0000      -0.590127       -16.0582
   6   2.0000      -0.505083       -13.7440
   7   2.0000      -0.378538       -10.3005
   8   0.0000       0.040444         1.1005
   9   0.0000       0.050270         1.3679
  10   0.0000       0.051386         1.3983
  11   0.0000       0.070870         1.9285
  12   0.0000       0.102719         2.7951

MULLIKEN ATOMIC CHARGES
-----------------------
   0 C :    0.492661
   1 C :    0.492661
   2 H :   -0.246331
   3 H :   -0.246331
   4 H :   -0.246331
   5 H :   -0.246331
Sum of atomic charges:   -0.0000000

LOEWDIN ATOMIC CHARGES
----------------------
   0 C :    0.097618
   1 C :    0.097618
   2 H :   -0.048809
   3 H :   -0.048809
   4 H :   -0.048809
   5 H :   -0.048809

  Mayer bond orders larger than 0.100000
B(  0-C ,  1-C ) :   2.0833 B(  0-C ,  2-H ) :   0.9092 B(  0-C ,  3-H ) :   0.9092
B(  1-C ,  4-H ) :   0.9092 B(  1-C ,  5-H ) :   0.9092 B(  2-H ,  3-H ) :  -0.1617
B(  4-H ,  5-H ) :  -0.1617

MP2 TOTAL ENERGY:      -78.327857278 Eh
FINAL SINGLE POINT ENERGY       -78.327857277575

DIPOLE MOMENT
-------------
                                X             Y             Z
Electronic contribution:      0.00000      -0.00000      -0.00000
Nuclear contribution   :      0.00000       0.00000       0.00000
                        -----------------------------------------
Total Dipole Moment    :      0.00000      -0.00000      -0.00000
                        -----------------------------------------
Magnitude (a.u.)       :      0.00000
Magnitude (Debye)      :      0.00000

Rotational constants in cm-1:     4.932011     1.012041     0.839730
Rotational constants in MHz : 147857.975870 30340.219809 25174.460781

                             ****ORCA TERMINATED NORMALLY****
TOTAL RUN TIME: 0 days 0 hours 0 minutes 44 seconds 76 msec
