                         Program Version 5.0.3 -  RELEASE  -
|  1> !ri-mp2 aug-cc-pvdz aug-cc-pvdz/c tightscf
|  2> %pal nprocs 16 end
|  3>
|  4> * xyz 0 1
|  5> C    -0.321563    -3.165600    0.000000
|  6> C     0.321563     3.165600    0.000000
|  7> C     0.321563     0.650169    0.000000
|  8> C    -0.321563    -0.650169    0.000000
|  9> C    -0.327188     1.819192    0.000000
| 10> C     0.327188    -1.819192    0.000000
| 11> H    -1.408837    -3.086565    0.000000
| 12> H     1.408837     3.086565    0.000000
| 13> H    -0.023595    -3.749001    0.875844
| 14> H    -0.023595    -3.749001   -0.875844
| 15> H     0.023595     3.749001    0.875844
| 16> H     0.023595     3.749001   -0.875844
| 17> H     1.408805     0.652661    0.000000
| 18> H    -1.408805    -0.652661    0.000000
| 19> H    -1.414062     1.807646    0.000000
| 20> H     1.414062    -1.807646    0.000000
| 21> *
| 22>
| 23>                          ****END OF INPUT****

CARTESIAN COORDINATES (ANGSTROEM)
---------------------------------
  C     -0.321563   -3.165600    0.000000
  C      0.321563    3.165600    0.000000
  C      0.321563    0.650169    0.000000
  C     -0.321563   -0.650169    0.000000
  C     -0.327188    1.819192    0.000000
  C      0.327188   -1.819192    0.000000
  H     -1.408837   -3.086565    0.000000
  H      1.408837    3.086565    0.000000
  H     -0.023595   -3.749001    0.875844
  H     -0.023595   -3.749001   -0.875844
  H      0.023595    3.749001    0.875844
  H      0.023595    3.749001   -0.875844
  H      1.408805    0.652661    0.000000
  H     -1.408805   -0.652661    0.000000
  H     -1.414062    1.807646    0.000000
  H      1.414062   -1.807646    0.000000

 Total Charge           Charge          ....    0
 Multiplicity           Mult            ....    1
 Number of Electrons    NEL             ....   46
 Basis Dimension        Dim             ....  228

ORBITAL ENERGIES
----------------

  NO   OCC          E(Eh)            E(eV)
   0   2.0000     -11.234424      -305.7042
   1   2.0000     -11.234407      -305.7038
   2   2.0000     -11.230080      -305.5860
   3   2.0000     -11.229254      -305.5635
   4   2.0000     -11.227075      -305.5042
   5   2.0000     -11.227075      -305.5042
   6   2.0000      -1.101522       -29.9739
   7   2.0000      -1.049948       -28.5705
   8   2.0000      -0.969572       -26.3834
   9   2.0000      -0.897166       -24.4131
  10   2.0000      -0.765627       -20.8338
  11   2.0000      -0.750648       -20.4262
  12   2.0000      -0.647021       -17.6063
  13   2.0000      -0.612555       -16.6685
  14   2.0000      -0.566213       -15.4074
  15   2.0000      -0.563038       -15.3210
  16   2.0000      -0.557796       -15.1784
  17   2.0000      -0.548012       -14.9122
  18   2.0000      -0.513311       -13.9679
  19   2.0000      -0.501840       -13.6558
  20   2.0000      -0.480644       -13.0790
  21   2.0000      -0.424085       -11.5399
  22   2.0000      -0.299885        -8.1603
  23   0.0000       0.037404         1.0178
  24   0.0000       0.039630         1.0784
  25   0.0000       0.043188         1.1752
  26   0.0000       0.059248         1.6122
  27   0.0000       0.060468         1.6454

MULLIKEN ATOMIC CHARGES
-----------------------
   0 C :    0.259556
   1 C :    0.259556
   2 C :    0.911710
   3 C :    0.911710
   4 C :   -0.177865
   5 C :   -0.177865
   6 H :   -0.164682
   7 H :   -0.164682
   8 H :    0.096291
   9 H :    0.096291
  10 H :    0.096291
  11 H :    0.096291
  12 H :   -0.526527
  13 H :   -0.526527
  14 H :   -0.494775
  15 H :   -0.494775
Sum of atomic charges:   -0.0000000

LOEWDIN ATOMIC CHARGES
----------------------
   0 C :    0.128763
   1 C :    0.128763
   2 C :   -0.033263
   3 C :   -0.033263
   4 C :   -0.042257
   5 C :   -0.042257
   6 H :   -0.018797
   7 H :   -0.018797
   8 H :   -0.017726
   9 H :   -0.017726
  10 H :   -0.017726
  11 H :   -0.017726
  12 H :    0.004072
  13 H :    0.004072
  14 H :   -0.003067
  15 H :   -0.003067

  Mayer bond orders larger than 0.100000
B(  0-C ,  2-C ) :   0.1448 B(  0-C ,  3-C ) :  -0.3892 B(  0-C ,  5-C ) :   1.3698
B(  0-C ,  6-H ) :   0.9182 B(  0-C ,  8-H ) :   0.8823 B(  0-C ,  9-H ) :   0.8823
B(  0-C , 13-H ) :  -0.1431 B(  0-C , 15-H ) :  -0.1464 B(  1-C ,  2-C ) :  -0.3892
B(  1-C ,  3-C ) :   0.1448 B(  1-C ,  4-C ) :   1.3698 B(  1-C ,  7-H ) :   0.9182
B(  1-C , 10-H ) :   0.8823 B(  1-C , 11-H ) :   0.8823 B(  1-C , 12-H ) :  -0.1431
B(  1-C , 14-H ) :  -0.1464 B(  2-C ,  3-C ) :   1.5810 B(  2-C ,  4-C ) :   1.9585
B(  2-C ,  5-C ) :  -0.3569 B(  2-C ,  7-H ) :  -0.1874 B(  2-C , 12-H ) :   0.1974
B(  2-C , 13-H ) :   0.2982 B(  2-C , 14-H ) :   0.4650 B(  3-C ,  4-C ) :  -0.3569
B(  3-C ,  5-C ) :   1.9585 B(  3-C ,  6-H ) :  -0.1874 B(  3-C , 12-H ) :   0.2982
B(  3-C , 13-H ) :   0.1974 B(  3-C , 15-H ) :   0.4650 B(  4-C ,  5-C ) :   0.4404
B(  4-C ,  7-H ) :   0.1904 B(  4-C , 12-H ) :   0.1136 B(  4-C , 14-H ) :   0.3337
B(  5-C ,  6-H ) :   0.1904 B(  5-C , 13-H ) :   0.1136 B(  5-C , 15-H ) :   0.3337

MP2 TOTAL ENERGY:     -233.876766349 Eh
FINAL SINGLE POINT ENERGY      -233.876766349277

DIPOLE MOMENT
-------------
                                X             Y             Z
Electronic contribution:     -0.00000       0.00000       0.00000
Nuclear contribution   :      0.00000       0.00000       0.00000
                        -----------------------------------------
Total Dipole Moment    :     -0.00000       0.00000       0.00000
                        -----------------------------------------
Magnitude (a.u.)       :      0.00000
Magnitude (Debye)      :      0.00000

Rotational constants in cm-1:     0.782163     0.040338     0.038907
Rotational constants in MHz : 23448.646717  1209.300989  1166.411682

                             ****ORCA TERMINATED NORMALLY****
TOTAL RUN TIME: 0 days 0 hours 0 minutes 36 seconds 560 msec
