                         Program Version 5.0.3 -  RELEASE  -
|  1> !ri-mp2 aug-cc-pvdz aug-cc-pvdz/c tightscf
|  2> %pal nprocs 16 end
|  3>
|  4> * xyz 0 1
|  5> C      2.375076    2.291871    0.000000
|  6> H      3.465991    2.277864    0.000000
|  7> H      2.044631    2.840367    0.882327
|  8> H      2.044631    2.840367   -0.882327
|  9> C      1.831458    0.869153    0.000000
| 10> H      2.172537    0.327306   -0.883073
| 11> H      2.172537    0.327306    0.883073
| 12> S      0.000000    0.889482    0.000000
| 13> C     -0.338622   -0.909728    0.000000
| 14> H      0.126062   -1.351508   -0.883539
| 15> H      0.126062   -1.351508    0.883539
| 16> C     -1.840977   -1.176175    0.000000
| 17> H     -2.290661   -0.701679    0.875094
| 18> H     -2.290661   -0.701679   -0.875094
| 19> C     -2.164305   -2.670386    0.000000
| 20> H     -1.752397   -3.165193   -0.881569
| 21> H     -1.752397   -3.165193    0.881569
| 22> H     -3.242119   -2.836574    0.000000
| 23> *
| 24>
| 25>                          ****END OF INPUT****

CARTESIAN COORDINATES (ANGSTROEM)
---------------------------------
  C      2.375076    2.291871    0.000000
  H      3.465991    2.277864    0.000000
  H      2.044631    2.840367    0.882327
  H      2.044631    2.840367   -0.882327
  C      1.831458    0.869153    0.000000
  H      2.172537    0.327306   -0.883073
  H      2.172537    0.327306    0.883073
  S      0.000000    0.889482    0.000000
  C     -0.338622   -0.909728    0.000000
  H      0.126062   -1.351508   -0.883539
  H      0.126062   -1.351508    0.883539
  C     -1.840977   -1.176175    0.000000
  H     -2.290661   -0.701679    0.875094
  H     -2.290661   -0.701679   -0.875094
  C     -2.164305   -2.670386    0.000000
  H     -1.752397   -3.165193   -0.881569
  H     -1.752397   -3.165193    0.881569
  H     -3.242119   -2.836574    0.000000

 Total Charge           Charge          ....    0
 Multiplicity           Mult            ....    1
 Number of Electrons    NEL             ....   58
 Basis Dimension        Dim             ....  250

ORBITAL ENERGIES
----------------

  NO   OCC          E(Eh)            E(eV)
   0   2.0000     -91.936683     -2501.7243
   1   2.0000     -11.259862      -306.3964
   2   2.0000     -11.256984      -306.3181
   3   2.0000     -11.232332      -305.6473
   4   2.0000     -11.228490      -305.5428
   5   2.0000     -11.224221      -305.4266
   6   2.0000      -8.938426      -243.2269
   7   2.0000      -6.620416      -180.1507
   8   2.0000      -6.619071      -180.1141
   9   2.0000      -6.617039      -180.0588
  10   2.0000      -1.090402       -29.6713
  11   2.0000      -1.050785       -28.5933
  12   2.0000      -0.971113       -26.4253
  13   2.0000      -0.884771       -24.0758
  14   2.0000      -0.812804       -22.1175
  15   2.0000      -0.784646       -21.3513
  16   2.0000      -0.645129       -17.5549
  17   2.0000      -0.621112       -16.9013
  18   2.0000      -0.602382       -16.3916
  19   2.0000      -0.580290       -15.7905
  20   2.0000      -0.553108       -15.0508
  21   2.0000      -0.541289       -14.7292
  22   2.0000      -0.529242       -14.4014
  23   2.0000      -0.505313       -13.7503
  24   2.0000      -0.490320       -13.3423
  25   2.0000      -0.478698       -13.0260
  26   2.0000      -0.447480       -12.1766
  27   2.0000      -0.419645       -11.4191
  28   2.0000      -0.330380        -8.9901
  29   0.0000       0.036317         0.9882
  30   0.0000       0.039479         1.0743
  31   0.0000       0.047370         1.2890
  32   0.0000       0.047732         1.2989
  33   0.0000       0.059779         1.6267

MULLIKEN ATOMIC CHARGES
-----------------------
   0 C :    0.440432
   1 H :   -0.040337
   2 H :   -0.073037
   3 H :   -0.073037
   4 C :   -0.037037
   5 H :   -0.145907
   6 H :   -0.145907
   7 S :    0.345663
   8 C :   -0.149975
   9 H :   -0.171655
  10 H :   -0.171655
  11 C :    0.324689
  12 H :   -0.134946
  13 H :   -0.134946
  14 C :    0.419932
  15 H :   -0.084310
  16 H :   -0.084310
  17 H :   -0.083657
Sum of atomic charges:   -0.0000000

LOEWDIN ATOMIC CHARGES
----------------------
   0 C :    0.064911
   1 H :   -0.022824
   2 H :   -0.025509
   3 H :   -0.025509
   4 C :   -0.328710
   5 H :   -0.036430
   6 H :   -0.036430
   7 S :    0.833487
   8 C :   -0.298843
   9 H :   -0.030548
  10 H :   -0.030548
  11 C :   -0.138442
  12 H :    0.004083
  13 H :    0.004083
  14 C :    0.128394
  15 H :   -0.020301
  16 H :   -0.020301
  17 H :   -0.020566

  Mayer bond orders larger than 0.100000
B(  0-C ,  1-H ) :   0.9324 B(  0-C ,  2-H ) :   0.9409 B(  0-C ,  3-H ) :   0.9409
B(  0-C ,  4-C ) :   1.2055 B(  4-C ,  5-H ) :   0.9045 B(  4-C ,  6-H ) :   0.9045
B(  4-C ,  7-S ) :   1.0298 B(  7-S ,  8-C ) :   1.0959 B(  8-C ,  9-H ) :   0.9192
B(  8-C , 10-H ) :   0.9192 B(  8-C , 11-C ) :   1.3106 B( 11-C , 12-H ) :   0.8016
B( 11-C , 13-H ) :   0.8016 B( 11-C , 14-C ) :   1.1246 B( 14-C , 15-H ) :   0.9394
B( 14-C , 16-H ) :   0.9394 B( 14-C , 17-H ) :   0.9128

MP2 TOTAL ENERGY:     -594.781765070 Eh
FINAL SINGLE POINT ENERGY      -594.781765070055

DIPOLE MOMENT
-------------
                                X             Y             Z
Electronic contribution:     -0.44408       4.34229      -0.00000
Nuclear contribution   :      0.86153      -4.89976       0.00000
                        -----------------------------------------
Total Dipole Moment    :      0.41745      -0.55747      -0.00000
                        -----------------------------------------
Magnitude (a.u.)       :      0.69645
Magnitude (Debye)      :      1.77022

Rotational constants in cm-1:     0.385398     0.033718     0.031924
Rotational constants in MHz : 11553.946794  1010.835856   957.065769

                             ****ORCA TERMINATED NORMALLY****
TOTAL RUN TIME: 0 days 0 hours 0 minutes 59 seconds 698 msec
