                         Program Version 5.0.3 -  RELEASE  -
|  1> !ri-mp2 aug-cc-pvdz aug-cc-pvdz/c tightscf
|  2> %pal nprocs 16 end
|  3>
|  4> * xyz 0 1
|  5> N     -1.111550   -0.313232    0.000000
|  6> O      0.000000    0.559326    0.000000
|  7> O     -2.159770    0.267328    0.000000
|  8> O     -0.888584   -1.499078    0.000000
|  9> C      2.325207    0.990121    0.000000
| 10> C      1.286493   -0.110502    0.000000
| 11> H      3.318360    0.540496    0.000000
| 12> H      2.232623    1.618133    0.884918
| 13> H      2.232623    1.618133   -0.884918
| 14> H      1.356935   -0.741228    0.885089
| 15> H      1.356935   -0.741228   -0.885089
| 16> *
| 17>
| 18>                          ****END OF INPUT****

CARTESIAN COORDINATES (ANGSTROEM)
---------------------------------
  N     -1.111550   -0.313232    0.000000
  O      0.000000    0.559326    0.000000
  O     -2.159770    0.267328    0.000000
  O     -0.888584   -1.499078    0.000000
  C      2.325207    0.990121    0.000000
  C      1.286493   -0.110502    0.000000
  H      3.318360    0.540496    0.000000
  H      2.232623    1.618133    0.884918
  H      2.232623    1.618133   -0.884918
  H      1.356935   -0.741228    0.885089
  H      1.356935   -0.741228   -0.885089

 Total Charge           Charge          ....    0
 Multiplicity           Mult            ....    1
 Number of Electrons    NEL             ....   48
 Basis Dimension        Dim             ....  183

ORBITAL ENERGIES
----------------

  NO   OCC          E(Eh)            E(eV)
   0   2.0000     -20.675657      -562.6132
   1   2.0000     -20.640064      -561.6447
   2   2.0000     -20.638337      -561.5977
   3   2.0000     -15.928393      -433.4336
   4   2.0000     -11.322623      -308.1042
   5   2.0000     -11.252797      -306.2042
   6   2.0000      -1.675907       -45.6037
   7   2.0000      -1.455236       -39.5990
   8   2.0000      -1.430428       -38.9239
   9   2.0000      -1.072963       -29.1968
  10   2.0000      -0.935322       -25.4514
  11   2.0000      -0.861977       -23.4556
  12   2.0000      -0.810573       -22.0568
  13   2.0000      -0.783654       -21.3243
  14   2.0000      -0.765122       -20.8200
  15   2.0000      -0.673714       -18.3327
  16   2.0000      -0.634718       -17.2716
  17   2.0000      -0.591416       -16.0932
  18   2.0000      -0.563996       -15.3471
  19   2.0000      -0.550954       -14.9922
  20   2.0000      -0.520434       -14.1617
  21   2.0000      -0.512686       -13.9509
  22   2.0000      -0.506244       -13.7756
  23   2.0000      -0.481081       -13.0909
  24   0.0000       0.030246         0.8230
  25   0.0000       0.046008         1.2519
  26   0.0000       0.046413         1.2629
  27   0.0000       0.056487         1.5371
  28   0.0000       0.074543         2.0284

MULLIKEN ATOMIC CHARGES
-----------------------
   0 N :    1.346189
   1 O :   -0.765078
   2 O :   -0.661453
   3 O :   -0.602317
   4 C :    0.158611
   5 C :    0.886373
   6 H :   -0.011751
   7 H :   -0.037658
   8 H :   -0.037658
   9 H :   -0.137629
  10 H :   -0.137629
Sum of atomic charges:   -0.0000000

LOEWDIN ATOMIC CHARGES
----------------------
   0 N :   -0.392884
   1 O :    0.096763
   2 O :    0.115300
   3 O :    0.105450
   4 C :    0.144358
   5 C :   -0.042269
   6 H :   -0.009639
   7 H :   -0.012672
   8 H :   -0.012672
   9 H :    0.004133
  10 H :    0.004133

  Mayer bond orders larger than 0.100000
B(  0-N ,  1-O ) :   0.7637 B(  0-N ,  2-O ) :   1.2277 B(  0-N ,  3-O ) :   1.1675
B(  1-O ,  5-C ) :   0.4861 B(  2-O ,  3-O ) :   0.1196 B(  4-C ,  5-C ) :   1.2175
B(  4-C ,  6-H ) :   0.9167 B(  4-C ,  7-H ) :   0.9871 B(  4-C ,  8-H ) :   0.9871
B(  5-C ,  9-H ) :   0.8935 B(  5-C , 10-H ) :   0.8935

MP2 TOTAL ENERGY:     -358.648815389 Eh
FINAL SINGLE POINT ENERGY      -358.648815388955

DIPOLE MOMENT
-------------
                                X             Y             Z
Electronic contribution:     -8.80369      -2.13563       0.00000
Nuclear contribution   :     10.33757       2.25885       0.00000
                        -----------------------------------------
Total Dipole Moment    :      1.53388       0.12322       0.00000
                        -----------------------------------------
Magnitude (a.u.)       :      1.53882
Magnitude (Debye)      :      3.91137

Rotational constants in cm-1:     0.335188     0.072943     0.061282
Rotational constants in MHz : 10048.676514  2186.767211  1837.174372

                             ****ORCA TERMINATED NORMALLY****
TOTAL RUN TIME: 0 days 0 hours 1 minutes 0 seconds 476 msec
