                         Program Version 5.0.3 -  RELEASE  -
|  1> !ri-mp2 aug-cc-pvdz aug-cc-pvdz/c tightscf
|  2> %pal nprocs 16 end
|  3>
|  4> * xyz 0 1
|  5> C    -0.364902     0.550673       0.000000
|  6> C     0.364902    -0.550673       0.000000
|  7> Cl    0.364902     2.127712       0.000000
|  8> Cl   -0.364902    -2.127712       0.000000
|  9> H    -1.443008     0.559873       0.000000
| 10> H     1.443008    -0.559873       0.000000
| 11> *
| 12>
| 13>                          ****END OF INPUT****

CARTESIAN COORDINATES (ANGSTROEM)
---------------------------------
  C     -0.364902    0.550673    0.000000
  C      0.364902   -0.550673    0.000000
  Cl     0.364902    2.127712    0.000000
  Cl    -0.364902   -2.127712    0.000000
  H     -1.443008    0.559873    0.000000
  H      1.443008   -0.559873    0.000000

 Total Charge           Charge          ....    0
 Multiplicity           Mult            ....    1
 Number of Electrons    NEL             ....   48
 Basis Dimension        Dim             ....  118

ORBITAL ENERGIES
----------------

  NO   OCC          E(Eh)            E(eV)
   0   2.0000    -104.857023     -2853.3047
   1   2.0000    -104.857023     -2853.3047
   2   2.0000     -11.326313      -308.2046
   3   2.0000     -11.324525      -308.1560
   4   2.0000     -10.582949      -287.9767
   5   2.0000     -10.582940      -287.9764
   6   2.0000      -8.050789      -219.0731
   7   2.0000      -8.050789      -219.0731
   8   2.0000      -8.047297      -218.9781
   9   2.0000      -8.047296      -218.9781
  10   2.0000      -8.047224      -218.9761
  11   2.0000      -8.047224      -218.9761
  12   2.0000      -1.197066       -32.5738
  13   2.0000      -1.144974       -31.1563
  14   2.0000      -0.998554       -27.1720
  15   2.0000      -0.809604       -22.0304
  16   2.0000      -0.663170       -18.0458
  17   2.0000      -0.649829       -17.6827
  18   2.0000      -0.548967       -14.9381
  19   2.0000      -0.548069       -14.9137
  20   2.0000      -0.497410       -13.5352
  21   2.0000      -0.473332       -12.8800
  22   2.0000      -0.468806       -12.7569
  23   2.0000      -0.371720       -10.1150
  24   0.0000       0.040665         1.1065
  25   0.0000       0.046047         1.2530
  26   0.0000       0.071191         1.9372
  27   0.0000       0.091385         2.4867
  28   0.0000       0.095702         2.6042

MULLIKEN ATOMIC CHARGES
-----------------------
   0 C :    0.390370
   1 C :    0.390370
   2 Cl:   -0.232029
   3 Cl:   -0.232029
   4 H :   -0.158341
   5 H :   -0.158341
Sum of atomic charges:   -0.0000000

LOEWDIN ATOMIC CHARGES
----------------------
   0 C :   -0.457323
   1 C :   -0.457323
   2 Cl:    0.515234
   3 Cl:    0.515234
   4 H :   -0.057911
   5 H :   -0.057911

  Mayer bond orders larger than 0.100000
B(  0-C ,  1-C ) :   1.4787 B(  0-C ,  2-Cl) :   1.0706 B(  0-C ,  3-Cl) :  -0.2292
B(  0-C ,  4-H ) :   0.9540 B(  1-C ,  2-Cl) :  -0.2292 B(  1-C ,  3-Cl) :   1.0706
B(  1-C ,  5-H ) :   0.9540

MP2 TOTAL ENERGY:     -996.453829408 Eh
FINAL SINGLE POINT ENERGY      -996.453829408301

DIPOLE MOMENT
-------------
                                X             Y             Z
Electronic contribution:     -0.00000       0.00000      -0.00000
Nuclear contribution   :      0.00000       0.00000       0.00000
                        -----------------------------------------
Total Dipole Moment    :     -0.00000       0.00000      -0.00000
                        -----------------------------------------
Magnitude (a.u.)       :      0.00000
Magnitude (Debye)      :      0.00000

Rotational constants in cm-1:     1.784682     0.050125     0.048756
Rotational constants in MHz : 53503.426764  1502.713870  1461.661199

                             ****ORCA TERMINATED NORMALLY****
TOTAL RUN TIME: 0 days 0 hours 0 minutes 16 seconds 267 msec
