                         Program Version 5.0.3 -  RELEASE  -
|  1> !ri-mp2 aug-cc-pvdz aug-cc-pvdz/c tightscf
|  2> %pal nprocs 16 end
|  3> %maxcore 3800
|  4>
|  5> * xyz 0 1
|  6> C      2.611997    0.223827   -0.300825
|  7> C      1.549505    0.338129    0.501487
|  8> C      3.878275   -0.323343    0.188620
|  9> C     -4.786972   -0.124165   -0.302575
| 10> C      0.207729    0.863036    0.114332
| 11> C     -3.411591   -0.666545    0.081940
| 12> C     -0.908819   -0.183212    0.275038
| 13> C     -2.290909    0.359831   -0.087143
| 14> O      4.877910   -0.455105   -0.482993
| 15> H      2.582459    0.530856   -1.340266
| 16> H      1.654351    0.007675    1.533289
| 17> H      3.872769   -0.625229    1.256593
| 18> H     -5.051986    0.745375    0.302406
| 19> H     -5.564751   -0.875434   -0.160722
| 20> H     -4.810822    0.183879   -1.349781
| 21> H     -0.030363    1.722364    0.751305
| 22> H      0.231964    1.227423   -0.914648
| 23> H     -3.185367   -1.549033   -0.523759
| 24> H     -3.431941   -1.009179    1.120746
| 25> H     -0.917566   -0.545349    1.307622
| 26> H     -0.678207   -1.048957   -0.351592
| 27> H     -2.280124    0.713817   -1.123199
| 28> H     -2.508987    1.237280    0.530712
| 29> *
| 30>
| 31>                          ****END OF INPUT****

CARTESIAN COORDINATES (ANGSTROEM)
---------------------------------
  C      2.611997    0.223827   -0.300825
  C      1.549505    0.338129    0.501487
  C      3.878275   -0.323343    0.188620
  C     -4.786972   -0.124165   -0.302575
  C      0.207729    0.863036    0.114332
  C     -3.411591   -0.666545    0.081940
  C     -0.908819   -0.183212    0.275038
  C     -2.290909    0.359831   -0.087143
  O      4.877910   -0.455105   -0.482993
  H      2.582459    0.530856   -1.340266
  H      1.654351    0.007675    1.533289
  H      3.872769   -0.625229    1.256593
  H     -5.051986    0.745375    0.302406
  H     -5.564751   -0.875434   -0.160722
  H     -4.810822    0.183879   -1.349781
  H     -0.030363    1.722364    0.751305
  H      0.231964    1.227423   -0.914648
  H     -3.185367   -1.549033   -0.523759
  H     -3.431941   -1.009179    1.120746
  H     -0.917566   -0.545349    1.307622
  H     -0.678207   -1.048957   -0.351592
  H     -2.280124    0.713817   -1.123199
  H     -2.508987    1.237280    0.530712

 Total Charge           Charge          ....    0
 Multiplicity           Mult            ....    1
 Number of Electrons    NEL             ....   70
 Basis Dimension        Dim             ....  333

ORBITAL ENERGIES
----------------

  NO   OCC          E(Eh)            E(eV)
   0   2.0000     -20.558222      -559.4177
   1   2.0000     -11.335682      -308.4596
   2   2.0000     -11.276237      -306.8420
   3   2.0000     -11.250903      -306.1526
   4   2.0000     -11.246630      -306.0364
   5   2.0000     -11.241602      -305.8996
   6   2.0000     -11.233833      -305.6881
   7   2.0000     -11.231877      -305.6349
   8   2.0000     -11.224705      -305.4398
   9   2.0000      -1.388219       -37.7754
  10   2.0000      -1.123647       -30.5760
  11   2.0000      -1.083682       -29.4885
  12   2.0000      -1.027842       -27.9690
  13   2.0000      -0.952211       -25.9110
  14   2.0000      -0.867311       -23.6007
  15   2.0000      -0.814492       -22.1635
  16   2.0000      -0.802063       -21.8252
  17   2.0000      -0.780896       -21.2493
  18   2.0000      -0.683463       -18.5980
  19   2.0000      -0.655042       -17.8246
  20   2.0000      -0.648332       -17.6420
  21   2.0000      -0.607796       -16.5390
  22   2.0000      -0.605898       -16.4873
  23   2.0000      -0.578598       -15.7445
  24   2.0000      -0.572002       -15.5650
  25   2.0000      -0.551393       -15.0042
  26   2.0000      -0.536975       -14.6118
  27   2.0000      -0.530223       -14.4281
  28   2.0000      -0.511278       -13.9126
  29   2.0000      -0.492832       -13.4106
  30   2.0000      -0.477408       -12.9909
  31   2.0000      -0.472867       -12.8674
  32   2.0000      -0.470685       -12.8080
  33   2.0000      -0.420296       -11.4368
  34   2.0000      -0.379209       -10.3188
  35   0.0000       0.031276         0.8511
  36   0.0000       0.035934         0.9778
  37   0.0000       0.038896         1.0584
  38   0.0000       0.041990         1.1426
  39   0.0000       0.051375         1.3980

MULLIKEN ATOMIC CHARGES
-----------------------
   0 C :    0.368445
   1 C :    0.971998
   2 C :    0.845523
   3 C :    0.514524
   4 C :    0.475664
   5 C :    0.368105
   6 C :   -0.015511
   7 C :    0.177260
   8 O :   -0.750670
   9 H :   -0.520022
  10 H :   -0.573899
  11 H :   -0.167983
  12 H :   -0.092484
  13 H :   -0.074288
  14 H :   -0.089795
  15 H :   -0.039168
  16 H :   -0.205293
  17 H :   -0.175054
  18 H :   -0.182356
  19 H :   -0.210913
  20 H :   -0.189508
  21 H :   -0.234118
  22 H :   -0.200459
Sum of atomic charges:   -0.0000000

LOEWDIN ATOMIC CHARGES
----------------------
   0 C :    0.008445
   1 C :    0.016891
   2 C :   -0.118015
   3 C :    0.132520
   4 C :   -0.019662
   5 C :   -0.071288
   6 C :   -0.027007
   7 C :   -0.040805
   8 O :    0.007534
   9 H :    0.006121
  10 H :    0.013280
  11 H :    0.010777
  12 H :   -0.019676
  13 H :   -0.021095
  14 H :   -0.019507
  15 H :    0.024239
  16 H :    0.021150
  17 H :    0.012085
  18 H :    0.011537
  19 H :    0.017378
  20 H :    0.019803
  21 H :    0.017990
  22 H :    0.017306

  Mayer bond orders larger than 0.100000
B(  0-C ,  1-C ) :   2.0566 B(  0-C ,  2-C ) :   1.1485 B(  0-C ,  4-C ) :  -0.1978
B(  0-C ,  9-H ) :   0.4191 B(  0-C , 10-H ) :   0.1982 B(  1-C ,  2-C ) :  -0.1279
B(  1-C ,  4-C ) :   1.3698 B(  1-C ,  9-H ) :   0.2034 B(  1-C , 10-H ) :   0.1663
B(  2-C ,  4-C ) :   0.1168 B(  2-C ,  8-O ) :   1.4536 B(  2-C , 11-H ) :   0.7780
B(  3-C ,  5-C ) :   1.1533 B(  3-C , 12-H ) :   0.9193 B(  3-C , 13-H ) :   0.9143
B(  3-C , 14-H ) :   0.9194 B(  4-C ,  6-C ) :   1.1732 B(  4-C ,  7-C ) :  -0.1171
B(  4-C ,  9-H ) :  -0.1406 B(  4-C , 10-H ) :   0.1093 B(  4-C , 15-H ) :   0.7766
B(  4-C , 16-H ) :   0.6699 B(  4-C , 19-H ) :  -0.1122 B(  4-C , 20-H ) :  -0.1463
B(  5-C ,  7-C ) :   1.2585 B(  5-C , 17-H ) :   0.7529 B(  5-C , 18-H ) :   0.7483
B(  6-C ,  7-C ) :   1.3424 B(  6-C ,  9-H ) :   0.1207 B(  6-C , 16-H ) :   0.1838
B(  6-C , 19-H ) :   0.7976 B(  6-C , 20-H ) :   0.8867 B(  7-C , 18-H ) :   0.1059
B(  7-C , 21-H ) :   0.7669 B(  7-C , 22-H ) :   0.7990

MP2 TOTAL ENERGY:     -387.333026320 Eh
FINAL SINGLE POINT ENERGY      -387.333026319536

DIPOLE MOMENT
-------------
                                X             Y             Z
Electronic contribution:     19.09723      -0.46129      -0.41465
Nuclear contribution   :    -20.87799       0.73787       1.07412
                        -----------------------------------------
Total Dipole Moment    :     -1.78075       0.27659       0.65947
                        -----------------------------------------
Magnitude (a.u.)       :      1.91898
Magnitude (Debye)      :      4.87765

Rotational constants in cm-1:     0.276103     0.012754     0.012635
Rotational constants in MHz :  8277.346713   382.346847   378.789250

                             ****ORCA TERMINATED NORMALLY****
TOTAL RUN TIME: 0 days 0 hours 1 minutes 29 seconds 171 msec
