                         Program Version 5.0.3 -  RELEASE  -
|  1> !ri-mp2 aug-cc-pvdz aug-cc-pvdz/c tightscf
|  2> %pal nprocs 16 end
|  3>
|  4> * xyz 0 1
|  5> H      3.609044    0.273076    0.113372
|  6> H      3.098636   -1.103376   -0.844452
|  7> H      2.741762   -1.060175    0.886842
|  8> C      2.803885   -0.454173   -0.016457
|  9> H      1.487319    0.854078   -1.202776
| 10> C      1.507467    0.229794   -0.313018
| 11> H      0.395283   -0.497491    1.305299
| 12> C      0.405132    0.126989    0.418299
| 13> C     -0.883366    0.846575    0.103693
| 14> N     -2.901787   -0.791599   -0.168867
| 15> C     -2.016649   -0.066647   -0.054156
| 16> H     -0.780939    1.432476   -0.811185
| 17> H     -1.137406    1.547375    0.904805
| 18> *
| 19>
| 20>                          ****END OF INPUT****

CARTESIAN COORDINATES (ANGSTROEM)
---------------------------------
  H      3.609044    0.273076    0.113372
  H      3.098636   -1.103376   -0.844452
  H      2.741762   -1.060175    0.886842
  C      2.803885   -0.454173   -0.016457
  H      1.487319    0.854078   -1.202776
  C      1.507467    0.229794   -0.313018
  H      0.395283   -0.497491    1.305299
  C      0.405132    0.126989    0.418299
  C     -0.883366    0.846575    0.103693
  N     -2.901787   -0.791599   -0.168867
  C     -2.016649   -0.066647   -0.054156
  H     -0.780939    1.432476   -0.811185
  H     -1.137406    1.547375    0.904805

 Total Charge           Charge          ....    0
 Multiplicity           Mult            ....    1
 Number of Electrons    NEL             ....   44
 Basis Dimension        Dim             ....  201

ORBITAL ENERGIES
----------------

  NO   OCC          E(Eh)            E(eV)
   0   2.0000     -15.577295      -423.8797
   1   2.0000     -11.294366      -307.3353
   2   2.0000     -11.280998      -306.9716
   3   2.0000     -11.259546      -306.3878
   4   2.0000     -11.257518      -306.3326
   5   2.0000     -11.242985      -305.9372
   6   2.0000      -1.224906       -33.3314
   7   2.0000      -1.118767       -30.4432
   8   2.0000      -1.037669       -28.2364
   9   2.0000      -0.928224       -25.2583
  10   2.0000      -0.780158       -21.2292
  11   2.0000      -0.701579       -19.0909
  12   2.0000      -0.648931       -17.6583
  13   2.0000      -0.647106       -17.6087
  14   2.0000      -0.581864       -15.8333
  15   2.0000      -0.577245       -15.7076
  16   2.0000      -0.554944       -15.1008
  17   2.0000      -0.543319       -14.7845
  18   2.0000      -0.516932       -14.0664
  19   2.0000      -0.460232       -12.5235
  20   2.0000      -0.457944       -12.4613
  21   2.0000      -0.376298       -10.2396
  22   0.0000       0.030152         0.8205
  23   0.0000       0.039469         1.0740
  24   0.0000       0.042156         1.1471
  25   0.0000       0.052013         1.4153
  26   0.0000       0.061722         1.6795

MULLIKEN ATOMIC CHARGES
-----------------------
   0 H :    0.064409
   1 H :    0.065981
   2 H :   -0.121782
   3 C :    0.184390
   4 H :   -0.459109
   5 C :    0.232314
   6 H :   -0.450650
   7 C :    0.493234
   8 C :    0.427486
   9 N :   -0.337503
  10 C :   -0.202196
  11 H :   -0.027365
  12 H :    0.130791
Sum of atomic charges:   -0.0000000

LOEWDIN ATOMIC CHARGES
----------------------
   0 H :   -0.014972
   1 H :   -0.013705
   2 H :   -0.015732
   3 C :    0.141440
   4 H :    0.003449
   5 C :   -0.037943
   6 H :    0.006788
   7 C :   -0.010408
   8 C :   -0.034781
   9 N :    0.066453
  10 C :   -0.144108
  11 H :    0.025671
  12 H :    0.027848

  Mayer bond orders larger than 0.100000
B(  0-H ,  3-C ) :   0.8889 B(  1-H ,  3-C ) :   0.9008 B(  2-H ,  3-C ) :   0.9547
B(  3-C ,  5-C ) :   1.2409 B(  4-H ,  5-C ) :   0.5997 B(  4-H ,  7-C ) :   0.1356
B(  5-C ,  7-C ) :   2.0549 B(  6-H ,  7-C ) :   0.6742 B(  6-H ,  8-C ) :  -0.1018
B(  7-C ,  8-C ) :   1.1752 B(  7-C , 10-C ) :   0.1209 B(  8-C , 10-C ) :   0.7263
B(  8-C , 11-H ) :   0.8292 B(  8-C , 12-H ) :   0.8493 B(  9-N , 10-C ) :   2.6837

MP2 TOTAL ENERGY:     -248.725009181 Eh
FINAL SINGLE POINT ENERGY      -248.725009181140

DIPOLE MOMENT
-------------
                                X             Y             Z
Electronic contribution:     -8.01777      -0.51080      -0.23051
Nuclear contribution   :      9.57242       1.46827       0.35748
                        -----------------------------------------
Total Dipole Moment    :      1.55465       0.95748       0.12696
                        -----------------------------------------
Magnitude (a.u.)       :      1.83025
Magnitude (Debye)      :      4.65212

Rotational constants in cm-1:     0.437972     0.049067     0.046542
Rotational constants in MHz : 13130.075473  1470.997223  1395.298052

                             ****ORCA TERMINATED NORMALLY****
TOTAL RUN TIME: 0 days 0 hours 0 minutes 30 seconds 730 msec
