                         Program Version 5.0.3 -  RELEASE  -
|  1> !ri-mp2 aug-cc-pvdz aug-cc-pvdz/c tightscf
|  2> %pal nprocs 16 end
|  3>
|  4> * xyz 0 1
|  5> O     -0.029545   -0.591156   -0.000011
|  6> O     -2.183481    0.034844   -0.000001
|  7> C     -1.049749    0.363965    0.000007
|  8> C      1.205881   -0.154845   -0.000002
|  9> C      2.343204    0.213694    0.000005
| 10> H     -0.647409    1.384949    0.000027
| 11> H      3.355602    0.528657    0.000011
| 12> *
| 13>
| 14>                          ****END OF INPUT****

CARTESIAN COORDINATES (ANGSTROEM)
---------------------------------
  O     -0.029545   -0.591156   -0.000011
  O     -2.183481    0.034844   -0.000001
  C     -1.049749    0.363965    0.000007
  C      1.205881   -0.154845   -0.000002
  C      2.343204    0.213694    0.000005
  H     -0.647409    1.384949    0.000027
  H      3.355602    0.528657    0.000011

 Total Charge           Charge          ....    0
 Multiplicity           Mult            ....    1
 Number of Electrons    NEL             ....   36
 Basis Dimension        Dim             ....  133

ORBITAL ENERGIES
----------------

  NO   OCC          E(Eh)            E(eV)
   0   2.0000     -20.682038      -562.7869
   1   2.0000     -20.610178      -560.8314
   2   2.0000     -11.435848      -311.1852
   3   2.0000     -11.329073      -308.2797
   4   2.0000     -11.259413      -306.3842
   5   2.0000      -1.522966       -41.4420
   6   2.0000      -1.437237       -39.1092
   7   2.0000      -1.057456       -28.7749
   8   2.0000      -0.928589       -25.2682
   9   2.0000      -0.831556       -22.6278
  10   2.0000      -0.728518       -19.8240
  11   2.0000      -0.713942       -19.4274
  12   2.0000      -0.691096       -18.8057
  13   2.0000      -0.649833       -17.6829
  14   2.0000      -0.556399       -15.1404
  15   2.0000      -0.508091       -13.8259
  16   2.0000      -0.421176       -11.4608
  17   2.0000      -0.403423       -10.9777
  18   0.0000       0.029792         0.8107
  19   0.0000       0.044226         1.2034
  20   0.0000       0.075884         2.0649
  21   0.0000       0.077895         2.1196
  22   0.0000       0.091929         2.5015

MULLIKEN ATOMIC CHARGES
-----------------------
   0 O :   -0.807704
   1 O :   -0.564816
   2 C :    1.058638
   3 C :   -0.181971
   4 C :    0.929996
   5 H :   -0.067575
   6 H :   -0.366569
Sum of atomic charges:    0.0000000

LOEWDIN ATOMIC CHARGES
----------------------
   0 O :    0.068397
   1 O :    0.067468
   2 C :   -0.060561
   3 C :   -0.202990
   4 C :    0.205829
   5 H :    0.024980
   6 H :   -0.103123

  Mayer bond orders larger than 0.100000
B(  0-O ,  2-C ) :   0.8011 B(  0-O ,  3-C ) :   0.9100 B(  0-O ,  4-C ) :  -0.2013
B(  1-O ,  2-C ) :   1.8112 B(  2-C ,  5-H ) :   0.9027 B(  3-C ,  4-C ) :   2.8979
B(  3-C ,  6-H ) :   0.3680 B(  4-C ,  6-H ) :   0.2429

MP2 TOTAL ENERGY:     -265.202802948 Eh
FINAL SINGLE POINT ENERGY      -265.202802948226

DIPOLE MOMENT
-------------
                                X             Y             Z
Electronic contribution:     -1.66821      -1.03825      -0.00002
Nuclear contribution   :      2.58032       1.83858       0.00004
                        -----------------------------------------
Total Dipole Moment    :      0.91211       0.80033       0.00002
                        -----------------------------------------
Magnitude (a.u.)       :      1.21346
Magnitude (Debye)      :      3.08436

Rotational constants in cm-1:     1.653200     0.091312     0.086532
Rotational constants in MHz : 49561.686066  2737.450808  2594.166666

                             ****ORCA TERMINATED NORMALLY****
TOTAL RUN TIME: 0 days 0 hours 0 minutes 37 seconds 281 msec
