                         Program Version 5.0.3 -  RELEASE  -
|  1> !ri-mp2 aug-cc-pvdz aug-cc-pvdz/c tightscf
|  2> %pal nprocs 16 end
|  3>
|  4> * xyz 0 1
|  5> C    -0.327410     0.688228       0.000000
|  6> C     0.327410    -0.688228       0.000000
|  7> H    -1.432549     0.678671       0.000000
|  8> H     1.432549    -0.678671       0.000000
|  9> O     0.327410     1.696141       0.000000
| 10> O    -0.327410    -1.696141       0.000000
| 11> *
| 12>
| 13>                          ****END OF INPUT****

CARTESIAN COORDINATES (ANGSTROEM)
---------------------------------
  C     -0.327410    0.688228    0.000000
  C      0.327410   -0.688228    0.000000
  H     -1.432549    0.678671    0.000000
  H      1.432549   -0.678671    0.000000
  O      0.327410    1.696141    0.000000
  O     -0.327410   -1.696141    0.000000

 Total Charge           Charge          ....    0
 Multiplicity           Mult            ....    1
 Number of Electrons    NEL             ....   30
 Basis Dimension        Dim             ....  110

ORBITAL ENERGIES
----------------

  NO   OCC          E(Eh)            E(eV)
   0   2.0000     -20.618394      -561.0550
   1   2.0000     -20.618394      -561.0550
   2   2.0000     -11.374886      -309.5264
   3   2.0000     -11.374285      -309.5100
   4   2.0000      -1.453431       -39.5499
   5   2.0000      -1.437218       -39.1087
   6   2.0000      -0.967841       -26.3363
   7   2.0000      -0.827985       -22.5306
   8   2.0000      -0.712737       -19.3946
   9   2.0000      -0.710694       -19.3390
  10   2.0000      -0.663808       -18.0631
  11   2.0000      -0.599439       -16.3116
  12   2.0000      -0.537358       -14.6222
  13   2.0000      -0.526552       -14.3282
  14   2.0000      -0.439043       -11.9470
  15   0.0000       0.034633         0.9424
  16   0.0000       0.038414         1.0453
  17   0.0000       0.043631         1.1873
  18   0.0000       0.083734         2.2785
  19   0.0000       0.102501         2.7892

MULLIKEN ATOMIC CHARGES
-----------------------
   0 C :    0.632500
   1 C :    0.632500
   2 H :   -0.033455
   3 H :   -0.033455
   4 O :   -0.599045
   5 O :   -0.599045
Sum of atomic charges:    0.0000000

LOEWDIN ATOMIC CHARGES
----------------------
   0 C :   -0.055376
   1 C :   -0.055376
   2 H :    0.011675
   3 H :    0.011675
   4 O :    0.043701
   5 O :    0.043701

  Mayer bond orders larger than 0.100000
B(  0-C ,  1-C ) :   1.1801 B(  0-C ,  2-H ) :   0.8659 B(  0-C ,  4-O ) :   1.6176
B(  1-C ,  3-H ) :   0.8659 B(  1-C ,  5-O ) :   1.6176

MP2 TOTAL ENERGY:     -227.272107813 Eh
FINAL SINGLE POINT ENERGY      -227.272107813221

DIPOLE MOMENT
-------------
                                X             Y             Z
Electronic contribution:      0.00000       0.00000      -0.00000
Nuclear contribution   :      0.00000       0.00000       0.00000
                        -----------------------------------------
Total Dipole Moment    :      0.00000       0.00000      -0.00000
                        -----------------------------------------
Magnitude (a.u.)       :      0.00000
Magnitude (Debye)      :      0.00000

Rotational constants in cm-1:     1.871232     0.159795     0.147223
Rotational constants in MHz : 56098.124331  4790.544669  4413.638447

                             ****ORCA TERMINATED NORMALLY****
TOTAL RUN TIME: 0 days 0 hours 0 minutes 24 seconds 107 msec
