                         Program Version 5.0.3 -  RELEASE  -
|  1> !ri-mp2 aug-cc-pvdz aug-cc-pvdz/c tightscf
|  2> %pal nprocs 16 end
|  3>
|  4> * xyz 0 1
|  5> O      0.000001    0.762059   -0.000003
|  6> C      1.132678    0.087612   -0.000010
|  7> C     -1.132682    0.087622    0.000031
|  8> C      2.202434   -0.441297    0.000011
|  9> C     -2.202430   -0.441306   -0.000042
| 10> H      3.145026   -0.926136   -0.000026
| 11> H     -3.145031   -0.926124    0.000107
| 12> *
| 13>
| 14>                          ****END OF INPUT****

CARTESIAN COORDINATES (ANGSTROEM)
---------------------------------
  O      0.000001    0.762059   -0.000003
  C      1.132678    0.087612   -0.000010
  C     -1.132682    0.087622    0.000031
  C      2.202434   -0.441297    0.000011
  C     -2.202430   -0.441306   -0.000042
  H      3.145026   -0.926136   -0.000026
  H     -3.145031   -0.926124    0.000107

 Total Charge           Charge          ....    0
 Multiplicity           Mult            ....    1
 Number of Electrons    NEL             ....   34
 Basis Dimension        Dim             ....  133

ORBITAL ENERGIES
----------------

  NO   OCC          E(Eh)            E(eV)
   0   2.0000     -20.700454      -563.2880
   1   2.0000     -11.328407      -308.2616
   2   2.0000     -11.328386      -308.2611
   3   2.0000     -11.255855      -306.2874
   4   2.0000     -11.255853      -306.2873
   5   2.0000      -1.522297       -41.4238
   6   2.0000      -1.075991       -29.2792
   7   2.0000      -1.036050       -28.1924
   8   2.0000      -0.896782       -24.4027
   9   2.0000      -0.744892       -20.2695
  10   2.0000      -0.719872       -19.5887
  11   2.0000      -0.712548       -19.3894
  12   2.0000      -0.696199       -18.9445
  13   2.0000      -0.439288       -11.9536
  14   2.0000      -0.423308       -11.5188
  15   2.0000      -0.419301       -11.4098
  16   2.0000      -0.380852       -10.3635
  17   0.0000       0.033132         0.9016
  18   0.0000       0.036259         0.9867
  19   0.0000       0.076261         2.0752
  20   0.0000       0.099135         2.6976
  21   0.0000       0.105685         2.8758

MULLIKEN ATOMIC CHARGES
-----------------------
   0 O :   -0.748607
   1 C :   -0.262980
   2 C :   -0.262985
   3 C :    1.019309
   4 C :    1.019328
   5 H :   -0.382035
   6 H :   -0.382030
Sum of atomic charges:    0.0000000

LOEWDIN ATOMIC CHARGES
----------------------
   0 O :    0.074850
   1 C :   -0.152793
   2 C :   -0.152792
   3 C :    0.216283
   4 C :    0.216283
   5 H :   -0.100915
   6 H :   -0.100916

  Mayer bond orders larger than 0.100000
B(  0-O ,  1-C ) :   0.9696 B(  0-O ,  2-C ) :   0.9696 B(  0-O ,  3-C ) :  -0.1629
B(  0-O ,  4-C ) :  -0.1629 B(  1-C ,  3-C ) :   2.8656 B(  1-C ,  5-H ) :   0.4385
B(  2-C ,  4-C ) :   2.8655 B(  2-C ,  6-H ) :   0.4385 B(  3-C ,  4-C ) :   0.2854
B(  3-C ,  5-H ) :   0.1671 B(  4-C ,  6-H ) :   0.1671

MP2 TOTAL ENERGY:     -228.022856445 Eh
FINAL SINGLE POINT ENERGY      -228.022856444748

DIPOLE MOMENT
-------------
                                X             Y             Z
Electronic contribution:      0.00000       1.42536      -0.00002
Nuclear contribution   :     -0.00000      -1.77883       0.00008
                        -----------------------------------------
Total Dipole Moment    :     -0.00000      -0.35348       0.00006
                        -----------------------------------------
Magnitude (a.u.)       :      0.35348
Magnitude (Debye)      :      0.89846

Rotational constants in cm-1:     1.064762     0.100773     0.092060
Rotational constants in MHz : 31920.770987  3021.092094  2759.886864

                             ****ORCA TERMINATED NORMALLY****
TOTAL RUN TIME: 0 days 0 hours 0 minutes 38 seconds 474 msec
