                         Program Version 5.0.3 -  RELEASE  -
|  1> !ri-mp2 aug-cc-pvdz aug-cc-pvdz/c tightscf
|  2> %pal nprocs 16 end
|  3> %maxcore 3800
|  4>
|  5> * xyz 0 1
|  6> C      0.000000    0.729498    0.000000
|  7> C     -2.141505   -3.891402    0.000000
|  8> C      2.549320    3.339800    0.000000
|  9> C      0.207382   -0.768043    0.000000
| 10> C     -0.847268   -3.079942    0.000000
| 11> C     -1.088975   -1.570401    0.000000
| 12> C      1.128138    2.824006    0.000000
| 13> O     -1.066056    1.293479    0.000000
| 14> O      1.183521    1.378692    0.000000
| 15> H     -2.746700   -3.667220    0.880566
| 16> H     -2.746700   -3.667220   -0.880566
| 17> H     -1.939443   -4.963233    0.000000
| 18> H      2.543948    4.430393    0.000000
| 19> H      3.089196    3.000657    0.883914
| 20> H      3.089196    3.000657   -0.883914
| 21> H      0.822926   -1.014904   -0.869453
| 22> H      0.822926   -1.014904    0.869453
| 23> H     -0.247536   -3.351756    0.874139
| 24> H     -0.247536   -3.351756   -0.874139
| 25> H     -1.685980   -1.291579    0.871119
| 26> H     -1.685980   -1.291579   -0.871119
| 27> H      0.574702    3.151987   -0.879985
| 28> H      0.574702    3.151987    0.879985
| 29> *
| 30>
| 31>                          ****END OF INPUT****

CARTESIAN COORDINATES (ANGSTROEM)
---------------------------------
  C      0.000000    0.729498    0.000000
  C     -2.141505   -3.891402    0.000000
  C      2.549320    3.339800    0.000000
  C      0.207382   -0.768043    0.000000
  C     -0.847268   -3.079942    0.000000
  C     -1.088975   -1.570401    0.000000
  C      1.128138    2.824006    0.000000
  O     -1.066056    1.293479    0.000000
  O      1.183521    1.378692    0.000000
  H     -2.746700   -3.667220    0.880566
  H     -2.746700   -3.667220   -0.880566
  H     -1.939443   -4.963233    0.000000
  H      2.543948    4.430393    0.000000
  H      3.089196    3.000657    0.883914
  H      3.089196    3.000657   -0.883914
  H      0.822926   -1.014904   -0.869453
  H      0.822926   -1.014904    0.869453
  H     -0.247536   -3.351756    0.874139
  H     -0.247536   -3.351756   -0.874139
  H     -1.685980   -1.291579    0.871119
  H     -1.685980   -1.291579   -0.871119
  H      0.574702    3.151987   -0.879985
  H      0.574702    3.151987    0.879985

 Total Charge           Charge          ....    0
 Multiplicity           Mult            ....    1
 Number of Electrons    NEL             ....   72
 Basis Dimension        Dim             ....  333

ORBITAL ENERGIES
----------------

  NO   OCC          E(Eh)            E(eV)
   0   2.0000     -20.604749      -560.6837
   1   2.0000     -20.550558      -559.2091
   2   2.0000     -11.382181      -309.7249
   3   2.0000     -11.293088      -307.3005
   4   2.0000     -11.244863      -305.9883
   5   2.0000     -11.231037      -305.6121
   6   2.0000     -11.227487      -305.5155
   7   2.0000     -11.226204      -305.4805
   8   2.0000     -11.219241      -305.2911
   9   2.0000      -1.457402       -39.6579
  10   2.0000      -1.358346       -36.9625
  11   2.0000      -1.090232       -29.6667
  12   2.0000      -1.046949       -28.4889
  13   2.0000      -1.005401       -27.3584
  14   2.0000      -0.908349       -24.7174
  15   2.0000      -0.852957       -23.2101
  16   2.0000      -0.801742       -21.8165
  17   2.0000      -0.769530       -20.9400
  18   2.0000      -0.691449       -18.8153
  19   2.0000      -0.683929       -18.6106
  20   2.0000      -0.663206       -18.0468
  21   2.0000      -0.647934       -17.6312
  22   2.0000      -0.600382       -16.3372
  23   2.0000      -0.589348       -16.0370
  24   2.0000      -0.569396       -15.4940
  25   2.0000      -0.559930       -15.2365
  26   2.0000      -0.548998       -14.9390
  27   2.0000      -0.533871       -14.5274
  28   2.0000      -0.512595       -13.9484
  29   2.0000      -0.509838       -13.8734
  30   2.0000      -0.493781       -13.4365
  31   2.0000      -0.478506       -13.0208
  32   2.0000      -0.473982       -12.8977
  33   2.0000      -0.468543       -12.7497
  34   2.0000      -0.453727       -12.3465
  35   2.0000      -0.438900       -11.9431
  36   0.0000       0.034828         0.9477
  37   0.0000       0.038353         1.0436
  38   0.0000       0.045804         1.2464
  39   0.0000       0.046729         1.2716
  40   0.0000       0.053624         1.4592

MULLIKEN ATOMIC CHARGES
-----------------------
   0 C :    0.601859
   1 C :    0.557964
   2 C :    0.291083
   3 C :    0.297284
   4 C :    0.414669
   5 C :    0.324320
   6 C :    0.743063
   7 O :   -0.705467
   8 O :   -0.830737
   9 H :   -0.081295
  10 H :   -0.081295
  11 H :   -0.070836
  12 H :   -0.046535
  13 H :   -0.037555
  14 H :   -0.037555
  15 H :   -0.111293
  16 H :   -0.111293
  17 H :   -0.189316
  18 H :   -0.189316
  19 H :   -0.212194
  20 H :   -0.212194
  21 H :   -0.156680
  22 H :   -0.156680
Sum of atomic charges:   -0.0000000

LOEWDIN ATOMIC CHARGES
----------------------
   0 C :   -0.325918
   1 C :    0.133174
   2 C :    0.139543
   3 C :    0.030890
   4 C :   -0.072296
   5 C :   -0.030909
   6 C :   -0.030103
   7 O :    0.051929
   8 O :    0.069248
   9 H :   -0.018836
  10 H :   -0.018836
  11 H :   -0.021584
  12 H :   -0.014312
  13 H :   -0.015538
  14 H :   -0.015538
  15 H :    0.027513
  16 H :    0.027513
  17 H :    0.010814
  18 H :    0.010814
  19 H :    0.021029
  20 H :    0.021029
  21 H :    0.010187
  22 H :    0.010187

  Mayer bond orders larger than 0.100000
B(  0-C ,  3-C ) :   1.0223 B(  0-C ,  7-O ) :   1.6997 B(  0-C ,  8-O ) :   0.5584
B(  0-C , 19-H ) :   0.1098 B(  0-C , 20-H ) :   0.1098 B(  1-C ,  4-C ) :   1.1827
B(  1-C ,  9-H ) :   0.9148 B(  1-C , 10-H ) :   0.9148 B(  1-C , 11-H ) :   0.9053
B(  2-C ,  6-C ) :   1.2523 B(  2-C , 12-H ) :   0.9212 B(  2-C , 13-H ) :   0.9460
B(  2-C , 14-H ) :   0.9460 B(  3-C ,  4-C ) :  -0.1103 B(  3-C ,  5-C ) :   1.1870
B(  3-C ,  7-O ) :  -0.1094 B(  3-C , 15-H ) :   0.9141 B(  3-C , 16-H ) :   0.9141
B(  4-C ,  5-C ) :   1.2448 B(  4-C , 17-H ) :   0.7431 B(  4-C , 18-H ) :   0.7431
B(  5-C , 19-H ) :   0.8274 B(  5-C , 20-H ) :   0.8274 B(  6-C ,  8-O ) :   0.6553
B(  6-C , 21-H ) :   0.8643 B(  6-C , 22-H ) :   0.8643

MP2 TOTAL ENERGY:     -424.446350591 Eh
FINAL SINGLE POINT ENERGY      -424.446350590931

DIPOLE MOMENT
-------------
                                X             Y             Z
Electronic contribution:      0.54416       6.92753       0.00000
Nuclear contribution   :      0.22806      -7.10070       0.00000
                        -----------------------------------------
Total Dipole Moment    :      0.77223      -0.17317       0.00000
                        -----------------------------------------
Magnitude (a.u.)       :      0.79140
Magnitude (Debye)      :      2.01159

Rotational constants in cm-1:     0.201970     0.017493     0.016390
Rotational constants in MHz :  6054.897327   524.429981   491.350133

                             ****ORCA TERMINATED NORMALLY****
TOTAL RUN TIME: 0 days 0 hours 1 minutes 58 seconds 341 msec
