                         Program Version 5.0.3 -  RELEASE  -
|  1> !ri-mp2 aug-cc-pvdz aug-cc-pvdz/c tightscf
|  2> %pal nprocs 16 end
|  3> %maxcore 3800
|  4>
|  5> * xyz 0 1
|  6> C     -0.035271    2.693968    0.165692
|  7> C      0.035271   -2.693968    0.165692
|  8> C     -0.708324    3.282365    1.375353
|  9> C      0.708324   -3.282365    1.375353
| 10> C      0.235431    0.714142   -1.108083
| 11> C     -0.235431   -0.714142   -1.108083
| 12> O      0.708324    3.280261   -0.579645
| 13> O     -0.708324   -3.280261   -0.579645
| 14> O     -0.367648    1.393029    0.009128
| 15> O      0.367648   -1.393029    0.009128
| 16> H     -0.362315    2.770947    2.273853
| 17> H     -1.786580    3.138698    1.314018
| 18> H     -0.474667    4.340124    1.441134
| 19> H      0.362315   -2.770947    2.273853
| 20> H      1.786580   -3.138698    1.314018
| 21> H      0.474667   -4.340124    1.441134
| 22> H     -0.066747    1.203955   -2.034470
| 23> H      1.320178    0.776496   -1.028180
| 24> H      0.066747   -1.203955   -2.034470
| 25> H     -1.320178   -0.776496   -1.028180
| 26> *
| 27>
| 28>                          ****END OF INPUT****

CARTESIAN COORDINATES (ANGSTROEM)
---------------------------------
  C     -0.035271    2.693968    0.165692
  C      0.035271   -2.693968    0.165692
  C     -0.708324    3.282365    1.375353
  C      0.708324   -3.282365    1.375353
  C      0.235431    0.714142   -1.108083
  C     -0.235431   -0.714142   -1.108083
  O      0.708324    3.280261   -0.579645
  O     -0.708324   -3.280261   -0.579645
  O     -0.367648    1.393029    0.009128
  O      0.367648   -1.393029    0.009128
  H     -0.362315    2.770947    2.273853
  H     -1.786580    3.138698    1.314018
  H     -0.474667    4.340124    1.441134
  H      0.362315   -2.770947    2.273853
  H      1.786580   -3.138698    1.314018
  H      0.474667   -4.340124    1.441134
  H     -0.066747    1.203955   -2.034470
  H      1.320178    0.776496   -1.028180
  H      0.066747   -1.203955   -2.034470
  H     -1.320178   -0.776496   -1.028180

 Total Charge           Charge          ....    0
 Multiplicity           Mult            ....    1
 Number of Electrons    NEL             ....   78
 Basis Dimension        Dim             ....  320

ORBITAL ENERGIES
----------------

  NO   OCC          E(Eh)            E(eV)
   0   2.0000     -20.616720      -561.0095
   1   2.0000     -20.616719      -561.0095
   2   2.0000     -20.559873      -559.4626
   3   2.0000     -20.559872      -559.4626
   4   2.0000     -11.394411      -310.0577
   5   2.0000     -11.394411      -310.0577
   6   2.0000     -11.306670      -307.6701
   7   2.0000     -11.305992      -307.6517
   8   2.0000     -11.251334      -306.1644
   9   2.0000     -11.251334      -306.1644
  10   2.0000      -1.472989       -40.0821
  11   2.0000      -1.465698       -39.8837
  12   2.0000      -1.372952       -37.3599
  13   2.0000      -1.365187       -37.1486
  14   2.0000      -1.077054       -29.3081
  15   2.0000      -1.030417       -28.0391
  16   2.0000      -0.999128       -27.1877
  17   2.0000      -0.883932       -24.0530
  18   2.0000      -0.801192       -21.8016
  19   2.0000      -0.786261       -21.3953
  20   2.0000      -0.706406       -19.2223
  21   2.0000      -0.703176       -19.1344
  22   2.0000      -0.690822       -18.7982
  23   2.0000      -0.678971       -18.4757
  24   2.0000      -0.671194       -18.2641
  25   2.0000      -0.657440       -17.8899
  26   2.0000      -0.605308       -16.4713
  27   2.0000      -0.595145       -16.1947
  28   2.0000      -0.590724       -16.0744
  29   2.0000      -0.576846       -15.6968
  30   2.0000      -0.560747       -15.2587
  31   2.0000      -0.544494       -14.8164
  32   2.0000      -0.530838       -14.4448
  33   2.0000      -0.526464       -14.3258
  34   2.0000      -0.515333       -14.0229
  35   2.0000      -0.471055       -12.8181
  36   2.0000      -0.465840       -12.6762
  37   2.0000      -0.452886       -12.3237
  38   2.0000      -0.452349       -12.3090
  39   0.0000       0.030990         0.8433
  40   0.0000       0.040172         1.0931
  41   0.0000       0.042716         1.1624
  42   0.0000       0.047639         1.2963
  43   0.0000       0.056313         1.5324

MULLIKEN ATOMIC CHARGES
-----------------------
   0 C :    0.653071
   1 C :    0.653071
   2 C :    0.282266
   3 C :    0.282266
   4 C :    0.901632
   5 C :    0.901632
   6 O :   -0.708127
   7 O :   -0.708127
   8 O :   -0.853051
   9 O :   -0.853051
  10 H :    0.041759
  11 H :    0.021446
  12 H :   -0.025862
  13 H :    0.041759
  14 H :    0.021446
  15 H :   -0.025862
  16 H :   -0.137516
  17 H :   -0.175618
  18 H :   -0.137516
  19 H :   -0.175618
Sum of atomic charges:   -0.0000000

LOEWDIN ATOMIC CHARGES
----------------------
   0 C :   -0.364023
   1 C :   -0.364023
   2 C :    0.208494
   3 C :    0.208494
   4 C :    0.012411
   5 C :    0.012411
   6 O :    0.044642
   7 O :    0.044642
   8 O :    0.073567
   9 O :    0.073567
  10 H :   -0.004493
  11 H :   -0.006056
  12 H :   -0.006982
  13 H :   -0.004493
  14 H :   -0.006056
  15 H :   -0.006982
  16 H :    0.021966
  17 H :    0.020474
  18 H :    0.021966
  19 H :    0.020474

  Mayer bond orders larger than 0.100000
B(  0-C ,  2-C ) :   1.0455 B(  0-C ,  6-O ) :   1.5373 B(  0-C ,  8-O ) :   0.7949
B(  0-C , 12-H ) :   0.1023 B(  1-C ,  3-C ) :   1.0455 B(  1-C ,  7-O ) :   1.5373
B(  1-C ,  9-O ) :   0.7949 B(  1-C , 15-H ) :   0.1023 B(  2-C , 10-H ) :   0.9378
B(  2-C , 11-H ) :   0.9380 B(  2-C , 12-H ) :   0.8844 B(  3-C , 13-H ) :   0.9378
B(  3-C , 14-H ) :   0.9380 B(  3-C , 15-H ) :   0.8844 B(  4-C ,  5-C ) :   1.3667
B(  4-C ,  8-O ) :   0.7201 B(  4-C ,  9-O ) :  -0.1509 B(  4-C , 16-H ) :   0.7906
B(  4-C , 17-H ) :   0.9551 B(  5-C ,  8-O ) :  -0.1509 B(  5-C ,  9-O ) :   0.7201
B(  5-C , 18-H ) :   0.7906 B(  5-C , 19-H ) :   0.9551

MP2 TOTAL ENERGY:     -534.213582847 Eh
FINAL SINGLE POINT ENERGY      -534.213582847052

DIPOLE MOMENT
-------------
                                X             Y             Z
Electronic contribution:      0.00000       0.00000      -3.10478
Nuclear contribution   :     -0.00000      -0.00000       3.92404
                        -----------------------------------------
Total Dipole Moment    :      0.00000       0.00000       0.81926
                        -----------------------------------------
Magnitude (a.u.)       :      0.81926
Magnitude (Debye)      :      2.08239

Rotational constants in cm-1:     0.105939     0.017313     0.016144
Rotational constants in MHz :  3175.970776   519.020633   483.980212

                             ****ORCA TERMINATED NORMALLY****
TOTAL RUN TIME: 0 days 0 hours 1 minutes 42 seconds 802 msec
