                         Program Version 5.0.3 -  RELEASE  -
|  1> !ri-mp2 aug-cc-pvdz aug-cc-pvdz/c tightscf
|  2> %pal nprocs 16 end
|  3>
|  4> * xyz 0 1
|  5> C     -0.252597    1.434985    0.748313
|  6> C     -0.252597    1.434985   -0.748313
|  7> C      0.389449    0.284544    0.000000
|  8> C     -0.252597   -1.039865    0.000000
|  9> C      0.387394   -2.205488    0.000000
| 10> H      0.401712    2.122298    1.265403
| 11> H     -1.185014    1.236819    1.258413
| 12> H     -1.185014    1.236819   -1.258413
| 13> H      0.401712    2.122298   -1.265403
| 14> H      1.471951    0.266496    0.000000
| 15> H     -1.339751   -1.036337    0.000000
| 16> H      1.469284   -2.259461    0.000000
| 17> H     -0.149199   -3.143904    0.000000
| 18> *
| 19>
| 20>                          ****END OF INPUT****

CARTESIAN COORDINATES (ANGSTROEM)
---------------------------------
  C     -0.252597    1.434985    0.748313
  C     -0.252597    1.434985   -0.748313
  C      0.389449    0.284544    0.000000
  C     -0.252597   -1.039865    0.000000
  C      0.387394   -2.205488    0.000000
  H      0.401712    2.122298    1.265403
  H     -1.185014    1.236819    1.258413
  H     -1.185014    1.236819   -1.258413
  H      0.401712    2.122298   -1.265403
  H      1.471951    0.266496    0.000000
  H     -1.339751   -1.036337    0.000000
  H      1.469284   -2.259461    0.000000
  H     -0.149199   -3.143904    0.000000

 Total Charge           Charge          ....    0
 Multiplicity           Mult            ....    1
 Number of Electrons    NEL             ....   38
 Basis Dimension        Dim             ....  187

ORBITAL ENERGIES
----------------

  NO   OCC          E(Eh)            E(eV)
   0   2.0000     -11.240968      -305.8823
   1   2.0000     -11.240215      -305.8618
   2   2.0000     -11.234714      -305.7121
   3   2.0000     -11.234056      -305.6942
   4   2.0000     -11.221991      -305.3659
   5   2.0000      -1.154296       -31.4100
   6   2.0000      -1.036100       -28.1937
   7   2.0000      -0.848469       -23.0880
   8   2.0000      -0.826266       -22.4838
   9   2.0000      -0.759650       -20.6711
  10   2.0000      -0.663534       -18.0557
  11   2.0000      -0.647525       -17.6200
  12   2.0000      -0.587048       -15.9744
  13   2.0000      -0.555052       -15.1037
  14   2.0000      -0.518687       -14.1142
  15   2.0000      -0.488585       -13.2951
  16   2.0000      -0.461270       -12.5518
  17   2.0000      -0.426752       -11.6125
  18   2.0000      -0.337363        -9.1801
  19   0.0000       0.038064         1.0358
  20   0.0000       0.043632         1.1873
  21   0.0000       0.045804         1.2464
  22   0.0000       0.051442         1.3998
  23   0.0000       0.064462         1.7541

MULLIKEN ATOMIC CHARGES
-----------------------
   0 C :    0.740779
   1 C :    0.740779
   2 C :    0.639569
   3 C :    0.339189
   4 C :    0.548297
   5 H :   -0.356103
   6 H :   -0.378569
   7 H :   -0.378569
   8 H :   -0.356103
   9 H :   -0.421706
  10 H :   -0.502100
  11 H :   -0.312547
  12 H :   -0.302915
Sum of atomic charges:   -0.0000000

LOEWDIN ATOMIC CHARGES
----------------------
   0 C :    0.062345
   1 C :    0.062345
   2 C :   -0.167583
   3 C :   -0.052483
   4 C :    0.162128
   5 H :   -0.003289
   6 H :   -0.002509
   7 H :   -0.002509
   8 H :   -0.003289
   9 H :    0.028158
  10 H :    0.006089
  11 H :   -0.041485
  12 H :   -0.047918

  Mayer bond orders larger than 0.100000
B(  0-C ,  1-C ) :   1.0883 B(  0-C ,  2-C ) :   0.8155 B(  0-C ,  5-H ) :   0.7831
B(  0-C ,  6-H ) :   0.8079 B(  1-C ,  2-C ) :   0.8155 B(  1-C ,  7-H ) :   0.8079
B(  1-C ,  8-H ) :   0.7831 B(  2-C ,  3-C ) :   1.1692 B(  2-C ,  9-H ) :   0.4041
B(  2-C , 10-H ) :   0.1321 B(  3-C ,  4-C ) :   1.9721 B(  3-C ,  9-H ) :   0.2132
B(  3-C , 10-H ) :   0.5048 B(  3-C , 12-H ) :   0.1400 B(  4-C , 11-H ) :   0.9070
B(  4-C , 12-H ) :   0.7468 B(  5-H ,  6-H ) :  -0.1530 B(  7-H ,  8-H ) :  -0.1530
B( 11-H , 12-H ) :  -0.1916

MP2 TOTAL ENERGY:     -194.670773614 Eh
FINAL SINGLE POINT ENERGY      -194.670773614294

DIPOLE MOMENT
-------------
                                X             Y             Z
Electronic contribution:      0.10857      -0.33962      -0.00000
Nuclear contribution   :     -0.11977       0.57102       0.00000
                        -----------------------------------------
Total Dipole Moment    :     -0.01120       0.23140      -0.00000
                        -----------------------------------------
Magnitude (a.u.)       :      0.23167
Magnitude (Debye)      :      0.58885

Rotational constants in cm-1:     0.509525     0.101832     0.097894
Rotational constants in MHz : 15275.189038  3052.838927  2934.776601

                             ****ORCA TERMINATED NORMALLY****
TOTAL RUN TIME: 0 days 0 hours 0 minutes 39 seconds 153 msec
