                         Program Version 5.0.3 -  RELEASE  -
|  1> !ri-mp2 aug-cc-pvdz aug-cc-pvdz/c tightscf
|  2> %pal nprocs 16 end
|  3> %maxcore 3800
|  4>
|  5> * xyz 0 1
|  6> C      0.023324   -0.446803   -0.001938
|  7> C     -1.248311    0.370867   -0.000992
|  8> O     -1.311122    1.575337   -0.000848
|  9> C      1.295426    0.393952    0.000986
| 10> H     -0.011251   -1.111297    0.865725
| 11> H     -0.010002   -1.106796   -0.873123
| 12> O     -2.335846   -0.428912   -0.000518
| 13> C     -3.622317    0.232251   -0.000074
| 14> H     -3.685904    0.871725   -0.880589
| 15> H     -3.684388    0.873508    0.879239
| 16> C     -4.691361   -0.836651    0.001907
| 17> H     -5.676911   -0.369592    0.002210
| 18> H     -4.612492   -1.468437    0.886478
| 19> H     -4.613940   -1.470332   -0.881440
| 20> H      1.291757    1.055257   -0.868109
| 21> C      2.564097   -0.458735   -0.000991
| 22> H      1.291137    1.050182    0.873940
| 23> H      2.560871   -1.120937    0.871655
| 24> C      3.850414    0.368061    0.002127
| 25> H      2.561668   -1.115615   -0.877655
| 26> H      3.854143    1.028939   -0.869607
| 27> C      5.116582   -0.486575   -0.000026
| 28> H      3.853418    1.023461    0.877993
| 29> H      5.157271   -1.133612    0.878700
| 30> H      6.015118    0.131837    0.002416
| 31> H      5.158130   -1.127901   -0.882890
| 32> *
| 33>
| 34>                          ****END OF INPUT****

CARTESIAN COORDINATES (ANGSTROEM)
---------------------------------
  C      0.023324   -0.446803   -0.001938
  C     -1.248311    0.370867   -0.000992
  O     -1.311122    1.575337   -0.000848
  C      1.295426    0.393952    0.000986
  H     -0.011251   -1.111297    0.865725
  H     -0.010002   -1.106796   -0.873123
  O     -2.335846   -0.428912   -0.000518
  C     -3.622317    0.232251   -0.000074
  H     -3.685904    0.871725   -0.880589
  H     -3.684388    0.873508    0.879239
  C     -4.691361   -0.836651    0.001907
  H     -5.676911   -0.369592    0.002210
  H     -4.612492   -1.468437    0.886478
  H     -4.613940   -1.470332   -0.881440
  H      1.291757    1.055257   -0.868109
  C      2.564097   -0.458735   -0.000991
  H      1.291137    1.050182    0.873940
  H      2.560871   -1.120937    0.871655
  C      3.850414    0.368061    0.002127
  H      2.561668   -1.115615   -0.877655
  H      3.854143    1.028939   -0.869607
  C      5.116582   -0.486575   -0.000026
  H      3.853418    1.023461    0.877993
  H      5.157271   -1.133612    0.878700
  H      6.015118    0.131837    0.002416
  H      5.158130   -1.127901   -0.882890

 Total Charge           Charge          ....    0
 Multiplicity           Mult            ....    1
 Number of Electrons    NEL             ....   80
 Basis Dimension        Dim             ....  374

ORBITAL ENERGIES
----------------

  NO   OCC          E(Eh)            E(eV)
   0   2.0000     -20.604664      -560.6814
   1   2.0000     -20.550403      -559.2049
   2   2.0000     -11.382003      -309.7201
   3   2.0000     -11.292935      -307.2964
   4   2.0000     -11.244705      -305.9840
   5   2.0000     -11.230948      -305.6096
   6   2.0000     -11.226123      -305.4783
   7   2.0000     -11.224727      -305.4404
   8   2.0000     -11.223438      -305.4053
   9   2.0000     -11.218183      -305.2623
  10   2.0000      -1.457279       -39.6546
  11   2.0000      -1.358154       -36.9573
  12   2.0000      -1.094346       -29.7787
  13   2.0000      -1.053705       -28.6728
  14   2.0000      -1.026365       -27.9288
  15   2.0000      -0.951460       -25.8905
  16   2.0000      -0.875669       -23.8282
  17   2.0000      -0.832393       -22.6506
  18   2.0000      -0.793451       -21.5909
  19   2.0000      -0.769227       -20.9317
  20   2.0000      -0.691777       -18.8242
  21   2.0000      -0.683901       -18.6099
  22   2.0000      -0.662917       -18.0389
  23   2.0000      -0.652549       -17.7568
  24   2.0000      -0.613709       -16.6999
  25   2.0000      -0.586590       -15.9619
  26   2.0000      -0.573559       -15.6073
  27   2.0000      -0.567153       -15.4330
  28   2.0000      -0.562046       -15.2940
  29   2.0000      -0.543270       -14.7831
  30   2.0000      -0.534405       -14.5419
  31   2.0000      -0.509901       -13.8751
  32   2.0000      -0.506249       -13.7757
  33   2.0000      -0.502274       -13.6676
  34   2.0000      -0.481518       -13.1028
  35   2.0000      -0.469259       -12.7692
  36   2.0000      -0.464037       -12.6271
  37   2.0000      -0.463263       -12.6060
  38   2.0000      -0.453547       -12.3416
  39   2.0000      -0.437280       -11.8990
  40   0.0000       0.034852         0.9484
  41   0.0000       0.038195         1.0393
  42   0.0000       0.044945         1.2230
  43   0.0000       0.045192         1.2297
  44   0.0000       0.051977         1.4144

MULLIKEN ATOMIC CHARGES
-----------------------
   0 C :    0.371786
   1 C :    0.596248
   2 O :   -0.704851
   3 C :    0.464484
   4 H :   -0.122039
   5 H :   -0.120999
   6 O :   -0.834954
   7 C :    0.733189
   8 H :   -0.156484
   9 H :   -0.156504
  10 C :    0.290325
  11 H :   -0.047327
  12 H :   -0.036841
  13 H :   -0.036782
  14 H :   -0.225366
  15 C :    0.199273
  16 H :   -0.225582
  17 H :   -0.222308
  18 C :    0.524835
  19 H :   -0.222099
  20 H :   -0.175573
  21 C :    0.553564
  22 H :   -0.175645
  23 H :   -0.095890
  24 H :   -0.078559
  25 H :   -0.095903
Sum of atomic charges:    0.0000000

LOEWDIN ATOMIC CHARGES
----------------------
   0 C :    0.032451
   1 C :   -0.325563
   2 O :    0.052050
   3 C :   -0.023702
   4 H :    0.027627
   5 H :    0.027689
   6 O :    0.069366
   7 C :   -0.030413
   8 H :    0.010173
   9 H :    0.010130
  10 C :    0.139536
  11 H :   -0.014310
  12 H :   -0.015516
  13 H :   -0.015513
  14 H :    0.021567
  15 C :   -0.041194
  16 H :    0.021604
  17 H :    0.016091
  18 C :   -0.070820
  19 H :    0.016093
  20 H :    0.012046
  21 C :    0.130901
  22 H :    0.012041
  23 H :   -0.020316
  24 H :   -0.021705
  25 H :   -0.020314

  Mayer bond orders larger than 0.100000
B(  0-C ,  1-C ) :   0.9620 B(  0-C ,  2-O ) :  -0.1371 B(  0-C ,  3-C ) :   1.2441
B(  0-C ,  4-H ) :   0.9191 B(  0-C ,  5-H ) :   0.9196 B(  0-C , 14-H ) :  -0.1173
B(  0-C , 16-H ) :  -0.1171 B(  1-C ,  2-O ) :   1.7001 B(  1-C ,  6-O ) :   0.5774
B(  1-C , 14-H ) :   0.1247 B(  1-C , 16-H ) :   0.1237 B(  3-C ,  4-H ) :  -0.1044
B(  3-C ,  5-H ) :  -0.1052 B(  3-C , 14-H ) :   0.7992 B(  3-C , 15-C ) :   1.3256
B(  3-C , 16-H ) :   0.7997 B(  3-C , 18-C ) :  -0.1314 B(  6-O ,  7-C ) :   0.6535
B(  7-C ,  8-H ) :   0.8658 B(  7-C ,  9-H ) :   0.8658 B(  7-C , 10-C ) :   1.2556
B( 10-C , 11-H ) :   0.9204 B( 10-C , 12-H ) :   0.9463 B( 10-C , 13-H ) :   0.9462
B( 15-C , 17-H ) :   0.7448 B( 15-C , 18-C ) :   1.2440 B( 15-C , 19-H ) :   0.7455
B( 15-C , 20-H ) :   0.1020 B( 15-C , 22-H ) :   0.1018 B( 18-C , 20-H ) :   0.7212
B( 18-C , 21-C ) :   1.1617 B( 18-C , 22-H ) :   0.7212 B( 21-C , 23-H ) :   0.9076
B( 21-C , 24-H ) :   0.9237 B( 21-C , 25-H ) :   0.9075

MP2 TOTAL ENERGY:     -463.634086751 Eh
FINAL SINGLE POINT ENERGY      -463.634086751479

DIPOLE MOMENT
-------------
                                X             Y             Z
Electronic contribution:     -9.94322       3.40085      -0.00513
Nuclear contribution   :      9.78392      -4.13765       0.00513
                        -----------------------------------------
Total Dipole Moment    :     -0.15930      -0.73680      -0.00001
                        -----------------------------------------
Magnitude (a.u.)       :      0.75382
Magnitude (Debye)      :      1.91606

Rotational constants in cm-1:     0.180654     0.012069     0.011480
Rotational constants in MHz :  5415.860187   361.828803   344.174791

                             ****ORCA TERMINATED NORMALLY****
TOTAL RUN TIME: 0 days 0 hours 1 minutes 57 seconds 286 msec
