                         Program Version 5.0.3 -  RELEASE  -
|  1> !ri-mp2 aug-cc-pvdz aug-cc-pvdz/c tightscf
|  2> %pal nprocs 16 end
|  3>
|  4> * xyz 0 1
|  5> Cl     2.462394   -0.834112    0.000000
|  6> Cl    -2.210865    1.860330    0.000000
|  7> O      0.141352   -2.060501    0.000000
|  8> C      0.651704   -0.988993    0.000000
|  9> C      0.000000    0.327350    0.000000
| 10> C     -1.330710    0.383125    0.000000
| 11> H      0.617498    1.210825    0.000000
| 12> H     -1.950271   -0.501414    0.000000
| 13> *
| 14>
| 15>                          ****END OF INPUT****

CARTESIAN COORDINATES (ANGSTROEM)
---------------------------------
  Cl     2.462394   -0.834112    0.000000
  Cl    -2.210865    1.860330    0.000000
  O      0.141352   -2.060501    0.000000
  C      0.651704   -0.988993    0.000000
  C      0.000000    0.327350    0.000000
  C     -1.330710    0.383125    0.000000
  H      0.617498    1.210825    0.000000
  H     -1.950271   -0.501414    0.000000

 Total Charge           Charge          ....    0
 Multiplicity           Mult            ....    1
 Number of Electrons    NEL             ....   62
 Basis Dimension        Dim             ....  164

ORBITAL ENERGIES
----------------

  NO   OCC          E(Eh)            E(eV)
   0   2.0000    -104.878781     -2853.8967
   1   2.0000    -104.852105     -2853.1708
   2   2.0000     -20.611519      -560.8679
   3   2.0000     -11.433213      -311.1135
   4   2.0000     -11.360452      -309.1336
   5   2.0000     -11.294391      -307.3360
   6   2.0000     -10.604905      -288.5741
   7   2.0000     -10.578591      -287.8581
   8   2.0000      -8.072759      -219.6710
   9   2.0000      -8.069227      -219.5748
  10   2.0000      -8.069107      -219.5716
  11   2.0000      -8.046042      -218.9439
  12   2.0000      -8.042943      -218.8596
  13   2.0000      -8.042780      -218.8552
  14   2.0000      -1.462570       -39.7985
  15   2.0000      -1.206090       -32.8194
  16   2.0000      -1.140579       -31.0367
  17   2.0000      -1.074730       -29.2449
  18   2.0000      -0.883023       -24.0283
  19   2.0000      -0.786393       -21.3988
  20   2.0000      -0.717216       -19.5164
  21   2.0000      -0.692098       -18.8329
  22   2.0000      -0.631197       -17.1757
  23   2.0000      -0.617979       -16.8161
  24   2.0000      -0.597064       -16.2469
  25   2.0000      -0.543330       -14.7848
  26   2.0000      -0.495854       -13.4929
  27   2.0000      -0.475258       -12.9324
  28   2.0000      -0.472734       -12.8638
  29   2.0000      -0.460890       -12.5414
  30   2.0000      -0.408173       -11.1069
  31   0.0000       0.036480         0.9927
  32   0.0000       0.038461         1.0466
  33   0.0000       0.046705         1.2709
  34   0.0000       0.071410         1.9432
  35   0.0000       0.087621         2.3843

MULLIKEN ATOMIC CHARGES
-----------------------
   0 Cl:   -0.129178
   1 Cl:   -0.231950
   2 O :   -0.604690
   3 C :   -0.149924
   4 C :    1.879768
   5 C :   -0.333377
   6 H :   -0.188301
   7 H :   -0.242347
Sum of atomic charges:   -0.0000000

LOEWDIN ATOMIC CHARGES
----------------------
   0 Cl:    0.478105
   1 Cl:    0.575673
   2 O :    0.034367
   3 C :   -0.593408
   4 C :   -0.099053
   5 C :   -0.345184
   6 H :   -0.020987
   7 H :   -0.029512

  Mayer bond orders larger than 0.100000
B(  0-Cl,  3-C ) :   1.1467 B(  0-Cl,  4-C ) :  -0.2314 B(  1-Cl,  4-C ) :  -0.4249
B(  1-Cl,  5-C ) :   1.2383 B(  2-O ,  3-C ) :   1.6032 B(  2-O ,  4-C ) :  -0.1050
B(  3-C ,  4-C ) :   0.2551 B(  4-C ,  5-C ) :   0.8959 B(  4-C ,  6-H ) :   0.8167
B(  4-C ,  7-H ) :  -0.1209 B(  5-C ,  7-H ) :   1.0630

MP2 TOTAL ENERGY:    -1109.533490681 Eh
FINAL SINGLE POINT ENERGY     -1109.533490680784

DIPOLE MOMENT
-------------
                                X             Y             Z
Electronic contribution:      1.10082       1.51815      -0.00000
Nuclear contribution   :     -1.57522      -0.73733       0.00000
                        -----------------------------------------
Total Dipole Moment    :     -0.47441       0.78082      -0.00000
                        -----------------------------------------
Magnitude (a.u.)       :      0.91364
Magnitude (Debye)      :      2.32230

Rotational constants in cm-1:     0.233806     0.029122     0.025897
Rotational constants in MHz :  7009.337783   873.067131   776.364890

                             ****ORCA TERMINATED NORMALLY****
TOTAL RUN TIME: 0 days 0 hours 0 minutes 26 seconds 719 msec
