                         Program Version 5.0.3 -  RELEASE  -
|  1> !ri-mp2 aug-cc-pvdz aug-cc-pvdz/c tightscf
|  2> %pal nprocs 16 end
|  3>
|  4> * xyz 0 1
|  5> O      0.000000    0.357505    0.000000
|  6> H      0.720823   -1.378199    0.885457
|  7> H      0.720823   -1.378199   -0.885457
|  8> C      0.166852   -1.039701    0.000000
|  9> H      1.824588    0.770257    0.885970
| 10> H      1.824588    0.770257   -0.885970
| 11> C      1.244020    1.056932    0.000000
| 12> H      0.387071    2.824218   -0.883974
| 13> H      1.894071    3.101369    0.000000
| 14> H      0.387071    2.824218    0.883974
| 15> C      0.957977    2.542132    0.000000
| 16> N     -2.157411   -2.231286    0.000000
| 17> C     -1.145041   -1.688522    0.000000
| 18> *
| 19>
| 20>                          ****END OF INPUT****

CARTESIAN COORDINATES (ANGSTROEM)
---------------------------------
  O      0.000000    0.357505    0.000000
  H      0.720823   -1.378199    0.885457
  H      0.720823   -1.378199   -0.885457
  C      0.166852   -1.039701    0.000000
  H      1.824588    0.770257    0.885970
  H      1.824588    0.770257   -0.885970
  C      1.244020    1.056932    0.000000
  H      0.387071    2.824218   -0.883974
  H      1.894071    3.101369    0.000000
  H      0.387071    2.824218    0.883974
  C      0.957977    2.542132    0.000000
  N     -2.157411   -2.231286    0.000000
  C     -1.145041   -1.688522    0.000000

 Total Charge           Charge          ....    0
 Multiplicity           Mult            ....    1
 Number of Electrons    NEL             ....   46
 Basis Dimension        Dim             ....  201

ORBITAL ENERGIES
----------------

  NO   OCC          E(Eh)            E(eV)
   0   2.0000     -20.600054      -560.5560
   1   2.0000     -15.587004      -424.1439
   2   2.0000     -11.347617      -308.7843
   3   2.0000     -11.306186      -307.6570
   4   2.0000     -11.285751      -307.1009
   5   2.0000     -11.237559      -305.7895
   6   2.0000      -1.414419       -38.4883
   7   2.0000      -1.229964       -33.4690
   8   2.0000      -1.064391       -28.9635
   9   2.0000      -0.987128       -26.8611
  10   2.0000      -0.860676       -23.4202
  11   2.0000      -0.727453       -19.7950
  12   2.0000      -0.710487       -19.3333
  13   2.0000      -0.697534       -18.9809
  14   2.0000      -0.628236       -17.0952
  15   2.0000      -0.582263       -15.8442
  16   2.0000      -0.558665       -15.2020
  17   2.0000      -0.545951       -14.8561
  18   2.0000      -0.533819       -14.5260
  19   2.0000      -0.510769       -13.8987
  20   2.0000      -0.475110       -12.9284
  21   2.0000      -0.474349       -12.9077
  22   2.0000      -0.448886       -12.2148
  23   0.0000       0.027896         0.7591
  24   0.0000       0.040921         1.1135
  25   0.0000       0.042332         1.1519
  26   0.0000       0.049492         1.3468
  27   0.0000       0.066517         1.8100

MULLIKEN ATOMIC CHARGES
-----------------------
   0 O :   -0.895922
   1 H :   -0.026449
   2 H :   -0.026449
   3 C :    0.997463
   4 H :   -0.134159
   5 H :   -0.134159
   6 C :    0.612744
   7 H :   -0.040160
   8 H :   -0.034248
   9 H :   -0.040160
  10 C :    0.342111
  11 N :   -0.290110
  12 C :   -0.330502
Sum of atomic charges:   -0.0000000

LOEWDIN ATOMIC CHARGES
----------------------
   0 O :    0.008736
   1 H :    0.023047
   2 H :    0.023047
   3 C :   -0.055040
   4 H :    0.009104
   5 H :    0.009104
   6 C :   -0.071945
   7 H :   -0.013009
   8 H :   -0.014222
   9 H :   -0.013009
  10 C :    0.143251
  11 N :    0.072863
  12 C :   -0.121926

  Mayer bond orders larger than 0.100000
B(  0-O ,  3-C ) :   0.7643 B(  0-O ,  6-C ) :   0.5911 B(  1-H ,  3-C ) :   0.8980
B(  2-H ,  3-C ) :   0.8980 B(  3-C , 12-C ) :   0.6926 B(  4-H ,  6-C ) :   0.8843
B(  5-H ,  6-C ) :   0.8843 B(  6-C , 10-C ) :   1.2949 B(  7-H , 10-C ) :   0.9382
B(  8-H , 10-C ) :   0.8901 B(  9-H , 10-C ) :   0.9382 B( 11-N , 12-C ) :   2.7518

MP2 TOTAL ENERGY:     -285.794316920 Eh
FINAL SINGLE POINT ENERGY      -285.794316919841

DIPOLE MOMENT
-------------
                                X             Y             Z
Electronic contribution:     -5.91023      -6.94190       0.00000
Nuclear contribution   :      7.86336       7.64013       0.00000
                        -----------------------------------------
Total Dipole Moment    :      1.95314       0.69823       0.00000
                        -----------------------------------------
Magnitude (a.u.)       :      2.07419
Magnitude (Debye)      :      5.27217

Rotational constants in cm-1:     0.526140     0.049655     0.046561
Rotational constants in MHz : 15773.286452  1488.621240  1395.850485

                             ****ORCA TERMINATED NORMALLY****
TOTAL RUN TIME: 0 days 0 hours 0 minutes 43 seconds 552 msec
