                         Program Version 5.0.3 -  RELEASE  -
|  1> !ri-mp2 aug-cc-pvdz aug-cc-pvdz/c tightscf
|  2> %pal nprocs 16 end
|  3>
|  4> * xyz 0 1
|  5> C      0.000000    0.540816    0.000000
|  6> C      1.243175    2.751600    0.000000
|  7> C     -0.679664   -3.043361    0.000000
|  8> C      1.345131    1.232352    0.000000
|  9> C     -1.070032   -1.582821    0.000000
| 10> O     -1.072742    1.091993    0.000000
| 11> O      0.146706   -0.800498    0.000000
| 12> H      0.706894    3.109292    0.877772
| 13> H      2.237781    3.197410    0.000000
| 14> H      0.706894    3.109292   -0.877772
| 15> H     -1.577230   -3.662892    0.000000
| 16> H     -0.092760   -3.292082   -0.884003
| 17> H     -0.092760   -3.292082    0.884003
| 18> H      1.899563    0.870429    0.869102
| 19> H      1.899563    0.870429   -0.869102
| 20> H     -1.655657   -1.316641    0.880006
| 21> H     -1.655657   -1.316641   -0.880006
| 22> *
| 23>
| 24>                          ****END OF INPUT****

CARTESIAN COORDINATES (ANGSTROEM)
---------------------------------
  C      0.000000    0.540816    0.000000
  C      1.243175    2.751600    0.000000
  C     -0.679664   -3.043361    0.000000
  C      1.345131    1.232352    0.000000
  C     -1.070032   -1.582821    0.000000
  O     -1.072742    1.091993    0.000000
  O      0.146706   -0.800498    0.000000
  H      0.706894    3.109292    0.877772
  H      2.237781    3.197410    0.000000
  H      0.706894    3.109292   -0.877772
  H     -1.577230   -3.662892    0.000000
  H     -0.092760   -3.292082   -0.884003
  H     -0.092760   -3.292082    0.884003
  H      1.899563    0.870429    0.869102
  H      1.899563    0.870429   -0.869102
  H     -1.655657   -1.316641    0.880006
  H     -1.655657   -1.316641   -0.880006

 Total Charge           Charge          ....    0
 Multiplicity           Mult            ....    1
 Number of Electrons    NEL             ....   56
 Basis Dimension        Dim             ....  251

ORBITAL ENERGIES
----------------

  NO   OCC          E(Eh)            E(eV)
   0   2.0000     -20.605554      -560.7056
   1   2.0000     -20.551328      -559.2301
   2   2.0000     -11.382640      -309.7374
   3   2.0000     -11.293655      -307.3160
   4   2.0000     -11.248254      -306.0805
   5   2.0000     -11.231480      -305.6241
   6   2.0000     -11.225400      -305.4587
   7   2.0000      -1.458297       -39.6823
   8   2.0000      -1.359195       -36.9856
   9   2.0000      -1.069898       -29.1134
  10   2.0000      -1.031579       -28.0707
  11   2.0000      -0.909647       -24.7528
  12   2.0000      -0.845593       -23.0098
  13   2.0000      -0.771069       -20.9819
  14   2.0000      -0.696470       -18.9519
  15   2.0000      -0.683587       -18.6013
  16   2.0000      -0.663431       -18.0529
  17   2.0000      -0.627880       -17.0855
  18   2.0000      -0.581724       -15.8295
  19   2.0000      -0.569593       -15.4994
  20   2.0000      -0.557561       -15.1720
  21   2.0000      -0.523833       -14.2542
  22   2.0000      -0.519804       -14.1446
  23   2.0000      -0.512280       -13.9399
  24   2.0000      -0.507527       -13.8105
  25   2.0000      -0.491367       -13.3708
  26   2.0000      -0.455366       -12.3911
  27   2.0000      -0.441342       -12.0095
  28   0.0000       0.034267         0.9324
  29   0.0000       0.039931         1.0866
  30   0.0000       0.047497         1.2925
  31   0.0000       0.049028         1.3341
  32   0.0000       0.060027         1.6334

MULLIKEN ATOMIC CHARGES
-----------------------
   0 C :    0.523989
   1 C :    0.493896
   2 C :    0.279262
   3 C :    0.209562
   4 C :    0.763008
   5 O :   -0.702177
   6 O :   -0.815501
   7 H :   -0.060911
   8 H :   -0.052552
   9 H :   -0.060911
  10 H :   -0.038953
  11 H :   -0.040836
  12 H :   -0.040836
  13 H :   -0.066723
  14 H :   -0.066723
  15 H :   -0.161795
  16 H :   -0.161795
Sum of atomic charges:    0.0000000

LOEWDIN ATOMIC CHARGES
----------------------
   0 C :   -0.334435
   1 C :    0.143118
   2 C :    0.139664
   3 C :   -0.007886
   4 C :   -0.030044
   5 O :    0.049883
   6 O :    0.068518
   7 H :   -0.013930
   8 H :   -0.019140
   9 H :   -0.013930
  10 H :   -0.014234
  11 H :   -0.015514
  12 H :   -0.015514
  13 H :    0.021520
  14 H :    0.021520
  15 H :    0.010201
  16 H :    0.010201

  Mayer bond orders larger than 0.100000
B(  0-C ,  3-C ) :   0.9938 B(  0-C ,  5-O ) :   1.6730 B(  0-C ,  6-O ) :   0.5933
B(  1-C ,  3-C ) :   1.1698 B(  1-C ,  7-H ) :   0.9464 B(  1-C ,  8-H ) :   0.8956
B(  1-C ,  9-H ) :   0.9464 B(  2-C ,  4-C ) :   1.2458 B(  2-C , 10-H ) :   0.9180
B(  2-C , 11-H ) :   0.9511 B(  2-C , 12-H ) :   0.9511 B(  3-C , 13-H ) :   0.8351
B(  3-C , 14-H ) :   0.8351 B(  4-C ,  6-O ) :   0.6425 B(  4-C , 15-H ) :   0.8638
B(  4-C , 16-H ) :   0.8638

MP2 TOTAL ENERGY:     -346.071315988 Eh
FINAL SINGLE POINT ENERGY      -346.071315987905

DIPOLE MOMENT
-------------
                                X             Y             Z
Electronic contribution:     -1.85517       1.19475       0.00000
Nuclear contribution   :      2.43232      -1.77004       0.00000
                        -----------------------------------------
Total Dipole Moment    :      0.57715      -0.57529       0.00000
                        -----------------------------------------
Magnitude (a.u.)       :      0.81490
Magnitude (Debye)      :      2.07130

Rotational constants in cm-1:     0.263696     0.041966     0.037197
Rotational constants in MHz :  7905.397573  1258.107592  1115.132807

                             ****ORCA TERMINATED NORMALLY****
TOTAL RUN TIME: 0 days 0 hours 1 minutes 6 seconds 81 msec
