                         Program Version 5.0.3 -  RELEASE  -
|  1> !ri-mp2 aug-cc-pvdz aug-cc-pvdz/c tightscf
|  2> %pal nprocs 16 end
|  3>
|  4> * xyz 0 1
|  5> S     -0.000127   -1.112931    0.000000
|  6> C      0.000196    1.751740    0.000000
|  7> C      0.000000    0.447878    0.000000
|  8> H      0.000427    2.304594    0.929946
|  9> H      0.000427    2.304594   -0.929946
| 10> *
| 11>
| 12>                          ****END OF INPUT****

CARTESIAN COORDINATES (ANGSTROEM)
---------------------------------
  S     -0.000127   -1.112931    0.000000
  C      0.000196    1.751740    0.000000
  C      0.000000    0.447878    0.000000
  H      0.000427    2.304594    0.929946
  H      0.000427    2.304594   -0.929946

 Total Charge           Charge          ....    0
 Multiplicity           Mult            ....    1
 Number of Electrons    NEL             ....   30
 Basis Dimension        Dim             ....   91

ORBITAL ENERGIES
----------------

  NO   OCC          E(Eh)            E(eV)
   0   2.0000     -91.976529     -2502.8086
   1   2.0000     -11.352483      -308.9168
   2   2.0000     -11.259579      -306.3887
   3   2.0000      -8.979721      -244.3506
   4   2.0000      -6.661900      -181.2795
   5   2.0000      -6.659547      -181.2155
   6   2.0000      -6.657766      -181.1670
   7   2.0000      -1.117375       -30.4053
   8   2.0000      -0.996081       -27.1047
   9   2.0000      -0.717052       -19.5120
  10   2.0000      -0.631088       -17.1728
  11   2.0000      -0.589216       -16.0334
  12   2.0000      -0.502743       -13.6803
  13   2.0000      -0.426495       -11.6055
  14   2.0000      -0.330802        -9.0016
  15   0.0000       0.035172         0.9571
  16   0.0000       0.044445         1.2094
  17   0.0000       0.059867         1.6291
  18   0.0000       0.068521         1.8645
  19   0.0000       0.087969         2.3937

MULLIKEN ATOMIC CHARGES
-----------------------
   0 S :    0.075183
   1 C :    0.526081
   2 C :   -0.310488
   3 H :   -0.145388
   4 H :   -0.145388
Sum of atomic charges:    0.0000000

LOEWDIN ATOMIC CHARGES
----------------------
   0 S :    0.656507
   1 C :    0.091464
   2 C :   -0.660748
   3 H :   -0.043611
   4 H :   -0.043611

  Mayer bond orders larger than 0.100000
B(  0-S ,  2-C ) :   1.9715 B(  1-C ,  2-C ) :   1.6934 B(  1-C ,  3-H ) :   0.9160
B(  1-C ,  4-H ) :   0.9160 B(  3-H ,  4-H ) :  -0.1260

MP2 TOTAL ENERGY:     -474.790736858 Eh
FINAL SINGLE POINT ENERGY      -474.790736858196

DIPOLE MOMENT
-------------
                                X             Y             Z
Electronic contribution:     -0.00062      -3.86063      -0.00000
Nuclear contribution   :      0.00083       4.50319       0.00000
                        -----------------------------------------
Total Dipole Moment    :      0.00021       0.64257      -0.00000
                        -----------------------------------------
Magnitude (a.u.)       :      0.64257
Magnitude (Debye)      :      1.63327

Rotational constants in cm-1:     9.669208     0.188740     0.185126
Rotational constants in MHz : 289875.555717  5658.271564  5549.938673

                             ****ORCA TERMINATED NORMALLY****
TOTAL RUN TIME: 0 days 0 hours 0 minutes 30 seconds 632 msec
