                         Program Version 5.0.3 -  RELEASE  -
|  1> !ri-mp2 aug-cc-pvdz aug-cc-pvdz/c tightscf
|  2> %pal nprocs 16 end
|  3>
|  4> * xyz 0 1
|  5> N    -0.059500     0.647189    0.000000
|  6> N     0.059500    -0.647189    0.000000
|  7> O    -1.192188     1.211304    0.000000
|  8> O     1.192188    -1.211304    0.000000
|  9> C     1.192188     1.415406    0.000000
| 10> C    -1.192188    -1.415406    0.000000
| 11> H     0.895007     2.456379    0.000000
| 12> H     1.774488     1.156491    0.882046
| 13> H     1.774488     1.156491   -0.882046
| 14> H    -0.895007    -2.456379    0.000000
| 15> H    -1.774488    -1.156491    0.882046
| 16> H    -1.774488    -1.156491   -0.882046
| 17> *
| 18>
| 19>                          ****END OF INPUT****

CARTESIAN COORDINATES (ANGSTROEM)
---------------------------------
  N     -0.059500    0.647189    0.000000
  N      0.059500   -0.647189    0.000000
  O     -1.192188    1.211304    0.000000
  O      1.192188   -1.211304    0.000000
  C      1.192188    1.415406    0.000000
  C     -1.192188   -1.415406    0.000000
  H      0.895007    2.456379    0.000000
  H      1.774488    1.156491    0.882046
  H      1.774488    1.156491   -0.882046
  H     -0.895007   -2.456379    0.000000
  H     -1.774488   -1.156491    0.882046
  H     -1.774488   -1.156491   -0.882046

 Total Charge           Charge          ....    0
 Multiplicity           Mult            ....    1
 Number of Electrons    NEL             ....   48
 Basis Dimension        Dim             ....  192

ORBITAL ENERGIES
----------------

  NO   OCC          E(Eh)            E(eV)
   0   2.0000     -20.564052      -559.5763
   1   2.0000     -20.564042      -559.5760
   2   2.0000     -15.783390      -429.4879
   3   2.0000     -15.782407      -429.4611
   4   2.0000     -11.301713      -307.5352
   5   2.0000     -11.301712      -307.5352
   6   2.0000      -1.557603       -42.3845
   7   2.0000      -1.437474       -39.1156
   8   2.0000      -1.208388       -32.8819
   9   2.0000      -1.118441       -30.4343
  10   2.0000      -0.999570       -27.1997
  11   2.0000      -0.812304       -22.1039
  12   2.0000      -0.761481       -20.7209
  13   2.0000      -0.746166       -20.3042
  14   2.0000      -0.719179       -19.5698
  15   2.0000      -0.625568       -17.0226
  16   2.0000      -0.623767       -16.9736
  17   2.0000      -0.613830       -16.7032
  18   2.0000      -0.592548       -16.1241
  19   2.0000      -0.562822       -15.3152
  20   2.0000      -0.539064       -14.6687
  21   2.0000      -0.490274       -13.3410
  22   2.0000      -0.441956       -12.0262
  23   2.0000      -0.333649        -9.0790
  24   0.0000       0.033507         0.9118
  25   0.0000       0.041698         1.1347
  26   0.0000       0.054325         1.4782
  27   0.0000       0.058133         1.5819
  28   0.0000       0.066391         1.8066

MULLIKEN ATOMIC CHARGES
-----------------------
   0 N :    0.279333
   1 N :    0.279333
   2 O :   -1.007560
   3 O :   -1.007560
   4 C :    0.921045
   5 C :    0.921045
   6 H :   -0.164002
   7 H :   -0.014409
   8 H :   -0.014409
   9 H :   -0.164002
  10 H :   -0.014409
  11 H :   -0.014409
Sum of atomic charges:   -0.0000000

LOEWDIN ATOMIC CHARGES
----------------------
   0 N :   -0.225493
   1 N :   -0.225493
   2 O :   -0.037265
   3 O :   -0.037265
   4 C :    0.262172
   5 C :    0.262172
   6 H :   -0.003054
   7 H :    0.001821
   8 H :    0.001821
   9 H :   -0.003054
  10 H :    0.001821
  11 H :    0.001821

  Mayer bond orders larger than 0.100000
B(  0-N ,  1-N ) :   1.6470 B(  0-N ,  2-O ) :   0.8623 B(  0-N ,  4-C ) :   0.7330
B(  1-N ,  3-O ) :   0.8623 B(  1-N ,  5-C ) :   0.7330 B(  4-C ,  6-H ) :   0.9966
B(  4-C ,  7-H ) :   0.8989 B(  4-C ,  8-H ) :   0.8989 B(  5-C ,  9-H ) :   0.9966
B(  5-C , 10-H ) :   0.8989 B(  5-C , 11-H ) :   0.8989

MP2 TOTAL ENERGY:     -338.788808510 Eh
FINAL SINGLE POINT ENERGY      -338.788808509682

DIPOLE MOMENT
-------------
                                X             Y             Z
Electronic contribution:      0.00000       0.00000      -0.00000
Nuclear contribution   :     -0.00000       0.00000       0.00000
                        -----------------------------------------
Total Dipole Moment    :      0.00000       0.00000      -0.00000
                        -----------------------------------------
Magnitude (a.u.)       :      0.00000
Magnitude (Debye)      :      0.00000

Rotational constants in cm-1:     0.175524     0.131056     0.077188
Rotational constants in MHz :  5262.081209  3928.970039  2314.041314

                             ****ORCA TERMINATED NORMALLY****
TOTAL RUN TIME: 0 days 0 hours 0 minutes 34 seconds 822 msec
