                         Program Version 5.0.3 -  RELEASE  -
|  1> !ri-mp2 aug-cc-pvdz aug-cc-pvdz/c tightscf
|  2> %pal nprocs 16 end
|  3>
|  4> * xyz 0 1
|  5> C     -0.154478    1.510212    0.000000
|  6> H     -1.217229    1.713662    0.000000
|  7> F      0.576176    2.632653    0.000000
|  8> C      0.400564    0.312634    0.000000
|  9> H      1.474625    0.185038    0.000000
| 10> C     -0.438047   -0.911202    0.000000
| 11> H     -1.510614   -0.713266    0.000000
| 12> F     -0.154478   -1.686065    1.097573
| 13> F     -0.154478   -1.686065   -1.097573
| 14> *
| 15>
| 16>                          ****END OF INPUT****

CARTESIAN COORDINATES (ANGSTROEM)
---------------------------------
  C     -0.154478    1.510212    0.000000
  H     -1.217229    1.713662    0.000000
  F      0.576176    2.632653    0.000000
  C      0.400564    0.312634    0.000000
  H      1.474625    0.185038    0.000000
  C     -0.438047   -0.911202    0.000000
  H     -1.510614   -0.713266    0.000000
  F     -0.154478   -1.686065    1.097573
  F     -0.154478   -1.686065   -1.097573

 Total Charge           Charge          ....    0
 Multiplicity           Mult            ....    1
 Number of Electrons    NEL             ....   48
 Basis Dimension        Dim             ....  165

ORBITAL ENERGIES
----------------

  NO   OCC          E(Eh)            E(eV)
   0   2.0000     -26.347897      -716.9627
   1   2.0000     -26.326981      -716.3936
   2   2.0000     -26.326963      -716.3931
   3   2.0000     -11.434481      -311.1481
   4   2.0000     -11.367911      -309.3366
   5   2.0000     -11.272545      -306.7415
   6   2.0000      -1.666342       -45.3435
   7   2.0000      -1.658607       -45.1330
   8   2.0000      -1.604668       -43.6652
   9   2.0000      -1.120116       -30.4799
  10   2.0000      -0.967279       -26.3210
  11   2.0000      -0.863518       -23.4975
  12   2.0000      -0.790213       -21.5028
  13   2.0000      -0.779511       -21.2116
  14   2.0000      -0.759118       -20.6567
  15   2.0000      -0.735891       -20.0246
  16   2.0000      -0.714808       -19.4509
  17   2.0000      -0.681812       -18.5530
  18   2.0000      -0.668825       -18.1996
  19   2.0000      -0.631776       -17.1915
  20   2.0000      -0.623602       -16.9691
  21   2.0000      -0.590634       -16.0720
  22   2.0000      -0.542599       -14.7649
  23   2.0000      -0.415974       -11.3192
  24   0.0000       0.032102         0.8735
  25   0.0000       0.045068         1.2264
  26   0.0000       0.051747         1.4081
  27   0.0000       0.089903         2.4464
  28   0.0000       0.100073         2.7231

MULLIKEN ATOMIC CHARGES
-----------------------
   0 C :    0.952505
   1 H :   -0.189513
   2 F :   -0.615614
   3 C :    0.175059
   4 H :   -0.310751
   5 C :    1.493202
   6 H :   -0.285881
   7 F :   -0.609503
   8 F :   -0.609503
Sum of atomic charges:    0.0000000

LOEWDIN ATOMIC CHARGES
----------------------
   0 C :    0.010135
   1 H :    0.001395
   2 F :    0.044660
   3 C :    0.017438
   4 H :    0.015248
   5 C :   -0.169793
   6 H :    0.022561
   7 F :    0.029178
   8 F :    0.029178

  Mayer bond orders larger than 0.100000
B(  0-C ,  1-H ) :   0.8995 B(  0-C ,  2-F ) :   0.1309 B(  0-C ,  3-C ) :   1.9933
B(  2-F ,  3-C ) :   0.2996 B(  3-C ,  4-H ) :   0.8582 B(  3-C ,  5-C ) :   1.1393
B(  5-C ,  6-H ) :   0.9018 B(  5-C ,  7-F ) :   0.3311 B(  5-C ,  8-F ) :   0.3311

MP2 TOTAL ENERGY:     -414.701395114 Eh
FINAL SINGLE POINT ENERGY      -414.701395114042

DIPOLE MOMENT
-------------
                                X             Y             Z
Electronic contribution:      0.82214      -1.25035       0.00000
Nuclear contribution   :     -1.42388       1.79799       0.00000
                        -----------------------------------------
Total Dipole Moment    :     -0.60174       0.54764       0.00000
                        -----------------------------------------
Magnitude (a.u.)       :      0.81363
Magnitude (Debye)      :      2.06809

Rotational constants in cm-1:     0.295245     0.056306     0.050496
Rotational constants in MHz :  8851.213370  1688.016409  1513.835890

                             ****ORCA TERMINATED NORMALLY****
TOTAL RUN TIME: 0 days 0 hours 0 minutes 18 seconds 984 msec
