                         Program Version 5.0.3 -  RELEASE  -
|  1> !ri-mp2 aug-cc-pvdz aug-cc-pvdz/c tightscf
|  2> %pal nprocs 16 end
|  3>
|  4> * xyz 0 1
|  5> C      0.000000    0.000000   -0.526958
|  6> O      0.000000    0.000000    0.673270
|  7> H      0.000000    0.938263   -1.112205
|  8> H      0.000000   -0.938263   -1.112205
|  9> *
| 10>
| 11>                          ****END OF INPUT****

CARTESIAN COORDINATES (ANGSTROEM)
---------------------------------
  C      0.000000    0.000000   -0.526958
  O      0.000000    0.000000    0.673270
  H      0.000000    0.938263   -1.112205
  H      0.000000   -0.938263   -1.112205

 Total Charge           Charge          ....    0
 Multiplicity           Mult            ....    1
 Number of Electrons    NEL             ....   16
 Basis Dimension        Dim             ....   64

ORBITAL ENERGIES
----------------

  NO   OCC          E(Eh)            E(eV)
   0   2.0000     -20.588778      -560.2491
   1   2.0000     -11.352126      -308.9071
   2   2.0000      -1.415845       -38.5271
   3   2.0000      -0.870091       -23.6764
   4   2.0000      -0.695066       -18.9137
   5   2.0000      -0.655557       -17.8386
   6   2.0000      -0.540327       -14.7030
   7   2.0000      -0.441311       -12.0087
   8   0.0000       0.033006         0.8981
   9   0.0000       0.050898         1.3850
  10   0.0000       0.069609         1.8942
  11   0.0000       0.089558         2.4370
  12   0.0000       0.149374         4.0647

MULLIKEN ATOMIC CHARGES
-----------------------
   0 C :    0.710929
   1 O :   -0.527812
   2 H :   -0.091558
   3 H :   -0.091558
Sum of atomic charges:    0.0000000

LOEWDIN ATOMIC CHARGES
----------------------
   0 C :    0.079530
   1 O :   -0.016344
   2 H :   -0.031593
   3 H :   -0.031593

  Mayer bond orders larger than 0.100000
B(  0-C ,  1-O ) :   1.7656 B(  0-C ,  2-H ) :   0.9859 B(  0-C ,  3-H ) :   0.9859

MP2 TOTAL ENERGY:     -114.218007420 Eh
FINAL SINGLE POINT ENERGY      -114.218007419864

DIPOLE MOMENT
-------------
                                X             Y             Z
Electronic contribution:     -0.00000       0.00000       1.10306
Nuclear contribution   :      0.00000       0.00000      -2.21550
                        -----------------------------------------
Total Dipole Moment    :     -0.00000       0.00000      -1.11244
                        -----------------------------------------
Magnitude (a.u.)       :      1.11244
Magnitude (Debye)      :      2.82760

Rotational constants in cm-1:     9.498547     1.304764     1.147182
Rotational constants in MHz : 284759.285973 39115.833550 34391.640977

                             ****ORCA TERMINATED NORMALLY****
TOTAL RUN TIME: 0 days 0 hours 0 minutes 49 seconds 573 msec
