                         Program Version 5.0.3 -  RELEASE  -
|  1> !ri-mp2 aug-cc-pvdz aug-cc-pvdz/c tightscf
|  2> %pal nprocs 16 end
|  3>
|  4> * xyz 0 1
|  5> C      0.000000    0.418868        0.000000
|  6> N     -0.937301   -0.562370        0.000000
|  7> O      1.196475    0.233417        0.000000
|  8> H     -0.446375    1.428379        0.000000
|  9> H     -0.646660   -1.526108        0.000000
| 10> H     -1.917653   -0.346222        0.000000
| 11> *
| 12>
| 13>                          ****END OF INPUT****

CARTESIAN COORDINATES (ANGSTROEM)
---------------------------------
  C      0.000000    0.418868    0.000000
  N     -0.937301   -0.562370    0.000000
  O      1.196475    0.233417    0.000000
  H     -0.446375    1.428379    0.000000
  H     -0.646660   -1.526108    0.000000
  H     -1.917653   -0.346222    0.000000

 Total Charge           Charge          ....    0
 Multiplicity           Mult            ....    1
 Number of Electrons    NEL             ....   24
 Basis Dimension        Dim             ....   96

ORBITAL ENERGIES
----------------

  NO   OCC          E(Eh)            E(eV)
   0   2.0000     -20.540994      -558.9489
   1   2.0000     -15.604715      -424.6259
   2   2.0000     -11.367244      -309.3184
   3   2.0000      -1.393567       -37.9209
   4   2.0000      -1.224765       -33.3275
   5   2.0000      -0.854642       -23.2560
   6   2.0000      -0.754062       -20.5191
   7   2.0000      -0.677455       -18.4345
   8   2.0000      -0.611966       -16.6524
   9   2.0000      -0.573739       -15.6122
  10   2.0000      -0.437098       -11.8940
  11   2.0000      -0.422508       -11.4970
  12   0.0000       0.026747         0.7278
  13   0.0000       0.043843         1.1930
  14   0.0000       0.058716         1.5978
  15   0.0000       0.095597         2.6013
  16   0.0000       0.115409         3.1404

MULLIKEN ATOMIC CHARGES
-----------------------
   0 C :    1.000269
   1 N :   -0.202939
   2 O :   -0.656051
   3 H :   -0.115813
   4 H :   -0.022463
   5 H :   -0.003003
Sum of atomic charges:   -0.0000000

LOEWDIN ATOMIC CHARGES
----------------------
   0 C :   -0.195570
   1 N :    0.233083
   2 O :   -0.016738
   3 H :    0.015846
   4 H :   -0.011728
   5 H :   -0.024892

  Mayer bond orders larger than 0.100000
B(  0-C ,  1-N ) :   1.0704 B(  0-C ,  2-O ) :   1.6226 B(  0-C ,  3-H ) :   0.9282
B(  1-N ,  4-H ) :   1.0908 B(  1-N ,  5-H ) :   1.0663

MP2 TOTAL ENERGY:     -169.473599971 Eh
FINAL SINGLE POINT ENERGY      -169.473599971161

DIPOLE MOMENT
-------------
                                X             Y             Z
Electronic contribution:      1.33027       0.26057       0.00000
Nuclear contribution   :     -2.99951      -0.44390       0.00000
                        -----------------------------------------
Total Dipole Moment    :     -1.66924      -0.18333       0.00000
                        -----------------------------------------
Magnitude (a.u.)       :      1.67928
Magnitude (Debye)      :      4.26839

Rotational constants in cm-1:     2.460151     0.379518     0.328796
Rotational constants in MHz : 73753.485774 11377.676741  9857.064027

                             ****ORCA TERMINATED NORMALLY****
TOTAL RUN TIME: 0 days 0 hours 0 minutes 53 seconds 578 msec
