                         Program Version 5.0.3 -  RELEASE  -
|  1> !ri-mp2 aug-cc-pvdz aug-cc-pvdz/c tightscf
|  2> %pal nprocs 16 end
|  3>
|  4> * xyz 0 1
|  5> C     -0.300615   -1.924790        0.000000
|  6> C     -0.970523   -0.674797        0.000000
|  7> C      1.032092   -1.640070        0.000000
|  8> C      0.000000    0.288032        0.000000
|  9> C     -0.029988    1.739577        0.000000
| 10> O     -1.049576    2.396115        0.000000
| 11> O      1.237658   -0.307636        0.000000
| 12> H     -0.741739   -2.906165        0.000000
| 13> H     -2.030305   -0.489429        0.000000
| 14> H      1.913637   -2.256025        0.000000
| 15> H      0.967952    2.216073        0.000000
| 16> *
| 17>
| 18>                          ****END OF INPUT****

CARTESIAN COORDINATES (ANGSTROEM)
---------------------------------
  C     -0.300615   -1.924790    0.000000
  C     -0.970523   -0.674797    0.000000
  C      1.032092   -1.640070    0.000000
  C      0.000000    0.288032    0.000000
  C     -0.029988    1.739577    0.000000
  O     -1.049576    2.396115    0.000000
  O      1.237658   -0.307636    0.000000
  H     -0.741739   -2.906165    0.000000
  H     -2.030305   -0.489429    0.000000
  H      1.913637   -2.256025    0.000000
  H      0.967952    2.216073    0.000000

 Total Charge           Charge          ....    0
 Multiplicity           Mult            ....    1
 Number of Electrons    NEL             ....   50
 Basis Dimension        Dim             ....  197

ORBITAL ENERGIES
----------------

  NO   OCC          E(Eh)            E(eV)
   0   2.0000     -20.658488      -562.1460
   1   2.0000     -20.569253      -559.7178
   2   2.0000     -11.351103      -308.8792
   3   2.0000     -11.325876      -308.1927
   4   2.0000     -11.308134      -307.7100
   5   2.0000     -11.269216      -306.6509
   6   2.0000     -11.257381      -306.3289
   7   2.0000      -1.490962       -40.5711
   8   2.0000      -1.398438       -38.0534
   9   2.0000      -1.114812       -30.3356
  10   2.0000      -1.054537       -28.6954
  11   2.0000      -0.897042       -24.4098
  12   2.0000      -0.831673       -22.6310
  13   2.0000      -0.787136       -21.4191
  14   2.0000      -0.737388       -20.0654
  15   2.0000      -0.674904       -18.3651
  16   2.0000      -0.663255       -18.0481
  17   2.0000      -0.632444       -17.2097
  18   2.0000      -0.599154       -16.3038
  19   2.0000      -0.592643       -16.1266
  20   2.0000      -0.568571       -15.4716
  21   2.0000      -0.538630       -14.6569
  22   2.0000      -0.439026       -11.9465
  23   2.0000      -0.419390       -11.4122
  24   2.0000      -0.339467        -9.2374
  25   0.0000       0.028957         0.7880
  26   0.0000       0.039493         1.0747
  27   0.0000       0.046584         1.2676
  28   0.0000       0.056612         1.5405
  29   0.0000       0.056939         1.5494

MULLIKEN ATOMIC CHARGES
-----------------------
   0 C :    0.577503
   1 C :    0.195244
   2 C :    0.520916
   3 C :    0.439840
   4 C :    0.990210
   5 O :   -0.734375
   6 O :   -0.891502
   7 H :   -0.289913
   8 H :   -0.334618
   9 H :   -0.298745
  10 H :   -0.174558
Sum of atomic charges:   -0.0000000

LOEWDIN ATOMIC CHARGES
----------------------
   0 C :    0.013302
   1 C :    0.072942
   2 C :    0.033949
   3 C :   -0.193104
   4 C :   -0.073265
   5 O :    0.021774
   6 O :    0.097460
   7 H :   -0.005913
   8 H :    0.013893
   9 H :   -0.000850
  10 H :    0.019812

  Mayer bond orders larger than 0.100000
B(  0-C ,  1-C ) :   1.5320 B(  0-C ,  2-C ) :   1.5666 B(  0-C ,  7-H ) :   0.6570
B(  0-C ,  9-H ) :  -0.1792 B(  1-C ,  3-C ) :   1.5858 B(  1-C ,  4-C ) :   0.1373
B(  1-C ,  8-H ) :   0.5740 B(  2-C ,  4-C ) :   0.2091 B(  2-C ,  6-O ) :   0.7737
B(  2-C ,  9-H ) :   1.0020 B(  3-C ,  4-C ) :   1.1387 B(  3-C ,  6-O ) :   0.5379
B(  3-C ,  8-H ) :   0.1373 B(  3-C ,  9-H ) :   0.1440 B(  3-C , 10-H ) :   0.2535
B(  4-C ,  5-O ) :   1.5609 B(  4-C , 10-H ) :   0.5572 B(  6-O ,  9-H ) :  -0.1132

MP2 TOTAL ENERGY:     -342.453719047 Eh
FINAL SINGLE POINT ENERGY      -342.453719046627

DIPOLE MOMENT
-------------
                                X             Y             Z
Electronic contribution:      0.52276       1.94381       0.00000
Nuclear contribution   :      0.10996      -3.32538       0.00000
                        -----------------------------------------
Total Dipole Moment    :      0.63272      -1.38157       0.00000
                        -----------------------------------------
Magnitude (a.u.)       :      1.51956
Magnitude (Debye)      :      3.86241

Rotational constants in cm-1:     0.275709     0.068182     0.054664
Rotational constants in MHz :  8265.554192  2044.055691  1638.786848

                             ****ORCA TERMINATED NORMALLY****
TOTAL RUN TIME: 0 days 0 hours 0 minutes 42 seconds 301 msec
