                         Program Version 5.0.3 -  RELEASE  -
|  1> !ri-mp2 aug-cc-pvdz aug-cc-pvdz/c tightscf
|  2> %pal nprocs 16 end
|  3>
|  4> * xyz 0 1
|  5> C      0.000000    0.434774        0.000000
|  6> C      1.185792   -0.138856        0.000000
|  7> F     -1.143002   -0.282121        0.000000
|  8> H     -0.195129    1.498103        0.000000
|  9> H      1.296848   -1.213206        0.000000
| 10> H      2.070547    0.478682        0.000000
| 11> *
| 12>
| 13>                          ****END OF INPUT****

CARTESIAN COORDINATES (ANGSTROEM)
---------------------------------
  C      0.000000    0.434774    0.000000
  C      1.185792   -0.138856    0.000000
  F     -1.143002   -0.282121    0.000000
  H     -0.195129    1.498103    0.000000
  H      1.296848   -1.213206    0.000000
  H      2.070547    0.478682    0.000000

 Total Charge           Charge          ....    0
 Multiplicity           Mult            ....    1
 Number of Electrons    NEL             ....   24
 Basis Dimension        Dim             ....   96

ORBITAL ENERGIES
----------------

  NO   OCC          E(Eh)            E(eV)
   0   2.0000     -26.320513      -716.2176
   1   2.0000     -11.336654      -308.4860
   2   2.0000     -11.244375      -305.9750
   3   2.0000      -1.628923       -44.3253
   4   2.0000      -1.057096       -28.7650
   5   2.0000      -0.838367       -22.8131
   6   2.0000      -0.737439       -20.0667
   7   2.0000      -0.688106       -18.7243
   8   2.0000      -0.684452       -18.6249
   9   2.0000      -0.589553       -16.0426
  10   2.0000      -0.559415       -15.2225
  11   2.0000      -0.387284       -10.5385
  12   0.0000       0.037350         1.0163
  13   0.0000       0.047634         1.2962
  14   0.0000       0.055619         1.5135
  15   0.0000       0.104374         2.8402
  16   0.0000       0.106439         2.8963

MULLIKEN ATOMIC CHARGES
-----------------------
   0 C :    0.923776
   1 C :    0.309446
   2 F :   -0.605742
   3 H :   -0.188012
   4 H :   -0.222889
   5 H :   -0.216577
Sum of atomic charges:    0.0000000

LOEWDIN ATOMIC CHARGES
----------------------
   0 C :   -0.071898
   1 C :    0.153163
   2 F :    0.016188
   3 H :   -0.015421
   4 H :   -0.036882
   5 H :   -0.045149

  Mayer bond orders larger than 0.100000
B(  0-C ,  1-C ) :   2.1118 B(  0-C ,  2-F ) :   0.2831 B(  0-C ,  3-H ) :   0.8782
B(  1-C ,  2-F ) :   0.1547 B(  1-C ,  4-H ) :   0.8785 B(  1-C ,  5-H ) :   0.9428
B(  4-H ,  5-H ) :  -0.1434

MP2 TOTAL ENERGY:     -177.387075272 Eh
FINAL SINGLE POINT ENERGY      -177.387075271559

DIPOLE MOMENT
-------------
                                X             Y             Z
Electronic contribution:     -3.66699      -0.66214      -0.00000
Nuclear contribution   :      4.21045       1.02024       0.00000
                        -----------------------------------------
Total Dipole Moment    :      0.54346       0.35810      -0.00000
                        -----------------------------------------
Magnitude (a.u.)       :      0.65083
Magnitude (Debye)      :      1.65428

Rotational constants in cm-1:     2.185296     0.353999     0.304649
Rotational constants in MHz : 65513.538543 10612.637307  9133.145275

                             ****ORCA TERMINATED NORMALLY****
TOTAL RUN TIME: 0 days 0 hours 0 minutes 41 seconds 666 msec
