                         Program Version 5.0.3 -  RELEASE  -
|  1> !ri-mp2 aug-cc-pvdz aug-cc-pvdz/c tightscf
|  2> %pal nprocs 16 end
|  3>
|  4> * xyz 0 1
|  5> C      0.000000    0.000000   -1.828651
|  6> C      0.000000    1.203661   -1.131682
|  7> C      0.000000   -1.203661   -1.131682
|  8> C      0.000000    1.212801    0.259047
|  9> C      0.000000   -1.212801    0.259047
| 10> C      0.000000    0.000000    0.924672
| 11> F      0.000000    0.000000    2.277491
| 12> H      0.000000    0.000000   -2.909624
| 13> H      0.000000    2.141917   -1.669399
| 14> H      0.000000   -2.141917   -1.669399
| 15> H      0.000000    2.134302    0.823249
| 16> H      0.000000   -2.134302    0.823249
| 17> *
| 18>
| 19>                          ****END OF INPUT****

CARTESIAN COORDINATES (ANGSTROEM)
---------------------------------
  C      0.000000    0.000000   -1.828651
  C      0.000000    1.203661   -1.131682
  C      0.000000   -1.203661   -1.131682
  C      0.000000    1.212801    0.259047
  C      0.000000   -1.212801    0.259047
  C      0.000000    0.000000    0.924672
  F      0.000000    0.000000    2.277491
  H      0.000000    0.000000   -2.909624
  H      0.000000    2.141917   -1.669399
  H      0.000000   -2.141917   -1.669399
  H      0.000000    2.134302    0.823249
  H      0.000000   -2.134302    0.823249

 Total Charge           Charge          ....    0
 Multiplicity           Mult            ....    1
 Number of Electrons    NEL             ....   50
 Basis Dimension        Dim             ....  206

ORBITAL ENERGIES
----------------

  NO   OCC          E(Eh)            E(eV)
   0   2.0000     -26.321011      -716.2311
   1   2.0000     -11.336228      -308.4744
   2   2.0000     -11.256875      -306.3151
   3   2.0000     -11.256817      -306.3136
   4   2.0000     -11.251090      -306.1577
   5   2.0000     -11.251074      -306.1573
   6   2.0000     -11.246909      -306.0439
   7   2.0000      -1.629092       -44.3298
   8   2.0000      -1.170615       -31.8541
   9   2.0000      -1.037732       -28.2381
  10   2.0000      -1.027684       -27.9647
  11   2.0000      -0.859086       -23.3769
  12   2.0000      -0.844861       -22.9898
  13   2.0000      -0.747274       -20.3344
  14   2.0000      -0.701101       -19.0779
  15   2.0000      -0.691716       -18.8225
  16   2.0000      -0.689581       -18.7644
  17   2.0000      -0.626183       -17.0393
  18   2.0000      -0.608614       -16.5612
  19   2.0000      -0.597062       -16.2469
  20   2.0000      -0.532886       -14.5006
  21   2.0000      -0.511645       -13.9226
  22   2.0000      -0.509287       -13.8584
  23   2.0000      -0.353077        -9.6077
  24   2.0000      -0.342119        -9.3095
  25   0.0000       0.033898         0.9224
  26   0.0000       0.040088         1.0908
  27   0.0000       0.045070         1.2264
  28   0.0000       0.057802         1.5729
  29   0.0000       0.061610         1.6765

MULLIKEN ATOMIC CHARGES
-----------------------
   0 C :    0.291033
   1 C :    0.734122
   2 C :    0.734122
   3 C :    0.110661
   4 C :    0.110661
   5 C :    0.892225
   6 F :   -0.816738
   7 H :   -0.423755
   8 H :   -0.435098
   9 H :   -0.435098
  10 H :   -0.381068
  11 H :   -0.381068
Sum of atomic charges:   -0.0000000

LOEWDIN ATOMIC CHARGES
----------------------
   0 C :    0.002642
   1 C :    0.011958
   2 C :    0.011958
   3 C :    0.046340
   4 C :    0.046340
   5 C :   -0.194955
   6 F :    0.054777
   7 H :   -0.002214
   8 H :    0.002557
   9 H :    0.002557
  10 H :    0.009020
  11 H :    0.009020

  Mayer bond orders larger than 0.100000
B(  0-C ,  1-C ) :   1.6610 B(  0-C ,  2-C ) :   1.6610 B(  0-C ,  3-C ) :   0.1694
B(  0-C ,  4-C ) :   0.1694 B(  0-C ,  7-H ) :   0.4684 B(  0-C ,  8-H ) :   0.1868
B(  0-C ,  9-H ) :   0.1868 B(  1-C ,  3-C ) :   1.7158 B(  1-C ,  5-C ) :  -0.1499
B(  1-C ,  7-H ) :   0.1285 B(  1-C ,  8-H ) :   0.4051 B(  2-C ,  4-C ) :   1.7158
B(  2-C ,  5-C ) :  -0.1499 B(  2-C ,  7-H ) :   0.1285 B(  2-C ,  9-H ) :   0.4051
B(  3-C ,  4-C ) :   0.2146 B(  3-C ,  5-C ) :   1.5653 B(  3-C ,  6-F ) :   0.2721
B(  3-C ,  8-H ) :   0.1894 B(  3-C , 10-H ) :   0.4981 B(  4-C ,  5-C ) :   1.5653
B(  4-C ,  6-F ) :   0.2721 B(  4-C ,  9-H ) :   0.1894 B(  4-C , 11-H ) :   0.4981
B(  5-C ,  6-F ) :  -0.3311 B(  5-C , 10-H ) :   0.2079 B(  5-C , 11-H ) :   0.2079

MP2 TOTAL ENERGY:     -330.597001405 Eh
FINAL SINGLE POINT ENERGY      -330.597001404577

DIPOLE MOMENT
-------------
                                X             Y             Z
Electronic contribution:     -0.00000      -0.00000       5.97510
Nuclear contribution   :      0.00000       0.00000      -6.69429
                        -----------------------------------------
Total Dipole Moment    :     -0.00000      -0.00000      -0.71919
                        -----------------------------------------
Magnitude (a.u.)       :      0.71919
Magnitude (Debye)      :      1.82803

Rotational constants in cm-1:     0.190333     0.085838     0.059158
Rotational constants in MHz :  5706.047718  2573.359945  1773.522363

                             ****ORCA TERMINATED NORMALLY****
TOTAL RUN TIME: 0 days 0 hours 0 minutes 48 seconds 822 msec
