                         Program Version 5.0.3 -  RELEASE  -
|  1> !ri-mp2 aug-cc-pvdz aug-cc-pvdz/c tightscf
|  2> %pal nprocs 16 end
|  3>
|  4> * xyz 0 1
|  5> C     0.000000     0.000000   -0.637684
|  6> F     0.000000     0.000000    0.754062
|  7> H     0.000000     1.032068   -0.986819
|  8> H     0.893797    -0.516034   -0.986819
|  9> H    -0.893797    -0.516034   -0.986819
| 10> *
| 11>
| 12>                          ****END OF INPUT****

CARTESIAN COORDINATES (ANGSTROEM)
---------------------------------
  C      0.000000    0.000000   -0.637684
  F      0.000000    0.000000    0.754062
  H      0.000000    1.032068   -0.986819
  H      0.893797   -0.516034   -0.986819
  H     -0.893797   -0.516034   -0.986819

 Total Charge           Charge          ....    0
 Multiplicity           Mult            ....    1
 Number of Electrons    NEL             ....   18
 Basis Dimension        Dim             ....   73

ORBITAL ENERGIES
----------------

  NO   OCC          E(Eh)            E(eV)
   0   2.0000     -26.289593      -715.3762
   1   2.0000     -11.316586      -307.9400
   2   2.0000      -1.588686       -43.2303
   3   2.0000      -0.957187       -26.0464
   4   2.0000      -0.693644       -18.8750
   5   2.0000      -0.693644       -18.8750
   6   2.0000      -0.672086       -18.2884
   7   2.0000      -0.531858       -14.4726
   8   2.0000      -0.531858       -14.4726
   9   0.0000       0.034606         0.9417
  10   0.0000       0.058008         1.5785
  11   0.0000       0.058008         1.5785
  12   0.0000       0.087385         2.3779
  13   0.0000       0.145108         3.9486

MULLIKEN ATOMIC CHARGES
-----------------------
   0 C :    0.901070
   1 F :   -0.567305
   2 H :   -0.111255
   3 H :   -0.111255
   4 H :   -0.111255
Sum of atomic charges:    0.0000000

LOEWDIN ATOMIC CHARGES
----------------------
   0 C :    0.167343
   1 F :   -0.053857
   2 H :   -0.037828
   3 H :   -0.037829
   4 H :   -0.037829

  Mayer bond orders larger than 0.100000
B(  0-C ,  1-F ) :   0.5150 B(  0-C ,  2-H ) :   0.9987 B(  0-C ,  3-H ) :   0.9987
B(  0-C ,  4-H ) :   0.9987

MP2 TOTAL ENERGY:     -139.416827845 Eh
FINAL SINGLE POINT ENERGY      -139.416827845035

DIPOLE MOMENT
-------------
                                X             Y             Z
Electronic contribution:     -0.00000      -0.00000       2.85317
Nuclear contribution   :      0.00000       0.00000      -3.68037
                        -----------------------------------------
Total Dipole Moment    :     -0.00000      -0.00000      -0.82720
                        -----------------------------------------
Magnitude (a.u.)       :      0.82720
Magnitude (Debye)      :      2.10257

Rotational constants in cm-1:     5.233576     0.849529     0.849529
Rotational constants in MHz : 156898.663266 25468.233514 25468.233022

                             ****ORCA TERMINATED NORMALLY****
TOTAL RUN TIME: 0 days 0 hours 0 minutes 29 seconds 560 msec
