                         Program Version 5.0.3 -  RELEASE  -
|  1> !ri-mp2 aug-cc-pvdz aug-cc-pvdz/c tightscf
|  2> %pal nprocs 16 end
|  3>
|  4> * xyz 0 1
|  5> C      0.000000    0.716076   -0.955449
|  6> C      0.000000   -0.716076   -0.955449
|  7> C      0.000000    1.093572    0.345603
|  8> C      0.000000   -1.093572    0.345603
|  9> O      0.000000    0.000000    1.157159
| 10> H      0.000000    1.369847   -1.810079
| 11> H      0.000000   -1.369847   -1.810079
| 12> H      0.000000    2.047381    0.840519
| 13> H      0.000000   -2.047381    0.840519
| 14> *
| 15>
| 16>                          ****END OF INPUT****

CARTESIAN COORDINATES (ANGSTROEM)
---------------------------------
  C      0.000000    0.716076   -0.955449
  C      0.000000   -0.716076   -0.955449
  C      0.000000    1.093572    0.345603
  C      0.000000   -1.093572    0.345603
  O      0.000000    0.000000    1.157159
  H      0.000000    1.369847   -1.810079
  H      0.000000   -1.369847   -1.810079
  H      0.000000    2.047381    0.840519
  H      0.000000   -2.047381    0.840519

 Total Charge           Charge          ....    0
 Multiplicity           Mult            ....    1
 Number of Electrons    NEL             ....   36
 Basis Dimension        Dim             ....  151

ORBITAL ENERGIES
----------------

  NO   OCC          E(Eh)            E(eV)
   0   2.0000     -20.632436      -561.4371
   1   2.0000     -11.294644      -307.3429
   2   2.0000     -11.294596      -307.3416
   3   2.0000     -11.237258      -305.7813
   4   2.0000     -11.236298      -305.7552
   5   2.0000      -1.463091       -39.8127
   6   2.0000      -1.088525       -29.6203
   7   2.0000      -1.008863       -27.4526
   8   2.0000      -0.809603       -22.0304
   9   2.0000      -0.783553       -21.3216
  10   2.0000      -0.741680       -20.1821
  11   2.0000      -0.633395       -17.2355
  12   2.0000      -0.610935       -16.6244
  13   2.0000      -0.578468       -15.7409
  14   2.0000      -0.565619       -15.3913
  15   2.0000      -0.541548       -14.7363
  16   2.0000      -0.398249       -10.8369
  17   2.0000      -0.321318        -8.7435
  18   0.0000       0.036040         0.9807
  19   0.0000       0.042634         1.1601
  20   0.0000       0.046069         1.2536
  21   0.0000       0.058374         1.5884
  22   0.0000       0.096378         2.6226

MULLIKEN ATOMIC CHARGES
-----------------------
   0 C :    0.402790
   1 C :    0.402790
   2 C :    0.533725
   3 C :    0.533725
   4 O :   -0.709566
   5 H :   -0.297508
   6 H :   -0.297508
   7 H :   -0.284224
   8 H :   -0.284224
Sum of atomic charges:    0.0000000

LOEWDIN ATOMIC CHARGES
----------------------
   0 C :   -0.013010
   1 C :   -0.013010
   2 C :    0.005043
   3 C :    0.005043
   4 O :    0.061661
   5 H :   -0.011643
   6 H :   -0.011643
   7 H :   -0.011220
   8 H :   -0.011220

  Mayer bond orders larger than 0.100000
B(  0-C ,  1-C ) :   1.4916 B(  0-C ,  2-C ) :   1.6787 B(  0-C ,  5-H ) :   0.6870
B(  0-C ,  7-H ) :  -0.1365 B(  1-C ,  3-C ) :   1.6787 B(  1-C ,  6-H ) :   0.6870
B(  1-C ,  8-H ) :  -0.1365 B(  2-C ,  4-O ) :   0.6895 B(  2-C ,  7-H ) :   1.0289
B(  3-C ,  4-O ) :   0.6895 B(  3-C ,  8-H ) :   1.0289

MP2 TOTAL ENERGY:     -229.390727888 Eh
FINAL SINGLE POINT ENERGY      -229.390727888361

DIPOLE MOMENT
-------------
                                X             Y             Z
Electronic contribution:     -0.00000      -0.00000       1.59178
Nuclear contribution   :      0.00000       0.00000      -1.90778
                        -----------------------------------------
Total Dipole Moment    :     -0.00000      -0.00000      -0.31600
                        -----------------------------------------
Magnitude (a.u.)       :      0.31600
Magnitude (Debye)      :      0.80320

Rotational constants in cm-1:     0.316402     0.311042     0.156850
Rotational constants in MHz :  9485.505213  9324.803721  4702.234005

                             ****ORCA TERMINATED NORMALLY****
TOTAL RUN TIME: 0 days 0 hours 0 minutes 49 seconds 367 msec
