                         Program Version 5.0.3 -  RELEASE  -
|  1> !ri-mp2 aug-cc-pvdz aug-cc-pvdz/c tightscf
|  2> %pal nprocs 16 end
|  3>
|  4> * xyz 0 1
|  5> O      0.000000    0.000000    1.179618
|  6> N      0.000000    0.000000   -0.020937
|  7> C      0.000000    0.000000   -1.175868
|  8> H      0.000000    0.000000   -2.235178
|  9> *
| 10>
| 11>                          ****END OF INPUT****

CARTESIAN COORDINATES (ANGSTROEM)
---------------------------------
  O      0.000000    0.000000    1.179618
  N      0.000000    0.000000   -0.020937
  C      0.000000    0.000000   -1.175868
  H      0.000000    0.000000   -2.235178

 Total Charge           Charge          ....    0
 Multiplicity           Mult            ....    1
 Number of Electrons    NEL             ....   22
 Basis Dimension        Dim             ....   78

ORBITAL ENERGIES
----------------

  NO   OCC          E(Eh)            E(eV)
   0   2.0000     -20.595275      -560.4259
   1   2.0000     -15.770428      -429.1352
   2   2.0000     -11.328783      -308.2719
   3   2.0000      -1.519455       -41.3465
   4   2.0000      -1.236705       -33.6524
   5   2.0000      -0.820023       -22.3140
   6   2.0000      -0.735152       -20.0045
   7   2.0000      -0.681158       -18.5353
   8   2.0000      -0.681158       -18.5353
   9   2.0000      -0.409787       -11.1509
  10   2.0000      -0.409787       -11.1509
  11   0.0000       0.024677         0.6715
  12   0.0000       0.071730         1.9519
  13   0.0000       0.071730         1.9519
  14   0.0000       0.079256         2.1567
  15   0.0000       0.142768         3.8849

MULLIKEN ATOMIC CHARGES
-----------------------
   0 O :   -0.799573
   1 N :    0.285010
   2 C :    0.524176
   3 H :   -0.009613
Sum of atomic charges:   -0.0000000

LOEWDIN ATOMIC CHARGES
----------------------
   0 O :   -0.007630
   1 N :   -0.266272
   2 C :    0.347445
   3 H :   -0.073543

  Mayer bond orders larger than 0.100000
B(  0-O ,  1-N ) :   1.1897 B(  1-N ,  2-C ) :   2.5255 B(  1-N ,  3-H ) :  -0.1669
B(  2-C ,  3-H ) :   0.8620

MP2 TOTAL ENERGY:     -168.169330947 Eh
FINAL SINGLE POINT ENERGY      -168.169330946529

DIPOLE MOMENT
-------------
                                X             Y             Z
Electronic contribution:      0.00000       0.00000       0.43982
Nuclear contribution   :      0.00000       0.00000      -2.12874
                        -----------------------------------------
Total Dipole Moment    :      0.00000       0.00000      -1.68891
                        -----------------------------------------
Magnitude (a.u.)       :      1.68891
Magnitude (Debye)      :      4.29288

Rotational constants in cm-1:     0.000000     0.384886     0.384886
Rotational constants in MHz :     0.000000 11538.579218 11538.579218

                             ****ORCA TERMINATED NORMALLY****
TOTAL RUN TIME: 0 days 0 hours 0 minutes 46 seconds 916 msec
