                         Program Version 5.0.3 -  RELEASE  -
|  1> !ri-mp2 aug-cc-pvdz aug-cc-pvdz/c tightscf
|  2> %pal nprocs 16 end
|  3>
|  4> * xyz 0 1
|  5> C      0.000000    0.806204        0.000000
|  6> O      1.118460    1.175635        0.000000
|  7> Cl    -0.473479   -0.921920        0.000000
|  8> H     -0.898535    1.430335        0.000000
|  9> *
| 10>
| 11>                          ****END OF INPUT****

CARTESIAN COORDINATES (ANGSTROEM)
---------------------------------
  C      0.000000    0.806204    0.000000
  O      1.118460    1.175635    0.000000
  Cl    -0.473479   -0.921920    0.000000
  H     -0.898535    1.430335    0.000000

 Total Charge           Charge          ....    0
 Multiplicity           Mult            ....    1
 Number of Electrons    NEL             ....   32
 Basis Dimension        Dim             ....   82

ORBITAL ENERGIES
----------------

  NO   OCC          E(Eh)            E(eV)
   0   2.0000    -104.860290     -2853.3936
   1   2.0000     -20.626913      -561.2868
   2   2.0000     -11.431110      -311.0563
   3   2.0000     -10.587077      -288.0890
   4   2.0000      -8.054530      -219.1749
   5   2.0000      -8.051383      -219.0893
   6   2.0000      -8.051147      -219.0829
   7   2.0000      -1.473237       -40.0888
   8   2.0000      -1.143823       -31.1250
   9   2.0000      -0.862809       -23.4782
  10   2.0000      -0.721536       -19.6340
  11   2.0000      -0.675022       -18.3683
  12   2.0000      -0.608816       -16.5667
  13   2.0000      -0.482834       -13.1386
  14   2.0000      -0.479222       -13.0403
  15   2.0000      -0.473212       -12.8768
  16   0.0000       0.033674         0.9163
  17   0.0000       0.074124         2.0170
  18   0.0000       0.076712         2.0874
  19   0.0000       0.092606         2.5199
  20   0.0000       0.119853         3.2614

MULLIKEN ATOMIC CHARGES
-----------------------
   0 C :    0.501143
   1 O :   -0.453897
   2 Cl:   -0.133780
   3 H :    0.086535
Sum of atomic charges:   -0.0000000

LOEWDIN ATOMIC CHARGES
----------------------
   0 C :   -0.403772
   1 O :    0.008148
   2 Cl:    0.432519
   3 H :   -0.036894

  Mayer bond orders larger than 0.100000
B(  0-C ,  1-O ) :   1.8305 B(  0-C ,  2-Cl) :   1.0605 B(  0-C ,  3-H ) :   0.8836

MP2 TOTAL ENERGY:     -573.301289564 Eh
FINAL SINGLE POINT ENERGY      -573.301289564431

DIPOLE MOMENT
-------------
                                X             Y             Z
Electronic contribution:     -0.61492      -2.27348       0.00000
Nuclear contribution   :     -0.18971       2.58009       0.00000
                        -----------------------------------------
Total Dipole Moment    :     -0.80464       0.30661       0.00000
                        -----------------------------------------
Magnitude (a.u.)       :      0.86108
Magnitude (Debye)      :      2.18869

Rotational constants in cm-1:     2.617587     0.199897     0.185714
Rotational constants in MHz : 78473.292386  5992.746676  5567.569728

                             ****ORCA TERMINATED NORMALLY****
TOTAL RUN TIME: 0 days 0 hours 0 minutes 55 seconds 54 msec
