                         Program Version 5.0.3 -  RELEASE  -
|  1> !ri-mp2 aug-cc-pvdz aug-cc-pvdz/c tightscf
|  2> %pal nprocs 16 end
|  3>
|  4> * xyz 0 1
|  5> C      0.000000    0.000000   -0.095596
|  6> C      0.000000    0.000000   -1.287136
|  7> F      0.000000    0.000000    1.182582
|  8> H      0.000000    0.000000   -2.346846
|  9> *
| 10>
| 11>                          ****END OF INPUT****

CARTESIAN COORDINATES (ANGSTROEM)
---------------------------------
  C      0.000000    0.000000   -0.095596
  C      0.000000    0.000000   -1.287136
  F      0.000000    0.000000    1.182582
  H      0.000000    0.000000   -2.346846

 Total Charge           Charge          ....    0
 Multiplicity           Mult            ....    1
 Number of Electrons    NEL             ....   22
 Basis Dimension        Dim             ....   78

ORBITAL ENERGIES
----------------

  NO   OCC          E(Eh)            E(eV)
   0   2.0000     -26.397110      -718.3019
   1   2.0000     -11.350078      -308.8513
   2   2.0000     -11.257451      -306.3308
   3   2.0000      -1.712234       -46.5923
   4   2.0000      -1.057403       -28.7734
   5   2.0000      -0.863634       -23.5007
   6   2.0000      -0.760343       -20.6900
   7   2.0000      -0.760343       -20.6900
   8   2.0000      -0.724269       -19.7084
   9   2.0000      -0.419515       -11.4156
  10   2.0000      -0.419515       -11.4156
  11   0.0000       0.033715         0.9174
  12   0.0000       0.066284         1.8037
  13   0.0000       0.111246         3.0272
  14   0.0000       0.111246         3.0272
  15   0.0000       0.120650         3.2831

MULLIKEN ATOMIC CHARGES
-----------------------
   0 C :   -0.059668
   1 C :    0.880896
   2 F :   -0.511877
   3 H :   -0.309351
Sum of atomic charges:    0.0000000

LOEWDIN ATOMIC CHARGES
----------------------
   0 C :   -0.168873
   1 C :    0.178925
   2 F :    0.099533
   3 H :   -0.109585

  Mayer bond orders larger than 0.100000
B(  0-C ,  1-C ) :   2.7098 B(  0-C ,  2-F ) :   0.8005 B(  1-C ,  2-F ) :  -0.1519
B(  1-C ,  3-H ) :   0.5750

MP2 TOTAL ENERGY:     -176.121533491 Eh
FINAL SINGLE POINT ENERGY      -176.121533491309

DIPOLE MOMENT
-------------
                                X             Y             Z
Electronic contribution:     -0.00000       0.00000       2.93257
Nuclear contribution   :      0.00000       0.00000      -3.29838
                        -----------------------------------------
Total Dipole Moment    :     -0.00000       0.00000      -0.36581
                        -----------------------------------------
Magnitude (a.u.)       :      0.36581
Magnitude (Debye)      :      0.92981

Rotational constants in cm-1:     0.000000     0.325111     0.325111
Rotational constants in MHz :     0.000000  9746.588029  9746.588029

                             ****ORCA TERMINATED NORMALLY****
TOTAL RUN TIME: 0 days 0 hours 0 minutes 30 seconds 340 msec
