                         Program Version 5.0.3 -  RELEASE  -
|  1> !ri-mp2 aug-cc-pvdz aug-cc-pvdz/c tightscf
|  2> %pal nprocs 16 end
|  3>
|  4> * xyz 0 1
|  5> C      0.000000    0.400163        0.000000
|  6> O      1.146373    0.135369        0.000000
|  7> F     -0.967416   -0.541572        0.000000
|  8> H     -0.464239    1.390219        0.000000
|  9> *
| 10>
| 11>                          ****END OF INPUT****

CARTESIAN COORDINATES (ANGSTROEM)
---------------------------------
  C      0.000000    0.400163    0.000000
  O      1.146373    0.135369    0.000000
  F     -0.967416   -0.541572    0.000000
  H     -0.464239    1.390219    0.000000

 Total Charge           Charge          ....    0
 Multiplicity           Mult            ....    1
 Number of Electrons    NEL             ....   24
 Basis Dimension        Dim             ....   78

ORBITAL ENERGIES
----------------

  NO   OCC          E(Eh)            E(eV)
   0   2.0000     -26.357046      -717.2117
   1   2.0000     -20.615964      -560.9889
   2   2.0000     -11.450429      -311.5820
   3   2.0000      -1.673284       -45.5324
   4   2.0000      -1.458165       -39.6787
   5   2.0000      -0.915679       -24.9169
   6   2.0000      -0.795022       -21.6337
   7   2.0000      -0.733496       -19.9594
   8   2.0000      -0.729586       -19.8530
   9   2.0000      -0.642906       -17.4944
  10   2.0000      -0.561764       -15.2864
  11   2.0000      -0.515035       -14.0148
  12   0.0000       0.032412         0.8820
  13   0.0000       0.076258         2.0751
  14   0.0000       0.087487         2.3806
  15   0.0000       0.089479         2.4348
  16   0.0000       0.141433         3.8486

MULLIKEN ATOMIC CHARGES
-----------------------
   0 C :    1.087148
   1 O :   -0.490651
   2 F :   -0.514772
   3 H :   -0.081725
Sum of atomic charges:   -0.0000000

LOEWDIN ATOMIC CHARGES
----------------------
   0 C :   -0.079072
   1 O :    0.049348
   2 F :    0.022826
   3 H :    0.006898

  Mayer bond orders larger than 0.100000
B(  0-C ,  1-O ) :   1.9218 B(  0-C ,  2-F ) :   0.6000 B(  0-C ,  3-H ) :   0.9693

MP2 TOTAL ENERGY:     -213.308784064 Eh
FINAL SINGLE POINT ENERGY      -213.308784063790

DIPOLE MOMENT
-------------
                                X             Y             Z
Electronic contribution:     -1.06893      -1.04004      -0.00000
Nuclear contribution   :      0.47804       1.80911       0.00000
                        -----------------------------------------
Total Dipole Moment    :     -0.59089       0.76907      -0.00000
                        -----------------------------------------
Magnitude (a.u.)       :      0.96986
Magnitude (Debye)      :      2.46518

Rotational constants in cm-1:     3.050046     0.390668     0.346311
Rotational constants in MHz : 91438.071768 11711.932836 10382.128041

                             ****ORCA TERMINATED NORMALLY****
TOTAL RUN TIME: 0 days 0 hours 0 minutes 47 seconds 410 msec
