                         Program Version 5.0.3 -  RELEASE  -
|  1> !ri-mp2 aug-cc-pvdz aug-cc-pvdz/c tightscf
|  2> %pal nprocs 16 end
|  3>
|  4> * xyz 0 1
|  5> C     0.123949    -1.862885       0.000000
|  6> C    -0.123949     1.862885       0.000000
|  7> C    -0.463693     0.483335       0.000000
|  8> C     0.463693    -0.483335       0.000000
|  9> N    -0.123949    -2.988322       0.000000
| 10> N     0.123949     2.988322       0.000000
| 11> H    -1.519242     0.244524       0.000000
| 12> H     1.519242    -0.244524       0.000000
| 13> *
| 14>
| 15>                          ****END OF INPUT****

CARTESIAN COORDINATES (ANGSTROEM)
---------------------------------
  C      0.123949   -1.862885    0.000000
  C     -0.123949    1.862885    0.000000
  C     -0.463693    0.483335    0.000000
  C      0.463693   -0.483335    0.000000
  N     -0.123949   -2.988322    0.000000
  N      0.123949    2.988322    0.000000
  H     -1.519242    0.244524    0.000000
  H      1.519242   -0.244524    0.000000

 Total Charge           Charge          ....    0
 Multiplicity           Mult            ....    1
 Number of Electrons    NEL             ....   40
 Basis Dimension        Dim             ....  156

ORBITAL ENERGIES
----------------

  NO   OCC          E(Eh)            E(eV)
   0   2.0000     -15.620696      -425.0608
   1   2.0000     -15.620696      -425.0607
   2   2.0000     -11.347095      -308.7701
   3   2.0000     -11.345471      -308.7260
   4   2.0000     -11.317990      -307.9782
   5   2.0000     -11.317989      -307.9781
   6   2.0000      -1.265376       -34.4326
   7   2.0000      -1.259014       -34.2595
   8   2.0000      -1.157269       -31.4909
   9   2.0000      -0.972610       -26.4661
  10   2.0000      -0.782631       -21.2965
  11   2.0000      -0.762069       -20.7369
  12   2.0000      -0.652618       -17.7586
  13   2.0000      -0.595607       -16.2073
  14   2.0000      -0.585703       -15.9378
  15   2.0000      -0.571684       -15.5563
  16   2.0000      -0.523197       -14.2369
  17   2.0000      -0.506080       -13.7711
  18   2.0000      -0.498491       -13.5646
  19   2.0000      -0.416191       -11.3251
  20   0.0000       0.015138         0.4119
  21   0.0000       0.026957         0.7335
  22   0.0000       0.035219         0.9584
  23   0.0000       0.065507         1.7825
  24   0.0000       0.085375         2.3232

MULLIKEN ATOMIC CHARGES
-----------------------
   0 C :   -0.769205
   1 C :   -0.769205
   2 C :    1.331510
   3 C :    1.331510
   4 N :   -0.205429
   5 N :   -0.205429
   6 H :   -0.356877
   7 H :   -0.356877
Sum of atomic charges:    0.0000000

LOEWDIN ATOMIC CHARGES
----------------------
   0 C :   -0.140262
   1 C :   -0.140262
   2 C :    0.015436
   3 C :    0.015436
   4 N :    0.102174
   5 N :    0.102174
   6 H :    0.022652
   7 H :    0.022652

  Mayer bond orders larger than 0.100000
B(  0-C ,  1-C ) :   0.1037 B(  0-C ,  2-C ) :  -0.1118 B(  0-C ,  4-N ) :   2.6219
B(  0-C ,  7-H ) :   0.2202 B(  1-C ,  3-C ) :  -0.1118 B(  1-C ,  5-N ) :   2.6219
B(  1-C ,  6-H ) :   0.2202 B(  2-C ,  3-C ) :   2.0359 B(  2-C ,  5-N ) :  -0.1407
B(  2-C ,  6-H ) :   0.5115 B(  3-C ,  4-N ) :  -0.1407 B(  3-C ,  7-H ) :   0.5115

MP2 TOTAL ENERGY:     -262.360191643 Eh
FINAL SINGLE POINT ENERGY      -262.360191642848

DIPOLE MOMENT
-------------
                                X             Y             Z
Electronic contribution:     -0.00000       0.00000      -0.00000
Nuclear contribution   :      0.00000       0.00000       0.00000
                        -----------------------------------------
Total Dipole Moment    :     -0.00000       0.00000      -0.00000
                        -----------------------------------------
Magnitude (a.u.)       :      0.00000
Magnitude (Debye)      :      0.00000

Rotational constants in cm-1:     1.588485     0.049688     0.048181
Rotational constants in MHz : 47621.592615  1489.612868  1444.430787

                             ****ORCA TERMINATED NORMALLY****
TOTAL RUN TIME: 0 days 0 hours 0 minutes 36 seconds 609 msec
