                         Program Version 5.0.3 -  RELEASE  -
|  1> !ri-mp2 aug-cc-pvdz aug-cc-pvdz/c tightscf
|  2> %pal nprocs 16 end
|  3>
|  4> * xyz 0 1
|  5> F      0.332657   -1.506812    0.000000
|  6> N      0.468461    1.859310    0.000000
|  7> C     -0.629654   -0.510772    0.000000
|  8> C      0.000000    0.810536    0.000000
|  9> H     -1.247608   -0.626221    0.891185
| 10> H     -1.247608   -0.626221   -0.891185
| 11> *
| 12>
| 13>                          ****END OF INPUT****

CARTESIAN COORDINATES (ANGSTROEM)
---------------------------------
  F      0.332657   -1.506812    0.000000
  N      0.468461    1.859310    0.000000
  C     -0.629654   -0.510772    0.000000
  C      0.000000    0.810536    0.000000
  H     -1.247608   -0.626221    0.891185
  H     -1.247608   -0.626221   -0.891185

 Total Charge           Charge          ....    0
 Multiplicity           Mult            ....    1
 Number of Electrons    NEL             ....   30
 Basis Dimension        Dim             ....  110

ORBITAL ENERGIES
----------------

  NO   OCC          E(Eh)            E(eV)
   0   2.0000     -26.338308      -716.7018
   1   2.0000     -15.609650      -424.7602
   2   2.0000     -11.393153      -310.0234
   3   2.0000     -11.304579      -307.6132
   4   2.0000      -1.640261       -44.6338
   5   2.0000      -1.250669       -34.0324
   6   2.0000      -1.049595       -28.5609
   7   2.0000      -0.785831       -21.3835
   8   2.0000      -0.753466       -20.5029
   9   2.0000      -0.736831       -20.0502
  10   2.0000      -0.631893       -17.1947
  11   2.0000      -0.600596       -16.3430
  12   2.0000      -0.574802       -15.6412
  13   2.0000      -0.497499       -13.5376
  14   2.0000      -0.486053       -13.2262
  15   0.0000       0.027248         0.7415
  16   0.0000       0.046269         1.2591
  17   0.0000       0.070646         1.9224
  18   0.0000       0.080222         2.1830
  19   0.0000       0.115970         3.1557

MULLIKEN ATOMIC CHARGES
-----------------------
   0 F :   -0.564604
   1 N :   -0.294609
   2 C :    1.115124
   3 C :   -0.214144
   4 H :   -0.020883
   5 H :   -0.020883
Sum of atomic charges:   -0.0000000

LOEWDIN ATOMIC CHARGES
----------------------
   0 F :    0.011743
   1 N :    0.078108
   2 C :    0.004859
   3 C :   -0.124000
   4 H :    0.014645
   5 H :    0.014645

  Mayer bond orders larger than 0.100000
B(  0-F ,  2-C ) :   0.4020 B(  1-N ,  3-C ) :   2.7007 B(  2-C ,  3-C ) :   0.8141
B(  2-C ,  4-H ) :   0.9405 B(  2-C ,  5-H ) :   0.9405

MP2 TOTAL ENERGY:     -231.423894263 Eh
FINAL SINGLE POINT ENERGY      -231.423894262833

DIPOLE MOMENT
-------------
                                X             Y             Z
Electronic contribution:      1.54042      -1.00050      -0.00000
Nuclear contribution   :     -2.69195       0.23530       0.00000
                        -----------------------------------------
Total Dipole Moment    :     -1.15154      -0.76519      -0.00000
                        -----------------------------------------
Magnitude (a.u.)       :      1.38259
Magnitude (Debye)      :      3.51427

Rotational constants in cm-1:     1.219841     0.159490     0.144932
Rotational constants in MHz : 36569.923875  4781.400259  4344.949230

                             ****ORCA TERMINATED NORMALLY****
TOTAL RUN TIME: 0 days 0 hours 0 minutes 31 seconds 885 msec
