                         Program Version 5.0.3 -  RELEASE  -
|  1> !ri-mp2 aug-cc-pvdz aug-cc-pvdz/c tightscf
|  2> %pal nprocs 16 end
|  3>
|  4> * xyz 0 1
|  5> C      0.000000    0.735787   -1.400081
|  6> C      0.000000   -0.735787   -1.400081
|  7> C      0.000000    1.175419   -0.125488
|  8> C      0.000000   -1.175419   -0.125488
|  9> C      0.000000    0.000000    0.758403
| 10> C      0.000000    0.000000    2.096421
| 11> H      0.000000    1.347657   -2.289398
| 12> H      0.000000   -1.347657   -2.289398
| 13> H      0.000000    2.197794    0.217520
| 14> H      0.000000   -2.197794    0.217520
| 15> H      0.000000   -0.923202    2.660823
| 16> H      0.000000    0.923202    2.660823
| 17> *
| 18>
| 19>                          ****END OF INPUT****

CARTESIAN COORDINATES (ANGSTROEM)
---------------------------------
  C      0.000000    0.735787   -1.400081
  C      0.000000   -0.735787   -1.400081
  C      0.000000    1.175419   -0.125488
  C      0.000000   -1.175419   -0.125488
  C      0.000000    0.000000    0.758403
  C      0.000000    0.000000    2.096421
  H      0.000000    1.347657   -2.289398
  H      0.000000   -1.347657   -2.289398
  H      0.000000    2.197794    0.217520
  H      0.000000   -2.197794    0.217520
  H      0.000000   -0.923202    2.660823
  H      0.000000    0.923202    2.660823

 Total Charge           Charge          ....    0
 Multiplicity           Mult            ....    1
 Number of Electrons    NEL             ....   42
 Basis Dimension        Dim             ....  192

ORBITAL ENERGIES
----------------

  NO   OCC          E(Eh)            E(eV)
   0   2.0000     -11.255660      -306.2821
   1   2.0000     -11.248518      -306.0877
   2   2.0000     -11.238533      -305.8160
   3   2.0000     -11.237766      -305.7952
   4   2.0000     -11.231806      -305.6330
   5   2.0000     -11.231773      -305.6321
   6   2.0000      -1.167311       -31.7642
   7   2.0000      -1.030513       -28.0417
   8   2.0000      -0.972981       -26.4762
   9   2.0000      -0.862884       -23.4803
  10   2.0000      -0.745545       -20.2873
  11   2.0000      -0.728114       -19.8130
  12   2.0000      -0.689293       -18.7566
  13   2.0000      -0.608606       -16.5610
  14   2.0000      -0.566021       -15.4022
  15   2.0000      -0.557172       -15.1614
  16   2.0000      -0.521426       -14.1887
  17   2.0000      -0.503483       -13.7005
  18   2.0000      -0.490572       -13.3492
  19   2.0000      -0.345826        -9.4104
  20   2.0000      -0.309783        -8.4296
  21   0.0000       0.036544         0.9944
  22   0.0000       0.040282         1.0961
  23   0.0000       0.043921         1.1951
  24   0.0000       0.055439         1.5086
  25   0.0000       0.057049         1.5524

MULLIKEN ATOMIC CHARGES
-----------------------
   0 C :    0.307376
   1 C :    0.307376
   2 C :    0.330310
   3 C :    0.330310
   4 C :   -0.077676
   5 C :    1.156653
   6 H :   -0.329474
   7 H :   -0.329474
   8 H :   -0.488715
   9 H :   -0.488715
  10 H :   -0.358984
  11 H :   -0.358984
Sum of atomic charges:   -0.0000000

LOEWDIN ATOMIC CHARGES
----------------------
   0 C :    0.017827
   1 C :    0.017827
   2 C :    0.037634
   3 C :    0.037634
   4 C :   -0.277897
   5 C :    0.256011
   6 H :   -0.010077
   7 H :   -0.010077
   8 H :   -0.005694
   9 H :   -0.005694
  10 H :   -0.028748
  11 H :   -0.028748

  Mayer bond orders larger than 0.100000
B(  0-C ,  1-C ) :   1.3670 B(  0-C ,  2-C ) :   2.0170 B(  0-C ,  3-C ) :  -0.2617
B(  0-C ,  5-C ) :   0.1988 B(  0-C ,  6-H ) :   0.6864 B(  1-C ,  2-C ) :  -0.2617
B(  1-C ,  3-C ) :   2.0170 B(  1-C ,  5-C ) :   0.1988 B(  1-C ,  7-H ) :   0.6864
B(  2-C ,  4-C ) :   1.5036 B(  2-C ,  5-C ) :  -0.2932 B(  2-C ,  6-H ) :   0.1141
B(  2-C ,  8-H ) :   0.3591 B(  2-C ,  9-H ) :   0.1047 B(  3-C ,  4-C ) :   1.5036
B(  3-C ,  5-C ) :  -0.2932 B(  3-C ,  7-H ) :   0.1141 B(  3-C ,  8-H ) :   0.1047
B(  3-C ,  9-H ) :   0.3591 B(  4-C ,  5-C ) :   1.7978 B(  4-C ,  8-H ) :   0.2631
B(  4-C ,  9-H ) :   0.2631 B(  4-C , 10-H ) :   0.3375 B(  4-C , 11-H ) :   0.3375
B(  5-C , 10-H ) :   0.5286 B(  5-C , 11-H ) :   0.5286 B( 10-H , 11-H ) :  -0.1602

MP2 TOTAL ENERGY:     -231.480074387 Eh
FINAL SINGLE POINT ENERGY      -231.480074387146

DIPOLE MOMENT
-------------
                                X             Y             Z
Electronic contribution:     -0.00000       0.00000      -0.99043
Nuclear contribution   :      0.00000       0.00000       1.18943
                        -----------------------------------------
Total Dipole Moment    :     -0.00000       0.00000       0.19900
                        -----------------------------------------
Magnitude (a.u.)       :      0.19900
Magnitude (Debye)      :      0.50581

Rotational constants in cm-1:     0.274950     0.127631     0.087168
Rotational constants in MHz :  8242.795315  3826.283796  2613.229548

                             ****ORCA TERMINATED NORMALLY****
TOTAL RUN TIME: 0 days 0 hours 0 minutes 50 seconds 621 msec
