                         Program Version 5.0.3 -  RELEASE  -
|  1> !ri-mp2 aug-cc-pvdz aug-cc-pvdz/c tightscf
|  2> %pal nprocs 16 end
|  3>
|  4> * xyz 0 1
|  5> C      0.000000    0.421048        0.000000
|  6> O     -1.028183   -0.446144        0.000000
|  7> O      1.158545    0.117343        0.000000
|  8> H     -0.383251    1.447877        0.000000
|  9> H     -0.659642   -1.343762        0.000000
| 10> *
| 11>
| 12>                          ****END OF INPUT****

CARTESIAN COORDINATES (ANGSTROEM)
---------------------------------
  C      0.000000    0.421048    0.000000
  O     -1.028183   -0.446144    0.000000
  O      1.158545    0.117343    0.000000
  H     -0.383251    1.447877    0.000000
  H     -0.659642   -1.343762    0.000000

 Total Charge           Charge          ....    0
 Multiplicity           Mult            ....    1
 Number of Electrons    NEL             ....   24
 Basis Dimension        Dim             ....   87

ORBITAL ENERGIES
----------------

  NO   OCC          E(Eh)            E(eV)
   0   2.0000     -20.637294      -561.5693
   1   2.0000     -20.578715      -559.9753
   2   2.0000     -11.407904      -310.4248
   3   2.0000      -1.482659       -40.3452
   4   2.0000      -1.384628       -37.6776
   5   2.0000      -0.899429       -24.4747
   6   2.0000      -0.727717       -19.8022
   7   2.0000      -0.716247       -19.4901
   8   2.0000      -0.638743       -17.3811
   9   2.0000      -0.606331       -16.4991
  10   2.0000      -0.498365       -13.5612
  11   2.0000      -0.474421       -12.9097
  12   0.0000       0.036579         0.9954
  13   0.0000       0.044167         1.2018
  14   0.0000       0.086670         2.3584
  15   0.0000       0.094514         2.5719
  16   0.0000       0.122725         3.3395

MULLIKEN ATOMIC CHARGES
-----------------------
   0 C :    1.038958
   1 O :   -0.517779
   2 O :   -0.573616
   3 H :   -0.096974
   4 H :    0.149411
Sum of atomic charges:   -0.0000000

LOEWDIN ATOMIC CHARGES
----------------------
   0 C :   -0.158217
   1 O :    0.164697
   2 O :    0.008205
   3 H :    0.010532
   4 H :   -0.025217

  Mayer bond orders larger than 0.100000
B(  0-C ,  1-O ) :   0.8025 B(  0-C ,  2-O ) :   1.7430 B(  0-C ,  3-H ) :   0.9582
B(  1-O ,  4-H ) :   1.0172

MP2 TOTAL ENERGY:     -189.325960199 Eh
FINAL SINGLE POINT ENERGY      -189.325960198904

DIPOLE MOMENT
-------------
                                X             Y             Z
Electronic contribution:      0.34569      -0.14351       0.00000
Nuclear contribution   :     -1.01933       0.09689       0.00000
                        -----------------------------------------
Total Dipole Moment    :     -0.67363      -0.04662       0.00000
                        -----------------------------------------
Magnitude (a.u.)       :      0.67524
Magnitude (Debye)      :      1.71633

Rotational constants in cm-1:     2.601862     0.401953     0.348166
Rotational constants in MHz : 78001.849825 12050.254170 10437.758524

                             ****ORCA TERMINATED NORMALLY****
TOTAL RUN TIME: 0 days 0 hours 0 minutes 39 seconds 747 msec
