                         Program Version 5.0.3 -  RELEASE  -
|  1> !ri-mp2 aug-cc-pvdz aug-cc-pvdz/c tightscf
|  2> %pal nprocs 16 end
|  3>
|  4> * xyz 0 1
|  5> C      0.000000    0.557702    0.000000
|  6> C      1.131396   -0.441623    0.000000
|  7> F     -1.231732   -0.112505    0.000000
|  8> H      0.016530    1.191540    0.888182
|  9> H      0.016530    1.191540   -0.888182
| 10> H      2.088160    0.083890    0.000000
| 11> H      1.087998   -1.075450    0.885435
| 12> H      1.087998   -1.075450   -0.885435
| 13> *
| 14>
| 15>                          ****END OF INPUT****

CARTESIAN COORDINATES (ANGSTROEM)
---------------------------------
  C      0.000000    0.557702    0.000000
  C      1.131396   -0.441623    0.000000
  F     -1.231732   -0.112505    0.000000
  H      0.016530    1.191540    0.888182
  H      0.016530    1.191540   -0.888182
  H      2.088160    0.083890    0.000000
  H      1.087998   -1.075450    0.885435
  H      1.087998   -1.075450   -0.885435

 Total Charge           Charge          ....    0
 Multiplicity           Mult            ....    1
 Number of Electrons    NEL             ....   26
 Basis Dimension        Dim             ....  114

ORBITAL ENERGIES
----------------

  NO   OCC          E(Eh)            E(eV)
   0   2.0000     -26.282171      -715.1742
   1   2.0000     -11.315874      -307.9206
   2   2.0000     -11.234576      -305.7084
   3   2.0000      -1.580808       -43.0160
   4   2.0000      -1.037429       -28.2299
   5   2.0000      -0.864427       -23.5223
   6   2.0000      -0.698753       -19.0140
   7   2.0000      -0.688145       -18.7254
   8   2.0000      -0.648617       -17.6498
   9   2.0000      -0.579490       -15.7687
  10   2.0000      -0.550154       -14.9704
  11   2.0000      -0.510740       -13.8979
  12   2.0000      -0.497078       -13.5262
  13   0.0000       0.035312         0.9609
  14   0.0000       0.048737         1.3262
  15   0.0000       0.050253         1.3674
  16   0.0000       0.059505         1.6192
  17   0.0000       0.079111         2.1527

MULLIKEN ATOMIC CHARGES
-----------------------
   0 C :    0.809106
   1 C :    0.165838
   2 F :   -0.616498
   3 H :   -0.130387
   4 H :   -0.130387
   5 H :   -0.019960
   6 H :   -0.038856
   7 H :   -0.038856
Sum of atomic charges:    0.0000000

LOEWDIN ATOMIC CHARGES
----------------------
   0 C :   -0.037015
   1 C :    0.125214
   2 F :   -0.030482
   3 H :   -0.004176
   4 H :   -0.004176
   5 H :   -0.015643
   6 H :   -0.016861
   7 H :   -0.016861

  Mayer bond orders larger than 0.100000
B(  0-C ,  1-C ) :   1.2864 B(  0-C ,  2-F ) :   0.3402 B(  0-C ,  3-H ) :   0.9512
B(  0-C ,  4-H ) :   0.9512 B(  1-C ,  5-H ) :   0.9352 B(  1-C ,  6-H ) :   0.9458
B(  1-C ,  7-H ) :   0.9458

MP2 TOTAL ENERGY:     -178.609382883 Eh
FINAL SINGLE POINT ENERGY      -178.609382882745

DIPOLE MOMENT
-------------
                                X             Y             Z
Electronic contribution:     -4.80128      -0.09445       0.00000
Nuclear contribution   :      5.60199       0.43402       0.00000
                        -----------------------------------------
Total Dipole Moment    :      0.80070       0.33957       0.00000
                        -----------------------------------------
Magnitude (a.u.)       :      0.86973
Magnitude (Debye)      :      2.21068

Rotational constants in cm-1:     1.212188     0.310417     0.272463
Rotational constants in MHz : 36340.482216  9306.077825  8168.224649

                             ****ORCA TERMINATED NORMALLY****
TOTAL RUN TIME: 0 days 0 hours 0 minutes 31 seconds 201 msec
