                         Program Version 5.0.3 -  RELEASE  -
|  1> !ri-mp2 aug-cc-pvdz aug-cc-pvdz/c tightscf
|  2> %pal nprocs 16 end
|  3> %maxcore 3800
|  4>
|  5> * xyz 0 1
|  6> N     -1.424042    1.687954   -0.315662
|  7> C     -1.175219    0.248620   -0.494595
|  8> C     -2.365563   -0.567051    0.058790
|  9> O     -2.366240   -1.768365    0.103385
| 10> O     -3.404107    0.178411    0.450947
| 11> H     -3.124488    1.108651    0.299481
| 12> C      0.140646   -0.242894    0.117615
| 13> C      1.376852    0.225616   -0.655543
| 14> C      2.649673    0.036162    0.158499
| 15> O      2.767995    0.503567    1.276755
| 16> N      3.647934   -0.665145   -0.444780
| 17> H     -1.174045    0.033000   -1.566491
| 18> H      0.210972    0.115142    1.147316
| 19> H      0.114142   -1.330876    0.160468
| 20> H      1.436071   -0.283556   -1.619729
| 21> H      1.310231    1.297639   -0.858898
| 22> H      3.536523   -1.093206   -1.344786
| 23> H      4.500031   -0.822115    0.066469
| 24> H     -0.866188    2.078023    0.433662
| 25> H     -1.250015    2.226005   -1.151686
| 26> *
| 27>
| 28>                          ****END OF INPUT****

CARTESIAN COORDINATES (ANGSTROEM)
---------------------------------
  N     -1.424042    1.687954   -0.315662
  C     -1.175219    0.248620   -0.494595
  C     -2.365563   -0.567051    0.058790
  O     -2.366240   -1.768365    0.103385
  O     -3.404107    0.178411    0.450947
  H     -3.124488    1.108651    0.299481
  C      0.140646   -0.242894    0.117615
  C      1.376852    0.225616   -0.655543
  C      2.649673    0.036162    0.158499
  O      2.767995    0.503567    1.276755
  N      3.647934   -0.665145   -0.444780
  H     -1.174045    0.033000   -1.566491
  H      0.210972    0.115142    1.147316
  H      0.114142   -1.330876    0.160468
  H      1.436071   -0.283556   -1.619729
  H      1.310231    1.297639   -0.858898
  H      3.536523   -1.093206   -1.344786
  H      4.500031   -0.822115    0.066469
  H     -0.866188    2.078023    0.433662
  H     -1.250015    2.226005   -1.151686

 Total Charge           Charge          ....    0
 Multiplicity           Mult            ....    1
 Number of Electrons    NEL             ....   78
 Basis Dimension        Dim             ....  320

ORBITAL ENERGIES
----------------

  NO   OCC          E(Eh)            E(eV)
   0   2.0000     -20.606004      -560.7179
   1   2.0000     -20.547221      -559.1183
   2   2.0000     -20.539317      -558.9032
   3   2.0000     -15.606075      -424.6629
   4   2.0000     -15.594913      -424.3592
   5   2.0000     -11.384874      -309.7982
   6   2.0000     -11.372985      -309.4746
   7   2.0000     -11.304349      -307.6070
   8   2.0000     -11.265273      -306.5437
   9   2.0000     -11.254921      -306.2620
  10   2.0000      -1.456967       -39.6461
  11   2.0000      -1.397581       -38.0301
  12   2.0000      -1.361505       -37.0484
  13   2.0000      -1.229792       -33.4643
  14   2.0000      -1.226712       -33.3805
  15   2.0000      -1.084192       -29.5024
  16   2.0000      -0.988346       -26.8943
  17   2.0000      -0.882502       -24.0141
  18   2.0000      -0.809028       -22.0148
  19   2.0000      -0.803067       -21.8526
  20   2.0000      -0.749349       -20.3908
  21   2.0000      -0.729942       -19.8627
  22   2.0000      -0.706096       -19.2138
  23   2.0000      -0.690520       -18.7900
  24   2.0000      -0.668121       -18.1805
  25   2.0000      -0.635666       -17.2973
  26   2.0000      -0.625845       -17.0301
  27   2.0000      -0.620035       -16.8720
  28   2.0000      -0.603264       -16.4156
  29   2.0000      -0.582899       -15.8615
  30   2.0000      -0.564011       -15.3475
  31   2.0000      -0.533401       -14.5146
  32   2.0000      -0.515367       -14.0238
  33   2.0000      -0.511258       -13.9120
  34   2.0000      -0.471595       -12.8327
  35   2.0000      -0.465809       -12.6753
  36   2.0000      -0.437663       -11.9094
  37   2.0000      -0.425233       -11.5712
  38   2.0000      -0.415348       -11.3022
  39   0.0000       0.020334         0.5533
  40   0.0000       0.029335         0.7982
  41   0.0000       0.040686         1.1071
  42   0.0000       0.050909         1.3853
  43   0.0000       0.055711         1.5160

MULLIKEN ATOMIC CHARGES
-----------------------
   0 N :   -0.660205
   1 C :    0.066806
   2 C :    1.358890
   3 O :   -0.779001
   4 O :   -0.708801
   5 H :    0.291282
   6 C :    0.494447
   7 C :    0.442195
   8 C :    0.974918
   9 O :   -0.825858
  10 N :   -0.194071
  11 H :    0.004793
  12 H :   -0.111882
  13 H :   -0.206832
  14 H :   -0.219069
  15 H :   -0.029679
  16 H :   -0.018613
  17 H :   -0.036944
  18 H :    0.088533
  19 H :    0.069088
Sum of atomic charges:   -0.0000000

LOEWDIN ATOMIC CHARGES
----------------------
   0 N :    0.226787
   1 C :   -0.149114
   2 C :   -0.311911
   3 O :    0.045097
   4 O :    0.215714
   5 H :   -0.094310
   6 C :    0.022756
   7 C :    0.044886
   8 C :   -0.360226
   9 O :    0.020245
  10 N :    0.276527
  11 H :    0.051638
  12 H :    0.026360
  13 H :    0.023107
  14 H :    0.016413
  15 H :    0.023022
  16 H :   -0.020911
  17 H :   -0.002893
  18 H :   -0.022988
  19 H :   -0.030201

  Mayer bond orders larger than 0.100000
B(  0-N ,  1-C ) :   0.6720 B(  0-N , 18-H ) :   1.0739 B(  0-N , 19-H ) :   1.0669
B(  1-C ,  2-C ) :   1.0070 B(  1-C ,  4-O ) :   0.2162 B(  1-C ,  6-C ) :   1.1594
B(  1-C ,  7-C ) :  -0.1181 B(  1-C , 11-H ) :   0.8214 B(  2-C ,  3-O ) :   1.4042
B(  2-C ,  4-O ) :   0.3709 B(  4-O ,  5-H ) :   0.9211 B(  6-C ,  7-C ) :   1.1880
B(  6-C , 12-H ) :   0.8869 B(  6-C , 13-H ) :   0.7535 B(  6-C , 14-H ) :   0.2083
B(  7-C ,  8-C ) :   0.9843 B(  7-C ,  9-O ) :   0.1722 B(  7-C , 14-H ) :   0.6704
B(  7-C , 15-H ) :   0.8446 B(  8-C ,  9-O ) :   1.2516 B(  8-C , 10-N ) :   0.9164
B( 10-N , 16-H ) :   1.0622 B( 10-N , 17-H ) :   1.1161

MP2 TOTAL ENERGY:     -530.420398355 Eh
FINAL SINGLE POINT ENERGY      -530.420398355424

DIPOLE MOMENT
-------------
                                X             Y             Z
Electronic contribution:     -3.24903      -2.28738       2.53708
Nuclear contribution   :      4.66992       3.32539      -4.42016
                        -----------------------------------------
Total Dipole Moment    :      1.42089       1.03801      -1.88308
                        -----------------------------------------
Magnitude (a.u.)       :      2.57728
Magnitude (Debye)      :      6.55093

Rotational constants in cm-1:     0.096270     0.018589     0.017264
Rotational constants in MHz :  2886.106752   557.277388   517.562243

                             ****ORCA TERMINATED NORMALLY****
TOTAL RUN TIME: 0 days 0 hours 1 minutes 49 seconds 65 msec
