                         Program Version 5.0.3 -  RELEASE  -
|  1> !ri-mp2 aug-cc-pvdz aug-cc-pvdz/c tightscf
|  2> %pal nprocs 16 end
|  3>
|  4> * xyz 0 1
|  5> C      0.000000    0.554399    0.000000
|  6> O      1.166268    0.850486    0.000000
|  7> O     -0.993246    1.475442    0.000000
|  8> C     -0.558650   -0.860872    0.000000
|  9> N      0.418261   -1.927134    0.000000
| 10> H     -0.577661    2.350468    0.000000
| 11> H     -1.213149   -0.954876    0.869365
| 12> H     -1.213149   -0.954876   -0.869365
| 13> H      1.021928   -1.859686    0.809956
| 14> H      1.021928   -1.859686   -0.809956
| 15> *
| 16>
| 17>                          ****END OF INPUT****

CARTESIAN COORDINATES (ANGSTROEM)
---------------------------------
  C      0.000000    0.554399    0.000000
  O      1.166268    0.850486    0.000000
  O     -0.993246    1.475442    0.000000
  C     -0.558650   -0.860872    0.000000
  N      0.418261   -1.927134    0.000000
  H     -0.577661    2.350468    0.000000
  H     -1.213149   -0.954876    0.869365
  H     -1.213149   -0.954876   -0.869365
  H      1.021928   -1.859686    0.809956
  H      1.021928   -1.859686   -0.809956

 Total Charge           Charge          ....    0
 Multiplicity           Mult            ....    1
 Number of Electrons    NEL             ....   40
 Basis Dimension        Dim             ....  160

ORBITAL ENERGIES
----------------

  NO   OCC          E(Eh)            E(eV)
   0   2.0000     -20.627997      -561.3163
   1   2.0000     -20.568441      -559.6957
   2   2.0000     -15.562855      -423.4868
   3   2.0000     -11.398194      -310.1606
   4   2.0000     -11.286582      -307.1235
   5   2.0000      -1.475613       -40.1535
   6   2.0000      -1.374298       -37.3965
   7   2.0000      -1.199932       -32.6518
   8   2.0000      -0.981051       -26.6958
   9   2.0000      -0.820086       -22.3157
  10   2.0000      -0.713238       -19.4082
  11   2.0000      -0.701283       -19.0829
  12   2.0000      -0.696820       -18.9614
  13   2.0000      -0.631156       -17.1746
  14   2.0000      -0.604977       -16.4623
  15   2.0000      -0.589123       -16.0309
  16   2.0000      -0.536453       -14.5976
  17   2.0000      -0.491632       -13.3780
  18   2.0000      -0.469009       -12.7624
  19   2.0000      -0.412294       -11.2191
  20   0.0000       0.033437         0.9099
  21   0.0000       0.046078         1.2539
  22   0.0000       0.050234         1.3669
  23   0.0000       0.055606         1.5131
  24   0.0000       0.080616         2.1937

MULLIKEN ATOMIC CHARGES
-----------------------
   0 C :    0.943177
   1 O :   -0.718944
   2 O :   -0.683257
   3 C :    0.595391
   4 N :   -0.392004
   5 H :    0.196728
   6 H :    0.006685
   7 H :    0.006685
   8 H :    0.022769
   9 H :    0.022769
Sum of atomic charges:    0.0000000

LOEWDIN ATOMIC CHARGES
----------------------
   0 C :   -0.337127
   1 O :    0.035573
   2 O :    0.193154
   3 C :   -0.018734
   4 N :    0.187316
   5 H :   -0.018879
   6 H :    0.022380
   7 H :    0.022380
   8 H :   -0.043032
   9 H :   -0.043032

  Mayer bond orders larger than 0.100000
B(  0-C ,  1-O ) :   1.5062 B(  0-C ,  2-O ) :   0.5068 B(  0-C ,  3-C ) :   0.9800
B(  2-O ,  3-C ) :   0.1417 B(  2-O ,  5-H ) :   0.9986 B(  3-C ,  4-N ) :   0.8470
B(  3-C ,  6-H ) :   0.9173 B(  3-C ,  7-H ) :   0.9173 B(  4-N ,  8-H ) :   1.0599
B(  4-N ,  9-H ) :   1.0599

MP2 TOTAL ENERGY:     -283.735296414 Eh
FINAL SINGLE POINT ENERGY      -283.735296413963

DIPOLE MOMENT
-------------
                                X             Y             Z
Electronic contribution:      0.54675       3.51783       0.00000
Nuclear contribution   :     -0.95563      -3.25572       0.00000
                        -----------------------------------------
Total Dipole Moment    :     -0.40888       0.26210       0.00000
                        -----------------------------------------
Magnitude (a.u.)       :      0.48568
Magnitude (Debye)      :      1.23450

Rotational constants in cm-1:     0.345713     0.128365     0.096664
Rotational constants in MHz : 10364.225556  3848.297845  2897.902897

                             ****ORCA TERMINATED NORMALLY****
TOTAL RUN TIME: 0 days 0 hours 0 minutes 32 seconds 929 msec
