                         Program Version 5.0.3 -  RELEASE  -
|  1> !ri-mp2 aug-cc-pvdz aug-cc-pvdz/c tightscf
|  2> %pal nprocs 16 end
|  3>
|  4> * xyz 0 1
|  5> H     -0.333392    2.025670   -0.458487
|  6> H      1.594629    0.802015   -1.272848
|  7> H      1.833366   -1.474020   -0.539014
|  8> H     -0.033157    1.529153    1.201325
|  9> C      0.022543    1.205712    0.159355
| 10> H      2.219734    1.139182    0.340551
| 11> C      1.405703    0.669564   -0.207531
| 12> H      1.546270   -1.040847    1.156693
| 13> C      1.270591   -0.821031    0.123306
| 14> O     -2.082550   -0.030351   -0.067109
| 15> C     -0.888795   -0.002092    0.002806
| 16> O     -0.128413   -1.131408   -0.044870
| 17> *
| 18>
| 19>                          ****END OF INPUT****

CARTESIAN COORDINATES (ANGSTROEM)
---------------------------------
  H     -0.333392    2.025670   -0.458487
  H      1.594629    0.802015   -1.272848
  H      1.833366   -1.474020   -0.539014
  H     -0.033157    1.529153    1.201325
  C      0.022543    1.205712    0.159355
  H      2.219734    1.139182    0.340551
  C      1.405703    0.669564   -0.207531
  H      1.546270   -1.040847    1.156693
  C      1.270591   -0.821031    0.123306
  O     -2.082550   -0.030351   -0.067109
  C     -0.888795   -0.002092    0.002806
  O     -0.128413   -1.131408   -0.044870

 Total Charge           Charge          ....    0
 Multiplicity           Mult            ....    1
 Number of Electrons    NEL             ....   46
 Basis Dimension        Dim             ....  192

ORBITAL ENERGIES
----------------

  NO   OCC          E(Eh)            E(eV)
   0   2.0000     -20.611584      -560.8697
   1   2.0000     -20.551963      -559.2474
   2   2.0000     -11.387539      -309.8707
   3   2.0000     -11.311053      -307.7894
   4   2.0000     -11.263041      -306.4829
   5   2.0000     -11.260649      -306.4178
   6   2.0000      -1.461654       -39.7736
   7   2.0000      -1.370967       -37.3059
   8   2.0000      -1.096330       -29.8327
   9   2.0000      -0.994209       -27.0538
  10   2.0000      -0.858962       -23.3736
  11   2.0000      -0.778895       -21.1948
  12   2.0000      -0.711852       -19.3705
  13   2.0000      -0.696597       -18.9554
  14   2.0000      -0.650161       -17.6918
  15   2.0000      -0.611235       -16.6326
  16   2.0000      -0.596527       -16.2323
  17   2.0000      -0.581387       -15.8203
  18   2.0000      -0.539927       -14.6922
  19   2.0000      -0.518324       -14.1043
  20   2.0000      -0.500525       -13.6200
  21   2.0000      -0.453975       -12.3533
  22   2.0000      -0.436417       -11.8755
  23   0.0000       0.027859         0.7581
  24   0.0000       0.040954         1.1144
  25   0.0000       0.042608         1.1594
  26   0.0000       0.051884         1.4118
  27   0.0000       0.065080         1.7709

MULLIKEN ATOMIC CHARGES
-----------------------
   0 H :   -0.058423
   1 H :   -0.153964
   2 H :   -0.185487
   3 H :   -0.018656
   4 C :    0.075150
   5 H :   -0.061382
   6 C :    0.237885
   7 H :   -0.193637
   8 C :    1.038609
   9 O :   -0.755092
  10 C :    0.969076
  11 O :   -0.894080
Sum of atomic charges:    0.0000000

LOEWDIN ATOMIC CHARGES
----------------------
   0 H :    0.023701
   1 H :    0.016245
   2 H :    0.007496
   3 H :    0.028153
   4 C :    0.054000
   5 H :    0.014793
   6 C :    0.000464
   7 H :    0.010071
   8 C :    0.032337
   9 O :    0.048066
  10 C :   -0.309850
  11 O :    0.074524

  Mayer bond orders larger than 0.100000
B(  0-H ,  3-H ) :  -0.1030 B(  0-H ,  4-C ) :   0.8246 B(  1-H ,  5-H ) :  -0.1130
B(  1-H ,  6-C ) :   0.8017 B(  2-H ,  7-H ) :  -0.1049 B(  2-H ,  8-C ) :   0.9071
B(  3-H ,  4-C ) :   0.8551 B(  4-C ,  6-C ) :   1.2839 B(  4-C , 10-C ) :   1.0320
B(  4-C , 11-O ) :   0.1373 B(  5-H ,  6-C ) :   0.8304 B(  6-C ,  8-C ) :   1.2191
B(  7-H ,  8-C ) :   0.8528 B(  8-C , 11-O ) :   0.5878 B(  9-O , 10-C ) :   1.5366
B( 10-C , 11-O ) :   0.6746

MP2 TOTAL ENERGY:     -305.691312853 Eh
FINAL SINGLE POINT ENERGY      -305.691312852892

DIPOLE MOMENT
-------------
                                X             Y             Z
Electronic contribution:     -4.88402      -2.27745      -0.25840
Nuclear contribution   :      6.81637       2.97321       0.42795
                        -----------------------------------------
Total Dipole Moment    :      1.93236       0.69576       0.16955
                        -----------------------------------------
Magnitude (a.u.)       :      2.06078
Magnitude (Debye)      :      5.23810

Rotational constants in cm-1:     0.243541     0.119253     0.085032
Rotational constants in MHz :  7301.161003  3575.103980  2549.186775

                             ****ORCA TERMINATED NORMALLY****
TOTAL RUN TIME: 0 days 0 hours 0 minutes 50 seconds 859 msec
