                         Program Version 5.0.3 -  RELEASE  -
|  1> !ri-mp2 aug-cc-pvdz aug-cc-pvdz/c tightscf
|  2> %pal nprocs 16 end
|  3> %maxcore 3800
|  4>
|  5> * xyz 0 1
|  6> C      1.115853    0.989979    0.201060
|  7> C     -0.314474    1.262685   -0.244860
|  8> C      1.590049   -0.399146   -0.223279
|  9> C     -1.222885    0.133264    0.240191
| 10> C      0.581955   -1.449023    0.245268
| 11> C     -2.647642    0.247392   -0.273872
| 12> O     -0.712544   -1.117915   -0.238783
| 13> O      1.938737    2.012668   -0.343122
| 14> O     -0.797977    2.486634    0.288000
| 15> O      2.916634   -0.629266    0.240675
| 16> O      0.944839   -2.686590   -0.268393
| 17> O     -3.477430   -0.790535    0.223836
| 18> H      1.140111    1.046893    1.299737
| 19> H     -0.336642    1.288486   -1.341217
| 20> H      1.646637   -0.454256   -1.310960
| 21> H     -1.241659    0.127736    1.337503
| 22> H      0.545143   -1.472520    1.349105
| 23> H     -2.633844    0.247751   -1.369821
| 24> H     -3.076579    1.187253    0.065541
| 25> H      2.858515    1.774040   -0.179127
| 26> H     -0.153038    3.172141    0.080576
| 27> H      2.899013   -0.846682    1.179337
| 28> H      0.327548   -3.352594    0.052774
| 29> H     -3.090410   -1.629125   -0.048206
| 30> *
| 31>
| 32>                          ****END OF INPUT****

CARTESIAN COORDINATES (ANGSTROEM)
---------------------------------
  C      1.115853    0.989979    0.201060
  C     -0.314474    1.262685   -0.244860
  C      1.590049   -0.399146   -0.223279
  C     -1.222885    0.133264    0.240191
  C      0.581955   -1.449023    0.245268
  C     -2.647642    0.247392   -0.273872
  O     -0.712544   -1.117915   -0.238783
  O      1.938737    2.012668   -0.343122
  O     -0.797977    2.486634    0.288000
  O      2.916634   -0.629266    0.240675
  O      0.944839   -2.686590   -0.268393
  O     -3.477430   -0.790535    0.223836
  H      1.140111    1.046893    1.299737
  H     -0.336642    1.288486   -1.341217
  H      1.646637   -0.454256   -1.310960
  H     -1.241659    0.127736    1.337503
  H      0.545143   -1.472520    1.349105
  H     -2.633844    0.247751   -1.369821
  H     -3.076579    1.187253    0.065541
  H      2.858515    1.774040   -0.179127
  H     -0.153038    3.172141    0.080576
  H      2.899013   -0.846682    1.179337
  H      0.327548   -3.352594    0.052774
  H     -3.090410   -1.629125   -0.048206

 Total Charge           Charge          ....    0
 Multiplicity           Mult            ....    1
 Number of Electrons    NEL             ....   96
 Basis Dimension        Dim             ....  384

ORBITAL ENERGIES
----------------

  NO   OCC          E(Eh)            E(eV)
   0   2.0000     -20.596768      -560.4665
   1   2.0000     -20.595817      -560.4407
   2   2.0000     -20.595297      -560.4265
   3   2.0000     -20.586983      -560.2003
   4   2.0000     -20.581631      -560.0547
   5   2.0000     -20.568590      -559.6998
   6   2.0000     -11.366908      -309.3093
   7   2.0000     -11.306909      -307.6766
   8   2.0000     -11.305061      -307.6264
   9   2.0000     -11.303235      -307.5767
  10   2.0000     -11.302404      -307.5541
  11   2.0000     -11.285039      -307.0815
  12   2.0000      -1.446368       -39.3577
  13   2.0000      -1.402138       -38.1541
  14   2.0000      -1.388900       -37.7939
  15   2.0000      -1.373621       -37.3781
  16   2.0000      -1.367167       -37.2025
  17   2.0000      -1.357143       -36.9297
  18   2.0000      -1.075455       -29.2646
  19   2.0000      -1.051318       -28.6078
  20   2.0000      -0.947988       -25.7961
  21   2.0000      -0.884275       -24.0623
  22   2.0000      -0.855516       -23.2798
  23   2.0000      -0.822452       -22.3800
  24   2.0000      -0.758673       -20.6445
  25   2.0000      -0.733925       -19.9711
  26   2.0000      -0.727470       -19.7955
  27   2.0000      -0.714046       -19.4302
  28   2.0000      -0.684896       -18.6370
  29   2.0000      -0.674870       -18.3641
  30   2.0000      -0.665342       -18.1049
  31   2.0000      -0.637213       -17.3394
  32   2.0000      -0.630524       -17.1574
  33   2.0000      -0.604020       -16.4362
  34   2.0000      -0.597756       -16.2658
  35   2.0000      -0.590230       -16.0610
  36   2.0000      -0.571829       -15.5603
  37   2.0000      -0.557829       -15.1793
  38   2.0000      -0.550877       -14.9901
  39   2.0000      -0.525449       -14.2982
  40   2.0000      -0.519644       -14.1402
  41   2.0000      -0.515979       -14.0405
  42   2.0000      -0.496407       -13.5079
  43   2.0000      -0.481796       -13.1103
  44   2.0000      -0.462098       -12.5743
  45   2.0000      -0.454390       -12.3646
  46   2.0000      -0.439751       -11.9662
  47   2.0000      -0.433483       -11.7957
  48   0.0000       0.026658         0.7254
  49   0.0000       0.036036         0.9806
  50   0.0000       0.041191         1.1209
  51   0.0000       0.048528         1.3205
  52   0.0000       0.057229         1.5573

MULLIKEN ATOMIC CHARGES
-----------------------
   0 C :    0.916757
   1 C :    0.742142
   2 C :    0.428831
   3 C :    0.542511
   4 C :    1.587786
   5 C :    1.247263
   6 O :   -1.256938
   7 O :   -0.904011
   8 O :   -0.879650
   9 O :   -0.806052
  10 O :   -0.761068
  11 O :   -0.730251
  12 H :   -0.134150
  13 H :   -0.045612
  14 H :   -0.121274
  15 H :   -0.213705
  16 H :   -0.157047
  17 H :   -0.122921
  18 H :   -0.086396
  19 H :    0.165928
  20 H :    0.161659
  21 H :    0.109774
  22 H :    0.150971
  23 H :    0.165451
Sum of atomic charges:   -0.0000000

LOEWDIN ATOMIC CHARGES
----------------------
   0 C :   -0.173241
   1 C :   -0.166419
   2 C :   -0.147040
   3 C :   -0.163143
   4 C :   -0.210450
   5 C :   -0.006492
   6 O :    0.058627
   7 O :    0.156690
   8 O :    0.158819
   9 O :    0.157373
  10 O :    0.177657
  11 O :    0.124462
  12 H :    0.051291
  13 H :    0.055143
  14 H :    0.055859
  15 H :    0.051886
  16 H :    0.043489
  17 H :    0.019119
  18 H :    0.014404
  19 H :   -0.052164
  20 H :   -0.051001
  21 H :   -0.048256
  22 H :   -0.037388
  23 H :   -0.069226

  Mayer bond orders larger than 0.100000
B(  0-C ,  1-C ) :   1.1369 B(  0-C ,  2-C ) :   1.1946 B(  0-C ,  8-O ) :   0.2374
B(  0-C ,  9-O ) :   0.1184 B(  0-C , 12-H ) :   0.5445 B(  0-C , 13-H ) :   0.2477
B(  0-C , 15-H ) :  -0.1023 B(  1-C ,  3-C ) :   1.1950 B(  1-C ,  6-O ) :   0.1613
B(  1-C ,  7-O ) :   0.1705 B(  1-C , 13-H ) :   0.5488 B(  1-C , 15-H ) :   0.3992
B(  1-C , 17-H ) :  -0.1155 B(  2-C ,  4-C ) :   1.2286 B(  2-C ,  6-O ) :   0.1261
B(  2-C ,  7-O ) :   0.2089 B(  2-C ,  9-O ) :   0.1948 B(  2-C , 12-H ) :   0.2863
B(  2-C , 13-H ) :  -0.1092 B(  2-C , 14-H ) :   0.6122 B(  2-C , 16-H ) :   0.2305
B(  3-C ,  5-C ) :   1.0068 B(  3-C , 11-O ) :   0.2249 B(  3-C , 15-H ) :   0.3074
B(  3-C , 17-H ) :   0.2544 B(  4-C ,  6-O ) :   0.6341 B(  4-C , 10-O ) :   0.4190
B(  4-C , 12-H ) :  -0.1060 B(  4-C , 14-H ) :   0.1219 B(  4-C , 16-H ) :   0.4995
B(  5-C , 11-O ) :   0.3449 B(  5-C , 17-H ) :   0.8771 B(  5-C , 18-H ) :   0.8176
B(  7-O , 19-H ) :   1.0855 B(  8-O , 20-H ) :   1.0860 B(  9-O , 14-H ) :  -0.1134
B(  9-O , 21-H ) :   1.1204 B( 10-O , 22-H ) :   1.0922 B( 11-O , 23-H ) :   1.0510
B( 17-H , 18-H ) :  -0.1332

MP2 TOTAL ENERGY:     -685.519327516 Eh
FINAL SINGLE POINT ENERGY      -685.519327515627

DIPOLE MOMENT
-------------
                                X             Y             Z
Electronic contribution:      1.76019      -1.38462      -0.45619
Nuclear contribution   :     -1.10325       1.07853       1.11456
                        -----------------------------------------
Total Dipole Moment    :      0.65694      -0.30609       0.65837
                        -----------------------------------------
Magnitude (a.u.)       :      0.97914
Magnitude (Debye)      :      2.48877

Rotational constants in cm-1:     0.038973     0.026040     0.016313
Rotational constants in MHz :  1168.376073   780.672134   489.064600

                             ****ORCA TERMINATED NORMALLY****
TOTAL RUN TIME: 0 days 0 hours 2 minutes 36 seconds 876 msec
