                         Program Version 5.0.3 -  RELEASE  -
|  1> !ri-mp2 aug-cc-pvdz aug-cc-pvdz/c tightscf
|  2> %pal nprocs 16 end
|  3>
|  4> * xyz 0 1
|  5> C     -0.738863   -0.744609    0.000092
|  6> C      0.514163    0.098603    0.000027
|  7> O      1.636178   -0.642444   -0.000068
|  8> O      0.505630    1.304270    0.000046
|  9> O     -1.893095    0.053802   -0.000097
| 10> H     -0.715437   -1.394908   -0.880519
| 11> H     -0.715499   -1.394600    0.880937
| 12> H     -1.602727    0.976904   -0.000086
| 13> H      2.392158   -0.036383   -0.000096
| 14> *
| 15>
| 16>                          ****END OF INPUT****

CARTESIAN COORDINATES (ANGSTROEM)
---------------------------------
  C     -0.738863   -0.744609    0.000092
  C      0.514163    0.098603    0.000027
  O      1.636178   -0.642444   -0.000068
  O      0.505630    1.304270    0.000046
  O     -1.893095    0.053802   -0.000097
  H     -0.715437   -1.394908   -0.880519
  H     -0.715499   -1.394600    0.880937
  H     -1.602727    0.976904   -0.000086
  H      2.392158   -0.036383   -0.000096

 Total Charge           Charge          ....    0
 Multiplicity           Mult            ....    1
 Number of Electrons    NEL             ....   40
 Basis Dimension        Dim             ....  151

ORBITAL ENERGIES
----------------

  NO   OCC          E(Eh)            E(eV)
   0   2.0000     -20.643613      -561.7413
   1   2.0000     -20.584247      -560.1258
   2   2.0000     -20.579512      -559.9970
   3   2.0000     -11.415093      -310.6205
   4   2.0000     -11.315292      -307.9047
   5   2.0000      -1.493882       -40.6506
   6   2.0000      -1.398959       -38.0676
   7   2.0000      -1.373689       -37.3800
   8   2.0000      -1.011623       -27.5277
   9   2.0000      -0.842057       -22.9135
  10   2.0000      -0.747912       -20.3517
  11   2.0000      -0.730177       -19.8691
  12   2.0000      -0.686829       -18.6896
  13   2.0000      -0.651005       -17.7148
  14   2.0000      -0.614976       -16.7343
  15   2.0000      -0.614697       -16.7268
  16   2.0000      -0.545943       -14.8559
  17   2.0000      -0.506848       -13.7920
  18   2.0000      -0.477656       -12.9977
  19   2.0000      -0.465588       -12.6693
  20   0.0000       0.030601         0.8327
  21   0.0000       0.047410         1.2901
  22   0.0000       0.053750         1.4626
  23   0.0000       0.062037         1.6881
  24   0.0000       0.099143         2.6978

MULLIKEN ATOMIC CHARGES
-----------------------
   0 C :    0.936363
   1 C :    0.797745
   2 O :   -0.661464
   3 O :   -0.721082
   4 O :   -0.699757
   5 H :   -0.010339
   6 H :   -0.010286
   7 H :    0.183791
   8 H :    0.185028
Sum of atomic charges:    0.0000000

LOEWDIN ATOMIC CHARGES
----------------------
   0 C :    0.009345
   1 C :   -0.338017
   2 O :    0.208546
   3 O :    0.050752
   4 O :    0.126862
   5 H :    0.017524
   6 H :    0.017527
   7 H :   -0.081070
   8 H :   -0.011468

  Mayer bond orders larger than 0.100000
B(  0-C ,  1-C ) :   1.0399 B(  0-C ,  4-O ) :   0.4656 B(  0-C ,  5-H ) :   0.9091
B(  0-C ,  6-H ) :   0.9091 B(  1-C ,  2-O ) :   0.6091 B(  1-C ,  3-O ) :   1.5056
B(  1-C ,  4-O ) :   0.1129 B(  2-O ,  8-H ) :   1.0150 B(  4-O ,  7-H ) :   1.0424

MP2 TOTAL ENERGY:     -303.583741163 Eh
FINAL SINGLE POINT ENERGY      -303.583741163450

DIPOLE MOMENT
-------------
                                X             Y             Z
Electronic contribution:      1.43811       1.33520      -0.00015
Nuclear contribution   :     -0.62980      -1.81528       0.00023
                        -----------------------------------------
Total Dipole Moment    :      0.80830      -0.48008       0.00008
                        -----------------------------------------
Magnitude (a.u.)       :      0.94012
Magnitude (Debye)      :      2.38960

Rotational constants in cm-1:     0.358326     0.134926     0.099833
Rotational constants in MHz : 10742.349264  4044.974863  2992.924897

                             ****ORCA TERMINATED NORMALLY****
TOTAL RUN TIME: 0 days 0 hours 0 minutes 53 seconds 177 msec
