                         Program Version 5.0.3 -  RELEASE  -
|  1> !ri-mp2 aug-cc-pvdz aug-cc-pvdz/c tightscf
|  2> %pal nprocs 16 end
|  3>
|  4> * xyz 0 1
|  5> O     -2.417963    0.047987   -0.123897
|  6> H     -1.254547   -0.774720    1.304580
|  7> H     -1.302489   -1.718686   -0.195314
|  8> C     -1.251091   -0.706463    0.216624
|  9> O      0.061919    1.328254    0.263126
| 10> H      0.015456    0.038391   -1.353421
| 11> C      0.012297    0.000165   -0.254588
| 12> H      1.281639   -0.756010    1.300499
| 13> H      1.324011   -1.707294   -0.195753
| 14> C      1.283432   -0.694142    0.205599
| 15> H      2.364208    0.899324   -0.013832
| 16> O      2.446879   -0.029282   -0.258813
| 17> H     -0.816557    1.714063    0.164460
| 18> H     -2.606229   -0.068088   -1.060358
| 19> *
| 20>
| 21>                          ****END OF INPUT****

CARTESIAN COORDINATES (ANGSTROEM)
---------------------------------
  O     -2.417963    0.047987   -0.123897
  H     -1.254547   -0.774720    1.304580
  H     -1.302489   -1.718686   -0.195314
  C     -1.251091   -0.706463    0.216624
  O      0.061919    1.328254    0.263126
  H      0.015456    0.038391   -1.353421
  C      0.012297    0.000165   -0.254588
  H      1.281639   -0.756010    1.300499
  H      1.324011   -1.707294   -0.195753
  C      1.283432   -0.694142    0.205599
  H      2.364208    0.899324   -0.013832
  O      2.446879   -0.029282   -0.258813
  H     -0.816557    1.714063    0.164460
  H     -2.606229   -0.068088   -1.060358

 Total Charge           Charge          ....    0
 Multiplicity           Mult            ....    1
 Number of Electrons    NEL             ....   50
 Basis Dimension        Dim             ....  210

ORBITAL ENERGIES
----------------

  NO   OCC          E(Eh)            E(eV)
   0   2.0000     -20.590263      -560.2895
   1   2.0000     -20.574930      -559.8723
   2   2.0000     -20.564880      -559.5988
   3   2.0000     -11.298805      -307.4561
   4   2.0000     -11.294065      -307.3271
   5   2.0000     -11.286288      -307.1155
   6   2.0000      -1.394140       -37.9365
   7   2.0000      -1.371852       -37.3300
   8   2.0000      -1.351198       -36.7680
   9   2.0000      -1.043422       -28.3930
  10   2.0000      -0.924404       -25.1543
  11   2.0000      -0.829148       -22.5623
  12   2.0000      -0.733602       -19.9623
  13   2.0000      -0.708863       -19.2891
  14   2.0000      -0.679945       -18.5022
  15   2.0000      -0.649945       -17.6859
  16   2.0000      -0.626202       -17.0398
  17   2.0000      -0.589160       -16.0319
  18   2.0000      -0.580705       -15.8018
  19   2.0000      -0.540783       -14.7154
  20   2.0000      -0.530602       -14.4384
  21   2.0000      -0.507371       -13.8063
  22   2.0000      -0.484156       -13.1746
  23   2.0000      -0.443977       -12.0812
  24   2.0000      -0.438831       -11.9412
  25   0.0000       0.029910         0.8139
  26   0.0000       0.042701         1.1620
  27   0.0000       0.047322         1.2877
  28   0.0000       0.051944         1.4135
  29   0.0000       0.068771         1.8714

MULLIKEN ATOMIC CHARGES
-----------------------
   0 O :   -0.735597
   1 H :   -0.125787
   2 H :   -0.100889
   3 C :    1.026430
   4 O :   -0.819414
   5 H :   -0.154763
   6 C :    0.196197
   7 H :   -0.086460
   8 H :   -0.139885
   9 C :    1.198412
  10 H :    0.174590
  11 O :   -0.739225
  12 H :    0.163421
  13 H :    0.142969
Sum of atomic charges:   -0.0000000

LOEWDIN ATOMIC CHARGES
----------------------
   0 O :    0.120232
   1 H :    0.013627
   2 H :    0.014109
   3 C :   -0.010313
   4 O :    0.140810
   5 H :    0.038003
   6 C :   -0.243797
   7 H :    0.014106
   8 H :    0.010639
   9 C :   -0.027613
  10 H :   -0.068254
  11 O :    0.119221
  12 H :   -0.064251
  13 H :   -0.056519

  Mayer bond orders larger than 0.100000
B(  0-O ,  3-C ) :   0.4502 B(  0-O ,  6-C ) :   0.1757 B(  0-O , 13-H ) :   1.0677
B(  1-H ,  2-H ) :  -0.1175 B(  1-H ,  3-C ) :   0.9139 B(  2-H ,  3-C ) :   0.8491
B(  3-C ,  4-O ) :   0.1233 B(  3-C ,  6-C ) :   1.2351 B(  3-C ,  9-C ) :  -0.1003
B(  4-O ,  6-C ) :   0.2498 B(  4-O , 12-H ) :   1.0504 B(  5-H ,  6-C ) :   0.7072
B(  6-C ,  7-H ) :   0.1809 B(  6-C ,  9-C ) :   1.2267 B(  6-C , 11-O ) :   0.2284
B(  7-H ,  8-H ) :  -0.1191 B(  7-H ,  9-C ) :   0.8510 B(  8-H ,  9-C ) :   0.8646
B(  9-C , 11-O ) :   0.3778 B( 10-H , 11-O ) :   1.0420

MP2 TOTAL ENERGY:     -343.934296252 Eh
FINAL SINGLE POINT ENERGY      -343.934296251694

DIPOLE MOMENT
-------------
                                X             Y             Z
Electronic contribution:      0.21691       1.97350      -0.29984
Nuclear contribution   :     -1.01259      -2.39800      -0.05203
                        -----------------------------------------
Total Dipole Moment    :     -0.79568      -0.42450      -0.35187
                        -----------------------------------------
Magnitude (a.u.)       :      0.96805
Magnitude (Debye)      :      2.46059

Rotational constants in cm-1:     0.273546     0.065189     0.056423
Rotational constants in MHz :  8200.708611  1954.318977  1691.529264

                             ****ORCA TERMINATED NORMALLY****
TOTAL RUN TIME: 0 days 0 hours 0 minutes 43 seconds 563 msec
