                         Program Version 5.0.3 -  RELEASE  -
|  1> !ri-mp2 aug-cc-pvdz aug-cc-pvdz/c tightscf
|  2> %pal nprocs 16 end
|  3>
|  4> * xyz 0 1
|  5> O     1.166590     2.672477       0.000000
|  6> O    -1.166590    -2.672477       0.000000
|  7> N     1.166590     1.298532       0.000000
|  8> N    -1.166590    -1.298532       0.000000
|  9> C     0.027863     0.723227       0.000000
| 10> C    -0.027863    -0.723227       0.000000
| 11> H     0.248784     2.997834       0.000000
| 12> H    -0.248784    -2.997834       0.000000
| 13> H    -0.917383     1.269774       0.000000
| 14> H     0.917383    -1.269774       0.000000
| 15> *
| 16>
| 17>                          ****END OF INPUT****

CARTESIAN COORDINATES (ANGSTROEM)
---------------------------------
  O      1.166590    2.672477    0.000000
  O     -1.166590   -2.672477    0.000000
  N      1.166590    1.298532    0.000000
  N     -1.166590   -1.298532    0.000000
  C      0.027863    0.723227    0.000000
  C     -0.027863   -0.723227    0.000000
  H      0.248784    2.997834    0.000000
  H     -0.248784   -2.997834    0.000000
  H     -0.917383    1.269774    0.000000
  H      0.917383   -1.269774    0.000000

 Total Charge           Charge          ....    0
 Multiplicity           Mult            ....    1
 Number of Electrons    NEL             ....   46
 Basis Dimension        Dim             ....  174

ORBITAL ENERGIES
----------------

  NO   OCC          E(Eh)            E(eV)
   0   2.0000     -20.635460      -561.5194
   1   2.0000     -20.635459      -561.5194
   2   2.0000     -15.667445      -426.3329
   3   2.0000     -15.667440      -426.3327
   4   2.0000     -11.313157      -307.8466
   5   2.0000     -11.312305      -307.8235
   6   2.0000      -1.464961       -39.8636
   7   2.0000      -1.462600       -39.7994
   8   2.0000      -1.216193       -33.0943
   9   2.0000      -1.157535       -31.4981
  10   2.0000      -0.922545       -25.1037
  11   2.0000      -0.839947       -22.8561
  12   2.0000      -0.761955       -20.7338
  13   2.0000      -0.751115       -20.4389
  14   2.0000      -0.673228       -18.3195
  15   2.0000      -0.631010       -17.1707
  16   2.0000      -0.620236       -16.8775
  17   2.0000      -0.614030       -16.7086
  18   2.0000      -0.560881       -15.2623
  19   2.0000      -0.487527       -13.2663
  20   2.0000      -0.485748       -13.2179
  21   2.0000      -0.478764       -13.0278
  22   2.0000      -0.378320       -10.2946
  23   0.0000       0.031185         0.8486
  24   0.0000       0.032731         0.8907
  25   0.0000       0.060361         1.6425
  26   0.0000       0.066715         1.8154
  27   0.0000       0.072015         1.9596

MULLIKEN ATOMIC CHARGES
-----------------------
   0 O :   -0.591610
   1 O :   -0.591610
   2 N :   -0.177059
   3 N :   -0.177059
   4 C :    0.981860
   5 C :    0.981860
   6 H :    0.156242
   7 H :    0.156242
   8 H :   -0.369433
   9 H :   -0.369433
Sum of atomic charges:    0.0000000

LOEWDIN ATOMIC CHARGES
----------------------
   0 O :    0.105816
   1 O :    0.105816
   2 N :    0.001221
   3 N :    0.001221
   4 C :   -0.058326
   5 C :   -0.058326
   6 H :   -0.063313
   7 H :   -0.063313
   8 H :    0.014602
   9 H :    0.014602

  Mayer bond orders larger than 0.100000
B(  0-O ,  2-N ) :   0.5110 B(  0-O ,  6-H ) :   1.0793 B(  1-O ,  3-N ) :   0.5110
B(  1-O ,  7-H ) :   1.0793 B(  2-N ,  4-C ) :   1.6373 B(  2-N ,  8-H ) :   0.1261
B(  3-N ,  5-C ) :   1.6373 B(  3-N ,  9-H ) :   0.1261 B(  4-C ,  5-C ) :   1.3372
B(  4-C ,  8-H ) :   0.4604 B(  4-C ,  9-H ) :   0.2673 B(  5-C ,  8-H ) :   0.2673
B(  5-C ,  9-H ) :   0.4604

MP2 TOTAL ENERGY:     -337.601427305 Eh
FINAL SINGLE POINT ENERGY      -337.601427304945

DIPOLE MOMENT
-------------
                                X             Y             Z
Electronic contribution:     -0.00000      -0.00000       0.00000
Nuclear contribution   :      0.00000       0.00000       0.00000
                        -----------------------------------------
Total Dipole Moment    :     -0.00000      -0.00000       0.00000
                        -----------------------------------------
Magnitude (a.u.)       :      0.00000
Magnitude (Debye)      :      0.00000

Rotational constants in cm-1:     1.108899     0.044595     0.042871
Rotational constants in MHz : 33243.945083  1336.932851  1285.245631

                             ****ORCA TERMINATED NORMALLY****
TOTAL RUN TIME: 0 days 0 hours 0 minutes 48 seconds 996 msec
