                         Program Version 5.0.3 -  RELEASE  -
|  1> !ri-mp2 aug-cc-pvdz aug-cc-pvdz/c tightscf
|  2> %pal nprocs 16 end
|  3>
|  4> * xyz 0 1
|  5> C     -0.017919    0.121480    0.000209
|  6> N     -0.222845    1.381237    0.009408
|  7> N     -0.973006   -0.891055    0.074673
|  8> N      1.277018   -0.374139   -0.080092
|  9> H     -1.210366    1.609782   -0.043242
| 10> H     -1.924501   -0.586118   -0.046428
| 11> H     -0.761135   -1.727618   -0.447294
| 12> H      1.968806    0.351343    0.024724
| 13> H      1.466538   -1.188574    0.483063
| 14> *
| 15>
| 16>                          ****END OF INPUT****

CARTESIAN COORDINATES (ANGSTROEM)
---------------------------------
  C     -0.017919    0.121480    0.000209
  N     -0.222845    1.381237    0.009408
  N     -0.973006   -0.891055    0.074673
  N      1.277018   -0.374139   -0.080092
  H     -1.210366    1.609782   -0.043242
  H     -1.924501   -0.586118   -0.046428
  H     -0.761135   -1.727618   -0.447294
  H      1.968806    0.351343    0.024724
  H      1.466538   -1.188574    0.483063

 Total Charge           Charge          ....    0
 Multiplicity           Mult            ....    1
 Number of Electrons    NEL             ....   32
 Basis Dimension        Dim             ....  137

ORBITAL ENERGIES
----------------

  NO   OCC          E(Eh)            E(eV)
   0   2.0000     -15.588566      -424.1865
   1   2.0000     -15.577545      -423.8866
   2   2.0000     -15.520280      -422.3283
   3   2.0000     -11.352683      -308.9222
   4   2.0000      -1.298563       -35.3357
   5   2.0000      -1.170863       -31.8608
   6   2.0000      -1.135717       -30.9044
   7   2.0000      -0.813540       -22.1376
   8   2.0000      -0.731067       -19.8933
   9   2.0000      -0.710831       -19.3427
  10   2.0000      -0.630475       -17.1561
  11   2.0000      -0.612390       -16.6640
  12   2.0000      -0.564154       -15.3514
  13   2.0000      -0.434582       -11.8256
  14   2.0000      -0.421642       -11.4735
  15   2.0000      -0.363758        -9.8983
  16   0.0000       0.029313         0.7976
  17   0.0000       0.042211         1.1486
  18   0.0000       0.052217         1.4209
  19   0.0000       0.068445         1.8625
  20   0.0000       0.073083         1.9887

MULLIKEN ATOMIC CHARGES
-----------------------
   0 C :    1.093700
   1 N :   -0.464224
   2 N :   -0.263439
   3 N :   -0.309513
   4 H :   -0.005678
   5 H :    0.000847
   6 H :   -0.024919
   7 H :    0.015443
   8 H :   -0.042217
Sum of atomic charges:   -0.0000000

LOEWDIN ATOMIC CHARGES
----------------------
   0 C :   -0.443263
   1 N :    0.137596
   2 N :    0.259107
   3 N :    0.256476
   4 H :   -0.104843
   5 H :   -0.025320
   6 H :   -0.027076
   7 H :   -0.022724
   8 H :   -0.029955

  Mayer bond orders larger than 0.100000
B(  0-C ,  1-N ) :   1.6450 B(  0-C ,  2-N ) :   0.8835 B(  0-C ,  3-N ) :   0.8915
B(  1-N ,  4-H ) :   1.0006 B(  2-N ,  5-H ) :   1.0916 B(  2-N ,  6-H ) :   1.0975
B(  3-N ,  7-H ) :   1.0731 B(  3-N ,  8-H ) :   1.1098

MP2 TOTAL ENERGY:     -204.836327012 Eh
FINAL SINGLE POINT ENERGY      -204.836327012266

DIPOLE MOMENT
-------------
                                X             Y             Z
Electronic contribution:      0.12892       0.40833       0.01201
Nuclear contribution   :     -0.46818      -1.56727      -0.02966
                        -----------------------------------------
Total Dipole Moment    :     -0.33926      -1.15894      -0.01765
                        -----------------------------------------
Magnitude (a.u.)       :      1.20771
Magnitude (Debye)      :      3.06974

Rotational constants in cm-1:     0.352438     0.340669     0.175312
Rotational constants in MHz : 10565.814728 10212.998553  5255.719686

                             ****ORCA TERMINATED NORMALLY****
TOTAL RUN TIME: 0 days 0 hours 0 minutes 55 seconds 392 msec
