                         Program Version 5.0.3 -  RELEASE  -
|  1> !ri-mp2 aug-cc-pvdz aug-cc-pvdz/c tightscf
|  2> %pal nprocs 16 end
|  3> %maxcore 3800
|  4>
|  5> * xyz 0 1
|  6> N      0.630582    1.427132    0.497820
|  7> C      0.942174   -0.008642    0.479325
|  8> C      2.405547   -0.219182    0.025066
|  9> O      2.939125   -1.297716    0.031446
| 10> O      3.012778    0.899944   -0.375393
| 11> H      2.332608    1.605804   -0.257569
| 12> C      0.024429   -0.827843   -0.440883
| 13> C     -1.389805   -1.084945    0.084499
| 14> C     -2.385902    0.029375   -0.119800
| 15> O     -2.158654    1.123873   -0.578738
| 16> O     -3.623769   -0.339435    0.271599
| 17> H      0.891335   -0.439220    1.483407
| 18> H     -0.025257   -0.346028   -1.419975
| 19> H      0.508995   -1.791744   -0.586679
| 20> H     -1.813631   -1.966586   -0.401442
| 21> H     -1.380996   -1.327411    1.150793
| 22> H     -0.248077    1.634248    0.037933
| 23> H      0.602211    1.803939    1.434644
| 24> H     -4.215760    0.411176    0.113596
| 25> *
| 26>
| 27>                          ****END OF INPUT****

CARTESIAN COORDINATES (ANGSTROEM)
---------------------------------
  N      0.630582    1.427132    0.497820
  C      0.942174   -0.008642    0.479325
  C      2.405547   -0.219182    0.025066
  O      2.939125   -1.297716    0.031446
  O      3.012778    0.899944   -0.375393
  H      2.332608    1.605804   -0.257569
  C      0.024429   -0.827843   -0.440883
  C     -1.389805   -1.084945    0.084499
  C     -2.385902    0.029375   -0.119800
  O     -2.158654    1.123873   -0.578738
  O     -3.623769   -0.339435    0.271599
  H      0.891335   -0.439220    1.483407
  H     -0.025257   -0.346028   -1.419975
  H      0.508995   -1.791744   -0.586679
  H     -1.813631   -1.966586   -0.401442
  H     -1.380996   -1.327411    1.150793
  H     -0.248077    1.634248    0.037933
  H      0.602211    1.803939    1.434644
  H     -4.215760    0.411176    0.113596

 Total Charge           Charge          ....    0
 Multiplicity           Mult            ....    1
 Number of Electrons    NEL             ....   78
 Basis Dimension        Dim             ....  311

ORBITAL ENERGIES
----------------

  NO   OCC          E(Eh)            E(eV)
   0   2.0000     -20.644263      -561.7589
   1   2.0000     -20.601134      -560.5854
   2   2.0000     -20.587516      -560.2148
   3   2.0000     -20.543258      -559.0105
   4   2.0000     -15.578649      -423.9166
   5   2.0000     -11.422192      -310.8136
   6   2.0000     -11.379685      -309.6570
   7   2.0000     -11.299051      -307.4628
   8   2.0000     -11.278040      -306.8911
   9   2.0000     -11.261696      -306.4463
  10   2.0000      -1.495269       -40.6883
  11   2.0000      -1.452569       -39.5264
  12   2.0000      -1.392302       -37.8865
  13   2.0000      -1.356988       -36.9255
  14   2.0000      -1.218309       -33.1519
  15   2.0000      -1.097534       -29.8654
  16   2.0000      -0.999427       -27.1958
  17   2.0000      -0.901355       -24.5271
  18   2.0000      -0.819785       -22.3075
  19   2.0000      -0.799613       -21.7586
  20   2.0000      -0.737293       -20.0628
  21   2.0000      -0.731584       -19.9074
  22   2.0000      -0.727504       -19.7964
  23   2.0000      -0.690988       -18.8027
  24   2.0000      -0.680666       -18.5219
  25   2.0000      -0.660397       -17.9703
  26   2.0000      -0.627045       -17.0628
  27   2.0000      -0.618854       -16.8399
  28   2.0000      -0.611351       -16.6357
  29   2.0000      -0.597109       -16.2482
  30   2.0000      -0.568880       -15.4800
  31   2.0000      -0.542203       -14.7541
  32   2.0000      -0.530925       -14.4472
  33   2.0000      -0.515217       -14.0198
  34   2.0000      -0.508056       -13.8249
  35   2.0000      -0.478224       -13.0131
  36   2.0000      -0.466105       -12.6834
  37   2.0000      -0.458432       -12.4746
  38   2.0000      -0.409609       -11.1460
  39   0.0000       0.023695         0.6448
  40   0.0000       0.036069         0.9815
  41   0.0000       0.040623         1.1054
  42   0.0000       0.046278         1.2593
  43   0.0000       0.063480         1.7274

MULLIKEN ATOMIC CHARGES
-----------------------
   0 N :   -0.545417
   1 C :    0.023375
   2 C :    1.386327
   3 O :   -0.821138
   4 O :   -0.717491
   5 H :    0.313383
   6 C :    0.505035
   7 C :    0.257095
   8 C :    0.946896
   9 O :   -0.742296
  10 O :   -0.702112
  11 H :   -0.027934
  12 H :   -0.104938
  13 H :   -0.145784
  14 H :    0.024376
  15 H :   -0.000962
  16 H :    0.112152
  17 H :    0.043322
  18 H :    0.196111
Sum of atomic charges:   -0.0000000

LOEWDIN ATOMIC CHARGES
----------------------
   0 N :    0.234198
   1 C :   -0.147394
   2 C :   -0.319383
   3 O :    0.038601
   4 O :    0.215207
   5 H :   -0.094368
   6 C :    0.032034
   7 C :    0.052724
   8 C :   -0.320171
   9 O :    0.057008
  10 O :    0.208288
  11 H :    0.046002
  12 H :    0.033910
  13 H :    0.021399
  14 H :    0.031215
  15 H :    0.033269
  16 H :   -0.085421
  17 H :   -0.023316
  18 H :   -0.013802

  Mayer bond orders larger than 0.100000
B(  0-N ,  1-C ) :   0.7426 B(  0-N , 16-H ) :   1.0322 B(  0-N , 17-H ) :   1.0897
B(  1-C ,  2-C ) :   1.0428 B(  1-C ,  4-O ) :   0.2147 B(  1-C ,  6-C ) :   1.1839
B(  1-C , 11-H ) :   0.7082 B(  2-C ,  3-O ) :   1.3569 B(  2-C ,  4-O ) :   0.3486
B(  4-O ,  5-H ) :   0.8859 B(  6-C ,  7-C ) :   1.2480 B(  6-C , 12-H ) :   0.8269
B(  6-C , 13-H ) :   0.7461 B(  7-C ,  8-C ) :   1.0643 B(  7-C , 14-H ) :   0.8537
B(  7-C , 15-H ) :   0.8213 B(  8-C ,  9-O ) :   1.4844 B(  8-C , 10-O ) :   0.5580
B( 10-O , 18-H ) :   1.0339

MP2 TOTAL ENERGY:     -550.277256689 Eh
FINAL SINGLE POINT ENERGY      -550.277256689011

DIPOLE MOMENT
-------------
                                X             Y             Z
Electronic contribution:      1.04633       0.78217      -0.80032
Nuclear contribution   :     -3.32765      -0.39960       1.54063
                        -----------------------------------------
Total Dipole Moment    :     -2.28133       0.38257       0.74031
                        -----------------------------------------
Magnitude (a.u.)       :      2.42876
Magnitude (Debye)      :      6.17342

Rotational constants in cm-1:     0.107230     0.021037     0.018588
Rotational constants in MHz :  3214.677791   630.674440   557.259974

                             ****ORCA TERMINATED NORMALLY****
TOTAL RUN TIME: 0 days 0 hours 1 minutes 45 seconds 490 msec
