                         Program Version 5.0.3 -  RELEASE  -
|  1> !ri-mp2 aug-cc-pvdz aug-cc-pvdz/c tightscf
|  2> %pal nprocs 16 end
|  3>
|  4> * xyz 0 1
|  5> C      0.000000    0.000000      -0.496902
|  6> N      0.000000    0.000000       0.649125
|  7> H      0.000000    0.000000      -1.562463
|  8> *
|  9>
| 10>                          ****END OF INPUT****

CARTESIAN COORDINATES (ANGSTROEM)
---------------------------------
  C      0.000000    0.000000   -0.496902
  N      0.000000    0.000000    0.649125
  H      0.000000    0.000000   -1.562463

 Total Charge           Charge          ....    0
 Multiplicity           Mult            ....    1
 Number of Electrons    NEL             ....   14
 Basis Dimension        Dim             ....   55

ORBITAL ENERGIES
----------------

  NO   OCC          E(Eh)            E(eV)
   0   2.0000     -15.608920      -424.7403
   1   2.0000     -11.301138      -307.5196
   2   2.0000      -1.245161       -33.8826
   3   2.0000      -0.812076       -22.0977
   4   2.0000      -0.581749       -15.8302
   5   2.0000      -0.499069       -13.5804
   6   2.0000      -0.499069       -13.5804
   7   0.0000       0.028928         0.7872
   8   0.0000       0.082543         2.2461
   9   0.0000       0.084398         2.2966
  10   0.0000       0.084398         2.2966
  11   0.0000       0.157154         4.2764

MULLIKEN ATOMIC CHARGES
-----------------------
   0 C :    0.351796
   1 N :   -0.417469
   2 H :    0.065672
Sum of atomic charges:   -0.0000000

LOEWDIN ATOMIC CHARGES
----------------------
   0 C :    0.082635
   1 N :   -0.001954
   2 H :   -0.080680

  Mayer bond orders larger than 0.100000
B(  0-C ,  1-N ) :   2.9359 B(  0-C ,  2-H ) :   0.8208

MP2 TOTAL ENERGY:      -93.180883255 Eh
FINAL SINGLE POINT ENERGY       -93.180883254530

DIPOLE MOMENT
-------------
                                X             Y             Z
Electronic contribution:      0.00000      -0.00000       0.22149
Nuclear contribution   :      0.00000       0.00000      -1.51638
                        -----------------------------------------
Total Dipole Moment    :      0.00000      -0.00000      -1.29490
                        -----------------------------------------
Magnitude (a.u.)       :      1.29490
Magnitude (Debye)      :      3.29136

Rotational constants in cm-1:     0.000000     1.499827     1.499827
Rotational constants in MHz :     0.000000 44963.685360 44963.685360

                             ****ORCA TERMINATED NORMALLY****
TOTAL RUN TIME: 0 days 0 hours 0 minutes 58 seconds 217 msec
