                         Program Version 5.0.3 -  RELEASE  -
|  1> !ri-mp2 aug-cc-pvdz aug-cc-pvdz/c tightscf
|  2> %pal nprocs 16 end
|  3> %maxcore 3800
|  4>
|  5> * xyz 0 1
|  6> C     -2.341682    0.111370    0.062323
|  7> C      4.074930   -0.182147    0.064954
|  8> C     -1.005389   -0.584989    0.280499
|  9> C      2.730567    0.451968   -0.287379
| 10> C      0.185855    0.257397   -0.174608
| 11> C      1.531563   -0.380318    0.168545
| 12> N     -3.379576   -0.706845   -0.277643
| 13> O     -2.490867    1.311718    0.200335
| 14> H      4.179038   -0.312677    1.144121
| 15> H      4.907792    0.434652   -0.275258
| 16> H      4.181268   -1.165989   -0.397058
| 17> H     -0.928223   -0.779637    1.355244
| 18> H     -0.998311   -1.560235   -0.212711
| 19> H      2.671429    0.604297   -1.369128
| 20> H      2.667243    1.447267    0.161800
| 21> H      0.120409    0.418511   -1.254432
| 22> H      0.107976    1.243573    0.284716
| 23> H      1.592586   -0.535216    1.251266
| 24> H      1.594355   -1.376608   -0.283106
| 25> H     -4.296353   -0.304735   -0.373362
| 26> H     -3.270304   -1.698720   -0.377277
| 27> *
| 28>
| 29>                          ****END OF INPUT****

CARTESIAN COORDINATES (ANGSTROEM)
---------------------------------
  C     -2.341682    0.111370    0.062323
  C      4.074930   -0.182147    0.064954
  C     -1.005389   -0.584989    0.280499
  C      2.730567    0.451968   -0.287379
  C      0.185855    0.257397   -0.174608
  C      1.531563   -0.380318    0.168545
  N     -3.379576   -0.706845   -0.277643
  O     -2.490867    1.311718    0.200335
  H      4.179038   -0.312677    1.144121
  H      4.907792    0.434652   -0.275258
  H      4.181268   -1.165989   -0.397058
  H     -0.928223   -0.779637    1.355244
  H     -0.998311   -1.560235   -0.212711
  H      2.671429    0.604297   -1.369128
  H      2.667243    1.447267    0.161800
  H      0.120409    0.418511   -1.254432
  H      0.107976    1.243573    0.284716
  H      1.592586   -0.535216    1.251266
  H      1.594355   -1.376608   -0.283106
  H     -4.296353   -0.304735   -0.373362
  H     -3.270304   -1.698720   -0.377277

 Total Charge           Charge          ....    0
 Multiplicity           Mult            ....    1
 Number of Electrons    NEL             ....   64
 Basis Dimension        Dim             ....  301

ORBITAL ENERGIES
----------------

  NO   OCC          E(Eh)            E(eV)
   0   2.0000     -20.525798      -558.5354
   1   2.0000     -15.591830      -424.2753
   2   2.0000     -11.357567      -309.0551
   3   2.0000     -11.244755      -305.9853
   4   2.0000     -11.226215      -305.4808
   5   2.0000     -11.224737      -305.4406
   6   2.0000     -11.223304      -305.4016
   7   2.0000     -11.218247      -305.2640
   8   2.0000      -1.383293       -37.6413
   9   2.0000      -1.212286       -32.9880
  10   2.0000      -1.090616       -29.6772
  11   2.0000      -1.034580       -28.1524
  12   2.0000      -0.948165       -25.8009
  13   2.0000      -0.852127       -23.1876
  14   2.0000      -0.795054       -21.6345
  15   2.0000      -0.782735       -21.2993
  16   2.0000      -0.721694       -19.6383
  17   2.0000      -0.671509       -18.2727
  18   2.0000      -0.650350       -17.6969
  19   2.0000      -0.613602       -16.6970
  20   2.0000      -0.600323       -16.3356
  21   2.0000      -0.574760       -15.6400
  22   2.0000      -0.568867       -15.4797
  23   2.0000      -0.551333       -15.0025
  24   2.0000      -0.524663       -14.2768
  25   2.0000      -0.503200       -13.6928
  26   2.0000      -0.481482       -13.1018
  27   2.0000      -0.469452       -12.7744
  28   2.0000      -0.463421       -12.6103
  29   2.0000      -0.461656       -12.5623
  30   2.0000      -0.417176       -11.3519
  31   2.0000      -0.412381       -11.2214
  32   0.0000       0.027957         0.7608
  33   0.0000       0.038698         1.0530
  34   0.0000       0.045616         1.2413
  35   0.0000       0.046898         1.2762
  36   0.0000       0.055860         1.5200

MULLIKEN ATOMIC CHARGES
-----------------------
   0 C :    0.918131
   1 C :    0.549258
   2 C :    0.399674
   3 C :    0.426972
   4 C :    0.200353
   5 C :    0.264238
   6 N :   -0.193086
   7 O :   -0.808011
   8 H :   -0.095104
   9 H :   -0.073511
  10 H :   -0.097215
  11 H :   -0.024997
  12 H :   -0.210371
  13 H :   -0.181705
  14 H :   -0.170895
  15 H :   -0.212999
  16 H :   -0.181381
  17 H :   -0.211611
  18 H :   -0.225792
  19 H :   -0.041370
  20 H :   -0.030576
Sum of atomic charges:    0.0000000

LOEWDIN ATOMIC CHARGES
----------------------
   0 C :   -0.359021
   1 C :    0.130808
   2 C :    0.031835
   3 C :   -0.070762
   4 C :   -0.023091
   5 C :   -0.041530
   6 N :    0.268569
   7 O :    0.018028
   8 H :   -0.020190
   9 H :   -0.021723
  10 H :   -0.020662
  11 H :    0.028976
  12 H :    0.013408
  13 H :    0.011623
  14 H :    0.012879
  15 H :    0.022501
  16 H :    0.018086
  17 H :    0.016489
  18 H :    0.015230
  19 H :   -0.007497
  20 H :   -0.023957

  Mayer bond orders larger than 0.100000
B(  0-C ,  2-C ) :   0.9148 B(  0-C ,  6-N ) :   0.8997 B(  0-C ,  7-O ) :   1.3246
B(  1-C ,  3-C ) :   1.1620 B(  1-C ,  8-H ) :   0.9126 B(  1-C ,  9-H ) :   0.9134
B(  1-C , 10-H ) :   0.9100 B(  2-C ,  4-C ) :   1.2798 B(  2-C ,  5-C ) :  -0.1326
B(  2-C ,  7-O ) :   0.1067 B(  2-C , 11-H ) :   0.8601 B(  2-C , 12-H ) :   0.6872
B(  3-C ,  5-C ) :   1.2354 B(  3-C , 13-H ) :   0.7431 B(  3-C , 14-H ) :   0.7358
B(  4-C ,  5-C ) :   1.3385 B(  4-C , 12-H ) :   0.1522 B(  4-C , 15-H ) :   0.8057
B(  4-C , 16-H ) :   0.8529 B(  5-C , 14-H ) :   0.1092 B(  5-C , 17-H ) :   0.7951
B(  5-C , 18-H ) :   0.7450 B(  6-N , 19-H ) :   1.1058 B(  6-N , 20-H ) :   1.0910

MP2 TOTAL ENERGY:     -365.419311945 Eh
FINAL SINGLE POINT ENERGY      -365.419311944842

DIPOLE MOMENT
-------------
                                X             Y             Z
Electronic contribution:    -12.99053       2.20950       0.16073
Nuclear contribution   :     13.01338      -3.72456      -0.35864
                        -----------------------------------------
Total Dipole Moment    :      0.02285      -1.51506      -0.19791
                        -----------------------------------------
Magnitude (a.u.)       :      1.52810
Magnitude (Debye)      :      3.88413

Rotational constants in cm-1:     0.235553     0.021688     0.020508
Rotational constants in MHz :  7061.703718   650.197356   614.811938

                             ****ORCA TERMINATED NORMALLY****
TOTAL RUN TIME: 0 days 0 hours 1 minutes 27 seconds 702 msec
