                         Program Version 5.0.3 -  RELEASE  -
|  1> !ri-mp2 aug-cc-pvdz aug-cc-pvdz/c tightscf
|  2> %pal nprocs 16 end
|  3>
|  4> * xyz 0 1
|  5> O      0.500202    0.649433   -0.012191
|  6> O      1.498887   -0.464552   -0.099113
|  7> C     -0.689930    0.150600    0.001728
|  8> C     -1.824334   -0.241903    0.015562
|  9> H      1.923095   -0.355188    0.766050
| 10> H     -2.830223   -0.576039    0.020646
| 11> *
| 12>
| 13>                          ****END OF INPUT****

CARTESIAN COORDINATES (ANGSTROEM)
---------------------------------
  O      0.500202    0.649433   -0.012191
  O      1.498887   -0.464552   -0.099113
  C     -0.689930    0.150600    0.001728
  C     -1.824334   -0.241903    0.015562
  H      1.923095   -0.355188    0.766050
  H     -2.830223   -0.576039    0.020646

 Total Charge           Charge          ....    0
 Multiplicity           Mult            ....    1
 Number of Electrons    NEL             ....   30
 Basis Dimension        Dim             ....  110

ORBITAL ENERGIES
----------------

  NO   OCC          E(Eh)            E(eV)
   0   2.0000     -20.701510      -563.3167
   1   2.0000     -20.684903      -562.8648
   2   2.0000     -11.312052      -307.8166
   3   2.0000     -11.246644      -306.0368
   4   2.0000      -1.527995       -41.5789
   5   2.0000      -1.308162       -35.5969
   6   2.0000      -1.028645       -27.9908
   7   2.0000      -0.792463       -21.5640
   8   2.0000      -0.753497       -20.5037
   9   2.0000      -0.709297       -19.3009
  10   2.0000      -0.676096       -18.3975
  11   2.0000      -0.596171       -16.2226
  12   2.0000      -0.549394       -14.9498
  13   2.0000      -0.405271       -11.0280
  14   2.0000      -0.385306       -10.4847
  15   0.0000       0.031602         0.8599
  16   0.0000       0.041457         1.1281
  17   0.0000       0.083315         2.2671
  18   0.0000       0.096217         2.6182
  19   0.0000       0.117225         3.1899

MULLIKEN ATOMIC CHARGES
-----------------------
   0 O :   -0.499387
   1 O :   -0.233185
   2 C :   -0.048666
   3 C :    0.871492
   4 H :    0.257427
   5 H :   -0.347682
Sum of atomic charges:   -0.0000000

LOEWDIN ATOMIC CHARGES
----------------------
   0 O :    0.038318
   1 O :    0.173218
   2 C :   -0.235616
   3 C :    0.196362
   4 H :   -0.062769
   5 H :   -0.109512

  Mayer bond orders larger than 0.100000
B(  0-O ,  1-O ) :   0.9569 B(  0-O ,  2-C ) :   1.1664 B(  0-O ,  3-C ) :  -0.2918
B(  1-O ,  2-C ) :  -0.2303 B(  1-O ,  4-H ) :   0.9655 B(  2-C ,  3-C ) :   2.7870
B(  2-C ,  5-H ) :   0.2547 B(  3-C ,  5-H ) :   0.3790

MP2 TOTAL ENERGY:     -227.106044253 Eh
FINAL SINGLE POINT ENERGY      -227.106044253113

DIPOLE MOMENT
-------------
                                X             Y             Z
Electronic contribution:      1.01940       0.70069      -0.16552
Nuclear contribution   :     -0.85006      -0.90122       0.76203
                        -----------------------------------------
Total Dipole Moment    :      0.16934      -0.20053       0.59651
                        -----------------------------------------
Magnitude (a.u.)       :      0.65170
Magnitude (Debye)      :      1.65648

Rotational constants in cm-1:     1.366532     0.171708     0.154546
Rotational constants in MHz : 40967.588616  5147.690308  4633.166922

                             ****ORCA TERMINATED NORMALLY****
TOTAL RUN TIME: 0 days 0 hours 1 minutes 0 seconds 452 msec
