                         Program Version 5.0.3 -  RELEASE  -
|  1> !ri-mp2 aug-cc-pvdz aug-cc-pvdz/c tightscf
|  2> %pal nprocs 16 end
|  3>
|  4> * xyz 0 1
|  5> C      3.128267   -0.342469   -0.000004
|  6> C      1.993557    0.059429   -0.000007
|  7> C      0.675269    0.570452   -0.000011
|  8> C     -0.435926   -0.189337    0.000004
|  9> C     -1.776186    0.350545    0.000000
| 10> C     -2.884737   -0.395944    0.000015
| 11> H      4.125512   -0.705141   -0.000001
| 12> H      0.578120    1.651724   -0.000027
| 13> H     -0.335274   -1.269130    0.000020
| 14> H     -1.864320    1.432522   -0.000016
| 15> H     -2.837239   -1.477747    0.000031
| 16> H     -3.868261    0.051719    0.000011
| 17> *
| 18>
| 19>                          ****END OF INPUT****

CARTESIAN COORDINATES (ANGSTROEM)
---------------------------------
  C      3.128267   -0.342469   -0.000004
  C      1.993557    0.059429   -0.000007
  C      0.675269    0.570452   -0.000011
  C     -0.435926   -0.189337    0.000004
  C     -1.776186    0.350545    0.000000
  C     -2.884737   -0.395944    0.000015
  H      4.125512   -0.705141   -0.000001
  H      0.578120    1.651724   -0.000027
  H     -0.335274   -1.269130    0.000020
  H     -1.864320    1.432522   -0.000016
  H     -2.837239   -1.477747    0.000031
  H     -3.868261    0.051719    0.000011

 Total Charge           Charge          ....    0
 Multiplicity           Mult            ....    1
 Number of Electrons    NEL             ....   42
 Basis Dimension        Dim             ....  192

ORBITAL ENERGIES
----------------

  NO   OCC          E(Eh)            E(eV)
   0   2.0000     -11.265467      -306.5489
   1   2.0000     -11.262018      -306.4551
   2   2.0000     -11.254393      -306.2476
   3   2.0000     -11.247666      -306.0646
   4   2.0000     -11.247503      -306.0601
   5   2.0000     -11.238117      -305.8047
   6   2.0000      -1.122424       -30.5427
   7   2.0000      -1.059221       -28.8229
   8   2.0000      -0.996798       -27.1243
   9   2.0000      -0.866876       -23.5889
  10   2.0000      -0.774819       -21.0839
  11   2.0000      -0.728830       -19.8325
  12   2.0000      -0.675287       -18.3755
  13   2.0000      -0.657616       -17.8947
  14   2.0000      -0.585137       -15.9224
  15   2.0000      -0.568624       -15.4731
  16   2.0000      -0.513666       -13.9776
  17   2.0000      -0.484346       -13.1797
  18   2.0000      -0.414375       -11.2757
  19   2.0000      -0.396249       -10.7825
  20   2.0000      -0.311556        -8.4779
  21   0.0000       0.035693         0.9713
  22   0.0000       0.038775         1.0551
  23   0.0000       0.042976         1.1694
  24   0.0000       0.053671         1.4605
  25   0.0000       0.066238         1.8024

MULLIKEN ATOMIC CHARGES
-----------------------
   0 C :    0.665230
   1 C :   -0.114759
   2 C :    0.354171
   3 C :    0.577725
   4 C :    0.546084
   5 C :    0.579589
   6 H :   -0.490803
   7 H :   -0.486397
   8 H :   -0.499540
   9 H :   -0.511502
  10 H :   -0.310310
  11 H :   -0.309488
Sum of atomic charges:    0.0000000

LOEWDIN ATOMIC CHARGES
----------------------
   0 C :    0.217492
   1 C :   -0.118561
   2 C :   -0.046630
   3 C :   -0.002119
   4 C :   -0.072466
   5 C :    0.185090
   6 H :   -0.106216
   7 H :    0.004080
   8 H :    0.014797
   9 H :    0.002190
  10 H :   -0.036457
  11 H :   -0.041199

  Mayer bond orders larger than 0.100000
B(  0-C ,  1-C ) :   2.7656 B(  0-C ,  2-C ) :   0.2441 B(  1-C ,  2-C ) :   1.7991
B(  1-C ,  3-C ) :  -0.1168 B(  1-C ,  4-C ) :   0.1265 B(  1-C ,  6-H ) :   0.3292
B(  1-C ,  8-H ) :  -0.1278 B(  2-C ,  3-C ) :   2.0573 B(  2-C ,  4-C ) :  -0.2246
B(  2-C ,  5-C ) :   0.1855 B(  2-C ,  6-H ) :   0.1141 B(  2-C ,  7-H ) :   0.3256
B(  2-C ,  8-H ) :   0.1782 B(  2-C ,  9-H ) :  -0.1142 B(  3-C ,  4-C ) :   1.3045
B(  3-C ,  5-C ) :  -0.2157 B(  3-C ,  7-H ) :   0.3576 B(  3-C ,  8-H ) :   0.4094
B(  3-C ,  9-H ) :   0.2964 B(  4-C ,  5-C ) :   1.9092 B(  4-C ,  7-H ) :  -0.1006
B(  4-C ,  8-H ) :   0.1686 B(  4-C ,  9-H ) :   0.4811 B(  4-C , 11-H ) :   0.1473
B(  5-C , 10-H ) :   0.8468 B(  5-C , 11-H ) :   0.7234 B( 10-H , 11-H ) :  -0.1833

MP2 TOTAL ENERGY:     -231.424205185 Eh
FINAL SINGLE POINT ENERGY      -231.424205184521

DIPOLE MOMENT
-------------
                                X             Y             Z
Electronic contribution:      3.91108       0.30473      -0.00002
Nuclear contribution   :     -4.24261      -0.31915       0.00002
                        -----------------------------------------
Total Dipole Moment    :     -0.33153      -0.01442       0.00000
                        -----------------------------------------
Magnitude (a.u.)       :      0.33185
Magnitude (Debye)      :      0.84349

Rotational constants in cm-1:     0.921432     0.047491     0.045163
Rotational constants in MHz : 27623.828338  1423.750748  1353.966406

                             ****ORCA TERMINATED NORMALLY****
TOTAL RUN TIME: 0 days 0 hours 0 minutes 39 seconds 96 msec
