                         Program Version 5.0.3 -  RELEASE  -
|  1> !ri-mp2 aug-cc-pvdz aug-cc-pvdz/c tightscf
|  2> %pal nprocs 16 end
|  3>
|  4> * xyz 0 1
|  5> C      0.000000    0.607495        0.000000
|  6> C     -0.022300   -0.607096        0.000000
|  7> C      0.032288    1.961729        0.000000
|  8> C     -0.037787   -1.961626        0.000000
|  9> C      0.067261    3.167962        0.000000
| 10> C     -0.047216   -3.168328        0.000000
| 11> H      0.098665    4.228824        0.000000
| 12> H     -0.052142   -4.229643        0.000000
| 13> *
| 14>
| 15>                          ****END OF INPUT****

CARTESIAN COORDINATES (ANGSTROEM)
---------------------------------
  C      0.000000    0.607495    0.000000
  C     -0.022300   -0.607096    0.000000
  C      0.032288    1.961729    0.000000
  C     -0.037787   -1.961626    0.000000
  C      0.067261    3.167962    0.000000
  C     -0.047216   -3.168328    0.000000
  H      0.098665    4.228824    0.000000
  H     -0.052142   -4.229643    0.000000

 Total Charge           Charge          ....    0
 Multiplicity           Mult            ....    1
 Number of Electrons    NEL             ....   38
 Basis Dimension        Dim             ....  156

ORBITAL ENERGIES
----------------

  NO   OCC          E(Eh)            E(eV)
   0   2.0000     -11.290862      -307.2400
   1   2.0000     -11.287448      -307.1471
   2   2.0000     -11.280521      -306.9586
   3   2.0000     -11.280503      -306.9581
   4   2.0000     -11.274473      -306.7940
   5   2.0000     -11.274471      -306.7940
   6   2.0000      -1.121706       -30.5232
   7   2.0000      -1.077309       -29.3151
   8   2.0000      -1.022655       -27.8278
   9   2.0000      -0.892730       -24.2924
  10   2.0000      -0.811169       -22.0730
  11   2.0000      -0.728238       -19.8164
  12   2.0000      -0.718318       -19.5464
  13   2.0000      -0.525487       -14.2992
  14   2.0000      -0.525487       -14.2992
  15   2.0000      -0.451615       -12.2891
  16   2.0000      -0.451615       -12.2891
  17   2.0000      -0.349077        -9.4989
  18   2.0000      -0.349076        -9.4989
  19   0.0000       0.032007         0.8710
  20   0.0000       0.033915         0.9229
  21   0.0000       0.058449         1.5905
  22   0.0000       0.058450         1.5905
  23   0.0000       0.072225         1.9653

MULLIKEN ATOMIC CHARGES
-----------------------
   0 C :    0.685008
   1 C :    0.685802
   2 C :   -0.018459
   3 C :   -0.019028
   4 C :    0.038775
   5 C :    0.039318
   6 H :   -0.705667
   7 H :   -0.705748
Sum of atomic charges:    0.0000000

LOEWDIN ATOMIC CHARGES
----------------------
   0 C :   -0.034693
   1 C :   -0.034691
   2 C :   -0.130578
   3 C :   -0.130581
   4 C :    0.258280
   5 C :    0.258279
   6 H :   -0.093007
   7 H :   -0.093008

  Mayer bond orders larger than 0.100000
B(  0-C ,  1-C ) :   2.3950 B(  0-C ,  2-C ) :   2.0143 B(  0-C ,  3-C ) :  -2.1770
B(  0-C ,  4-C ) :  -1.2656 B(  0-C ,  5-C ) :   0.8575 B(  0-C ,  7-H ) :   0.1339
B(  1-C ,  2-C ) :  -2.1779 B(  1-C ,  3-C ) :   2.0129 B(  1-C ,  4-C ) :   0.8579
B(  1-C ,  5-C ) :  -1.2635 B(  1-C ,  6-H ) :   0.1338 B(  2-C ,  3-C ) :   0.6579
B(  2-C ,  4-C ) :   1.9720 B(  2-C ,  6-H ) :   0.5664 B(  2-C ,  7-H ) :   0.1376
B(  3-C ,  5-C ) :   1.9721 B(  3-C ,  6-H ) :   0.1376 B(  3-C ,  7-H ) :   0.5663
B(  4-C ,  5-C ) :   0.4104 B(  4-C ,  6-H ) :  -0.3175 B(  4-C ,  7-H ) :  -0.1081
B(  5-C ,  6-H ) :  -0.1081 B(  5-C ,  7-H ) :  -0.3175

MP2 TOTAL ENERGY:     -228.959345045 Eh
FINAL SINGLE POINT ENERGY      -228.959345045389

DIPOLE MOMENT
-------------
                                X             Y             Z
Electronic contribution:     -0.03099       0.00057       0.00000
Nuclear contribution   :      0.04482      -0.00079       0.00000
                        -----------------------------------------
Total Dipole Moment    :      0.01382      -0.00021       0.00000
                        -----------------------------------------
Magnitude (a.u.)       :      0.01383
Magnitude (Debye)      :      0.03514

Rotational constants in cm-1:  2534.866732     0.044527     0.044526
Rotational constants in MHz : 75993392.829783  1334.883870  1334.860422

                             ****ORCA TERMINATED NORMALLY****
TOTAL RUN TIME: 0 days 0 hours 0 minutes 44 seconds 644 msec
