                         Program Version 5.0.3 -  RELEASE  -
|  1> !ri-mp2 aug-cc-pvdz aug-cc-pvdz/c tightscf
|  2> %pal nprocs 16 end
|  3>
|  4> * xyz 0 1
|  5> C      1.752978    0.132983    0.595759
|  6> C      2.270241   -1.006545   -0.282683
|  7> C      0.797724    1.099291   -0.117681
|  8> C     -0.524607    0.497784   -0.611141
|  9> C     -1.447868   -0.017439    0.494787
| 10> C     -2.787022   -0.527764   -0.035684
| 11> H     -2.645338   -1.354700   -0.734820
| 12> H      2.766819   -0.619752   -1.175521
| 13> H     -3.427267   -0.884472    0.772434
| 14> H      2.992417   -1.620604    0.257299
| 15> H      1.465980   -1.665190   -0.613039
| 16> H     -3.327819    0.259908   -0.564432
| 17> H      1.267957   -0.282455    1.482703
| 18> H     -0.954091   -0.819080    1.049556
| 19> H      2.605211    0.708606    0.966413
| 20> H     -1.624471    0.786112    1.216882
| 21> H      0.573150    1.931568    0.556617
| 22> H      1.322016    1.537463   -0.972764
| 23> H     -0.325283   -0.311677   -1.319828
| 24> H     -1.057960    1.264417   -1.181643
| 25> *
| 26>
| 27>                          ****END OF INPUT****

CARTESIAN COORDINATES (ANGSTROEM)
---------------------------------
  C      1.752978    0.132983    0.595759
  C      2.270241   -1.006545   -0.282683
  C      0.797724    1.099291   -0.117681
  C     -0.524607    0.497784   -0.611141
  C     -1.447868   -0.017439    0.494787
  C     -2.787022   -0.527764   -0.035684
  H     -2.645338   -1.354700   -0.734820
  H      2.766819   -0.619752   -1.175521
  H     -3.427267   -0.884472    0.772434
  H      2.992417   -1.620604    0.257299
  H      1.465980   -1.665190   -0.613039
  H     -3.327819    0.259908   -0.564432
  H      1.267957   -0.282455    1.482703
  H     -0.954091   -0.819080    1.049556
  H      2.605211    0.708606    0.966413
  H     -1.624471    0.786112    1.216882
  H      0.573150    1.931568    0.556617
  H      1.322016    1.537463   -0.972764
  H     -0.325283   -0.311677   -1.319828
  H     -1.057960    1.264417   -1.181643

 Total Charge           Charge          ....    0
 Multiplicity           Mult            ....    1
 Number of Electrons    NEL             ....   50
 Basis Dimension        Dim             ....  264

ORBITAL ENERGIES
----------------

  NO   OCC          E(Eh)            E(eV)
   0   2.0000     -11.219628      -305.3016
   1   2.0000     -11.219405      -305.2955
   2   2.0000     -11.218287      -305.2651
   3   2.0000     -11.216971      -305.2293
   4   2.0000     -11.215336      -305.1848
   5   2.0000     -11.214881      -305.1724
   6   2.0000      -1.084973       -29.5236
   7   2.0000      -1.032657       -28.1000
   8   2.0000      -0.959810       -26.1177
   9   2.0000      -0.879088       -23.9212
  10   2.0000      -0.817398       -22.2425
  11   2.0000      -0.758305       -20.6345
  12   2.0000      -0.640084       -17.4176
  13   2.0000      -0.620720       -16.8906
  14   2.0000      -0.590908       -16.0794
  15   2.0000      -0.577918       -15.7259
  16   2.0000      -0.553426       -15.0595
  17   2.0000      -0.531434       -14.4610
  18   2.0000      -0.525310       -14.2944
  19   2.0000      -0.491643       -13.3783
  20   2.0000      -0.486180       -13.2296
  21   2.0000      -0.472793       -12.8653
  22   2.0000      -0.450554       -12.2602
  23   2.0000      -0.444889       -12.1060
  24   2.0000      -0.440721       -11.9926
  25   0.0000       0.037529         1.0212
  26   0.0000       0.043194         1.1754
  27   0.0000       0.044810         1.2193
  28   0.0000       0.045694         1.2434
  29   0.0000       0.062706         1.7063

MULLIKEN ATOMIC CHARGES
-----------------------
   0 C :    0.170870
   1 C :    0.435143
   2 C :    0.382662
   3 C :    0.177459
   4 C :    0.192519
   5 C :    0.494439
   6 H :   -0.077191
   7 H :   -0.088358
   8 H :   -0.080915
   9 H :   -0.105958
  10 H :   -0.135037
  11 H :   -0.080429
  12 H :   -0.150065
  13 H :   -0.209682
  14 H :   -0.126569
  15 H :   -0.181715
  16 H :   -0.147607
  17 H :   -0.121489
  18 H :   -0.204070
  19 H :   -0.144007
Sum of atomic charges:   -0.0000000

LOEWDIN ATOMIC CHARGES
----------------------
   0 C :   -0.068744
   1 C :    0.132052
   2 C :   -0.033091
   3 C :   -0.040868
   4 C :   -0.073290
   5 C :    0.132004
   6 H :   -0.019845
   7 H :   -0.016760
   8 H :   -0.022128
   9 H :   -0.020689
  10 H :   -0.026861
  11 H :   -0.020531
  12 H :    0.002503
  13 H :    0.003818
  14 H :    0.009562
  15 H :    0.013771
  16 H :    0.013641
  17 H :    0.013339
  18 H :    0.007294
  19 H :    0.014822

  Mayer bond orders larger than 0.100000
B(  0-C ,  1-C ) :   1.2156 B(  0-C ,  2-C ) :   1.2971 B(  0-C , 12-H ) :   0.8091
B(  0-C , 14-H ) :   0.8008 B(  1-C ,  7-H ) :   0.9247 B(  1-C ,  9-H ) :   0.8936
B(  1-C , 10-H ) :   0.9614 B(  2-C ,  3-C ) :   1.2441 B(  2-C , 16-H ) :   0.7921
B(  2-C , 17-H ) :   0.7640 B(  3-C ,  4-C ) :   1.2124 B(  3-C , 15-H ) :   0.1053
B(  3-C , 17-H ) :   0.1046 B(  3-C , 18-H ) :   0.8217 B(  3-C , 19-H ) :   0.7878
B(  4-C ,  5-C ) :   1.1882 B(  4-C ,  8-H ) :   0.1062 B(  4-C , 13-H ) :   0.7681
B(  4-C , 15-H ) :   0.7389 B(  5-C ,  6-H ) :   0.9357 B(  5-C ,  8-H ) :   0.8987
B(  5-C , 11-H ) :   0.9041 B( 12-H , 14-H ) :  -0.1135 B( 16-H , 17-H ) :  -0.1357
B( 18-H , 19-H ) :  -0.1032

MP2 TOTAL ENERGY:     -236.299334723 Eh
FINAL SINGLE POINT ENERGY      -236.299334722582

DIPOLE MOMENT
-------------
                                X             Y             Z
Electronic contribution:      0.41874       1.18964       0.31406
Nuclear contribution   :     -0.40173      -1.16577      -0.28346
                        -----------------------------------------
Total Dipole Moment    :      0.01701       0.02387       0.03059
                        -----------------------------------------
Magnitude (a.u.)       :      0.04237
Magnitude (Debye)      :      0.10770

Rotational constants in cm-1:     0.216658     0.052864     0.048997
Rotational constants in MHz :  6495.243664  1584.811670  1468.885724

                             ****ORCA TERMINATED NORMALLY****
TOTAL RUN TIME: 0 days 0 hours 0 minutes 59 seconds 219 msec
