                         Program Version 5.0.3 -  RELEASE  -
|  1> !ri-mp2 aug-cc-pvdz aug-cc-pvdz/c tightscf
|  2> %pal nprocs 16 end
|  3>
|  4> * xyz 0 1
|  5> C      1.730475    2.260799    0.000000
|  6> C     -1.877092   -3.067542    0.000000
|  7> C      1.469179    0.778822    0.000000
|  8> C     -1.675526   -1.553237    0.000000
|  9> C      0.000000    0.375846    0.000000
| 10> C     -0.203783   -1.139524    0.000000
| 11> O      0.882361    3.116832    0.000000
| 12> H      2.805089    2.541058    0.000000
| 13> H     -2.936193   -3.328318    0.000000
| 14> H     -1.423356   -3.526632    0.880821
| 15> H     -1.423356   -3.526632   -0.880821
| 16> H      1.999279    0.364970    0.867425
| 17> H      1.999279    0.364970   -0.867425
| 18> H     -2.170087   -1.119104    0.873840
| 19> H     -2.170087   -1.119104   -0.873840
| 20> H     -0.491084    0.816415    0.870631
| 21> H     -0.491084    0.816415   -0.870631
| 22> H      0.291599   -1.574837   -0.874744
| 23> H      0.291599   -1.574837    0.874744
| 24> *
| 25>
| 26>                          ****END OF INPUT****

CARTESIAN COORDINATES (ANGSTROEM)
---------------------------------
  C      1.730475    2.260799    0.000000
  C     -1.877092   -3.067542    0.000000
  C      1.469179    0.778822    0.000000
  C     -1.675526   -1.553237    0.000000
  C      0.000000    0.375846    0.000000
  C     -0.203783   -1.139524    0.000000
  O      0.882361    3.116832    0.000000
  H      2.805089    2.541058    0.000000
  H     -2.936193   -3.328318    0.000000
  H     -1.423356   -3.526632    0.880821
  H     -1.423356   -3.526632   -0.880821
  H      1.999279    0.364970    0.867425
  H      1.999279    0.364970   -0.867425
  H     -2.170087   -1.119104    0.873840
  H     -2.170087   -1.119104   -0.873840
  H     -0.491084    0.816415    0.870631
  H     -0.491084    0.816415   -0.870631
  H      0.291599   -1.574837   -0.874744
  H      0.291599   -1.574837    0.874744

 Total Charge           Charge          ....    0
 Multiplicity           Mult            ....    1
 Number of Electrons    NEL             ....   56
 Basis Dimension        Dim             ....  269

ORBITAL ENERGIES
----------------

  NO   OCC          E(Eh)            E(eV)
   0   2.0000     -20.567099      -559.6592
   1   2.0000     -11.339669      -308.5681
   2   2.0000     -11.247928      -306.0717
   3   2.0000     -11.230023      -305.5845
   4   2.0000     -11.228023      -305.5300
   5   2.0000     -11.225875      -305.4716
   6   2.0000     -11.220280      -305.3193
   7   2.0000      -1.399639       -38.0861
   8   2.0000      -1.096032       -29.8245
   9   2.0000      -1.042483       -28.3674
  10   2.0000      -0.958972       -26.0950
  11   2.0000      -0.863108       -23.4864
  12   2.0000      -0.798271       -21.7221
  13   2.0000      -0.770612       -20.9694
  14   2.0000      -0.674313       -18.3490
  15   2.0000      -0.659525       -17.9466
  16   2.0000      -0.630661       -17.1612
  17   2.0000      -0.614949       -16.7336
  18   2.0000      -0.578320       -15.7369
  19   2.0000      -0.561432       -15.2773
  20   2.0000      -0.553789       -15.0694
  21   2.0000      -0.507717       -13.8157
  22   2.0000      -0.507052       -13.7976
  23   2.0000      -0.482966       -13.1422
  24   2.0000      -0.474231       -12.9045
  25   2.0000      -0.469195       -12.7675
  26   2.0000      -0.466075       -12.6826
  27   2.0000      -0.415492       -11.3061
  28   0.0000       0.032761         0.8915
  29   0.0000       0.038148         1.0380
  30   0.0000       0.044567         1.2127
  31   0.0000       0.047621         1.2958
  32   0.0000       0.056247         1.5306

MULLIKEN ATOMIC CHARGES
-----------------------
   0 C :    0.924449
   1 C :    0.525037
   2 C :    0.004499
   3 C :    0.387461
   4 C :    0.360163
   5 C :    0.233474
   6 O :   -0.699443
   7 H :   -0.117258
   8 H :   -0.071788
   9 H :   -0.092979
  10 H :   -0.092979
  11 H :   -0.082134
  12 H :   -0.082134
  13 H :   -0.177617
  14 H :   -0.177617
  15 H :   -0.198617
  16 H :   -0.198617
  17 H :   -0.221949
  18 H :   -0.221949
Sum of atomic charges:   -0.0000000

LOEWDIN ATOMIC CHARGES
----------------------
   0 C :   -0.087987
   1 C :    0.131328
   2 C :   -0.023421
   3 C :   -0.071224
   4 C :   -0.029950
   5 C :   -0.042255
   6 O :    0.026713
   7 H :    0.013774
   8 H :   -0.021492
   9 H :   -0.020270
  10 H :   -0.020270
  11 H :    0.023270
  12 H :    0.023270
  13 H :    0.012247
  14 H :    0.012247
  15 H :    0.021303
  16 H :    0.021302
  17 H :    0.015708
  18 H :    0.015708

  Mayer bond orders larger than 0.100000
B(  0-C ,  2-C ) :   1.1920 B(  0-C ,  6-O ) :   1.6090 B(  0-C ,  7-H ) :   0.7704
B(  1-C ,  3-C ) :   1.1710 B(  1-C ,  8-H ) :   0.9146 B(  1-C ,  9-H ) :   0.9143
B(  1-C , 10-H ) :   0.9143 B(  2-C ,  4-C ) :   1.2028 B(  2-C ,  7-H ) :   0.1280
B(  2-C , 11-H ) :   0.8767 B(  2-C , 12-H ) :   0.8767 B(  3-C ,  5-C ) :   1.2251
B(  3-C , 13-H ) :   0.7442 B(  3-C , 14-H ) :   0.7442 B(  4-C ,  5-C ) :   1.3044
B(  4-C , 15-H ) :   0.8121 B(  4-C , 16-H ) :   0.8121 B(  5-C , 17-H ) :   0.7802
B(  5-C , 18-H ) :   0.7802

MP2 TOTAL ENERGY:     -310.167604520 Eh
FINAL SINGLE POINT ENERGY      -310.167604519537

DIPOLE MOMENT
-------------
                                X             Y             Z
Electronic contribution:      4.50002      10.32868      -0.00000
Nuclear contribution   :     -3.88983     -11.35766       0.00000
                        -----------------------------------------
Total Dipole Moment    :      0.61019      -1.02897      -0.00000
                        -----------------------------------------
Magnitude (a.u.)       :      1.19629
Magnitude (Debye)      :      3.04073

Rotational constants in cm-1:     0.331527     0.028654     0.027024
Rotational constants in MHz :  9938.923932   859.012889   810.172946

                             ****ORCA TERMINATED NORMALLY****
TOTAL RUN TIME: 0 days 0 hours 1 minutes 20 seconds 482 msec
