                         Program Version 5.0.3 -  RELEASE  -
|  1> !ri-mp2 aug-cc-pvdz aug-cc-pvdz/c tightscf
|  2> %pal nprocs 16 end
|  3>
|  4> * xyz 0 1
|  5> C     0.000000    1.397768    0.000000
|  6> C     1.210502    0.698884    0.000000
|  7> C    -1.210502    0.698884    0.000000
|  8> C     1.210502   -0.698884    0.000000
|  9> C    -1.210502   -0.698884    0.000000
| 10> C     0.000000   -1.397768    0.000000
| 11> Cl    0.000000    3.126245    0.000000
| 12> Cl    2.707407    1.563122    0.000000
| 13> Cl   -2.707407    1.563122    0.000000
| 14> Cl    2.707407   -1.563122    0.000000
| 15> Cl   -2.707407   -1.563122    0.000000
| 16> Cl    0.000000   -3.126245    0.000000
| 17> *
| 18>
| 19>                          ****END OF INPUT****

CARTESIAN COORDINATES (ANGSTROEM)
---------------------------------
  C      0.000000    1.397768    0.000000
  C      1.210502    0.698884    0.000000
  C     -1.210502    0.698884    0.000000
  C      1.210502   -0.698884    0.000000
  C     -1.210502   -0.698884    0.000000
  C      0.000000   -1.397768    0.000000
  Cl     0.000000    3.126245    0.000000
  Cl     2.707407    1.563122    0.000000
  Cl    -2.707407    1.563122    0.000000
  Cl     2.707407   -1.563122    0.000000
  Cl    -2.707407   -1.563122    0.000000
  Cl     0.000000   -3.126245    0.000000

 Total Charge           Charge          ....    0
 Multiplicity           Mult            ....    1
 Number of Electrons    NEL             ....  138
 Basis Dimension        Dim             ....  300

ORBITAL ENERGIES
----------------

  NO   OCC          E(Eh)            E(eV)
   0   2.0000    -104.872433     -2853.7240
   1   2.0000    -104.872432     -2853.7240
   2   2.0000    -104.872432     -2853.7240
   3   2.0000    -104.872432     -2853.7240
   4   2.0000    -104.872432     -2853.7240
   5   2.0000    -104.872431     -2853.7239
   6   2.0000     -11.364680      -309.2487
   7   2.0000     -11.364132      -309.2338
   8   2.0000     -11.364132      -309.2338
   9   2.0000     -11.362939      -309.2013
  10   2.0000     -11.362939      -309.2013
  11   2.0000     -11.362356      -309.1854
  12   2.0000     -10.598672      -288.4045
  13   2.0000     -10.598665      -288.4043
  14   2.0000     -10.598665      -288.4043
  15   2.0000     -10.598655      -288.4041
  16   2.0000     -10.598655      -288.4041
  17   2.0000     -10.598626      -288.4033
  18   2.0000      -8.066521      -219.5012
  19   2.0000      -8.066520      -219.5012
  20   2.0000      -8.066520      -219.5012
  21   2.0000      -8.066518      -219.5011
  22   2.0000      -8.066518      -219.5011
  23   2.0000      -8.066517      -219.5011
  24   2.0000      -8.062832      -219.4008
  25   2.0000      -8.062831      -219.4008
  26   2.0000      -8.062831      -219.4008
  27   2.0000      -8.062830      -219.4008
  28   2.0000      -8.062830      -219.4008
  29   2.0000      -8.062829      -219.4007
  30   2.0000      -8.062795      -219.3998
  31   2.0000      -8.062794      -219.3998
  32   2.0000      -8.062794      -219.3998
  33   2.0000      -8.062794      -219.3998
  34   2.0000      -8.062794      -219.3998
  35   2.0000      -8.062793      -219.3997
  36   2.0000      -1.290989       -35.1296
  37   2.0000      -1.223853       -33.3027
  38   2.0000      -1.223853       -33.3027
  39   2.0000      -1.161987       -31.6193
  40   2.0000      -1.161987       -31.6193
  41   2.0000      -1.136748       -30.9325
  42   2.0000      -1.107483       -30.1361
  43   2.0000      -1.005264       -27.3546
  44   2.0000      -1.005264       -27.3546
  45   2.0000      -0.854452       -23.2508
  46   2.0000      -0.854452       -23.2508
  47   2.0000      -0.761805       -20.7298
  48   2.0000      -0.696196       -18.9445
  49   2.0000      -0.652688       -17.7605
  50   2.0000      -0.644247       -17.5308
  51   2.0000      -0.623263       -16.9599
  52   2.0000      -0.623263       -16.9599
  53   2.0000      -0.586200       -15.9513
  54   2.0000      -0.586200       -15.9513
  55   2.0000      -0.563221       -15.3260
  56   2.0000      -0.563221       -15.3260
  57   2.0000      -0.509919       -13.8756
  58   2.0000      -0.508183       -13.8284
  59   2.0000      -0.508183       -13.8284
  60   2.0000      -0.507683       -13.8148
  61   2.0000      -0.507683       -13.8148
  62   2.0000      -0.494021       -13.4430
  63   2.0000      -0.477626       -12.9969
  64   2.0000      -0.477625       -12.9968
  65   2.0000      -0.457973       -12.4621
  66   2.0000      -0.445414       -12.1203
  67   2.0000      -0.363581        -9.8936
  68   2.0000      -0.363581        -9.8936
  69   0.0000       0.048106         1.3090
  70   0.0000       0.062349         1.6966
  71   0.0000       0.062349         1.6966
  72   0.0000       0.065967         1.7951
  73   0.0000       0.065967         1.7951

MULLIKEN ATOMIC CHARGES
-----------------------
   0 C :    0.270697
   1 C :    0.270719
   2 C :    0.270686
   3 C :    0.270701
   4 C :    0.270613
   5 C :    0.270593
   6 Cl:   -0.270669
   7 Cl:   -0.270668
   8 Cl:   -0.270668
   9 Cl:   -0.270669
  10 Cl:   -0.270667
  11 Cl:   -0.270667
Sum of atomic charges:   -0.0000000

LOEWDIN ATOMIC CHARGES
----------------------
   0 C :   -0.614745
   1 C :   -0.614745
   2 C :   -0.614745
   3 C :   -0.614745
   4 C :   -0.614745
   5 C :   -0.614745
   6 Cl:    0.614745
   7 Cl:    0.614745
   8 Cl:    0.614745
   9 Cl:    0.614745
  10 Cl:    0.614745
  11 Cl:    0.614745

  Mayer bond orders larger than 0.100000
B(  0-C ,  1-C ) :   0.9549 B(  0-C ,  2-C ) :   0.9549 B(  0-C ,  5-C ) :   0.3835
B(  0-C ,  6-Cl) :  -0.2712 B(  0-C ,  9-Cl) :   0.4632 B(  0-C , 10-Cl) :   0.4632
B(  0-C , 11-Cl) :   0.1966 B(  1-C ,  3-C ) :   0.9547 B(  1-C ,  4-C ) :   0.3832
B(  1-C ,  7-Cl) :  -0.2711 B(  1-C ,  8-Cl) :   0.4632 B(  1-C , 10-Cl) :   0.1966
B(  1-C , 11-Cl) :   0.4632 B(  2-C ,  3-C ) :   0.3832 B(  2-C ,  4-C ) :   0.9547
B(  2-C ,  7-Cl) :   0.4632 B(  2-C ,  8-Cl) :  -0.2711 B(  2-C ,  9-Cl) :   0.1966
B(  2-C , 11-Cl) :   0.4633 B(  3-C ,  5-C ) :   0.9549 B(  3-C ,  6-Cl) :   0.4633
B(  3-C ,  8-Cl) :   0.1966 B(  3-C ,  9-Cl) :  -0.2711 B(  3-C , 10-Cl) :   0.4632
B(  4-C ,  5-C ) :   0.9549 B(  4-C ,  6-Cl) :   0.4632 B(  4-C ,  7-Cl) :   0.1966
B(  4-C ,  9-Cl) :   0.4632 B(  4-C , 10-Cl) :  -0.2711 B(  5-C ,  6-Cl) :   0.1966
B(  5-C ,  7-Cl) :   0.4632 B(  5-C ,  8-Cl) :   0.4632 B(  5-C , 11-Cl) :  -0.2711

MP2 TOTAL ENERGY:    -2985.913664992 Eh
FINAL SINGLE POINT ENERGY     -2985.913664991933

DIPOLE MOMENT
-------------
                                X             Y             Z
Electronic contribution:      0.00000       0.00000       0.00000
Nuclear contribution   :      0.00000       0.00000       0.00000
                        -----------------------------------------
Total Dipole Moment    :      0.00000       0.00000       0.00000
                        -----------------------------------------
Magnitude (a.u.)       :      0.00000
Magnitude (Debye)      :      0.00000

Rotational constants in cm-1:     0.015189     0.015189     0.007594
Rotational constants in MHz :   455.342352   455.342229   227.671145

                             ****ORCA TERMINATED NORMALLY****
TOTAL RUN TIME: 0 days 0 hours 1 minutes 37 seconds 206 msec
