                         Program Version 5.0.3 -  RELEASE  -
|  1> !ri-mp2 aug-cc-pvdz aug-cc-pvdz/c tightscf
|  2> %pal nprocs 16 end
|  3>
|  4> * xyz 0 1
|  5> O    -0.055278     2.766941       0.000000
|  6> C     0.001661     1.395041       0.000000
|  7> C     1.201394     0.689669       0.000000
|  8> C     1.201394    -0.699360       0.000000
|  9> C    -0.001661    -1.395041       0.000000
| 10> O     0.055278    -2.766941       0.000000
| 11> C    -1.201394    -0.689669       0.000000
| 12> C    -1.201394     0.699360       0.000000
| 13> H     0.835947     3.128399       0.000000
| 14> H     2.144114     1.223949       0.000000
| 15> H     2.130783    -1.251030       0.000000
| 16> H    -0.835947    -3.128399       0.000000
| 17> H    -2.144114    -1.223949       0.000000
| 18> H    -2.130783     1.251030       0.000000
| 19> *
| 20>
| 21>                          ****END OF INPUT****

CARTESIAN COORDINATES (ANGSTROEM)
---------------------------------
  O     -0.055278    2.766941    0.000000
  C      0.001661    1.395041    0.000000
  C      1.201394    0.689669    0.000000
  C      1.201394   -0.699360    0.000000
  C     -0.001661   -1.395041    0.000000
  O      0.055278   -2.766941    0.000000
  C     -1.201394   -0.689669    0.000000
  C     -1.201394    0.699360    0.000000
  H      0.835947    3.128399    0.000000
  H      2.144114    1.223949    0.000000
  H      2.130783   -1.251030    0.000000
  H     -0.835947   -3.128399    0.000000
  H     -2.144114   -1.223949    0.000000
  H     -2.130783    1.251030    0.000000

 Total Charge           Charge          ....    0
 Multiplicity           Mult            ....    1
 Number of Electrons    NEL             ....   58
 Basis Dimension        Dim             ....  238

ORBITAL ENERGIES
----------------

  NO   OCC          E(Eh)            E(eV)
   0   2.0000     -20.597561      -560.4881
   1   2.0000     -20.597560      -560.4881
   2   2.0000     -11.302689      -307.5618
   3   2.0000     -11.302668      -307.5612
   4   2.0000     -11.247214      -306.0522
   5   2.0000     -11.247187      -306.0515
   6   2.0000     -11.242761      -305.9311
   7   2.0000     -11.242746      -305.9307
   8   2.0000      -1.405630       -38.2491
   9   2.0000      -1.404289       -38.2126
  10   2.0000      -1.152279       -31.3551
  11   2.0000      -1.031236       -28.0613
  12   2.0000      -1.003009       -27.2933
  13   2.0000      -0.867080       -23.5945
  14   2.0000      -0.827166       -22.5083
  15   2.0000      -0.748467       -20.3668
  16   2.0000      -0.735443       -20.0124
  17   2.0000      -0.669407       -18.2155
  18   2.0000      -0.626863       -17.0578
  19   2.0000      -0.620129       -16.8746
  20   2.0000      -0.597863       -16.2687
  21   2.0000      -0.597055       -16.2467
  22   2.0000      -0.577571       -15.7165
  23   2.0000      -0.551998       -15.0206
  24   2.0000      -0.551456       -15.0059
  25   2.0000      -0.497515       -13.5381
  26   2.0000      -0.466654       -12.6983
  27   2.0000      -0.350039        -9.5250
  28   2.0000      -0.299775        -8.1573
  29   0.0000       0.032855         0.8940
  30   0.0000       0.034403         0.9362
  31   0.0000       0.045342         1.2338
  32   0.0000       0.055120         1.4999
  33   0.0000       0.064030         1.7423

MULLIKEN ATOMIC CHARGES
-----------------------
   0 O :   -0.896355
   1 C :    0.764919
   2 C :    0.532039
   3 C :    0.471370
   4 C :    0.764919
   5 O :   -0.896355
   6 C :    0.532039
   7 C :    0.471370
   8 H :    0.162178
   9 H :   -0.581726
  10 H :   -0.452424
  11 H :    0.162178
  12 H :   -0.581726
  13 H :   -0.452424
Sum of atomic charges:   -0.0000000

LOEWDIN ATOMIC CHARGES
----------------------
   0 O :    0.174328
   1 C :   -0.236724
   2 C :    0.043648
   3 C :    0.051368
   4 C :   -0.236724
   5 O :    0.174328
   6 C :    0.043648
   7 C :    0.051368
   8 H :   -0.044639
   9 H :    0.002644
  10 H :    0.009375
  11 H :   -0.044639
  12 H :    0.002644
  13 H :    0.009375

  Mayer bond orders larger than 0.100000
B(  0-O ,  2-C ) :   0.1575 B(  0-O ,  8-H ) :   1.0661 B(  1-C ,  2-C ) :   1.5704
B(  1-C ,  3-C ) :  -0.1318 B(  1-C ,  4-C ) :   0.1522 B(  1-C ,  6-C ) :  -0.1615
B(  1-C ,  7-C ) :   1.7125 B(  1-C ,  8-H ) :  -0.1075 B(  1-C ,  9-H ) :   0.4419
B(  1-C , 10-H ) :  -0.1108 B(  1-C , 12-H ) :  -0.1291 B(  1-C , 13-H ) :   0.5139
B(  2-C ,  3-C ) :   1.9849 B(  2-C ,  4-C ) :  -0.1615 B(  2-C ,  6-C ) :   0.5950
B(  2-C , 10-H ) :   0.1258 B(  3-C ,  4-C ) :   1.7125 B(  3-C ,  7-C ) :   0.1042
B(  3-C ,  9-H ) :   0.2093 B(  4-C ,  6-C ) :   1.5704 B(  4-C ,  7-C ) :  -0.1318
B(  4-C ,  9-H ) :  -0.1291 B(  4-C , 10-H ) :   0.5139 B(  4-C , 11-H ) :  -0.1075
B(  4-C , 12-H ) :   0.4419 B(  4-C , 13-H ) :  -0.1108 B(  5-O ,  6-C ) :   0.1575
B(  5-O , 11-H ) :   1.0661 B(  6-C ,  7-C ) :   1.9849 B(  6-C , 13-H ) :   0.1258
B(  7-C , 12-H ) :   0.2093

MP2 TOTAL ENERGY:     -381.676364271 Eh
FINAL SINGLE POINT ENERGY      -381.676364270595

DIPOLE MOMENT
-------------
                                X             Y             Z
Electronic contribution:     -0.00000      -0.00000       0.00000
Nuclear contribution   :      0.00000       0.00000       0.00000
                        -----------------------------------------
Total Dipole Moment    :     -0.00000      -0.00000       0.00000
                        -----------------------------------------
Magnitude (a.u.)       :      0.00000
Magnitude (Debye)      :      0.00000

Rotational constants in cm-1:     0.188835     0.049464     0.039197
Rotational constants in MHz :  5661.124294  1482.892927  1175.086918

                             ****ORCA TERMINATED NORMALLY****
TOTAL RUN TIME: 0 days 0 hours 0 minutes 58 seconds 976 msec
