                         Program Version 5.0.3 -  RELEASE  -
|  1> !ri-mp2 aug-cc-pvdz aug-cc-pvdz/c tightscf
|  2> %pal nprocs 16 end
|  3>
|  4> * xyz 0 1
|  5> C     -2.062686   -1.102443    0.000000
|  6> C      3.632108    1.858226    0.000000
|  7> C     -0.556479   -1.037078    0.000000
|  8> C      2.104874    1.829660    0.000000
|  9> C      0.000000    0.382472    0.000000
| 10> C      1.528055    0.413443    0.000000
| 11> O     -2.819045   -0.165656    0.000000
| 12> O     -2.503459   -2.387142    0.000000
| 13> H      4.011459    2.880818    0.000000
| 14> H      4.036027    1.354785    0.880787
| 15> H      4.036027    1.354785   -0.880787
| 16> H     -0.205394   -1.600622    0.869012
| 17> H     -0.205394   -1.600622   -0.869012
| 18> H      1.729349    2.370062    0.873830
| 19> H      1.729349    2.370062   -0.873830
| 20> H     -0.381981    0.918569    0.871350
| 21> H     -0.381981    0.918569   -0.871350
| 22> H      1.904359   -0.128002   -0.874719
| 23> H      1.904359   -0.128002    0.874719
| 24> H     -3.471375   -2.353691    0.000000
| 25> *
| 26>
| 27>                          ****END OF INPUT****

CARTESIAN COORDINATES (ANGSTROEM)
---------------------------------
  C     -2.062686   -1.102443    0.000000
  C      3.632108    1.858226    0.000000
  C     -0.556479   -1.037078    0.000000
  C      2.104874    1.829660    0.000000
  C      0.000000    0.382472    0.000000
  C      1.528055    0.413443    0.000000
  O     -2.819045   -0.165656    0.000000
  O     -2.503459   -2.387142    0.000000
  H      4.011459    2.880818    0.000000
  H      4.036027    1.354785    0.880787
  H      4.036027    1.354785   -0.880787
  H     -0.205394   -1.600622    0.869012
  H     -0.205394   -1.600622   -0.869012
  H      1.729349    2.370062    0.873830
  H      1.729349    2.370062   -0.873830
  H     -0.381981    0.918569    0.871350
  H     -0.381981    0.918569   -0.871350
  H      1.904359   -0.128002   -0.874719
  H      1.904359   -0.128002    0.874719
  H     -3.471375   -2.353691    0.000000

 Total Charge           Charge          ....    0
 Multiplicity           Mult            ....    1
 Number of Electrons    NEL             ....   64
 Basis Dimension        Dim             ....  292

ORBITAL ENERGIES
----------------

  NO   OCC          E(Eh)            E(eV)
   0   2.0000     -20.619569      -561.0870
   1   2.0000     -20.560493      -559.4795
   2   2.0000     -11.393996      -310.0464
   3   2.0000     -11.252211      -306.1882
   4   2.0000     -11.231373      -305.6212
   5   2.0000     -11.228384      -305.5398
   6   2.0000     -11.226221      -305.4810
   7   2.0000     -11.220284      -305.3194
   8   2.0000      -1.467564       -39.9345
   9   2.0000      -1.365450       -37.1558
  10   2.0000      -1.098308       -29.8865
  11   2.0000      -1.044759       -28.4293
  12   2.0000      -0.961020       -26.1507
  13   2.0000      -0.867239       -23.5988
  14   2.0000      -0.801578       -21.8120
  15   2.0000      -0.788115       -21.4457
  16   2.0000      -0.704786       -19.1782
  17   2.0000      -0.685050       -18.6411
  18   2.0000      -0.669614       -18.2211
  19   2.0000      -0.636076       -17.3085
  20   2.0000      -0.597925       -16.2704
  21   2.0000      -0.591380       -16.0923
  22   2.0000      -0.571291       -15.5456
  23   2.0000      -0.566349       -15.4111
  24   2.0000      -0.536633       -14.6025
  25   2.0000      -0.511253       -13.9119
  26   2.0000      -0.486692       -13.2436
  27   2.0000      -0.483670       -13.1613
  28   2.0000      -0.473269       -12.8783
  29   2.0000      -0.468110       -12.7379
  30   2.0000      -0.466316       -12.6891
  31   2.0000      -0.447415       -12.1748
  32   0.0000       0.034593         0.9413
  33   0.0000       0.039252         1.0681
  34   0.0000       0.045881         1.2485
  35   0.0000       0.046043         1.2529
  36   0.0000       0.054308         1.4778

MULLIKEN ATOMIC CHARGES
-----------------------
   0 C :    1.075955
   1 C :    0.554769
   2 C :    0.152074
   3 C :    0.457247
   4 C :    0.335389
   5 C :    0.236198
   6 O :   -0.725958
   7 O :   -0.752413
   8 H :   -0.076635
   9 H :   -0.095121
  10 H :   -0.095121
  11 H :   -0.039066
  12 H :   -0.039066
  13 H :   -0.175977
  14 H :   -0.175977
  15 H :   -0.212317
  16 H :   -0.212317
  17 H :   -0.222133
  18 H :   -0.222133
  19 H :    0.232602
Sum of atomic charges:    0.0000000

LOEWDIN ATOMIC CHARGES
----------------------
   0 C :   -0.334419
   1 C :    0.131559
   2 C :    0.027870
   3 C :   -0.070508
   4 C :   -0.024148
   5 C :   -0.040844
   6 O :    0.042070
   7 O :    0.193159
   8 H :   -0.021382
   9 H :   -0.020080
  10 H :   -0.020080
  11 H :    0.028611
  12 H :    0.028611
  13 H :    0.012274
  14 H :    0.012274
  15 H :    0.021977
  16 H :    0.021977
  17 H :    0.016429
  18 H :    0.016429
  19 H :   -0.021778

  Mayer bond orders larger than 0.100000
B(  0-C ,  2-C ) :   0.9208 B(  0-C ,  6-O ) :   1.4867 B(  0-C ,  7-O ) :   0.3499
B(  0-C , 19-H ) :  -0.1083 B(  1-C ,  3-C ) :   1.1581 B(  1-C ,  8-H ) :   0.9162
B(  1-C ,  9-H ) :   0.9099 B(  1-C , 10-H ) :   0.9099 B(  2-C ,  4-C ) :   1.2323
B(  2-C ,  5-C ) :  -0.1115 B(  2-C ,  7-O ) :   0.1042 B(  2-C , 11-H ) :   0.9103
B(  2-C , 12-H ) :   0.9103 B(  3-C ,  4-C ) :  -0.1069 B(  3-C ,  5-C ) :   1.2392
B(  3-C , 13-H ) :   0.7347 B(  3-C , 14-H ) :   0.7347 B(  4-C ,  5-C ) :   1.3193
B(  4-C , 15-H ) :   0.8199 B(  4-C , 16-H ) :   0.8199 B(  5-C , 13-H ) :   0.1017
B(  5-C , 14-H ) :   0.1017 B(  5-C , 17-H ) :   0.7649 B(  5-C , 18-H ) :   0.7649
B(  7-O , 19-H ) :   1.0024

MP2 TOTAL ENERGY:     -385.273872771 Eh
FINAL SINGLE POINT ENERGY      -385.273872770608

DIPOLE MOMENT
-------------
                                X             Y             Z
Electronic contribution:    -14.58686      -6.97269      -0.00000
Nuclear contribution   :     15.12899       6.53597       0.00000
                        -----------------------------------------
Total Dipole Moment    :      0.54213      -0.43672      -0.00000
                        -----------------------------------------
Magnitude (a.u.)       :      0.69615
Magnitude (Debye)      :      1.76947

Rotational constants in cm-1:     0.247796     0.021541     0.020184
Rotational constants in MHz :  7428.744570   645.789082   605.093413

                             ****ORCA TERMINATED NORMALLY****
TOTAL RUN TIME: 0 days 0 hours 1 minutes 43 seconds 539 msec
