                         Program Version 5.0.3 -  RELEASE  -
|  1> !ri-mp2 aug-cc-pvdz aug-cc-pvdz/c tightscf
|  2> %pal nprocs 16 end
|  3>
|  4> * xyz 0 1
|  5> C      0.000000    0.000000    0.778102
|  6> C      0.000000    0.000000   -0.778102
|  7> F      0.000000    1.254581    1.232191
|  8> F     -1.086499   -0.627290    1.232191
|  9> F      1.086499   -0.627291    1.232191
| 10> F      0.000000   -1.254581   -1.232191
| 11> F     -1.086499    0.627291   -1.232191
| 12> F      1.086499    0.627290   -1.232191
| 13> *
| 14>
| 15>                          ****END OF INPUT****

CARTESIAN COORDINATES (ANGSTROEM)
---------------------------------
  C      0.000000    0.000000    0.778102
  C      0.000000    0.000000   -0.778102
  F      0.000000    1.254581    1.232191
  F     -1.086499   -0.627290    1.232191
  F      1.086499   -0.627291    1.232191
  F      0.000000   -1.254581   -1.232191
  F     -1.086499    0.627291   -1.232191
  F      1.086499    0.627290   -1.232191

 Total Charge           Charge          ....    0
 Multiplicity           Mult            ....    1
 Number of Electrons    NEL             ....   66
 Basis Dimension        Dim             ....  184

ORBITAL ENERGIES
----------------

  NO   OCC          E(Eh)            E(eV)
   0   2.0000     -26.392339      -718.1720
   1   2.0000     -26.392338      -718.1720
   2   2.0000     -26.392335      -718.1720
   3   2.0000     -26.392335      -718.1720
   4   2.0000     -26.392307      -718.1712
   5   2.0000     -26.392304      -718.1711
   6   2.0000     -11.568911      -314.8061
   7   2.0000     -11.568374      -314.7915
   8   2.0000      -1.789489       -48.6945
   9   2.0000      -1.765302       -48.0363
  10   2.0000      -1.686951       -45.9043
  11   2.0000      -1.686950       -45.9043
  12   2.0000      -1.677224       -45.6396
  13   2.0000      -1.677224       -45.6396
  14   2.0000      -1.097121       -29.8542
  15   2.0000      -0.977751       -26.6060
  16   2.0000      -0.908757       -24.7285
  17   2.0000      -0.881939       -23.9988
  18   2.0000      -0.881939       -23.9988
  19   2.0000      -0.850890       -23.1539
  20   2.0000      -0.850890       -23.1539
  21   2.0000      -0.766670       -20.8622
  22   2.0000      -0.746736       -20.3197
  23   2.0000      -0.746736       -20.3197
  24   2.0000      -0.744561       -20.2605
  25   2.0000      -0.744561       -20.2605
  26   2.0000      -0.710842       -19.3430
  27   2.0000      -0.710842       -19.3430
  28   2.0000      -0.692955       -18.8563
  29   2.0000      -0.692955       -18.8563
  30   2.0000      -0.690947       -18.8016
  31   2.0000      -0.682803       -18.5800
  32   2.0000      -0.598504       -16.2861
  33   0.0000       0.074457         2.0261
  34   0.0000       0.076235         2.0745
  35   0.0000       0.088541         2.4093
  36   0.0000       0.088541         2.4093
  37   0.0000       0.118416         3.2223

MULLIKEN ATOMIC CHARGES
-----------------------
   0 C :    1.722256
   1 C :    1.722256
   2 F :   -0.574085
   3 F :   -0.574085
   4 F :   -0.574085
   5 F :   -0.574085
   6 F :   -0.574085
   7 F :   -0.574085
Sum of atomic charges:    0.0000000

LOEWDIN ATOMIC CHARGES
----------------------
   0 C :   -0.329215
   1 C :   -0.329215
   2 F :    0.109738
   3 F :    0.109739
   4 F :    0.109738
   5 F :    0.109738
   6 F :    0.109738
   7 F :    0.109739

  Mayer bond orders larger than 0.100000
B(  0-C ,  1-C ) :   1.1815 B(  0-C ,  2-F ) :   0.4078 B(  0-C ,  3-F ) :   0.4078
B(  0-C ,  4-F ) :   0.4078 B(  0-C ,  5-F ) :   0.1112 B(  0-C ,  6-F ) :   0.1112
B(  0-C ,  7-F ) :   0.1112 B(  1-C ,  2-F ) :   0.1112 B(  1-C ,  3-F ) :   0.1112
B(  1-C ,  4-F ) :   0.1112 B(  1-C ,  5-F ) :   0.4078 B(  1-C ,  6-F ) :   0.4078
B(  1-C ,  7-F ) :   0.4078

MP2 TOTAL ENERGY:     -673.938976013 Eh
FINAL SINGLE POINT ENERGY      -673.938976012904

DIPOLE MOMENT
-------------
                                X             Y             Z
Electronic contribution:      0.00000       0.00000      -0.00000
Nuclear contribution   :      0.00000       0.00000       0.00000
                        -----------------------------------------
Total Dipole Moment    :      0.00000       0.00000      -0.00000
                        -----------------------------------------
Magnitude (a.u.)       :      0.00000
Magnitude (Debye)      :      0.00000

Rotational constants in cm-1:     0.093959     0.060788     0.060788
Rotational constants in MHz :  2816.832773  1822.380438  1822.379896

                             ****ORCA TERMINATED NORMALLY****
TOTAL RUN TIME: 0 days 0 hours 0 minutes 50 seconds 164 msec
