                         Program Version 5.0.3 -  RELEASE  -
|  1> !ri-mp2 aug-cc-pvdz aug-cc-pvdz/c tightscf
|  2> %pal nprocs 16 end
|  3>
|  4> * xyz 0 1
|  5> C      0.000000    0.928126    0.000000
|  6> C      0.925344   -0.256408    0.000000
|  7> O     -1.349713    0.557465    0.000000
|  8> O      0.516462   -1.391513    0.000000
|  9> H     -1.374140   -0.411223    0.000000
| 10> H      0.240237    1.542269    0.879378
| 11> H      0.240237    1.542269   -0.879378
| 12> H      2.007614   -0.031238    0.000000
| 13> *
| 14>
| 15>                          ****END OF INPUT****

CARTESIAN COORDINATES (ANGSTROEM)
---------------------------------
  C      0.000000    0.928126    0.000000
  C      0.925344   -0.256408    0.000000
  O     -1.349713    0.557465    0.000000
  O      0.516462   -1.391513    0.000000
  H     -1.374140   -0.411223    0.000000
  H      0.240237    1.542269    0.879378
  H      0.240237    1.542269   -0.879378
  H      2.007614   -0.031238    0.000000

 Total Charge           Charge          ....    0
 Multiplicity           Mult            ....    1
 Number of Electrons    NEL             ....   32
 Basis Dimension        Dim             ....  128

ORBITAL ENERGIES
----------------

  NO   OCC          E(Eh)            E(eV)
   0   2.0000     -20.592728      -560.3566
   1   2.0000     -20.579190      -559.9882
   2   2.0000     -11.361295      -309.1565
   3   2.0000     -11.310832      -307.7834
   4   2.0000      -1.431219       -38.9454
   5   2.0000      -1.375667       -37.4338
   6   2.0000      -1.008504       -27.4428
   7   2.0000      -0.818697       -22.2779
   8   2.0000      -0.733584       -19.9618
   9   2.0000      -0.686531       -18.6815
  10   2.0000      -0.662928       -18.0392
  11   2.0000      -0.612720       -16.6730
  12   2.0000      -0.556550       -15.1445
  13   2.0000      -0.540757       -14.7147
  14   2.0000      -0.463377       -12.6091
  15   2.0000      -0.447680       -12.1820
  16   0.0000       0.030345         0.8257
  17   0.0000       0.049622         1.3503
  18   0.0000       0.050636         1.3779
  19   0.0000       0.061403         1.6709
  20   0.0000       0.096012         2.6126

MULLIKEN ATOMIC CHARGES
-----------------------
   0 C :    0.743471
   1 C :    0.619520
   2 O :   -0.690775
   3 O :   -0.684590
   4 H :    0.196897
   5 H :   -0.048586
   6 H :   -0.048586
   7 H :   -0.087350
Sum of atomic charges:    0.0000000

LOEWDIN ATOMIC CHARGES
----------------------
   0 C :   -0.049441
   1 C :   -0.071005
   2 O :    0.124089
   3 O :    0.035453
   4 H :   -0.081733
   5 H :    0.012292
   6 H :    0.012292
   7 H :    0.018053

  Mayer bond orders larger than 0.100000
B(  0-C ,  1-C ) :   1.1502 B(  0-C ,  2-O ) :   0.5268 B(  0-C ,  5-H ) :   0.9216
B(  0-C ,  6-H ) :   0.9216 B(  1-C ,  3-O ) :   1.5749 B(  1-C ,  7-H ) :   0.8776
B(  2-O ,  4-H ) :   1.0176

MP2 TOTAL ENERGY:     -228.479629816 Eh
FINAL SINGLE POINT ENERGY      -228.479629815562

DIPOLE MOMENT
-------------
                                X             Y             Z
Electronic contribution:     -0.22832      -1.92460      -0.00000
Nuclear contribution   :      1.10166       2.63096       0.00000
                        -----------------------------------------
Total Dipole Moment    :      0.87334       0.70636      -0.00000
                        -----------------------------------------
Magnitude (a.u.)       :      1.12324
Magnitude (Debye)      :      2.85505

Rotational constants in cm-1:     0.619635     0.217202     0.165758
Rotational constants in MHz : 18576.200292  6511.557106  4969.293203

                             ****ORCA TERMINATED NORMALLY****
TOTAL RUN TIME: 0 days 0 hours 0 minutes 42 seconds 892 msec
