                         Program Version 5.0.3 -  RELEASE  -
|  1> !ri-mp2 aug-cc-pvdz aug-cc-pvdz/c tightscf
|  2> %pal nprocs 16 end
|  3>
|  4> * xyz 0 1
|  5> C      0.000000    0.416584        0.000000
|  6> O     -1.110472   -0.343382        0.000000
|  7> N      1.156625   -0.083800        0.000000
|  8> H     -0.263473    1.473242        0.000000
|  9> H     -0.825628   -1.270023        0.000000
| 10> H      1.876503    0.630934        0.000000
| 11> *
| 12>
| 13>                          ****END OF INPUT****

CARTESIAN COORDINATES (ANGSTROEM)
---------------------------------
  C      0.000000    0.416584    0.000000
  O     -1.110472   -0.343382    0.000000
  N      1.156625   -0.083800    0.000000
  H     -0.263473    1.473242    0.000000
  H     -0.825628   -1.270023    0.000000
  H      1.876503    0.630934    0.000000

 Total Charge           Charge          ....    0
 Multiplicity           Mult            ....    1
 Number of Electrons    NEL             ....   24
 Basis Dimension        Dim             ....   96

ORBITAL ENERGIES
----------------

  NO   OCC          E(Eh)            E(eV)
   0   2.0000     -20.614649      -560.9531
   1   2.0000     -15.559343      -423.3912
   2   2.0000     -11.357583      -309.0555
   3   2.0000      -1.436202       -39.0811
   4   2.0000      -1.204938       -32.7880
   5   2.0000      -0.870288       -23.6817
   6   2.0000      -0.738670       -20.1002
   7   2.0000      -0.674981       -18.3672
   8   2.0000      -0.603843       -16.4314
   9   2.0000      -0.586862       -15.9693
  10   2.0000      -0.450153       -12.2493
  11   2.0000      -0.420598       -11.4450
  12   0.0000       0.035350         0.9619
  13   0.0000       0.049546         1.3482
  14   0.0000       0.055758         1.5173
  15   0.0000       0.094410         2.5690
  16   0.0000       0.116513         3.1705

MULLIKEN ATOMIC CHARGES
-----------------------
   0 C :    0.976870
   1 O :   -0.570218
   2 N :   -0.465993
   3 H :   -0.125655
   4 H :    0.142494
   5 H :    0.042502
Sum of atomic charges:   -0.0000000

LOEWDIN ATOMIC CHARGES
----------------------
   0 C :   -0.159253
   1 O :    0.158491
   2 N :    0.120833
   3 H :    0.009133
   4 H :   -0.035045
   5 H :   -0.094159

  Mayer bond orders larger than 0.100000
B(  0-C ,  1-O ) :   0.6688 B(  0-C ,  2-N ) :   1.8717 B(  0-C ,  3-H ) :   0.9160
B(  1-O ,  4-H ) :   1.0535 B(  2-N ,  5-H ) :   0.9812

MP2 TOTAL ENERGY:     -169.455205890 Eh
FINAL SINGLE POINT ENERGY      -169.455205890089

DIPOLE MOMENT
-------------
                                X             Y             Z
Electronic contribution:     -0.79311      -0.35730      -0.00000
Nuclear contribution   :      0.77725       0.82885       0.00000
                        -----------------------------------------
Total Dipole Moment    :     -0.01586       0.47155      -0.00000
                        -----------------------------------------
Magnitude (a.u.)       :      0.47182
Magnitude (Debye)      :      1.19927

Rotational constants in cm-1:     2.389930     0.383335     0.330349
Rotational constants in MHz : 71648.285490 11492.101808  9903.603026

                             ****ORCA TERMINATED NORMALLY****
TOTAL RUN TIME: 0 days 0 hours 0 minutes 43 seconds 198 msec
