                         Program Version 5.0.3 -  RELEASE  -
|  1> !ri-mp2 aug-cc-pvdz aug-cc-pvdz/c tightscf
|  2> %pal nprocs 16 end
|  3>
|  4> * xyz 0 1
|  5> O      1.964875   -1.028829    0.000000
|  6> N     -2.725203   -0.414146    0.000000
|  7> N      0.766731    2.336947   -0.000002
|  8> C     -0.171149   -0.063923    0.000000
|  9> C      0.638308   -1.147035    0.000000
| 10> C     -1.584579   -0.252310    0.000000
| 11> C      0.348128    1.264198   -0.000001
| 12> H      2.392732   -1.891508    0.000000
| 13> H      0.213330   -2.143050    0.000002
| 14> *
| 15>
| 16>                          ****END OF INPUT****

CARTESIAN COORDINATES (ANGSTROEM)
---------------------------------
  O      1.964875   -1.028829    0.000000
  N     -2.725203   -0.414146    0.000000
  N      0.766731    2.336947   -0.000002
  C     -0.171149   -0.063923    0.000000
  C      0.638308   -1.147035    0.000000
  C     -1.584579   -0.252310    0.000000
  C      0.348128    1.264198   -0.000001
  H      2.392732   -1.891508    0.000000
  H      0.213330   -2.143050    0.000002

 Total Charge           Charge          ....    0
 Multiplicity           Mult            ....    1
 Number of Electrons    NEL             ....   48
 Basis Dimension        Dim             ....  179

ORBITAL ENERGIES
----------------

  NO   OCC          E(Eh)            E(eV)
   0   2.0000     -20.681134      -562.7623
   1   2.0000     -15.603831      -424.6018
   2   2.0000     -15.601984      -424.5516
   3   2.0000     -11.406951      -310.3989
   4   2.0000     -11.335023      -308.4417
   5   2.0000     -11.309636      -307.7508
   6   2.0000     -11.305587      -307.6407
   7   2.0000      -1.498016       -40.7631
   8   2.0000      -1.255961       -34.1764
   9   2.0000      -1.240077       -33.7442
  10   2.0000      -1.144182       -31.1348
  11   2.0000      -0.944020       -25.6881
  12   2.0000      -0.857965       -23.3464
  13   2.0000      -0.766034       -20.8449
  14   2.0000      -0.757504       -20.6127
  15   2.0000      -0.663062       -18.0428
  16   2.0000      -0.619544       -16.8587
  17   2.0000      -0.581290       -15.8177
  18   2.0000      -0.573423       -15.6036
  19   2.0000      -0.559990       -15.2381
  20   2.0000      -0.499930       -13.6038
  21   2.0000      -0.496969       -13.5232
  22   2.0000      -0.483418       -13.1545
  23   2.0000      -0.389519       -10.5993
  24   0.0000       0.007299         0.1986
  25   0.0000       0.039348         1.0707
  26   0.0000       0.044987         1.2241
  27   0.0000       0.069662         1.8956
  28   0.0000       0.077689         2.1140

MULLIKEN ATOMIC CHARGES
-----------------------
   0 O :   -0.784999
   1 N :   -0.301033
   2 N :   -0.278450
   3 C :    1.602019
   4 C :    1.376700
   5 C :   -0.732774
   6 C :   -0.782345
   7 H :    0.262100
   8 H :   -0.361217
Sum of atomic charges:    0.0000000

LOEWDIN ATOMIC CHARGES
----------------------
   0 O :    0.220384
   1 N :    0.100245
   2 N :    0.107423
   3 C :   -0.249090
   4 C :    0.064776
   5 C :   -0.142489
   6 C :   -0.125637
   7 H :   -0.011765
   8 H :    0.036153

  Mayer bond orders larger than 0.100000
B(  0-O ,  3-C ) :   0.2359 B(  0-O ,  4-C ) :   0.3751 B(  0-O ,  6-C ) :   0.1769
B(  0-O ,  7-H ) :   0.9916 B(  1-N ,  3-C ) :  -0.1663 B(  1-N ,  5-C ) :   2.5974
B(  2-N ,  3-C ) :  -0.1646 B(  2-N ,  4-C ) :   0.1135 B(  2-N ,  6-C ) :   2.5969
B(  3-C ,  4-C ) :   1.5804 B(  3-C ,  5-C ) :   0.1056 B(  3-C ,  6-C ) :   0.1541
B(  3-C ,  8-H ) :   0.1546 B(  4-C ,  5-C ) :  -0.2803 B(  4-C ,  6-C ) :  -0.5445
B(  4-C ,  8-H ) :   0.5505

MP2 TOTAL ENERGY:     -337.429225225 Eh
FINAL SINGLE POINT ENERGY      -337.429225225349

DIPOLE MOMENT
-------------
                                X             Y             Z
Electronic contribution:     -1.04390       1.46220      -0.00000
Nuclear contribution   :      2.51598      -3.87093       0.00000
                        -----------------------------------------
Total Dipole Moment    :      1.47208      -2.40873       0.00000
                        -----------------------------------------
Magnitude (a.u.)       :      2.82294
Magnitude (Debye)      :      7.17534

Rotational constants in cm-1:     0.120950     0.077697     0.047307
Rotational constants in MHz :  3625.988866  2329.299603  1418.237667

                             ****ORCA TERMINATED NORMALLY****
TOTAL RUN TIME: 0 days 0 hours 0 minutes 53 seconds 439 msec
