                         Program Version 5.0.3 -  RELEASE  -
|  1> !ri-mp2 aug-cc-pvdz aug-cc-pvdz/c tightscf
|  2> %pal nprocs 16 end
|  3>
|  4> * xyz 0 1
|  5> S     -0.588948   -0.854750   -0.597619
|  6> S      0.588932    0.854989   -0.597326
|  7> O     -2.696710    0.623868    0.346427
|  8> O      2.696697   -0.624032    0.346082
|  9> C     -1.855232   -0.435708    0.688286
| 10> C      1.855275    0.435453    0.688361
| 11> H     -1.332873   -0.262522    1.630730
| 12> H     -2.466770   -1.333392    0.769900
| 13> H      1.332960    0.261952    1.630771
| 14> H      2.466846    1.333087    0.770258
| 15> H     -2.164171    1.423911    0.259063
| 16> H      2.164119   -1.424019    0.258442
| 17> *
| 18>
| 19>                          ****END OF INPUT****

CARTESIAN COORDINATES (ANGSTROEM)
---------------------------------
  S     -0.588948   -0.854750   -0.597619
  S      0.588932    0.854989   -0.597326
  O     -2.696710    0.623868    0.346427
  O      2.696697   -0.624032    0.346082
  C     -1.855232   -0.435708    0.688286
  C      1.855275    0.435453    0.688361
  H     -1.332873   -0.262522    1.630730
  H     -2.466770   -1.333392    0.769900
  H      1.332960    0.261952    1.630771
  H      2.466846    1.333087    0.770258
  H     -2.164171    1.423911    0.259063
  H      2.164119   -1.424019    0.258442

 Total Charge           Charge          ....    0
 Multiplicity           Mult            ....    1
 Number of Electrons    NEL             ....   66
 Basis Dimension        Dim             ....  200

ORBITAL ENERGIES
----------------

  NO   OCC          E(Eh)            E(eV)
   0   2.0000     -91.990120     -2503.1784
   1   2.0000     -91.990118     -2503.1784
   2   2.0000     -20.593786      -560.3854
   3   2.0000     -20.593785      -560.3854
   4   2.0000     -11.338054      -308.5241
   5   2.0000     -11.338052      -308.5241
   6   2.0000      -8.990632      -244.6475
   7   2.0000      -8.990480      -244.6434
   8   2.0000      -6.672456      -181.5667
   9   2.0000      -6.672154      -181.5585
  10   2.0000      -6.670495      -181.5134
  11   2.0000      -6.670444      -181.5120
  12   2.0000      -6.668557      -181.4607
  13   2.0000      -6.668556      -181.4606
  14   2.0000      -1.396626       -38.0041
  15   2.0000      -1.396050       -37.9885
  16   2.0000      -1.080380       -29.3986
  17   2.0000      -0.994367       -27.0581
  18   2.0000      -0.911647       -24.8072
  19   2.0000      -0.814591       -22.1662
  20   2.0000      -0.722249       -19.6534
  21   2.0000      -0.713277       -19.4092
  22   2.0000      -0.651298       -17.7227
  23   2.0000      -0.641265       -17.4497
  24   2.0000      -0.616788       -16.7837
  25   2.0000      -0.607961       -16.5435
  26   2.0000      -0.537500       -14.6261
  27   2.0000      -0.520408       -14.1610
  28   2.0000      -0.485373       -13.2077
  29   2.0000      -0.457648       -12.4532
  30   2.0000      -0.446604       -12.1527
  31   2.0000      -0.374212       -10.1828
  32   2.0000      -0.372799       -10.1444
  33   0.0000       0.032369         0.8808
  34   0.0000       0.040432         1.1002
  35   0.0000       0.051501         1.4014
  36   0.0000       0.052735         1.4350
  37   0.0000       0.059753         1.6259

MULLIKEN ATOMIC CHARGES
-----------------------
   0 S :    0.085547
   1 S :    0.085551
   2 O :   -0.625293
   3 O :   -0.625296
   4 C :    0.591492
   5 C :    0.591500
   6 H :   -0.106990
   7 H :   -0.132682
   8 H :   -0.106991
   9 H :   -0.132685
  10 H :    0.187921
  11 H :    0.187926
Sum of atomic charges:   -0.0000000

LOEWDIN ATOMIC CHARGES
----------------------
   0 S :    0.466660
   1 S :    0.466657
   2 O :    0.074861
   3 O :    0.074861
   4 C :   -0.359027
   5 C :   -0.359026
   6 H :   -0.052073
   7 H :   -0.047475
   8 H :   -0.052074
   9 H :   -0.047476
  10 H :   -0.082942
  11 H :   -0.082947

  Mayer bond orders larger than 0.100000
B(  0-S ,  1-S ) :   1.1211 B(  0-S ,  4-C ) :   1.0354 B(  1-S ,  5-C ) :   1.0354
B(  2-O ,  4-C ) :   0.6806 B(  2-O , 10-H ) :   1.0009 B(  3-O ,  5-C ) :   0.6806
B(  3-O , 11-H ) :   1.0009 B(  4-C ,  6-H ) :   0.9727 B(  4-C ,  7-H ) :   0.9975
B(  5-C ,  8-H ) :   0.9727 B(  5-C ,  9-H ) :   0.9975

MP2 TOTAL ENERGY:    -1025.022138779 Eh
FINAL SINGLE POINT ENERGY     -1025.022138778947

DIPOLE MOMENT
-------------
                                X             Y             Z
Electronic contribution:     -0.00010       0.00082      -4.30466
Nuclear contribution   :      0.00011      -0.00098       5.27189
                        -----------------------------------------
Total Dipole Moment    :      0.00001      -0.00015       0.96722
                        -----------------------------------------
Magnitude (a.u.)       :      0.96722
Magnitude (Debye)      :      2.45849

Rotational constants in cm-1:     0.145008     0.041370     0.038789
Rotational constants in MHz :  4347.222576  1240.234015  1162.876185

                             ****ORCA TERMINATED NORMALLY****
TOTAL RUN TIME: 0 days 0 hours 1 minutes 1 seconds 875 msec
