                         Program Version 5.0.3 -  RELEASE  -
|  1> !ri-mp2 aug-cc-pvdz aug-cc-pvdz/c tightscf
|  2> %pal nprocs 16 end
|  3> %maxcore 3800
|  4>
|  5> * xyz 0 1
|  6> C      2.331625    0.140596   -0.002766
|  7> C      3.562671   -0.742228    0.006967
|  8> C     -4.097798   -0.269419   -0.001780
|  9> C      0.990909   -0.574254   -0.007194
| 10> C     -2.775391    0.495292    0.007306
| 11> C     -0.224164    0.345462    0.004932
| 12> C     -1.548821   -0.417709   -0.003855
| 13> O      2.419096    1.348033   -0.005792
| 14> H      3.571661   -1.365777    0.903608
| 15> H      3.553384   -1.419544   -0.849424
| 16> H      4.460036   -0.129875   -0.019314
| 17> H     -4.183730   -0.919977    0.871115
| 18> H     -4.951146    0.409944    0.006808
| 19> H     -4.184176   -0.898252   -0.890409
| 20> H      0.972256   -1.232580   -0.883480
| 21> H      0.975011   -1.253830    0.852590
| 22> H     -2.733388    1.141611    0.888893
| 23> H     -2.733543    1.162627   -0.858464
| 24> H     -0.175148    1.014310   -0.856999
| 25> H     -0.174496    0.992679    0.883335
| 26> H     -1.591964   -1.065480   -0.886410
| 27> H     -1.591700   -1.086565    0.862830
| 28> *
| 29>
| 30>                          ****END OF INPUT****

CARTESIAN COORDINATES (ANGSTROEM)
---------------------------------
  C      2.331625    0.140596   -0.002766
  C      3.562671   -0.742228    0.006967
  C     -4.097798   -0.269419   -0.001780
  C      0.990909   -0.574254   -0.007194
  C     -2.775391    0.495292    0.007306
  C     -0.224164    0.345462    0.004932
  C     -1.548821   -0.417709   -0.003855
  O      2.419096    1.348033   -0.005792
  H      3.571661   -1.365777    0.903608
  H      3.553384   -1.419544   -0.849424
  H      4.460036   -0.129875   -0.019314
  H     -4.183730   -0.919977    0.871115
  H     -4.951146    0.409944    0.006808
  H     -4.184176   -0.898252   -0.890409
  H      0.972256   -1.232580   -0.883480
  H      0.975011   -1.253830    0.852590
  H     -2.733388    1.141611    0.888893
  H     -2.733543    1.162627   -0.858464
  H     -0.175148    1.014310   -0.856999
  H     -0.174496    0.992679    0.883335
  H     -1.591964   -1.065480   -0.886410
  H     -1.591700   -1.086565    0.862830

 Total Charge           Charge          ....    0
 Multiplicity           Mult            ....    1
 Number of Electrons    NEL             ....   64
 Basis Dimension        Dim             ....  310

ORBITAL ENERGIES
----------------

  NO   OCC          E(Eh)            E(eV)
   0   2.0000     -20.553442      -559.2876
   1   2.0000     -11.335718      -308.4606
   2   2.0000     -11.241616      -305.8999
   3   2.0000     -11.239746      -305.8490
   4   2.0000     -11.224781      -305.4418
   5   2.0000     -11.224192      -305.4258
   6   2.0000     -11.223182      -305.3983
   7   2.0000     -11.218266      -305.2645
   8   2.0000      -1.390250       -37.8306
   9   2.0000      -1.092263       -29.7220
  10   2.0000      -1.046166       -28.4676
  11   2.0000      -1.003955       -27.3190
  12   2.0000      -0.937002       -25.4971
  13   2.0000      -0.842727       -22.9318
  14   2.0000      -0.792461       -21.5640
  15   2.0000      -0.733192       -19.9512
  16   2.0000      -0.657791       -17.8994
  17   2.0000      -0.651158       -17.7189
  18   2.0000      -0.624305       -16.9882
  19   2.0000      -0.621052       -16.8997
  20   2.0000      -0.582609       -15.8536
  21   2.0000      -0.581786       -15.8312
  22   2.0000      -0.558796       -15.2056
  23   2.0000      -0.545472       -14.8430
  24   2.0000      -0.536581       -14.6011
  25   2.0000      -0.503364       -13.6972
  26   2.0000      -0.491250       -13.3676
  27   2.0000      -0.479075       -13.0363
  28   2.0000      -0.468666       -12.7531
  29   2.0000      -0.463312       -12.6074
  30   2.0000      -0.462626       -12.5887
  31   2.0000      -0.405346       -11.0300
  32   0.0000       0.032058         0.8723
  33   0.0000       0.037842         1.0297
  34   0.0000       0.043921         1.1951
  35   0.0000       0.047279         1.2865
  36   0.0000       0.055231         1.5029

MULLIKEN ATOMIC CHARGES
-----------------------
   0 C :    0.200485
   1 C :    0.481067
   2 C :    0.558935
   3 C :    0.098002
   4 C :    0.444766
   5 C :    0.338905
   6 C :    0.284517
   7 O :   -0.811705
   8 H :    0.037843
   9 H :    0.031415
  10 H :   -0.082413
  11 H :   -0.094769
  12 H :   -0.074750
  13 H :   -0.095254
  14 H :   -0.053515
  15 H :   -0.058903
  16 H :   -0.182651
  17 H :   -0.182239
  18 H :   -0.192278
  19 H :   -0.195272
  20 H :   -0.225069
  21 H :   -0.227116
Sum of atomic charges:    0.0000000

LOEWDIN ATOMIC CHARGES
----------------------
   0 C :   -0.301785
   1 C :    0.195427
   2 C :    0.130657
   3 C :    0.010388
   4 C :   -0.071021
   5 C :   -0.026391
   6 C :   -0.041631
   7 O :    0.046787
   8 H :   -0.008942
   9 H :   -0.009641
  10 H :   -0.009667
  11 H :   -0.020506
  12 H :   -0.021778
  13 H :   -0.020494
  14 H :    0.025357
  15 H :    0.025210
  16 H :    0.012073
  17 H :    0.012089
  18 H :    0.021400
  19 H :    0.021633
  20 H :    0.015428
  21 H :    0.015407

  Mayer bond orders larger than 0.100000
B(  0-C ,  1-C ) :   1.0373 B(  0-C ,  3-C ) :   1.1258 B(  0-C ,  7-O ) :   1.3849
B(  0-C , 10-H ) :   0.1399 B(  1-C ,  8-H ) :   0.9199 B(  1-C ,  9-H ) :   0.9242
B(  1-C , 10-H ) :   0.8298 B(  2-C ,  4-C ) :   1.1745 B(  2-C , 11-H ) :   0.9085
B(  2-C , 12-H ) :   0.9172 B(  2-C , 13-H ) :   0.9082 B(  3-C ,  5-C ) :   1.2948
B(  3-C ,  6-C ) :  -0.1191 B(  3-C , 14-H ) :   0.8867 B(  3-C , 15-H ) :   0.8739
B(  4-C ,  5-C ) :  -0.1117 B(  4-C ,  6-C ) :   1.2455 B(  4-C , 16-H ) :   0.7239
B(  4-C , 17-H ) :   0.7249 B(  5-C ,  6-C ) :   1.3168 B(  5-C , 18-H ) :   0.8138
B(  5-C , 19-H ) :   0.8158 B(  6-C , 20-H ) :   0.7457 B(  6-C , 21-H ) :   0.7415

MP2 TOTAL ENERGY:     -349.365617645 Eh
FINAL SINGLE POINT ENERGY      -349.365617644609

DIPOLE MOMENT
-------------
                                X             Y             Z
Electronic contribution:      9.05187       3.65946      -0.02151
Nuclear contribution   :     -9.20918      -4.87306       0.02588
                        -----------------------------------------
Total Dipole Moment    :     -0.15731      -1.21360       0.00437
                        -----------------------------------------
Magnitude (a.u.)       :      1.22376
Magnitude (Debye)      :      3.11055

Rotational constants in cm-1:     0.233893     0.021521     0.020143
Rotational constants in MHz :  7011.928533   645.191676   603.882526

                             ****ORCA TERMINATED NORMALLY****
TOTAL RUN TIME: 0 days 0 hours 1 minutes 22 seconds 317 msec
