                         Program Version 5.0.3 -  RELEASE  -
|  1> !ri-mp2 aug-cc-pvdz aug-cc-pvdz/c tightscf
|  2> %pal nprocs 16 end
|  3> %maxcore 3800
|  4>
|  5> * xyz 0 1
|  6> C     0.000000     3.833474   -0.352624
|  7> C     0.000000    -3.833474   -0.352624
|  8> C     0.000000     2.560916    0.492939
|  9> C     0.000000    -2.560916    0.492939
| 10> C     0.000000     1.279918   -0.342345
| 11> C     0.000000    -1.279918   -0.342345
| 12> C     0.000000     0.000000    0.494121
| 13> H     0.000000     4.728440    0.271238
| 14> H    -0.880595     3.878602   -0.996848
| 15> H     0.880595     3.878602   -0.996848
| 16> H    -0.880595    -3.878602   -0.996848
| 17> H     0.880595    -3.878602   -0.996848
| 18> H     0.000000    -4.728440    0.271238
| 19> H    -0.873897     2.560727    1.151361
| 20> H     0.873897     2.560727    1.151361
| 21> H     0.873897    -2.560727    1.151361
| 22> H    -0.873897    -2.560727    1.151361
| 23> H    -0.874400     1.280845   -1.001938
| 24> H     0.874400     1.280845   -1.001938
| 25> H     0.874400    -1.280845   -1.001938
| 26> H    -0.874400    -1.280845   -1.001938
| 27> H     0.874450     0.000000    1.153429
| 28> H    -0.874450     0.000000    1.153429
| 29> *
| 30>
| 31>                          ****END OF INPUT****

CARTESIAN COORDINATES (ANGSTROEM)
---------------------------------
  C      0.000000    3.833474   -0.352624
  C      0.000000   -3.833474   -0.352624
  C      0.000000    2.560916    0.492939
  C      0.000000   -2.560916    0.492939
  C      0.000000    1.279918   -0.342345
  C      0.000000   -1.279918   -0.342345
  C      0.000000    0.000000    0.494121
  H      0.000000    4.728440    0.271238
  H     -0.880595    3.878602   -0.996848
  H      0.880595    3.878602   -0.996848
  H     -0.880595   -3.878602   -0.996848
  H      0.880595   -3.878602   -0.996848
  H      0.000000   -4.728440    0.271238
  H     -0.873897    2.560727    1.151361
  H      0.873897    2.560727    1.151361
  H      0.873897   -2.560727    1.151361
  H     -0.873897   -2.560727    1.151361
  H     -0.874400    1.280845   -1.001938
  H      0.874400    1.280845   -1.001938
  H      0.874400   -1.280845   -1.001938
  H     -0.874400   -1.280845   -1.001938
  H      0.874450    0.000000    1.153429
  H     -0.874450    0.000000    1.153429

 Total Charge           Charge          ....    0
 Multiplicity           Mult            ....    1
 Number of Electrons    NEL             ....   58
 Basis Dimension        Dim             ....  305

ORBITAL ENERGIES
----------------

  NO   OCC          E(Eh)            E(eV)
   0   2.0000     -11.219846      -305.3075
   1   2.0000     -11.219845      -305.3075
   2   2.0000     -11.217793      -305.2517
   3   2.0000     -11.217362      -305.2399
   4   2.0000     -11.216943      -305.2285
   5   2.0000     -11.215266      -305.1829
   6   2.0000     -11.215265      -305.1829
   7   2.0000      -1.088628       -29.6231
   8   2.0000      -1.051219       -28.6051
   9   2.0000      -0.991699       -26.9855
  10   2.0000      -0.916260       -24.9327
  11   2.0000      -0.837523       -22.7902
  12   2.0000      -0.787631       -21.4325
  13   2.0000      -0.784606       -21.3502
  14   2.0000      -0.652350       -17.7513
  15   2.0000      -0.620070       -16.8730
  16   2.0000      -0.590470       -16.0675
  17   2.0000      -0.581205       -15.8154
  18   2.0000      -0.572991       -15.5919
  19   2.0000      -0.551618       -15.0103
  20   2.0000      -0.522258       -14.2113
  21   2.0000      -0.512639       -13.9496
  22   2.0000      -0.501758       -13.6535
  23   2.0000      -0.481643       -13.1062
  24   2.0000      -0.471697       -12.8355
  25   2.0000      -0.460251       -12.5241
  26   2.0000      -0.455705       -12.4004
  27   2.0000      -0.455274       -12.3886
  28   2.0000      -0.433191       -11.7877
  29   0.0000       0.038401         1.0450
  30   0.0000       0.039118         1.0645
  31   0.0000       0.044451         1.2096
  32   0.0000       0.046174         1.2564
  33   0.0000       0.055230         1.5029

MULLIKEN ATOMIC CHARGES
-----------------------
   0 C :    0.562567
   1 C :    0.562567
   2 C :    0.436005
   3 C :    0.436005
   4 C :    0.215260
   5 C :    0.215260
   6 C :    0.179399
   7 H :   -0.078403
   8 H :   -0.094709
   9 H :   -0.094709
  10 H :   -0.094709
  11 H :   -0.094709
  12 H :   -0.078403
  13 H :   -0.187095
  14 H :   -0.187095
  15 H :   -0.187095
  16 H :   -0.187095
  17 H :   -0.219180
  18 H :   -0.219180
  19 H :   -0.219180
  20 H :   -0.219180
  21 H :   -0.223160
  22 H :   -0.223160
Sum of atomic charges:   -0.0000000

LOEWDIN ATOMIC CHARGES
----------------------
   0 C :    0.129646
   1 C :    0.129646
   2 C :   -0.073488
   3 C :   -0.073488
   4 C :   -0.042851
   5 C :   -0.042851
   6 C :   -0.036928
   7 H :   -0.022625
   8 H :   -0.020613
   9 H :   -0.020613
  10 H :   -0.020613
  11 H :   -0.020613
  12 H :   -0.022625
  13 H :    0.010492
  14 H :    0.010492
  15 H :    0.010492
  16 H :    0.010492
  17 H :    0.015873
  18 H :    0.015873
  19 H :    0.015873
  20 H :    0.015873
  21 H :    0.016279
  22 H :    0.016279

  Mayer bond orders larger than 0.100000
B(  0-C ,  2-C ) :   1.1765 B(  0-C ,  7-H ) :   0.9128 B(  0-C ,  8-H ) :   0.9074
B(  0-C ,  9-H ) :   0.9074 B(  1-C ,  3-C ) :   1.1765 B(  1-C , 10-H ) :   0.9074
B(  1-C , 11-H ) :   0.9074 B(  1-C , 12-H ) :   0.9128 B(  2-C ,  4-C ) :   1.2323
B(  2-C ,  6-C ) :  -0.1138 B(  2-C , 13-H ) :   0.7243 B(  2-C , 14-H ) :   0.7243
B(  3-C ,  5-C ) :   1.2323 B(  3-C ,  6-C ) :  -0.1138 B(  3-C , 15-H ) :   0.7243
B(  3-C , 16-H ) :   0.7243 B(  4-C ,  6-C ) :   1.3752 B(  4-C , 17-H ) :   0.7490
B(  4-C , 18-H ) :   0.7490 B(  5-C ,  6-C ) :   1.3752 B(  5-C , 19-H ) :   0.7490
B(  5-C , 20-H ) :   0.7490 B(  6-C , 21-H ) :   0.7852 B(  6-C , 22-H ) :   0.7852

MP2 TOTAL ENERGY:     -275.488374771 Eh
FINAL SINGLE POINT ENERGY      -275.488374771486

DIPOLE MOMENT
-------------
                                X             Y             Z
Electronic contribution:     -0.00000       0.00000       0.62122
Nuclear contribution   :      0.00000       0.00000      -0.58741
                        -----------------------------------------
Total Dipole Moment    :     -0.00000       0.00000       0.03381
                        -----------------------------------------
Magnitude (a.u.)       :      0.03381
Magnitude (Debye)      :      0.08594

Rotational constants in cm-1:     0.404951     0.024099     0.023430
Rotational constants in MHz : 12140.115090   722.460539   702.409628

                             ****ORCA TERMINATED NORMALLY****
TOTAL RUN TIME: 0 days 0 hours 1 minutes 36 seconds 145 msec
