                         Program Version 5.0.3 -  RELEASE  -
|  1> !ri-mp2 aug-cc-pvdz aug-cc-pvdz/c tightscf
|  2> %pal nprocs 16 end
|  3>
|  4> * xyz 0 1
|  5> O      1.180945   -0.108391   -0.000024
|  6> C     -0.123542   -0.002551    0.000003
|  7> C     -1.320286    0.013531    0.000025
|  8> H      1.594854    0.763873   -0.000012
|  9> H     -2.379443    0.037377    0.000043
| 10> *
| 11>
| 12>                          ****END OF INPUT****

CARTESIAN COORDINATES (ANGSTROEM)
---------------------------------
  O      1.180945   -0.108391   -0.000024
  C     -0.123542   -0.002551    0.000003
  C     -1.320286    0.013531    0.000025
  H      1.594854    0.763873   -0.000012
  H     -2.379443    0.037377    0.000043

 Total Charge           Charge          ....    0
 Multiplicity           Mult            ....    1
 Number of Electrons    NEL             ....   22
 Basis Dimension        Dim             ....   87

ORBITAL ENERGIES
----------------

  NO   OCC          E(Eh)            E(eV)
   0   2.0000     -20.648379      -561.8710
   1   2.0000     -11.307787      -307.7005
   2   2.0000     -11.231676      -305.6294
   3   2.0000      -1.456229       -39.6260
   4   2.0000      -1.027834       -27.9688
   5   2.0000      -0.826961       -22.5028
   6   2.0000      -0.707869       -19.2621
   7   2.0000      -0.666575       -18.1384
   8   2.0000      -0.623581       -16.9685
   9   2.0000      -0.396971       -10.8021
  10   2.0000      -0.379098       -10.3158
  11   0.0000       0.028537         0.7765
  12   0.0000       0.043634         1.1873
  13   0.0000       0.098200         2.6722
  14   0.0000       0.117820         3.2060
  15   0.0000       0.120522         3.2796

MULLIKEN ATOMIC CHARGES
-----------------------
   0 O :   -0.546334
   1 C :   -0.211942
   2 C :    0.912419
   3 H :    0.185573
   4 H :   -0.339715
Sum of atomic charges:    0.0000000

LOEWDIN ATOMIC CHARGES
----------------------
   0 O :    0.178919
   1 C :   -0.219454
   2 C :    0.174583
   3 H :   -0.017709
   4 H :   -0.116340

  Mayer bond orders larger than 0.100000
B(  0-O ,  1-C ) :   1.0395 B(  0-O ,  2-C ) :  -0.1697 B(  0-O ,  3-H ) :   0.9785
B(  1-C ,  2-C ) :   2.9051 B(  1-C ,  4-H ) :   0.2729 B(  2-C ,  4-H ) :   0.3342

MP2 TOTAL ENERGY:     -152.145719617 Eh
FINAL SINGLE POINT ENERGY      -152.145719616809

DIPOLE MOMENT
-------------
                                X             Y             Z
Electronic contribution:      0.96959      -0.16683      -0.00002
Nuclear contribution   :     -0.75286       0.78586       0.00003
                        -----------------------------------------
Total Dipole Moment    :      0.21672       0.61903       0.00001
                        -----------------------------------------
Magnitude (a.u.)       :      0.65587
Magnitude (Debye)      :      1.66709

Rotational constants in cm-1:    22.756188     0.325977     0.321373
Rotational constants in MHz : 682213.350276  9772.541732  9634.529421

                             ****ORCA TERMINATED NORMALLY****
TOTAL RUN TIME: 0 days 0 hours 0 minutes 55 seconds 838 msec
