                         Program Version 5.0.3 -  RELEASE  -
|  1> !ri-mp2 aug-cc-pvdz aug-cc-pvdz/c tightscf
|  2> %pal nprocs 16 end
|  3>
|  4> * xyz 0 1
|  5> C     -0.521080    0.491811    0.031617
|  6> O     -1.757960   -0.126244   -0.064518
|  7> O      0.469147   -0.535551   -0.126038
|  8> O      1.752362    0.137407   -0.041874
|  9> H     -1.897823   -0.685361    0.707197
| 10> H      2.117970   -0.266792    0.756685
| 11> H     -0.442357    1.205959   -0.787605
| 12> H     -0.359703    0.990434    0.993457
| 13> *
| 14>
| 15>                          ****END OF INPUT****

CARTESIAN COORDINATES (ANGSTROEM)
---------------------------------
  C     -0.521080    0.491811    0.031617
  O     -1.757960   -0.126244   -0.064518
  O      0.469147   -0.535551   -0.126038
  O      1.752362    0.137407   -0.041874
  H     -1.897823   -0.685361    0.707197
  H      2.117970   -0.266792    0.756685
  H     -0.442357    1.205959   -0.787605
  H     -0.359703    0.990434    0.993457

 Total Charge           Charge          ....    0
 Multiplicity           Mult            ....    1
 Number of Electrons    NEL             ....   34
 Basis Dimension        Dim             ....  128

ORBITAL ENERGIES
----------------

  NO   OCC          E(Eh)            E(eV)
   0   2.0000     -20.642373      -561.7075
   1   2.0000     -20.639704      -561.6349
   2   2.0000     -20.594891      -560.4155
   3   2.0000     -11.351688      -308.8951
   4   2.0000      -1.490503       -40.5586
   5   2.0000      -1.398958       -38.0676
   6   2.0000      -1.224690       -33.3255
   7   2.0000      -0.916284       -24.9334
   8   2.0000      -0.744220       -20.2513
   9   2.0000      -0.729777       -19.8582
  10   2.0000      -0.683607       -18.6019
  11   2.0000      -0.635099       -17.2819
  12   2.0000      -0.610718       -16.6185
  13   2.0000      -0.541757       -14.7420
  14   2.0000      -0.512866       -13.9558
  15   2.0000      -0.496850       -13.5200
  16   2.0000      -0.456230       -12.4146
  17   0.0000       0.031100         0.8463
  18   0.0000       0.046671         1.2700
  19   0.0000       0.054514         1.4834
  20   0.0000       0.060966         1.6590
  21   0.0000       0.113545         3.0897

MULLIKEN ATOMIC CHARGES
-----------------------
   0 C :    1.399381
   1 O :   -0.604527
   2 O :   -0.561969
   3 O :   -0.275592
   4 H :    0.137152
   5 H :    0.218035
   6 H :   -0.168606
   7 H :   -0.143875
Sum of atomic charges:    0.0000000

LOEWDIN ATOMIC CHARGES
----------------------
   0 C :   -0.081734
   1 O :    0.129861
   2 O :   -0.015918
   3 O :    0.108660
   4 H :   -0.051416
   5 H :   -0.077957
   6 H :   -0.004417
   7 H :   -0.007080

  Mayer bond orders larger than 0.100000
B(  0-C ,  1-O ) :   0.6316 B(  0-C ,  2-O ) :   0.5463 B(  0-C ,  3-O ) :  -0.1246
B(  0-C ,  6-H ) :   1.0092 B(  0-C ,  7-H ) :   0.9648 B(  1-O ,  4-H ) :   1.0464
B(  2-O ,  3-O ) :   0.8453 B(  3-O ,  5-H ) :   0.9796

MP2 TOTAL ENERGY:     -265.461608174 Eh
FINAL SINGLE POINT ENERGY      -265.461608174020

DIPOLE MOMENT
-------------
                                X             Y             Z
Electronic contribution:      0.68193      -1.11874      -0.50854
Nuclear contribution   :     -0.57294       1.23239       1.66124
                        -----------------------------------------
Total Dipole Moment    :      0.10899       0.11365       1.15270
                        -----------------------------------------
Magnitude (a.u.)       :      1.16341
Magnitude (Debye)      :      2.95714

Rotational constants in cm-1:     1.200164     0.144325     0.134963
Rotational constants in MHz : 35980.008682  4326.768184  4046.096188

                             ****ORCA TERMINATED NORMALLY****
TOTAL RUN TIME: 0 days 0 hours 0 minutes 50 seconds 825 msec
