                         Program Version 5.0.3 -  RELEASE  -
|  1> !ri-mp2 aug-cc-pvdz aug-cc-pvdz/c tightscf
|  2> %pal nprocs 16 end
|  3> %maxcore 3800
|  4>
|  5> * xyz 0 1
|  6> C     0.000000     1.402717    0.011190
|  7> C     1.214788     0.701358   -0.011190
|  8> C    -1.214788     0.701358   -0.011190
|  9> C     1.214788    -0.701358    0.011190
| 10> C    -1.214788    -0.701358    0.011190
| 11> C     0.000000    -1.402717   -0.011190
| 12> C     0.000000     2.914685    0.082337
| 13> C     2.524191     1.457342   -0.082337
| 14> C    -2.524191     1.457342   -0.082337
| 15> C     2.524191    -1.457342    0.082337
| 16> C    -2.524191    -1.457342    0.082337
| 17> C     0.000000    -2.914685   -0.082337
| 18> H    -0.873575     3.289820    0.610244
| 19> H     0.873575     3.289820    0.610244
| 20> H     0.000000     3.376329   -0.910531
| 21> H     2.923987     1.688164    0.910531
| 22> H     3.285855     0.888372   -0.610244
| 23> H     2.412280     2.401448   -0.610244
| 24> H    -3.285855     0.888372   -0.610244
| 25> H    -2.923987     1.688164    0.910531
| 26> H    -2.412280     2.401448   -0.610244
| 27> H     2.412280    -2.401448    0.610244
| 28> H     2.923987    -1.688164   -0.910531
| 29> H     3.285855    -0.888372    0.610244
| 30> H    -2.923987    -1.688164   -0.910531
| 31> H    -2.412280    -2.401448    0.610244
| 32> H    -3.285855    -0.888372    0.610244
| 33> H    -0.873575    -3.289820   -0.610244
| 34> H     0.873575    -3.289820   -0.610244
| 35> H     0.000000    -3.376329    0.910531
| 36> *
| 37>
| 38>                          ****END OF INPUT****

CARTESIAN COORDINATES (ANGSTROEM)
---------------------------------
  C      0.000000    1.402717    0.011190
  C      1.214788    0.701358   -0.011190
  C     -1.214788    0.701358   -0.011190
  C      1.214788   -0.701358    0.011190
  C     -1.214788   -0.701358    0.011190
  C      0.000000   -1.402717   -0.011190
  C      0.000000    2.914685    0.082337
  C      2.524191    1.457342   -0.082337
  C     -2.524191    1.457342   -0.082337
  C      2.524191   -1.457342    0.082337
  C     -2.524191   -1.457342    0.082337
  C      0.000000   -2.914685   -0.082337
  H     -0.873575    3.289820    0.610244
  H      0.873575    3.289820    0.610244
  H      0.000000    3.376329   -0.910531
  H      2.923987    1.688164    0.910531
  H      3.285855    0.888372   -0.610244
  H      2.412280    2.401448   -0.610244
  H     -3.285855    0.888372   -0.610244
  H     -2.923987    1.688164    0.910531
  H     -2.412280    2.401448   -0.610244
  H      2.412280   -2.401448    0.610244
  H      2.923987   -1.688164   -0.910531
  H      3.285855   -0.888372    0.610244
  H     -2.923987   -1.688164   -0.910531
  H     -2.412280   -2.401448    0.610244
  H     -3.285855   -0.888372    0.610244
  H     -0.873575   -3.289820   -0.610244
  H      0.873575   -3.289820   -0.610244
  H      0.000000   -3.376329    0.910531

 Total Charge           Charge          ....    0
 Multiplicity           Mult            ....    1
 Number of Electrons    NEL             ....   90
 Basis Dimension        Dim             ....  438

ORBITAL ENERGIES
----------------

  NO   OCC          E(Eh)            E(eV)
   0   2.0000     -11.227242      -305.5088
   1   2.0000     -11.226704      -305.4941
   2   2.0000     -11.226704      -305.4941
   3   2.0000     -11.225530      -305.4622
   4   2.0000     -11.225530      -305.4622
   5   2.0000     -11.224958      -305.4466
   6   2.0000     -11.219407      -305.2956
   7   2.0000     -11.219406      -305.2955
   8   2.0000     -11.219406      -305.2955
   9   2.0000     -11.219400      -305.2954
  10   2.0000     -11.219400      -305.2954
  11   2.0000     -11.219395      -305.2953
  12   2.0000      -1.158542       -31.5255
  13   2.0000      -1.068799       -29.0835
  14   2.0000      -1.068799       -29.0835
  15   2.0000      -0.978769       -26.6337
  16   2.0000      -0.978769       -26.6336
  17   2.0000      -0.945411       -25.7260
  18   2.0000      -0.941129       -25.6094
  19   2.0000      -0.869024       -23.6473
  20   2.0000      -0.869024       -23.6473
  21   2.0000      -0.748184       -20.3591
  22   2.0000      -0.748184       -20.3591
  23   2.0000      -0.680919       -18.5287
  24   2.0000      -0.618582       -16.8325
  25   2.0000      -0.600423       -16.3383
  26   2.0000      -0.572822       -15.5873
  27   2.0000      -0.572822       -15.5873
  28   2.0000      -0.572250       -15.5717
  29   2.0000      -0.572250       -15.5717
  30   2.0000      -0.570599       -15.5268
  31   2.0000      -0.546654       -14.8752
  32   2.0000      -0.546654       -14.8752
  33   2.0000      -0.537085       -14.6148
  34   2.0000      -0.529335       -14.4039
  35   2.0000      -0.529335       -14.4039
  36   2.0000      -0.523327       -14.2404
  37   2.0000      -0.523326       -14.2404
  38   2.0000      -0.515219       -14.0198
  39   2.0000      -0.497171       -13.5287
  40   2.0000      -0.451214       -12.2782
  41   2.0000      -0.451214       -12.2781
  42   2.0000      -0.439630       -11.9629
  43   2.0000      -0.295137        -8.0311
  44   2.0000      -0.295137        -8.0311
  45   0.0000       0.035826         0.9749
  46   0.0000       0.039046         1.0625
  47   0.0000       0.039046         1.0625
  48   0.0000       0.046960         1.2779
  49   0.0000       0.050637         1.3779

MULLIKEN ATOMIC CHARGES
-----------------------
   0 C :   -0.748933
   1 C :   -0.748927
   2 C :   -0.748986
   3 C :   -0.748935
   4 C :   -0.748970
   5 C :   -0.748930
   6 C :    0.421529
   7 C :    0.421526
   8 C :    0.421528
   9 C :    0.421526
  10 C :    0.421528
  11 C :    0.421530
  12 H :    0.035145
  13 H :    0.035145
  14 H :    0.257132
  15 H :    0.257131
  16 H :    0.035142
  17 H :    0.035144
  18 H :    0.035142
  19 H :    0.257131
  20 H :    0.035144
  21 H :    0.035144
  22 H :    0.257131
  23 H :    0.035142
  24 H :    0.257131
  25 H :    0.035144
  26 H :    0.035142
  27 H :    0.035144
  28 H :    0.035145
  29 H :    0.257132
Sum of atomic charges:   -0.0000000

LOEWDIN ATOMIC CHARGES
----------------------
   0 C :   -0.131266
   1 C :   -0.131266
   2 C :   -0.131266
   3 C :   -0.131266
   4 C :   -0.131266
   5 C :   -0.131266
   6 C :    0.170956
   7 C :    0.170956
   8 C :    0.170956
   9 C :    0.170956
  10 C :    0.170956
  11 C :    0.170956
  12 H :   -0.021809
  13 H :   -0.021809
  14 H :    0.003928
  15 H :    0.003928
  16 H :   -0.021809
  17 H :   -0.021809
  18 H :   -0.021809
  19 H :    0.003928
  20 H :   -0.021809
  21 H :   -0.021809
  22 H :    0.003928
  23 H :   -0.021809
  24 H :    0.003928
  25 H :   -0.021809
  26 H :   -0.021809
  27 H :   -0.021809
  28 H :   -0.021809
  29 H :    0.003928

  Mayer bond orders larger than 0.100000
B(  0-C ,  1-C ) :   1.7116 B(  0-C ,  2-C ) :   1.7116 B(  0-C ,  3-C ) :  -0.5907
B(  0-C ,  4-C ) :  -0.5907 B(  0-C ,  5-C ) :   1.0462 B(  0-C ,  6-C ) :   0.7620
B(  0-C ,  7-C ) :  -0.2375 B(  0-C ,  8-C ) :  -0.2375 B(  0-C ,  9-C ) :   0.3077
B(  0-C , 10-C ) :   0.3077 B(  0-C , 12-H ) :  -0.1911 B(  0-C , 13-H ) :  -0.1911
B(  0-C , 14-H ) :   0.1924 B(  0-C , 16-H ) :  -0.2233 B(  0-C , 17-H ) :   0.4650
B(  0-C , 18-H ) :  -0.2233 B(  0-C , 20-H ) :   0.4650 B(  0-C , 23-H ) :   0.1725
B(  0-C , 26-H ) :   0.1725 B(  1-C ,  2-C ) :  -0.5907 B(  1-C ,  3-C ) :   1.7115
B(  1-C ,  4-C ) :   1.0461 B(  1-C ,  5-C ) :  -0.5907 B(  1-C ,  6-C ) :  -0.2375
B(  1-C ,  7-C ) :   0.7620 B(  1-C ,  8-C ) :   0.3076 B(  1-C ,  9-C ) :  -0.2375
B(  1-C , 11-C ) :   0.3077 B(  1-C , 12-H ) :  -0.2233 B(  1-C , 13-H ) :   0.4650
B(  1-C , 15-H ) :   0.1924 B(  1-C , 16-H ) :  -0.1911 B(  1-C , 17-H ) :  -0.1911
B(  1-C , 20-H ) :   0.1725 B(  1-C , 21-H ) :  -0.2233 B(  1-C , 23-H ) :   0.4651
B(  1-C , 28-H ) :   0.1725 B(  2-C ,  3-C ) :   1.0461 B(  2-C ,  4-C ) :   1.7115
B(  2-C ,  5-C ) :  -0.5907 B(  2-C ,  6-C ) :  -0.2375 B(  2-C ,  7-C ) :   0.3076
B(  2-C ,  8-C ) :   0.7620 B(  2-C , 10-C ) :  -0.2375 B(  2-C , 11-C ) :   0.3077
B(  2-C , 12-H ) :   0.4650 B(  2-C , 13-H ) :  -0.2233 B(  2-C , 17-H ) :   0.1725
B(  2-C , 18-H ) :  -0.1911 B(  2-C , 19-H ) :   0.1924 B(  2-C , 20-H ) :  -0.1911
B(  2-C , 25-H ) :  -0.2233 B(  2-C , 26-H ) :   0.4651 B(  2-C , 27-H ) :   0.1725
B(  3-C ,  4-C ) :  -0.5907 B(  3-C ,  5-C ) :   1.7116 B(  3-C ,  6-C ) :   0.3077
B(  3-C ,  7-C ) :  -0.2375 B(  3-C ,  9-C ) :   0.7620 B(  3-C , 10-C ) :   0.3076
B(  3-C , 11-C ) :  -0.2375 B(  3-C , 13-H ) :   0.1725 B(  3-C , 16-H ) :   0.4651
B(  3-C , 17-H ) :  -0.2233 B(  3-C , 21-H ) :  -0.1911 B(  3-C , 22-H ) :   0.1924
B(  3-C , 23-H ) :  -0.1911 B(  3-C , 25-H ) :   0.1725 B(  3-C , 27-H ) :  -0.2233
B(  3-C , 28-H ) :   0.4650 B(  4-C ,  5-C ) :   1.7116 B(  4-C ,  6-C ) :   0.3077
B(  4-C ,  8-C ) :  -0.2375 B(  4-C ,  9-C ) :   0.3077 B(  4-C , 10-C ) :   0.7620
B(  4-C , 11-C ) :  -0.2375 B(  4-C , 12-H ) :   0.1725 B(  4-C , 18-H ) :   0.4651
B(  4-C , 20-H ) :  -0.2233 B(  4-C , 21-H ) :   0.1725 B(  4-C , 24-H ) :   0.1924
B(  4-C , 25-H ) :  -0.1911 B(  4-C , 26-H ) :  -0.1911 B(  4-C , 27-H ) :   0.4650
B(  4-C , 28-H ) :  -0.2233 B(  5-C ,  7-C ) :   0.3077 B(  5-C ,  8-C ) :   0.3077
B(  5-C ,  9-C ) :  -0.2375 B(  5-C , 10-C ) :  -0.2375 B(  5-C , 11-C ) :   0.7620
B(  5-C , 16-H ) :   0.1725 B(  5-C , 18-H ) :   0.1725 B(  5-C , 21-H ) :   0.4650
B(  5-C , 23-H ) :  -0.2233 B(  5-C , 25-H ) :   0.4650 B(  5-C , 26-H ) :  -0.2233
B(  5-C , 27-H ) :  -0.1911 B(  5-C , 28-H ) :  -0.1911 B(  5-C , 29-H ) :   0.1924
B(  6-C , 12-H ) :   0.6284 B(  6-C , 13-H ) :   0.6284 B(  6-C , 14-H ) :   0.8380
B(  7-C , 15-H ) :   0.8380 B(  7-C , 16-H ) :   0.6284 B(  7-C , 17-H ) :   0.6284
B(  8-C , 18-H ) :   0.6284 B(  8-C , 19-H ) :   0.8380 B(  8-C , 20-H ) :   0.6284
B(  9-C , 21-H ) :   0.6284 B(  9-C , 22-H ) :   0.8380 B(  9-C , 23-H ) :   0.6284
B( 10-C , 24-H ) :   0.8380 B( 10-C , 25-H ) :   0.6284 B( 10-C , 26-H ) :   0.6284
B( 11-C , 27-H ) :   0.6284 B( 11-C , 28-H ) :   0.6284 B( 11-C , 29-H ) :   0.8380
B( 12-H , 14-H ) :  -0.1033 B( 13-H , 14-H ) :  -0.1033 B( 15-H , 16-H ) :  -0.1033
B( 15-H , 17-H ) :  -0.1033 B( 18-H , 19-H ) :  -0.1033 B( 19-H , 20-H ) :  -0.1033
B( 21-H , 22-H ) :  -0.1033 B( 22-H , 23-H ) :  -0.1033 B( 24-H , 25-H ) :  -0.1033
B( 24-H , 26-H ) :  -0.1033 B( 27-H , 29-H ) :  -0.1033 B( 28-H , 29-H ) :  -0.1033

MP2 TOTAL ENERGY:     -466.682145516 Eh
FINAL SINGLE POINT ENERGY      -466.682145516494

DIPOLE MOMENT
-------------
                                X             Y             Z
Electronic contribution:     -0.00000      -0.00000       0.00000
Nuclear contribution   :     -0.00000      -0.00000       0.00000
                        -----------------------------------------
Total Dipole Moment    :     -0.00000      -0.00000       0.00000
                        -----------------------------------------
Magnitude (a.u.)       :      0.00000
Magnitude (Debye)      :      0.00000

Rotational constants in cm-1:     0.034293     0.034293     0.017503
Rotational constants in MHz :  1028.083411  1028.083378   524.733655

                             ****ORCA TERMINATED NORMALLY****
TOTAL RUN TIME: 0 days 0 hours 4 minutes 11 seconds 180 msec
