                         Program Version 5.0.3 -  RELEASE  -
|  1> !ri-mp2 aug-cc-pvdz aug-cc-pvdz/c tightscf
|  2> %pal nprocs 16 end
|  3>
|  4> * xyz 0 1
|  5> S     -0.560952   -0.610114    0.012357
|  6> O     -1.476085    0.795532   -0.118724
|  7> C      1.020613   -0.035441    0.000928
|  8> C      2.177382    0.307670   -0.001983
|  9> H     -1.598128    1.151695    0.770681
| 10> H      3.194069    0.612498   -0.012273
| 11> *
| 12>
| 13>                          ****END OF INPUT****

CARTESIAN COORDINATES (ANGSTROEM)
---------------------------------
  S     -0.560952   -0.610114    0.012357
  O     -1.476085    0.795532   -0.118724
  C      1.020613   -0.035441    0.000928
  C      2.177382    0.307670   -0.001983
  H     -1.598128    1.151695    0.770681
  H      3.194069    0.612498   -0.012273

 Total Charge           Charge          ....    0
 Multiplicity           Mult            ....    1
 Number of Electrons    NEL             ....   38
 Basis Dimension        Dim             ....  114

ORBITAL ENERGIES
----------------

  NO   OCC          E(Eh)            E(eV)
   0   2.0000     -92.047231     -2504.7325
   1   2.0000     -20.623644      -561.1979
   2   2.0000     -11.275071      -306.8103
   3   2.0000     -11.263608      -306.4984
   4   2.0000      -9.041068      -246.0200
   5   2.0000      -6.723420      -182.9535
   6   2.0000      -6.721350      -182.8972
   7   2.0000      -6.718864      -182.8296
   8   2.0000      -1.395957       -37.9859
   9   2.0000      -1.080355       -29.3980
  10   2.0000      -0.970966       -26.4213
  11   2.0000      -0.754080       -20.5196
  12   2.0000      -0.712469       -19.3873
  13   2.0000      -0.643606       -17.5134
  14   2.0000      -0.589647       -16.0451
  15   2.0000      -0.499519       -13.5926
  16   2.0000      -0.478104       -13.0099
  17   2.0000      -0.421107       -11.4589
  18   2.0000      -0.350366        -9.5339
  19   0.0000       0.033827         0.9205
  20   0.0000       0.041282         1.1233
  21   0.0000       0.073571         2.0020
  22   0.0000       0.077681         2.1138
  23   0.0000       0.098450         2.6790

MULLIKEN ATOMIC CHARGES
-----------------------
   0 S :    0.684912
   1 O :   -0.704068
   2 C :   -0.201315
   3 C :    0.382742
   4 H :    0.199222
   5 H :   -0.361493
Sum of atomic charges:   -0.0000000

LOEWDIN ATOMIC CHARGES
----------------------
   0 S :    0.828320
   1 O :   -0.200985
   2 C :   -0.509715
   3 C :    0.118326
   4 H :   -0.124692
   5 H :   -0.111254

  Mayer bond orders larger than 0.100000
B(  0-S ,  1-O ) :   0.6462 B(  0-S ,  2-C ) :   1.0459 B(  0-S ,  5-H ) :   0.1065
B(  1-O ,  4-H ) :   1.0424 B(  2-C ,  3-C ) :   2.3732 B(  3-C ,  5-H ) :   0.5740

MP2 TOTAL ENERGY:     -549.806553404 Eh
FINAL SINGLE POINT ENERGY      -549.806553403786

DIPOLE MOMENT
-------------
                                X             Y             Z
Electronic contribution:     -1.20467      -1.51603      -0.15463
Nuclear contribution   :      1.53140       1.72940       0.72829
                        -----------------------------------------
Total Dipole Moment    :      0.32673       0.21337       0.57366
                        -----------------------------------------
Magnitude (a.u.)       :      0.69381
Magnitude (Debye)      :      1.76351

Rotational constants in cm-1:     0.656123     0.131684     0.110792
Rotational constants in MHz : 19670.065282  3947.782394  3321.462544

                             ****ORCA TERMINATED NORMALLY****
TOTAL RUN TIME: 0 days 0 hours 0 minutes 54 seconds 97 msec
