                         Program Version 5.0.3 -  RELEASE  -
|  1> !ri-mp2 aug-cc-pvdz aug-cc-pvdz/c tightscf
|  2> %pal nprocs 16 end
|  3>
|  4> * xyz 0 1
|  5> C     0.000000    0.000000     0.792268
|  6> C     0.000000    0.000000    -0.792268
|  7> Cl    0.000000    1.679244     1.403393
|  8> Cl   -1.454268   -0.839622     1.403393
|  9> Cl    1.454268   -0.839622     1.403393
| 10> Cl    0.000000   -1.679244    -1.403393
| 11> Cl   -1.454268    0.839622    -1.403393
| 12> Cl    1.454268    0.839622    -1.403393
| 13> *
| 14>
| 15>                          ****END OF INPUT****

CARTESIAN COORDINATES (ANGSTROEM)
---------------------------------
  C      0.000000    0.000000    0.792268
  C      0.000000    0.000000   -0.792268
  Cl     0.000000    1.679244    1.403393
  Cl    -1.454268   -0.839622    1.403393
  Cl     1.454268   -0.839622    1.403393
  Cl     0.000000   -1.679244   -1.403393
  Cl    -1.454268    0.839622   -1.403393
  Cl     1.454268    0.839622   -1.403393

 Total Charge           Charge          ....    0
 Multiplicity           Mult            ....    1
 Number of Electrons    NEL             ....  114
 Basis Dimension        Dim             ....  208

ORBITAL ENERGIES
----------------

  NO   OCC          E(Eh)            E(eV)
   0   2.0000    -104.876651     -2853.8388
   1   2.0000    -104.876651     -2853.8388
   2   2.0000    -104.876650     -2853.8387
   3   2.0000    -104.876650     -2853.8387
   4   2.0000    -104.876650     -2853.8387
   5   2.0000    -104.876650     -2853.8387
   6   2.0000     -11.479638      -312.3768
   7   2.0000     -11.479157      -312.3637
   8   2.0000     -10.602859      -288.5185
   9   2.0000     -10.602859      -288.5185
  10   2.0000     -10.602844      -288.5181
  11   2.0000     -10.602844      -288.5181
  12   2.0000     -10.602828      -288.5176
  13   2.0000     -10.602808      -288.5171
  14   2.0000      -8.070526      -219.6102
  15   2.0000      -8.070526      -219.6102
  16   2.0000      -8.070525      -219.6102
  17   2.0000      -8.070525      -219.6102
  18   2.0000      -8.070523      -219.6101
  19   2.0000      -8.070522      -219.6101
  20   2.0000      -8.066770      -219.5080
  21   2.0000      -8.066769      -219.5080
  22   2.0000      -8.066769      -219.5080
  23   2.0000      -8.066769      -219.5080
  24   2.0000      -8.066768      -219.5079
  25   2.0000      -8.066767      -219.5079
  26   2.0000      -8.066706      -219.5062
  27   2.0000      -8.066706      -219.5062
  28   2.0000      -8.066705      -219.5062
  29   2.0000      -8.066705      -219.5062
  30   2.0000      -8.066704      -219.5062
  31   2.0000      -8.066704      -219.5062
  32   2.0000      -1.296551       -35.2809
  33   2.0000      -1.220620       -33.2147
  34   2.0000      -1.138496       -30.9800
  35   2.0000      -1.138496       -30.9800
  36   2.0000      -1.116706       -30.3871
  37   2.0000      -1.116706       -30.3871
  38   2.0000      -0.947146       -25.7731
  39   2.0000      -0.792395       -21.5622
  40   2.0000      -0.691117       -18.8062
  41   2.0000      -0.671699       -18.2779
  42   2.0000      -0.671699       -18.2779
  43   2.0000      -0.613810       -16.7026
  44   2.0000      -0.613810       -16.7026
  45   2.0000      -0.523223       -14.2376
  46   2.0000      -0.523223       -14.2376
  47   2.0000      -0.511185       -13.9101
  48   2.0000      -0.506295       -13.7770
  49   2.0000      -0.506295       -13.7770
  50   2.0000      -0.491455       -13.3732
  51   2.0000      -0.491455       -13.3732
  52   2.0000      -0.480834       -13.0841
  53   2.0000      -0.471682       -12.8351
  54   2.0000      -0.455070       -12.3831
  55   2.0000      -0.455070       -12.3831
  56   2.0000      -0.450677       -12.2635
  57   0.0000       0.052797         1.4367
  58   0.0000       0.070373         1.9150
  59   0.0000       0.073748         2.0068
  60   0.0000       0.073748         2.0068
  61   0.0000       0.093203         2.5362

MULLIKEN ATOMIC CHARGES
-----------------------
   0 C :   -0.274351
   1 C :   -0.274351
   2 Cl:    0.091450
   3 Cl:    0.091450
   4 Cl:    0.091450
   5 Cl:    0.091450
   6 Cl:    0.091450
   7 Cl:    0.091450
Sum of atomic charges:    0.0000000

LOEWDIN ATOMIC CHARGES
----------------------
   0 C :   -1.505397
   1 C :   -1.505397
   2 Cl:    0.501799
   3 Cl:    0.501799
   4 Cl:    0.501799
   5 Cl:    0.501799
   6 Cl:    0.501799
   7 Cl:    0.501799

  Mayer bond orders larger than 0.100000
B(  0-C ,  1-C ) :   0.8724 B(  0-C ,  2-Cl) :   1.2468 B(  0-C ,  3-Cl) :   1.2468
B(  0-C ,  4-Cl) :   1.2468 B(  0-C ,  5-Cl) :  -0.2205 B(  0-C ,  6-Cl) :  -0.2205
B(  0-C ,  7-Cl) :  -0.2205 B(  1-C ,  2-Cl) :  -0.2205 B(  1-C ,  3-Cl) :  -0.2205
B(  1-C ,  4-Cl) :  -0.2205 B(  1-C ,  5-Cl) :   1.2468 B(  1-C ,  6-Cl) :   1.2468
B(  1-C ,  7-Cl) :   1.2468

MP2 TOTAL ENERGY:    -2833.908222352 Eh
FINAL SINGLE POINT ENERGY     -2833.908222352431

DIPOLE MOMENT
-------------
                                X             Y             Z
Electronic contribution:      0.00000       0.00000       0.00000
Nuclear contribution   :      0.00000       0.00000      -0.00000
                        -----------------------------------------
Total Dipole Moment    :      0.00000       0.00000       0.00000
                        -----------------------------------------
Magnitude (a.u.)       :      0.00000
Magnitude (Debye)      :      0.00000

Rotational constants in cm-1:     0.028104     0.022968     0.022968
Rotational constants in MHz :   842.530713   688.578087   688.578073

                             ****ORCA TERMINATED NORMALLY****
TOTAL RUN TIME: 0 days 0 hours 1 minutes 2 seconds 172 msec
