                         Program Version 5.0.3 -  RELEASE  -
|  1> !ri-mp2 aug-cc-pvdz aug-cc-pvdz/c tightscf
|  2> %pal nprocs 16 end
|  3> %maxcore 3800
|  4>
|  5> * xyz 0 1
|  6> C      1.510583    1.057959   -0.207635
|  7> C      1.131202    2.378179   -0.627087
|  8> C     -0.031282    3.021695   -0.376287
|  9> C     -1.131202    2.495684    0.390765
| 10> C     -1.415623    1.207590    0.659413
| 11> C     -0.736352    0.000021    0.155956
| 12> C      0.736352   -0.000021    0.155956
| 13> C      1.415623   -1.207590    0.659413
| 14> C      1.131202   -2.495684    0.390765
| 15> C      0.031282   -3.021695   -0.376287
| 16> C     -1.131202   -2.378179   -0.627087
| 17> C     -1.510583   -1.057959   -0.207635
| 18> H      2.580111    0.874669   -0.203910
| 19> H      1.905624    2.939917   -1.136925
| 20> H     -0.119386    4.051335   -0.699854
| 21> H     -1.817588    3.233906    0.791454
| 22> H     -2.284527    1.012644    1.278492
| 23> H      2.284527   -1.012644    1.278492
| 24> H      1.817588   -3.233906    0.791454
| 25> H      0.119386   -4.051335   -0.699854
| 26> H     -1.905624   -2.939917   -1.136925
| 27> H     -2.580111   -0.874669   -0.203910
| 28> *
| 29>
| 30>                          ****END OF INPUT****

CARTESIAN COORDINATES (ANGSTROEM)
---------------------------------
  C      1.510583    1.057959   -0.207635
  C      1.131202    2.378179   -0.627087
  C     -0.031282    3.021695   -0.376287
  C     -1.131202    2.495684    0.390765
  C     -1.415623    1.207590    0.659413
  C     -0.736352    0.000021    0.155956
  C      0.736352   -0.000021    0.155956
  C      1.415623   -1.207590    0.659413
  C      1.131202   -2.495684    0.390765
  C      0.031282   -3.021695   -0.376287
  C     -1.131202   -2.378179   -0.627087
  C     -1.510583   -1.057959   -0.207635
  H      2.580111    0.874669   -0.203910
  H      1.905624    2.939917   -1.136925
  H     -0.119386    4.051335   -0.699854
  H     -1.817588    3.233906    0.791454
  H     -2.284527    1.012644    1.278492
  H      2.284527   -1.012644    1.278492
  H      1.817588   -3.233906    0.791454
  H      0.119386   -4.051335   -0.699854
  H     -1.905624   -2.939917   -1.136925
  H     -2.580111   -0.874669   -0.203910

 Total Charge           Charge          ....    0
 Multiplicity           Mult            ....    1
 Number of Electrons    NEL             ....   82
 Basis Dimension        Dim             ....  366

ORBITAL ENERGIES
----------------

  NO   OCC          E(Eh)            E(eV)
   0   2.0000     -11.265160      -306.5406
   1   2.0000     -11.264384      -306.5195
   2   2.0000     -11.247651      -306.0641
   3   2.0000     -11.247651      -306.0641
   4   2.0000     -11.246869      -306.0429
   5   2.0000     -11.246868      -306.0428
   6   2.0000     -11.245796      -306.0137
   7   2.0000     -11.245795      -306.0137
   8   2.0000     -11.240541      -305.8707
   9   2.0000     -11.240540      -305.8707
  10   2.0000     -11.236793      -305.7687
  11   2.0000     -11.236792      -305.7686
  12   2.0000      -1.163854       -31.6701
  13   2.0000      -1.112124       -30.2624
  14   2.0000      -1.076569       -29.2949
  15   2.0000      -1.056377       -28.7455
  16   2.0000      -1.026026       -27.9196
  17   2.0000      -0.944935       -25.7130
  18   2.0000      -0.900420       -24.5017
  19   2.0000      -0.863840       -23.5063
  20   2.0000      -0.806836       -21.9551
  21   2.0000      -0.738637       -20.0993
  22   2.0000      -0.728887       -19.8340
  23   2.0000      -0.700277       -19.0555
  24   2.0000      -0.669785       -18.2258
  25   2.0000      -0.662307       -18.0223
  26   2.0000      -0.619318       -16.8525
  27   2.0000      -0.614394       -16.7185
  28   2.0000      -0.590769       -16.0756
  29   2.0000      -0.579930       -15.7807
  30   2.0000      -0.554425       -15.0867
  31   2.0000      -0.525293       -14.2939
  32   2.0000      -0.523577       -14.2473
  33   2.0000      -0.510239       -13.8843
  34   2.0000      -0.477702       -12.9989
  35   2.0000      -0.473052       -12.8724
  36   2.0000      -0.453015       -12.3272
  37   2.0000      -0.395639       -10.7659
  38   2.0000      -0.367539       -10.0012
  39   2.0000      -0.341302        -9.2873
  40   2.0000      -0.248795        -6.7700
  41   0.0000       0.034280         0.9328
  42   0.0000       0.037341         1.0161
  43   0.0000       0.039788         1.0827
  44   0.0000       0.046061         1.2534
  45   0.0000       0.050513         1.3745

MULLIKEN ATOMIC CHARGES
-----------------------
   0 C :    0.146192
   1 C :   -0.064681
   2 C :   -0.056927
   3 C :    0.521090
   4 C :    0.202957
   5 C :    1.846994
   6 C :    1.846994
   7 C :    0.202957
   8 C :    0.521090
   9 C :   -0.056928
  10 C :   -0.064680
  11 C :    0.146191
  12 H :   -0.588716
  13 H :   -0.485641
  14 H :   -0.468537
  15 H :   -0.488858
  16 H :   -0.563874
  17 H :   -0.563874
  18 H :   -0.488858
  19 H :   -0.468537
  20 H :   -0.485641
  21 H :   -0.588716
Sum of atomic charges:   -0.0000000

LOEWDIN ATOMIC CHARGES
----------------------
   0 C :    0.041418
   1 C :    0.007105
   2 C :    0.002424
   3 C :    0.006637
   4 C :    0.052797
   5 C :   -0.123849
   6 C :   -0.123849
   7 C :    0.052797
   8 C :    0.006637
   9 C :    0.002424
  10 C :    0.007105
  11 C :    0.041418
  12 H :    0.005563
  13 H :    0.001660
  14 H :   -0.003393
  15 H :    0.002731
  16 H :    0.006906
  17 H :    0.006906
  18 H :    0.002731
  19 H :   -0.003393
  20 H :    0.001660
  21 H :    0.005563

  Mayer bond orders larger than 0.100000
B(  0-C ,  1-C ) :   1.6569 B(  0-C ,  2-C ) :   0.1710 B(  0-C ,  5-C ) :  -0.6042
B(  0-C ,  6-C ) :   1.4833 B(  0-C ,  7-C ) :  -0.3151 B(  0-C , 11-C ) :   0.4233
B(  0-C , 12-H ) :  -0.1872 B(  0-C , 13-H ) :   0.2996 B(  0-C , 17-H ) :   0.1390
B(  1-C ,  2-C ) :   2.2880 B(  1-C ,  3-C ) :  -0.1447 B(  1-C ,  4-C ) :   0.1709
B(  1-C ,  5-C ) :  -0.3173 B(  1-C ,  6-C ) :  -0.7422 B(  1-C ,  8-C ) :   0.1595
B(  1-C , 12-H ) :   0.5813 B(  1-C , 13-H ) :   0.2048 B(  1-C , 14-H ) :   0.4101
B(  2-C ,  3-C ) :   1.3954 B(  2-C ,  5-C ) :  -0.1632 B(  2-C ,  7-C ) :   0.1119
B(  2-C ,  9-C ) :   0.1185 B(  2-C , 13-H ) :   0.2505 B(  2-C , 14-H ) :   0.3083
B(  2-C , 15-H ) :   0.3947 B(  3-C ,  4-C ) :   2.2088 B(  3-C ,  5-C ) :  -0.6383
B(  3-C ,  8-C ) :   0.1343 B(  3-C , 10-C ) :   0.1595 B(  3-C , 15-H ) :   0.2240
B(  3-C , 16-H ) :   0.3576 B(  4-C ,  5-C ) :   1.5602 B(  4-C ,  6-C ) :  -0.2437
B(  4-C ,  7-C ) :   0.2427 B(  4-C ,  9-C ) :   0.1119 B(  4-C , 11-C ) :  -0.3151
B(  4-C , 15-H ) :   0.1090 B(  5-C ,  6-C ) :   1.6777 B(  5-C ,  7-C ) :  -0.2437
B(  5-C , 10-C ) :  -0.7422 B(  5-C , 11-C ) :   1.4833 B(  5-C , 12-H ) :  -0.1242
B(  5-C , 16-H ) :   0.1752 B(  5-C , 21-H ) :   0.1975 B(  6-C ,  7-C ) :   1.5602
B(  6-C ,  8-C ) :  -0.6383 B(  6-C ,  9-C ) :  -0.1632 B(  6-C , 10-C ) :  -0.3173
B(  6-C , 11-C ) :  -0.6042 B(  6-C , 12-H ) :   0.1975 B(  6-C , 17-H ) :   0.1752
B(  6-C , 21-H ) :  -0.1242 B(  7-C ,  8-C ) :   2.2088 B(  7-C , 10-C ) :   0.1709
B(  7-C , 18-H ) :   0.1090 B(  8-C ,  9-C ) :   1.3954 B(  8-C , 10-C ) :  -0.1447
B(  8-C , 17-H ) :   0.3576 B(  8-C , 18-H ) :   0.2240 B(  9-C , 10-C ) :   2.2880
B(  9-C , 11-C ) :   0.1710 B(  9-C , 18-H ) :   0.3947 B(  9-C , 19-H ) :   0.3083
B(  9-C , 20-H ) :   0.2505 B( 10-C , 11-C ) :   1.6569 B( 10-C , 19-H ) :   0.4101
B( 10-C , 20-H ) :   0.2048 B( 10-C , 21-H ) :   0.5813 B( 11-C , 16-H ) :   0.1390
B( 11-C , 20-H ) :   0.2996 B( 11-C , 21-H ) :  -0.1872

MP2 TOTAL ENERGY:     -461.814816655 Eh
FINAL SINGLE POINT ENERGY      -461.814816654627

DIPOLE MOMENT
-------------
                                X             Y             Z
Electronic contribution:      0.00000       0.00000       0.01035
Nuclear contribution   :      0.00000       0.00000       0.05843
                        -----------------------------------------
Total Dipole Moment    :      0.00000       0.00000       0.06878
                        -----------------------------------------
Magnitude (a.u.)       :      0.06878
Magnitude (Debye)      :      0.17483

Rotational constants in cm-1:     0.066889     0.024828     0.019662
Rotational constants in MHz :  2005.275353   744.317892   589.449142

                             ****ORCA TERMINATED NORMALLY****
TOTAL RUN TIME: 0 days 0 hours 3 minutes 47 seconds 136 msec
