                         Program Version 5.0.3 -  RELEASE  -
|  1> !ri-mp2 aug-cc-pvdz aug-cc-pvdz/c tightscf
|  2> %pal nprocs 16 end
|  3>
|  4> * xyz 0 1
|  5> C     0.000000     1.388365       0.000000
|  6> C     1.202359     0.694182       0.000000
|  7> C    -1.202359     0.694182       0.000000
|  8> C     1.202359    -0.694182       0.000000
|  9> C    -1.202359    -0.694182       0.000000
| 10> C     0.000000    -1.388365       0.000000
| 11> F     0.000000     2.719949       0.000000
| 12> F     2.355545     1.359975       0.000000
| 13> F    -2.355545     1.359975       0.000000
| 14> F     2.355545    -1.359975       0.000000
| 15> F    -2.355545    -1.359975       0.000000
| 16> F     0.000000    -2.719949       0.000000
| 17> *
| 18>
| 19>                          ****END OF INPUT****

CARTESIAN COORDINATES (ANGSTROEM)
---------------------------------
  C      0.000000    1.388365    0.000000
  C      1.202359    0.694182    0.000000
  C     -1.202359    0.694182    0.000000
  C      1.202359   -0.694182    0.000000
  C     -1.202359   -0.694182    0.000000
  C      0.000000   -1.388365    0.000000
  F      0.000000    2.719949    0.000000
  F      2.355545    1.359975    0.000000
  F     -2.355545    1.359975    0.000000
  F      2.355545   -1.359975    0.000000
  F     -2.355545   -1.359975    0.000000
  F      0.000000   -2.719949    0.000000

 Total Charge           Charge          ....    0
 Multiplicity           Mult            ....    1
 Number of Electrons    NEL             ....   90
 Basis Dimension        Dim             ....  276

ORBITAL ENERGIES
----------------

  NO   OCC          E(Eh)            E(eV)
   0   2.0000     -26.376243      -717.7340
   1   2.0000     -26.376238      -717.7339
   2   2.0000     -26.376238      -717.7339
   3   2.0000     -26.376236      -717.7339
   4   2.0000     -26.376235      -717.7339
   5   2.0000     -26.376233      -717.7338
   6   2.0000     -11.398740      -310.1755
   7   2.0000     -11.398166      -310.1599
   8   2.0000     -11.398166      -310.1599
   9   2.0000     -11.396925      -310.1261
  10   2.0000     -11.396925      -310.1261
  11   2.0000     -11.396317      -310.1095
  12   2.0000      -1.701699       -46.3056
  13   2.0000      -1.694317       -46.1047
  14   2.0000      -1.694317       -46.1047
  15   2.0000      -1.680678       -45.7336
  16   2.0000      -1.680678       -45.7336
  17   2.0000      -1.674193       -45.5571
  18   2.0000      -1.237792       -33.6820
  19   2.0000      -1.094212       -29.7750
  20   2.0000      -1.094212       -29.7750
  21   2.0000      -0.944642       -25.7050
  22   2.0000      -0.944642       -25.7050
  23   2.0000      -0.864014       -23.5110
  24   2.0000      -0.840553       -22.8726
  25   2.0000      -0.832701       -22.6590
  26   2.0000      -0.781047       -21.2534
  27   2.0000      -0.778931       -21.1958
  28   2.0000      -0.778931       -21.1958
  29   2.0000      -0.778640       -21.1879
  30   2.0000      -0.778640       -21.1879
  31   2.0000      -0.754661       -20.5354
  32   2.0000      -0.754661       -20.5354
  33   2.0000      -0.730237       -19.8708
  34   2.0000      -0.730237       -19.8708
  35   2.0000      -0.722533       -19.6611
  36   2.0000      -0.710218       -19.3260
  37   2.0000      -0.710218       -19.3260
  38   2.0000      -0.699603       -19.0372
  39   2.0000      -0.641917       -17.4674
  40   2.0000      -0.641916       -17.4674
  41   2.0000      -0.606551       -16.5051
  42   2.0000      -0.546717       -14.8769
  43   2.0000      -0.391547       -10.6545
  44   2.0000      -0.391546       -10.6545
  45   0.0000       0.048570         1.3217
  46   0.0000       0.068838         1.8732
  47   0.0000       0.068838         1.8732
  48   0.0000       0.090603         2.4654
  49   0.0000       0.090603         2.4654

MULLIKEN ATOMIC CHARGES
-----------------------
   0 C :    0.751011
   1 C :    0.751014
   2 C :    0.751014
   3 C :    0.751013
   4 C :    0.751013
   5 C :    0.751011
   6 F :   -0.751012
   7 F :   -0.751013
   8 F :   -0.751013
   9 F :   -0.751013
  10 F :   -0.751013
  11 F :   -0.751012
Sum of atomic charges:   -0.0000000

LOEWDIN ATOMIC CHARGES
----------------------
   0 C :   -0.112818
   1 C :   -0.112818
   2 C :   -0.112818
   3 C :   -0.112818
   4 C :   -0.112818
   5 C :   -0.112818
   6 F :    0.112819
   7 F :    0.112818
   8 F :    0.112818
   9 F :    0.112818
  10 F :    0.112818
  11 F :    0.112819

  Mayer bond orders larger than 0.100000
B(  0-C ,  1-C ) :   1.4525 B(  0-C ,  2-C ) :   1.4525 B(  0-C ,  5-C ) :   0.1099
B(  0-C ,  6-F ) :  -0.6524 B(  0-C ,  7-F ) :   0.3750 B(  0-C ,  8-F ) :   0.3750
B(  1-C ,  3-C ) :   1.4525 B(  1-C ,  4-C ) :   0.1099 B(  1-C ,  6-F ) :   0.3750
B(  1-C ,  7-F ) :  -0.6524 B(  1-C ,  9-F ) :   0.3750 B(  2-C ,  3-C ) :   0.1099
B(  2-C ,  4-C ) :   1.4525 B(  2-C ,  6-F ) :   0.3750 B(  2-C ,  8-F ) :  -0.6524
B(  2-C , 10-F ) :   0.3750 B(  3-C ,  5-C ) :   1.4525 B(  3-C ,  7-F ) :   0.3750
B(  3-C ,  9-F ) :  -0.6524 B(  3-C , 11-F ) :   0.3750 B(  4-C ,  5-C ) :   1.4525
B(  4-C ,  8-F ) :   0.3750 B(  4-C , 10-F ) :  -0.6524 B(  4-C , 11-F ) :   0.3750
B(  5-C ,  9-F ) :   0.3750 B(  5-C , 10-F ) :   0.3750 B(  5-C , 11-F ) :  -0.6524

MP2 TOTAL ENERGY:     -825.837782178 Eh
FINAL SINGLE POINT ENERGY      -825.837782177749

DIPOLE MOMENT
-------------
                                X             Y             Z
Electronic contribution:     -0.00000      -0.00000      -0.00000
Nuclear contribution   :      0.00000       0.00000       0.00000
                        -----------------------------------------
Total Dipole Moment    :     -0.00000      -0.00000      -0.00000
                        -----------------------------------------
Magnitude (a.u.)       :      0.00000
Magnitude (Debye)      :      0.00000

Rotational constants in cm-1:     0.034326     0.034326     0.017163
Rotational constants in MHz :  1029.067605  1029.067423   514.533757

                             ****ORCA TERMINATED NORMALLY****
TOTAL RUN TIME: 0 days 0 hours 1 minutes 7 seconds 110 msec
