                         Program Version 5.0.3 -  RELEASE  -
|  1> !ri-mp2 aug-cc-pvdz aug-cc-pvdz/c tightscf
|  2> %pal nprocs 16 end
|  3> %maxcore 3800
|  4>
|  5> * xyz 0 1
|  6> C      2.934907   -1.847531    0.000000
|  7> C     -3.741441    1.922109    0.000000
|  8> C      2.204069   -0.532137    0.000000
|  9> C     -2.216713    2.017532    0.000000
| 10> C      0.683613   -0.629266    0.000000
| 11> C     -1.526489    0.653370    0.000000
| 12> C      0.000000    0.738127    0.000000
| 13> O      2.412916   -2.933644    0.000000
| 14> H      4.042127   -1.761298    0.000000
| 15> H     -4.203476    2.910263    0.000000
| 16> H     -4.102888    1.387142    0.880650
| 17> H     -4.102888    1.387142   -0.880650
| 18> H      2.570407    0.032064    0.867377
| 19> H      2.570407    0.032064   -0.867377
| 20> H     -1.887390    2.587509    0.874110
| 21> H     -1.887390    2.587509   -0.874110
| 22> H      0.362464   -1.205426   -0.870679
| 23> H      0.362464   -1.205426    0.870679
| 24> H     -1.856331    0.082600    0.874379
| 25> H     -1.856331    0.082600   -0.874379
| 26> H      0.328909    1.309595   -0.874725
| 27> H      0.328909    1.309595    0.874725
| 28> *
| 29>
| 30>                          ****END OF INPUT****

CARTESIAN COORDINATES (ANGSTROEM)
---------------------------------
  C      2.934907   -1.847531    0.000000
  C     -3.741441    1.922109    0.000000
  C      2.204069   -0.532137    0.000000
  C     -2.216713    2.017532    0.000000
  C      0.683613   -0.629266    0.000000
  C     -1.526489    0.653370    0.000000
  C      0.000000    0.738127    0.000000
  O      2.412916   -2.933644    0.000000
  H      4.042127   -1.761298    0.000000
  H     -4.203476    2.910263    0.000000
  H     -4.102888    1.387142    0.880650
  H     -4.102888    1.387142   -0.880650
  H      2.570407    0.032064    0.867377
  H      2.570407    0.032064   -0.867377
  H     -1.887390    2.587509    0.874110
  H     -1.887390    2.587509   -0.874110
  H      0.362464   -1.205426   -0.870679
  H      0.362464   -1.205426    0.870679
  H     -1.856331    0.082600    0.874379
  H     -1.856331    0.082600   -0.874379
  H      0.328909    1.309595   -0.874725
  H      0.328909    1.309595    0.874725

 Total Charge           Charge          ....    0
 Multiplicity           Mult            ....    1
 Number of Electrons    NEL             ....   64
 Basis Dimension        Dim             ....  310

ORBITAL ENERGIES
----------------

  NO   OCC          E(Eh)            E(eV)
   0   2.0000     -20.566968      -559.6556
   1   2.0000     -11.339535      -308.5644
   2   2.0000     -11.247762      -306.0672
   3   2.0000     -11.229858      -305.5800
   4   2.0000     -11.227819      -305.5245
   5   2.0000     -11.224590      -305.4366
   6   2.0000     -11.223161      -305.3977
   7   2.0000     -11.218562      -305.2726
   8   2.0000      -1.399481       -38.0818
   9   2.0000      -1.098685       -29.8967
  10   2.0000      -1.058054       -28.7911
  11   2.0000      -0.992454       -27.0061
  12   2.0000      -0.910106       -24.7652
  13   2.0000      -0.829962       -22.5844
  14   2.0000      -0.792482       -21.5645
  15   2.0000      -0.769497       -20.9391
  16   2.0000      -0.673690       -18.3320
  17   2.0000      -0.661787       -18.0081
  18   2.0000      -0.631053       -17.1718
  19   2.0000      -0.627174       -17.0663
  20   2.0000      -0.587121       -15.9764
  21   2.0000      -0.576325       -15.6826
  22   2.0000      -0.553651       -15.0656
  23   2.0000      -0.534855       -14.5541
  24   2.0000      -0.524518       -14.2729
  25   2.0000      -0.496118       -13.5001
  26   2.0000      -0.493009       -13.4155
  27   2.0000      -0.474412       -12.9094
  28   2.0000      -0.466514       -12.6945
  29   2.0000      -0.463123       -12.6022
  30   2.0000      -0.459665       -12.5081
  31   2.0000      -0.414718       -11.2850
  32   0.0000       0.032601         0.8871
  33   0.0000       0.036951         1.0055
  34   0.0000       0.043683         1.1887
  35   0.0000       0.046012         1.2521
  36   0.0000       0.052094         1.4175

MULLIKEN ATOMIC CHARGES
-----------------------
   0 C :    0.970870
   1 C :    0.562570
   2 C :    0.049362
   3 C :    0.451106
   4 C :    0.439993
   5 C :    0.203741
   6 C :    0.262223
   7 O :   -0.702549
   8 H :   -0.120039
   9 H :   -0.077239
  10 H :   -0.092638
  11 H :   -0.092638
  12 H :   -0.088748
  13 H :   -0.088748
  14 H :   -0.189665
  15 H :   -0.189665
  16 H :   -0.205950
  17 H :   -0.205950
  18 H :   -0.215581
  19 H :   -0.215581
  20 H :   -0.227436
  21 H :   -0.227436
Sum of atomic charges:   -0.0000000

LOEWDIN ATOMIC CHARGES
----------------------
   0 C :   -0.088027
   1 C :    0.131050
   2 C :   -0.023143
   3 C :   -0.073138
   4 C :   -0.028657
   5 C :   -0.040314
   6 C :   -0.035297
   7 O :    0.026692
   8 H :    0.013784
   9 H :   -0.022107
  10 H :   -0.019918
  11 H :   -0.019918
  12 H :    0.023329
  13 H :    0.023329
  14 H :    0.010720
  15 H :    0.010720
  16 H :    0.021535
  17 H :    0.021535
  18 H :    0.017556
  19 H :    0.017556
  20 H :    0.016356
  21 H :    0.016356

  Mayer bond orders larger than 0.100000
B(  0-C ,  2-C ) :   1.1894 B(  0-C ,  7-O ) :   1.5958 B(  0-C ,  8-H ) :   0.7523
B(  1-C ,  3-C ) :   1.1813 B(  1-C ,  9-H ) :   0.9123 B(  1-C , 10-H ) :   0.9095
B(  1-C , 11-H ) :   0.9095 B(  2-C ,  4-C ) :   1.1997 B(  2-C ,  8-H ) :   0.1189
B(  2-C , 12-H ) :   0.8673 B(  2-C , 13-H ) :   0.8673 B(  3-C ,  5-C ) :   1.2335
B(  3-C ,  6-C ) :  -0.1187 B(  3-C , 14-H ) :   0.7218 B(  3-C , 15-H ) :   0.7218
B(  4-C ,  6-C ) :   1.3516 B(  4-C , 16-H ) :   0.7614 B(  4-C , 17-H ) :   0.7614
B(  5-C ,  6-C ) :   1.3665 B(  5-C , 18-H ) :   0.7429 B(  5-C , 19-H ) :   0.7429
B(  6-C , 20-H ) :   0.7708 B(  6-C , 21-H ) :   0.7708

MP2 TOTAL ENERGY:     -349.355296063 Eh
FINAL SINGLE POINT ENERGY      -349.355296062816

DIPOLE MOMENT
-------------
                                X             Y             Z
Electronic contribution:     10.03083      -8.78784       0.00000
Nuclear contribution   :     -9.78197       9.98904       0.00000
                        -----------------------------------------
Total Dipole Moment    :      0.24886       1.20120       0.00000
                        -----------------------------------------
Magnitude (a.u.)       :      1.22671
Magnitude (Debye)      :      3.11804

Rotational constants in cm-1:     0.267910     0.018875     0.017980
Rotational constants in MHz :  8031.740404   565.869439   539.036960

                             ****ORCA TERMINATED NORMALLY****
TOTAL RUN TIME: 0 days 0 hours 1 minutes 27 seconds 555 msec
