                         Program Version 5.0.3 -  RELEASE  -
|  1> !ri-mp2 aug-cc-pvdz aug-cc-pvdz/c tightscf
|  2> %pal nprocs 16 end
|  3>
|  4> * xyz 0 1
|  5> C     -0.164367    1.106122    0.000000
|  6> C      0.630174   -1.644396    0.000000
|  7> C     -0.028352   -1.065946    1.246291
|  8> C     -0.028352   -1.065946   -1.246291
|  9> N     -0.028352    0.386872    1.163911
| 10> N     -0.028352    0.386872   -1.163911
| 11> O     -0.348128    2.315601    0.000000
| 12> H      1.692401   -1.394346    0.000000
| 13> H      0.538186   -2.730567    0.000000
| 14> H     -1.047815   -1.460098    1.343027
| 15> H      0.519860   -1.364705    2.140522
| 16> H      0.519860   -1.364705   -2.140522
| 17> H     -1.047815   -1.460098   -1.343027
| 18> H     -0.223673    0.927248    1.988963
| 19> H     -0.223673    0.927248   -1.988963
| 20> *
| 21>
| 22>                          ****END OF INPUT****

CARTESIAN COORDINATES (ANGSTROEM)
---------------------------------
  C     -0.164367    1.106122    0.000000
  C      0.630174   -1.644396    0.000000
  C     -0.028352   -1.065946    1.246291
  C     -0.028352   -1.065946   -1.246291
  N     -0.028352    0.386872    1.163911
  N     -0.028352    0.386872   -1.163911
  O     -0.348128    2.315601    0.000000
  H      1.692401   -1.394346    0.000000
  H      0.538186   -2.730567    0.000000
  H     -1.047815   -1.460098    1.343027
  H      0.519860   -1.364705    2.140522
  H      0.519860   -1.364705   -2.140522
  H     -1.047815   -1.460098   -1.343027
  H     -0.223673    0.927248    1.988963
  H     -0.223673    0.927248   -1.988963

 Total Charge           Charge          ....    0
 Multiplicity           Mult            ....    1
 Number of Electrons    NEL             ....   54
 Basis Dimension        Dim             ....  233

ORBITAL ENERGIES
----------------

  NO   OCC          E(Eh)            E(eV)
   0   2.0000     -20.505997      -557.9966
   1   2.0000     -15.581523      -423.9948
   2   2.0000     -15.581498      -423.9941
   3   2.0000     -11.374815      -309.5244
   4   2.0000     -11.284086      -307.0556
   5   2.0000     -11.284077      -307.0554
   6   2.0000     -11.249501      -306.1145
   7   2.0000      -1.383546       -37.6482
   8   2.0000      -1.254152       -34.1272
   9   2.0000      -1.200536       -32.6683
  10   2.0000      -1.063278       -28.9333
  11   2.0000      -0.937234       -25.5034
  12   2.0000      -0.871912       -23.7259
  13   2.0000      -0.779421       -21.2091
  14   2.0000      -0.704255       -19.1638
  15   2.0000      -0.681773       -18.5520
  16   2.0000      -0.656989       -17.8776
  17   2.0000      -0.642805       -17.4916
  18   2.0000      -0.609635       -16.5890
  19   2.0000      -0.597230       -16.2514
  20   2.0000      -0.583703       -15.8834
  21   2.0000      -0.530639       -14.4394
  22   2.0000      -0.505147       -13.7457
  23   2.0000      -0.500569       -13.6212
  24   2.0000      -0.424826       -11.5601
  25   2.0000      -0.388280       -10.5656
  26   2.0000      -0.387190       -10.5360
  27   0.0000       0.028155         0.7661
  28   0.0000       0.038104         1.0369
  29   0.0000       0.042761         1.1636
  30   0.0000       0.047176         1.2837
  31   0.0000       0.063050         1.7157

MULLIKEN ATOMIC CHARGES
-----------------------
   0 C :    0.922801
   1 C :    0.136802
   2 C :    0.854053
   3 C :    0.854053
   4 N :   -0.417658
   5 N :   -0.417658
   6 O :   -0.752619
   7 H :   -0.141744
   8 H :   -0.049637
   9 H :   -0.165394
  10 H :   -0.167253
  11 H :   -0.167253
  12 H :   -0.165394
  13 H :   -0.161549
  14 H :   -0.161549
Sum of atomic charges:   -0.0000000

LOEWDIN ATOMIC CHARGES
----------------------
   0 C :   -0.391467
   1 C :   -0.003776
   2 C :    0.005406
   3 C :    0.005406
   4 N :    0.117177
   5 N :    0.117177
   6 O :   -0.001753
   7 H :    0.026335
   8 H :    0.024088
   9 H :    0.018410
  10 H :    0.018772
  11 H :    0.018772
  12 H :    0.018410
  13 H :    0.013520
  14 H :    0.013520

  Mayer bond orders larger than 0.100000
B(  0-C ,  4-N ) :   1.0875 B(  0-C ,  5-N ) :   1.0875 B(  0-C ,  6-O ) :   1.4753
B(  1-C ,  2-C ) :   1.2860 B(  1-C ,  3-C ) :   1.2860 B(  1-C ,  7-H ) :   0.8225
B(  1-C ,  8-H ) :   0.8285 B(  2-C ,  4-N ) :   0.7292 B(  2-C ,  9-H ) :   0.7656
B(  2-C , 10-H ) :   0.8919 B(  3-C ,  5-N ) :   0.7292 B(  3-C , 11-H ) :   0.8919
B(  3-C , 12-H ) :   0.7656 B(  4-N , 13-H ) :   1.1880 B(  5-N , 14-H ) :   1.1880
B(  7-H ,  8-H ) :  -0.1009 B(  9-H , 10-H ) :  -0.1029 B( 11-H , 12-H ) :  -0.1029

MP2 TOTAL ENERGY:     -341.075099977 Eh
FINAL SINGLE POINT ENERGY      -341.075099976635

DIPOLE MOMENT
-------------
                                X             Y             Z
Electronic contribution:     -0.68460       5.94768      -0.00000
Nuclear contribution   :      0.73084      -7.98088       0.00000
                        -----------------------------------------
Total Dipole Moment    :      0.04624      -2.03320      -0.00000
                        -----------------------------------------
Magnitude (a.u.)       :      2.03373
Magnitude (Debye)      :      5.16933

Rotational constants in cm-1:     0.161802     0.085918     0.059308
Rotational constants in MHz :  4850.701359  2575.771119  1778.004505

                             ****ORCA TERMINATED NORMALLY****
TOTAL RUN TIME: 0 days 0 hours 0 minutes 53 seconds 499 msec
