                         Program Version 5.0.3 -  RELEASE  -
|  1> !ri-mp2 aug-cc-pvdz aug-cc-pvdz/c tightscf
|  2> %pal nprocs 16 end
|  3> %maxcore 3800
|  4>
|  5> * xyz 0 1
|  6> N     -1.201957    1.645890    0.152460
|  7> C     -1.122137    0.221629   -0.199424
|  8> C     -2.533221   -0.393283   -0.152217
|  9> O     -2.748314   -1.574901   -0.095497
| 10> O     -3.514020    0.517294   -0.229519
| 11> H     -3.060866    1.389226   -0.232101
| 12> C     -0.112058   -0.609453    0.605562
| 13> C      1.310812   -0.315666    0.248158
| 14> N      1.798228    0.972889    0.135796
| 15> C      3.064823    0.857017   -0.182550
| 16> N      3.431444   -0.446678   -0.283277
| 17> C      2.315898   -1.207793   -0.013417
| 18> H     -0.839634    0.175548   -1.255509
| 19> H     -0.281816   -0.417857    1.670751
| 20> H     -0.320702   -1.665837    0.443593
| 21> H      3.752508    1.668827   -0.350821
| 22> H      4.345579   -0.792723   -0.516050
| 23> H      2.335670   -2.282388   -0.032339
| 24> H     -1.210332    1.750849    1.162273
| 25> H     -0.360429    2.115801   -0.161192
| 26> *
| 27>
| 28>                          ****END OF INPUT****

CARTESIAN COORDINATES (ANGSTROEM)
---------------------------------
  N     -1.201957    1.645890    0.152460
  C     -1.122137    0.221629   -0.199424
  C     -2.533221   -0.393283   -0.152217
  O     -2.748314   -1.574901   -0.095497
  O     -3.514020    0.517294   -0.229519
  H     -3.060866    1.389226   -0.232101
  C     -0.112058   -0.609453    0.605562
  C      1.310812   -0.315666    0.248158
  N      1.798228    0.972889    0.135796
  C      3.064823    0.857017   -0.182550
  N      3.431444   -0.446678   -0.283277
  C      2.315898   -1.207793   -0.013417
  H     -0.839634    0.175548   -1.255509
  H     -0.281816   -0.417857    1.670751
  H     -0.320702   -1.665837    0.443593
  H      3.752508    1.668827   -0.350821
  H      4.345579   -0.792723   -0.516050
  H      2.335670   -2.282388   -0.032339
  H     -1.210332    1.750849    1.162273
  H     -0.360429    2.115801   -0.161192

 Total Charge           Charge          ....    0
 Multiplicity           Mult            ....    1
 Number of Electrons    NEL             ....   82
 Basis Dimension        Dim             ....  334

ORBITAL ENERGIES
----------------

  NO   OCC          E(Eh)            E(eV)
   0   2.0000     -20.597952      -560.4988
   1   2.0000     -20.541365      -558.9590
   2   2.0000     -15.642620      -425.6573
   3   2.0000     -15.571850      -423.7316
   4   2.0000     -15.568251      -423.6337
   5   2.0000     -11.377626      -309.6010
   6   2.0000     -11.320463      -308.0455
   7   2.0000     -11.288677      -307.1805
   8   2.0000     -11.276099      -306.8382
   9   2.0000     -11.268789      -306.6393
  10   2.0000     -11.245640      -306.0094
  11   2.0000      -1.448903       -39.4267
  12   2.0000      -1.361403       -37.0457
  13   2.0000      -1.354034       -36.8451
  14   2.0000      -1.213327       -33.0163
  15   2.0000      -1.185176       -32.2503
  16   2.0000      -1.063735       -28.9457
  17   2.0000      -0.997453       -27.1421
  18   2.0000      -0.907873       -24.7045
  19   2.0000      -0.845745       -23.0139
  20   2.0000      -0.801403       -21.8073
  21   2.0000      -0.789962       -21.4960
  22   2.0000      -0.758195       -20.6315
  23   2.0000      -0.733141       -19.9498
  24   2.0000      -0.671394       -18.2696
  25   2.0000      -0.653300       -17.7772
  26   2.0000      -0.635446       -17.2914
  27   2.0000      -0.622410       -16.9366
  28   2.0000      -0.615638       -16.7524
  29   2.0000      -0.613916       -16.7055
  30   2.0000      -0.602271       -16.3886
  31   2.0000      -0.582392       -15.8477
  32   2.0000      -0.551158       -14.9978
  33   2.0000      -0.529944       -14.4205
  34   2.0000      -0.522044       -14.2055
  35   2.0000      -0.463493       -12.6123
  36   2.0000      -0.460716       -12.5367
  37   2.0000      -0.442767       -12.0483
  38   2.0000      -0.414691       -11.2843
  39   2.0000      -0.407236       -11.0814
  40   2.0000      -0.329854        -8.9758
  41   0.0000       0.019781         0.5383
  42   0.0000       0.035483         0.9655
  43   0.0000       0.041759         1.1363
  44   0.0000       0.048845         1.3291
  45   0.0000       0.053462         1.4548

MULLIKEN ATOMIC CHARGES
-----------------------
   0 N :   -0.509851
   1 C :   -0.130447
   2 C :    1.379380
   3 O :   -0.770388
   4 O :   -0.722580
   5 H :    0.281290
   6 C :    0.545118
   7 C :    0.355974
   8 N :   -0.857261
   9 C :    0.773290
  10 N :   -0.653894
  11 C :    0.915372
  12 H :   -0.047459
  13 H :    0.023604
  14 H :   -0.120081
  15 H :   -0.196699
  16 H :   -0.101182
  17 H :   -0.303891
  18 H :    0.057650
  19 H :    0.082055
Sum of atomic charges:   -0.0000000

LOEWDIN ATOMIC CHARGES
----------------------
   0 N :    0.220853
   1 C :   -0.159452
   2 C :   -0.308894
   3 O :    0.045013
   4 O :    0.211787
   5 H :   -0.090345
   6 C :    0.051191
   7 C :   -0.240955
   8 N :    0.051090
   9 C :   -0.017055
  10 N :    0.078385
  11 C :    0.081545
  12 H :    0.056554
  13 H :    0.031028
  14 H :    0.019656
  15 H :    0.006901
  16 H :    0.031790
  17 H :    0.002275
  18 H :   -0.021233
  19 H :   -0.050134

  Mayer bond orders larger than 0.100000
B(  0-N ,  1-C ) :   0.6803 B(  0-N , 18-H ) :   1.0883 B(  0-N , 19-H ) :   0.9797
B(  1-C ,  2-C ) :   0.9847 B(  1-C ,  3-O ) :   0.1165 B(  1-C ,  4-O ) :   0.2142
B(  1-C ,  6-C ) :   1.0878 B(  1-C , 12-H ) :   0.9188 B(  1-C , 14-H ) :   0.1084
B(  2-C ,  3-O ) :   1.4476 B(  2-C ,  4-O ) :   0.3802 B(  4-O ,  5-H ) :   0.9367
B(  6-C ,  7-C ) :   0.9726 B(  6-C , 11-C ) :   0.1753 B(  6-C , 12-H ) :  -0.1297
B(  6-C , 13-H ) :   0.8845 B(  6-C , 14-H ) :   0.6791 B(  6-C , 17-H ) :   0.1675
B(  7-C ,  8-N ) :   0.8729 B(  7-C ,  9-C ) :   0.1084 B(  7-C , 10-N ) :   0.1184
B(  7-C , 11-C ) :   1.2273 B(  7-C , 14-H ) :   0.2210 B(  7-C , 15-H ) :   0.1856
B(  8-N ,  9-C ) :   1.5219 B(  8-N , 15-H ) :  -0.1776 B(  9-C , 10-N ) :   1.0531
B(  9-C , 11-C ) :  -0.1593 B(  9-C , 15-H ) :   1.0480 B(  9-C , 16-H ) :  -0.1228
B( 10-N , 11-C ) :   0.6755 B( 10-N , 16-H ) :   1.2604 B( 11-C , 14-H ) :  -0.1065
B( 11-C , 16-H ) :  -0.2108 B( 11-C , 17-H ) :   0.6307

MP2 TOTAL ENERGY:     -547.361447759 Eh
FINAL SINGLE POINT ENERGY      -547.361447759099

DIPOLE MOMENT
-------------
                                X             Y             Z
Electronic contribution:     -1.28682      -1.37418      -0.78699
Nuclear contribution   :      4.25300       1.92310       0.71812
                        -----------------------------------------
Total Dipole Moment    :      2.96618       0.54892      -0.06887
                        -----------------------------------------
Magnitude (a.u.)       :      3.01733
Magnitude (Debye)      :      7.66944

Rotational constants in cm-1:     0.099788     0.018623     0.016158
Rotational constants in MHz :  2991.555146   558.311047   484.405716

                             ****ORCA TERMINATED NORMALLY****
TOTAL RUN TIME: 0 days 0 hours 1 minutes 53 seconds 404 msec
