                         Program Version 5.0.3 -  RELEASE  -
|  1> !ri-mp2 aug-cc-pvdz aug-cc-pvdz/c tightscf
|  2> %pal nprocs 16 end
|  3>
|  4> * xyz 0 1
|  5> C      1.617743   -0.394675    0.283252
|  6> C     -1.893251   -0.863530   -0.252957
|  7> C     -0.944016    1.436162    0.264110
|  8> C     -0.675794    0.040279   -0.273129
|  9> O      2.051181    0.295615   -0.599753
| 10> O      0.330551   -0.615131    0.565758
| 11> H      2.240430   -0.955104    0.992486
| 12> H     -2.678480   -0.440562   -0.880088
| 13> H     -1.648581   -1.854994   -0.632319
| 14> H     -2.282128   -0.967445    0.760564
| 15> H     -1.698111    1.930159   -0.349869
| 16> H     -0.039874    2.042006    0.242524
| 17> H     -1.314363    1.388173    1.289063
| 18> H     -0.260844    0.104471   -1.278058
| 19> *
| 20>
| 21>                          ****END OF INPUT****

CARTESIAN COORDINATES (ANGSTROEM)
---------------------------------
  C      1.617743   -0.394675    0.283252
  C     -1.893251   -0.863530   -0.252957
  C     -0.944016    1.436162    0.264110
  C     -0.675794    0.040279   -0.273129
  O      2.051181    0.295615   -0.599753
  O      0.330551   -0.615131    0.565758
  H      2.240430   -0.955104    0.992486
  H     -2.678480   -0.440562   -0.880088
  H     -1.648581   -1.854994   -0.632319
  H     -2.282128   -0.967445    0.760564
  H     -1.698111    1.930159   -0.349869
  H     -0.039874    2.042006    0.242524
  H     -1.314363    1.388173    1.289063
  H     -0.260844    0.104471   -1.278058

 Total Charge           Charge          ....    0
 Multiplicity           Mult            ....    1
 Number of Electrons    NEL             ....   48
 Basis Dimension        Dim             ....  210

ORBITAL ENERGIES
----------------

  NO   OCC          E(Eh)            E(eV)
   0   2.0000     -20.614540      -560.9501
   1   2.0000     -20.562614      -559.5372
   2   2.0000     -11.391167      -309.9694
   3   2.0000     -11.304564      -307.6128
   4   2.0000     -11.233244      -305.6721
   5   2.0000     -11.230254      -305.5907
   6   2.0000      -1.464450       -39.8497
   7   2.0000      -1.370179       -37.2845
   8   2.0000      -1.077892       -29.3309
   9   2.0000      -0.952950       -25.9311
  10   2.0000      -0.884981       -24.0816
  11   2.0000      -0.781025       -21.2528
  12   2.0000      -0.733211       -19.9517
  13   2.0000      -0.681060       -18.5326
  14   2.0000      -0.653343       -17.7784
  15   2.0000      -0.615435       -16.7468
  16   2.0000      -0.583478       -15.8772
  17   2.0000      -0.560648       -15.2560
  18   2.0000      -0.550115       -14.9694
  19   2.0000      -0.531218       -14.4552
  20   2.0000      -0.512429       -13.9439
  21   2.0000      -0.490138       -13.3373
  22   2.0000      -0.460028       -12.5180
  23   2.0000      -0.452949       -12.3254
  24   0.0000       0.035118         0.9556
  25   0.0000       0.043296         1.1782
  26   0.0000       0.047050         1.2803
  27   0.0000       0.051547         1.4027
  28   0.0000       0.065373         1.7789

MULLIKEN ATOMIC CHARGES
-----------------------
   0 C :    0.914660
   1 C :    0.570496
   2 C :    0.398660
   3 C :    0.032724
   4 O :   -0.603737
   5 O :   -0.801572
   6 H :   -0.197241
   7 H :   -0.001363
   8 H :   -0.059967
   9 H :   -0.004886
  10 H :   -0.024193
  11 H :   -0.101038
  12 H :    0.006585
  13 H :   -0.129128
Sum of atomic charges:   -0.0000000

LOEWDIN ATOMIC CHARGES
----------------------
   0 C :   -0.149059
   1 C :    0.164360
   2 C :    0.168030
   3 C :   -0.246463
   4 O :    0.019736
   5 O :    0.057719
   6 H :    0.016124
   7 H :   -0.008617
   8 H :   -0.010282
   9 H :   -0.008179
  10 H :   -0.008839
  11 H :   -0.012612
  12 H :   -0.007114
  13 H :    0.025195

  Mayer bond orders larger than 0.100000
B(  0-C ,  4-O ) :   1.6569 B(  0-C ,  5-O ) :   0.9692 B(  0-C ,  6-H ) :   1.0424
B(  1-C ,  2-C ) :  -0.1765 B(  1-C ,  3-C ) :   1.4163 B(  1-C ,  7-H ) :   0.8831
B(  1-C ,  8-H ) :   0.8343 B(  1-C ,  9-H ) :   0.9018 B(  2-C ,  3-C ) :   1.3441
B(  2-C , 10-H ) :   0.8686 B(  2-C , 11-H ) :   0.9091 B(  2-C , 12-H ) :   0.8803
B(  3-C ,  5-O ) :   0.1728 B(  3-C ,  8-H ) :   0.1546 B(  3-C ,  9-H ) :   0.1255
B(  3-C , 11-H ) :   0.1081 B(  3-C , 13-H ) :   0.7339

MP2 TOTAL ENERGY:     -306.880264219 Eh
FINAL SINGLE POINT ENERGY      -306.880264218596

DIPOLE MOMENT
-------------
                                X             Y             Z
Electronic contribution:      7.03121      -1.52427       0.20426
Nuclear contribution   :     -7.82153       1.27044       0.14710
                        -----------------------------------------
Total Dipole Moment    :     -0.79032      -0.25383       0.35136
                        -----------------------------------------
Magnitude (a.u.)       :      0.90138
Magnitude (Debye)      :      2.29113

Rotational constants in cm-1:     0.213297     0.082374     0.069465
Rotational constants in MHz :  6394.469650  2469.498367  2082.513683

                             ****ORCA TERMINATED NORMALLY****
TOTAL RUN TIME: 0 days 0 hours 0 minutes 54 seconds 748 msec
