                         Program Version 5.0.3 -  RELEASE  -
|  1> !ri-mp2 aug-cc-pvdz aug-cc-pvdz/c tightscf
|  2> %pal nprocs 16 end
|  3>
|  4> * xyz 0 1
|  5> S      0.457966    0.685420   -0.130775
|  6> O     -3.222564   -0.127058    0.122495
|  7> N     -0.866252   -0.384315    0.004694
|  8> C     -2.057415   -0.194178    0.059640
|  9> C      1.757292   -0.498441   -0.193213
| 10> C      2.970929   -0.238236    0.278239
| 11> H      1.512657   -1.411103   -0.721146
| 12> H      3.781289   -0.934480    0.113673
| 13> H      3.198043    0.670651    0.819051
| 14> *
| 15>
| 16>                          ****END OF INPUT****

CARTESIAN COORDINATES (ANGSTROEM)
---------------------------------
  S      0.457966    0.685420   -0.130775
  O     -3.222564   -0.127058    0.122495
  N     -0.866252   -0.384315    0.004694
  C     -2.057415   -0.194178    0.059640
  C      1.757292   -0.498441   -0.193213
  C      2.970929   -0.238236    0.278239
  H      1.512657   -1.411103   -0.721146
  H      3.781289   -0.934480    0.113673
  H      3.198043    0.670651    0.819051

 Total Charge           Charge          ....    0
 Multiplicity           Mult            ....    1
 Number of Electrons    NEL             ....   52
 Basis Dimension        Dim             ....  169

ORBITAL ENERGIES
----------------

  NO   OCC          E(Eh)            E(eV)
   0   2.0000     -92.031417     -2504.3022
   1   2.0000     -20.631683      -561.4166
   2   2.0000     -15.621377      -425.0793
   3   2.0000     -11.426375      -310.9275
   4   2.0000     -11.292764      -307.2917
   5   2.0000     -11.262717      -306.4741
   6   2.0000      -9.028242      -245.6710
   7   2.0000      -6.710556      -182.6035
   8   2.0000      -6.708391      -182.5446
   9   2.0000      -6.705888      -182.4765
  10   2.0000      -1.477797       -40.2129
  11   2.0000      -1.290289       -35.1106
  12   2.0000      -1.107986       -30.1498
  13   2.0000      -0.988129       -26.8884
  14   2.0000      -0.802953       -21.8495
  15   2.0000      -0.748308       -20.3625
  16   2.0000      -0.707522       -19.2527
  17   2.0000      -0.664177       -18.0732
  18   2.0000      -0.660689       -17.9783
  19   2.0000      -0.630155       -17.1474
  20   2.0000      -0.604558       -16.4508
  21   2.0000      -0.529038       -14.3959
  22   2.0000      -0.514296       -13.9947
  23   2.0000      -0.446566       -12.1517
  24   2.0000      -0.431612       -11.7448
  25   2.0000      -0.336695        -9.1619
  26   0.0000       0.033367         0.9080
  27   0.0000       0.045444         1.2366
  28   0.0000       0.051841         1.4107
  29   0.0000       0.070239         1.9113
  30   0.0000       0.080504         2.1906

MULLIKEN ATOMIC CHARGES
-----------------------
   0 S :    0.721969
   1 O :   -0.426101
   2 N :   -0.417909
   3 C :    0.210655
   4 C :    0.239796
   5 C :    0.575742
   6 H :   -0.444446
   7 H :   -0.221522
   8 H :   -0.238184
Sum of atomic charges:    0.0000000

LOEWDIN ATOMIC CHARGES
----------------------
   0 S :    0.889166
   1 O :    0.094326
   2 N :   -0.278551
   3 C :   -0.285053
   4 C :   -0.377906
   5 C :    0.095840
   6 H :   -0.048908
   7 H :   -0.042197
   8 H :   -0.046717

  Mayer bond orders larger than 0.100000
B(  0-S ,  2-N ) :   0.5220 B(  0-S ,  4-C ) :   0.9209 B(  1-O ,  3-C ) :   1.9574
B(  2-N ,  3-C ) :   2.0859 B(  4-C ,  5-C ) :   1.9561 B(  4-C ,  6-H ) :   0.9506
B(  5-C ,  7-H ) :   0.8399 B(  5-C ,  8-H ) :   0.9275 B(  7-H ,  8-H ) :  -0.1618

MP2 TOTAL ENERGY:     -643.073832419 Eh
FINAL SINGLE POINT ENERGY      -643.073832418971

DIPOLE MOMENT
-------------
                                X             Y             Z
Electronic contribution:     -6.97343       1.58003      -0.27051
Nuclear contribution   :      8.13354      -1.64211       0.21012
                        -----------------------------------------
Total Dipole Moment    :      1.16011      -0.06208      -0.06039
                        -----------------------------------------
Magnitude (a.u.)       :      1.16334
Magnitude (Debye)      :      2.95696

Rotational constants in cm-1:     0.597833     0.041416     0.039333
Rotational constants in MHz : 17922.591375  1241.633908  1179.165358

                             ****ORCA TERMINATED NORMALLY****
TOTAL RUN TIME: 0 days 0 hours 0 minutes 43 seconds 943 msec
