                         Program Version 5.0.3 -  RELEASE  -
|  1> !ri-mp2 aug-cc-pvdz aug-cc-pvdz/c tightscf
|  2> %pal nprocs 16 end
|  3>
|  4> * xyz 0 1
|  5> N      1.373307   -0.063009    0.041264
|  6> O      1.396548    0.879733    0.795043
|  7> O      2.285464   -0.632107   -0.489189
|  8> O      0.119309   -0.621395   -0.286499
|  9> C     -1.052332    0.063916    0.267361
| 10> C     -1.394970    1.283353   -0.571030
| 11> C     -2.136583   -0.999878    0.268157
| 12> H     -0.806612    0.356435    1.286240
| 13> H     -0.581577    2.006220   -0.570003
| 14> H     -1.610830    0.992297   -1.599382
| 15> H     -2.278986    1.772046   -0.159761
| 16> H     -1.843059   -1.856641    0.872465
| 17> H     -3.052372   -0.580247    0.684532
| 18> H     -2.346969   -1.343252   -0.744705
| 19> *
| 20>
| 21>                          ****END OF INPUT****

CARTESIAN COORDINATES (ANGSTROEM)
---------------------------------
  N      1.373307   -0.063009    0.041264
  O      1.396548    0.879733    0.795043
  O      2.285464   -0.632107   -0.489189
  O      0.119309   -0.621395   -0.286499
  C     -1.052332    0.063916    0.267361
  C     -1.394970    1.283353   -0.571030
  C     -2.136583   -0.999878    0.268157
  H     -0.806612    0.356435    1.286240
  H     -0.581577    2.006220   -0.570003
  H     -1.610830    0.992297   -1.599382
  H     -2.278986    1.772046   -0.159761
  H     -1.843059   -1.856641    0.872465
  H     -3.052372   -0.580247    0.684532
  H     -2.346969   -1.343252   -0.744705

 Total Charge           Charge          ....    0
 Multiplicity           Mult            ....    1
 Number of Electrons    NEL             ....   56
 Basis Dimension        Dim             ....  224

ORBITAL ENERGIES
----------------

  NO   OCC          E(Eh)            E(eV)
   0   2.0000     -20.669794      -562.4537
   1   2.0000     -20.636597      -561.5504
   2   2.0000     -20.635546      -561.5218
   3   2.0000     -15.925928      -433.3665
   4   2.0000     -11.324463      -308.1543
   5   2.0000     -11.248112      -306.0767
   6   2.0000     -11.243383      -305.9480
   7   2.0000      -1.672470       -45.5102
   8   2.0000      -1.451332       -39.4928
   9   2.0000      -1.424850       -38.7721
  10   2.0000      -1.096087       -29.8260
  11   2.0000      -0.968898       -26.3650
  12   2.0000      -0.930713       -25.3260
  13   2.0000      -0.833330       -22.6761
  14   2.0000      -0.801558       -21.8115
  15   2.0000      -0.774934       -21.0870
  16   2.0000      -0.759224       -20.6595
  17   2.0000      -0.653949       -17.7949
  18   2.0000      -0.643569       -17.5124
  19   2.0000      -0.604268       -16.4430
  20   2.0000      -0.570959       -15.5366
  21   2.0000      -0.567310       -15.4373
  22   2.0000      -0.543233       -14.7821
  23   2.0000      -0.529149       -14.3989
  24   2.0000      -0.514503       -14.0003
  25   2.0000      -0.504514       -13.7285
  26   2.0000      -0.492307       -13.3963
  27   2.0000      -0.478054       -13.0085
  28   0.0000       0.031226         0.8497
  29   0.0000       0.043173         1.1748
  30   0.0000       0.045959         1.2506
  31   0.0000       0.054576         1.4851
  32   0.0000       0.070058         1.9064

MULLIKEN ATOMIC CHARGES
-----------------------
   0 N :    1.312576
   1 O :   -0.615925
   2 O :   -0.673078
   3 O :   -0.812792
   4 C :    0.044469
   5 C :    0.397908
   6 C :    0.574750
   7 H :   -0.100454
   8 H :   -0.061051
   9 H :    0.021115
  10 H :   -0.008631
  11 H :   -0.057257
  12 H :   -0.003526
  13 H :   -0.018105
Sum of atomic charges:   -0.0000000

LOEWDIN ATOMIC CHARGES
----------------------
   0 N :   -0.390900
   1 O :    0.108895
   2 O :    0.116395
   3 O :    0.116165
   4 C :   -0.255459
   5 C :    0.167869
   6 C :    0.168273
   7 H :    0.017442
   8 H :   -0.016926
   9 H :   -0.005241
  10 H :   -0.006488
  11 H :   -0.008216
  12 H :   -0.005196
  13 H :   -0.006613

  Mayer bond orders larger than 0.100000
B(  0-N ,  1-O ) :   1.1649 B(  0-N ,  2-O ) :   1.2477 B(  0-N ,  3-O ) :   0.7497
B(  0-N ,  4-C ) :  -0.1100 B(  1-O ,  2-O ) :   0.1124 B(  3-O ,  4-C ) :   0.1816
B(  3-O ,  5-C ) :   0.1000 B(  4-C ,  5-C ) :   1.4006 B(  4-C ,  6-C ) :   1.3663
B(  4-C ,  7-H ) :   0.7632 B(  4-C , 11-H ) :   0.1426 B(  4-C , 13-H ) :   0.1220
B(  5-C ,  6-C ) :  -0.1885 B(  5-C ,  8-H ) :   0.9178 B(  5-C ,  9-H ) :   0.8758
B(  5-C , 10-H ) :   0.8742 B(  6-C , 11-H ) :   0.8509 B(  6-C , 12-H ) :   0.8775
B(  6-C , 13-H ) :   0.9206

MP2 TOTAL ENERGY:     -397.842587448 Eh
FINAL SINGLE POINT ENERGY      -397.842587448153

DIPOLE MOMENT
-------------
                                X             Y             Z
Electronic contribution:     10.89680      -1.17724       0.40094
Nuclear contribution   :    -12.46179       1.34161      -0.23024
                        -----------------------------------------
Total Dipole Moment    :     -1.56499       0.16436       0.17070
                        -----------------------------------------
Magnitude (a.u.)       :      1.58283
Magnitude (Debye)      :      4.02322

Rotational constants in cm-1:     0.171817     0.059002     0.051119
Rotational constants in MHz :  5150.930156  1768.827355  1532.520905

                             ****ORCA TERMINATED NORMALLY****
TOTAL RUN TIME: 0 days 0 hours 1 minutes 3 seconds 29 msec
