                         Program Version 5.0.3 -  RELEASE  -
|  1> !ri-mp2 aug-cc-pvdz aug-cc-pvdz/c tightscf
|  2> %pal nprocs 16 end
|  3> %maxcore 3800
|  4>
|  5> * xyz 0 1
|  6> C      2.403276    0.235094    0.003580
|  7> C      3.664247   -0.587957   -0.004238
|  8> C     -2.836541    0.358121    1.268379
|  9> C     -2.835699    0.381755   -1.261372
| 10> C     -1.045343   -0.950015   -0.008083
| 11> C      0.028571    0.122851   -0.001652
| 12> C     -2.494529   -0.425752   -0.003810
| 13> O      2.357473    1.440315    0.011576
| 14> O      1.309148   -0.552959   -0.002627
| 15> H      3.706070   -1.193141   -0.909987
| 16> H      3.671524   -1.271694    0.844196
| 17> H      4.526585    0.069656    0.039536
| 18> H     -3.900505    0.597961    1.298851
| 19> H     -2.290462    1.301687    1.321379
| 20> H     -2.599340   -0.216217    2.165809
| 21> H     -2.290329    1.326588   -1.295750
| 22> H     -3.899825    0.621256   -1.288528
| 23> H     -2.596999   -0.175253   -2.169285
| 24> H     -0.897174   -1.580633   -0.888276
| 25> H     -0.896159   -1.591756    0.863846
| 26> H     -0.019806    0.767018   -0.878748
| 27> H     -0.022517    0.759280    0.880916
| 28> H     -3.127922   -1.318173   -0.012356
| 29> *
| 30>
| 31>                          ****END OF INPUT****

CARTESIAN COORDINATES (ANGSTROEM)
---------------------------------
  C      2.403276    0.235094    0.003580
  C      3.664247   -0.587957   -0.004238
  C     -2.836541    0.358121    1.268379
  C     -2.835699    0.381755   -1.261372
  C     -1.045343   -0.950015   -0.008083
  C      0.028571    0.122851   -0.001652
  C     -2.494529   -0.425752   -0.003810
  O      2.357473    1.440315    0.011576
  O      1.309148   -0.552959   -0.002627
  H      3.706070   -1.193141   -0.909987
  H      3.671524   -1.271694    0.844196
  H      4.526585    0.069656    0.039536
  H     -3.900505    0.597961    1.298851
  H     -2.290462    1.301687    1.321379
  H     -2.599340   -0.216217    2.165809
  H     -2.290329    1.326588   -1.295750
  H     -3.899825    0.621256   -1.288528
  H     -2.596999   -0.175253   -2.169285
  H     -0.897174   -1.580633   -0.888276
  H     -0.896159   -1.591756    0.863846
  H     -0.019806    0.767018   -0.878748
  H     -0.022517    0.759280    0.880916
  H     -3.127922   -1.318173   -0.012356

 Total Charge           Charge          ....    0
 Multiplicity           Mult            ....    1
 Number of Electrons    NEL             ....   72
 Basis Dimension        Dim             ....  333

ORBITAL ENERGIES
----------------

  NO   OCC          E(Eh)            E(eV)
   0   2.0000     -20.605913      -560.7154
   1   2.0000     -20.550907      -559.2186
   2   2.0000     -11.385475      -309.8145
   3   2.0000     -11.288881      -307.1861
   4   2.0000     -11.244953      -305.9907
   5   2.0000     -11.238912      -305.8264
   6   2.0000     -11.230233      -305.5902
   7   2.0000     -11.221781      -305.3602
   8   2.0000     -11.221747      -305.3592
   9   2.0000      -1.458107       -39.6771
  10   2.0000      -1.358720       -36.9726
  11   2.0000      -1.101979       -29.9864
  12   2.0000      -1.035232       -28.1701
  13   2.0000      -0.985070       -26.8051
  14   2.0000      -0.935546       -25.4575
  15   2.0000      -0.879256       -23.9258
  16   2.0000      -0.779843       -21.2206
  17   2.0000      -0.764272       -20.7969
  18   2.0000      -0.687837       -18.7170
  19   2.0000      -0.682894       -18.5825
  20   2.0000      -0.665854       -18.1188
  21   2.0000      -0.623620       -16.9696
  22   2.0000      -0.616322       -16.7710
  23   2.0000      -0.596608       -16.2345
  24   2.0000      -0.575919       -15.6715
  25   2.0000      -0.573836       -15.6149
  26   2.0000      -0.545230       -14.8365
  27   2.0000      -0.542406       -14.7596
  28   2.0000      -0.525603       -14.3024
  29   2.0000      -0.519766       -14.1435
  30   2.0000      -0.499644       -13.5960
  31   2.0000      -0.471040       -12.8177
  32   2.0000      -0.467751       -12.7281
  33   2.0000      -0.459120       -12.4933
  34   2.0000      -0.453471       -12.3396
  35   2.0000      -0.441075       -12.0023
  36   0.0000       0.033241         0.9045
  37   0.0000       0.038123         1.0374
  38   0.0000       0.044241         1.2039
  39   0.0000       0.046430         1.2634
  40   0.0000       0.056624         1.5408

MULLIKEN ATOMIC CHARGES
-----------------------
   0 C :    0.627962
   1 C :    0.291130
   2 C :    0.825257
   3 C :    0.827433
   4 C :    0.379169
   5 C :    1.109782
   6 C :   -1.142870
   7 O :   -0.708966
   8 O :   -0.851018
   9 H :    0.032457
  10 H :    0.023548
  11 H :   -0.027376
  12 H :   -0.103733
  13 H :   -0.062464
  14 H :   -0.081057
  15 H :   -0.062310
  16 H :   -0.104654
  17 H :   -0.080457
  18 H :   -0.180087
  19 H :   -0.177546
  20 H :   -0.222566
  21 H :   -0.224818
  22 H :   -0.086817
Sum of atomic charges:   -0.0000000

LOEWDIN ATOMIC CHARGES
----------------------
   0 C :   -0.368598
   1 C :    0.206303
   2 C :    0.158134
   3 C :    0.158083
   4 C :   -0.003660
   5 C :    0.013484
   6 C :   -0.274320
   7 O :    0.041429
   8 O :    0.073771
   9 H :   -0.006167
  10 H :   -0.006983
  11 H :   -0.008335
  12 H :   -0.013880
  13 H :   -0.017160
  14 H :   -0.011141
  15 H :   -0.017075
  16 H :   -0.013894
  17 H :   -0.011093
  18 H :    0.021426
  19 H :    0.021371
  20 H :    0.010878
  21 H :    0.010775
  22 H :    0.036653

  Mayer bond orders larger than 0.100000
B(  0-C ,  1-C ) :   1.0115 B(  0-C ,  7-O ) :   1.5228 B(  0-C ,  8-O ) :   0.8971
B(  0-C , 11-H ) :   0.1027 B(  1-C ,  9-H ) :   0.9460 B(  1-C , 10-H ) :   0.9482
B(  1-C , 11-H ) :   0.8867 B(  2-C ,  3-C ) :  -0.2017 B(  2-C ,  4-C ) :  -0.1163
B(  2-C ,  6-C ) :   1.3695 B(  2-C , 12-H ) :   0.7978 B(  2-C , 13-H ) :   0.8930
B(  2-C , 14-H ) :   0.8083 B(  3-C ,  4-C ) :  -0.1171 B(  3-C ,  6-C ) :   1.3685
B(  3-C , 15-H ) :   0.8925 B(  3-C , 16-H ) :   0.7977 B(  3-C , 17-H ) :   0.8082
B(  4-C ,  5-C ) :   1.1828 B(  4-C ,  6-C ) :   1.3767 B(  4-C , 18-H ) :   0.7788
B(  4-C , 19-H ) :   0.7808 B(  5-C ,  6-C ) :  -0.1418 B(  5-C ,  8-O ) :   0.4783
B(  5-C , 20-H ) :   0.7839 B(  5-C , 21-H ) :   0.7836 B(  6-C , 12-H ) :   0.1560
B(  6-C , 13-H ) :   0.1397 B(  6-C , 15-H ) :   0.1400 B(  6-C , 16-H ) :   0.1563
B(  6-C , 18-H ) :   0.1409 B(  6-C , 19-H ) :   0.1394 B(  6-C , 22-H ) :   0.6163
B( 12-H , 14-H ) :  -0.1049 B( 16-H , 17-H ) :  -0.1050 B( 18-H , 19-H ) :  -0.1520

MP2 TOTAL ENERGY:     -424.447214255 Eh
FINAL SINGLE POINT ENERGY      -424.447214255457

DIPOLE MOMENT
-------------
                                X             Y             Z
Electronic contribution:     10.64059       1.09412       0.01983
Nuclear contribution   :    -10.98814      -1.96250      -0.02935
                        -----------------------------------------
Total Dipole Moment    :     -0.34756      -0.86838      -0.00952
                        -----------------------------------------
Magnitude (a.u.)       :      0.93540
Magnitude (Debye)      :      2.37759

Rotational constants in cm-1:     0.125857     0.021039     0.020649
Rotational constants in MHz :  3773.084261   630.747679   619.044530

                             ****ORCA TERMINATED NORMALLY****
TOTAL RUN TIME: 0 days 0 hours 1 minutes 54 seconds 266 msec
