                         Program Version 5.0.3 -  RELEASE  -
|  1> !ri-mp2 aug-cc-pvdz aug-cc-pvdz/c tightscf
|  2> %pal nprocs 16 end
|  3>
|  4> * xyz 0 1
|  5> N     -2.411694    0.770500        0.000000
|  6> C     -1.247199    1.371403        0.000000
|  7> C      0.000000    0.696957        0.000000
|  8> C     -0.018996   -0.725328        0.000000
|  9> C     -1.285073   -1.354625        0.000000
| 10> C     -2.419419   -0.587737        0.000000
| 11> C      1.211455   -1.424550        0.000000
| 12> C      2.397856   -0.737303        0.000000
| 13> C      2.414486    0.675356        0.000000
| 14> C      1.238322    1.379037        0.000000
| 15> H     -1.255568    2.457887        0.000000
| 16> H     -1.354484   -2.434581        0.000000
| 17> H     -3.398779   -1.049786        0.000000
| 18> H      1.202991   -2.506847        0.000000
| 19> H      3.334572   -1.278500        0.000000
| 20> H      3.361605    1.197408        0.000000
| 21> H      1.242936    2.461653        0.000000
| 22> *
| 23>
| 24>                          ****END OF INPUT****

CARTESIAN COORDINATES (ANGSTROEM)
---------------------------------
  N     -2.411694    0.770500    0.000000
  C     -1.247199    1.371403    0.000000
  C      0.000000    0.696957    0.000000
  C     -0.018996   -0.725328    0.000000
  C     -1.285073   -1.354625    0.000000
  C     -2.419419   -0.587737    0.000000
  C      1.211455   -1.424550    0.000000
  C      2.397856   -0.737303    0.000000
  C      2.414486    0.675356    0.000000
  C      1.238322    1.379037    0.000000
  H     -1.255568    2.457887    0.000000
  H     -1.354484   -2.434581    0.000000
  H     -3.398779   -1.049786    0.000000
  H      1.202991   -2.506847    0.000000
  H      3.334572   -1.278500    0.000000
  H      3.361605    1.197408    0.000000
  H      1.242936    2.461653    0.000000

 Total Charge           Charge          ....    0
 Multiplicity           Mult            ....    1
 Number of Electrons    NEL             ....   68
 Basis Dimension        Dim             ....  293

ORBITAL ENERGIES
----------------

  NO   OCC          E(Eh)            E(eV)
   0   2.0000     -15.573037      -423.7639
   1   2.0000     -11.287555      -307.1500
   2   2.0000     -11.275126      -306.8118
   3   2.0000     -11.266057      -306.5650
   4   2.0000     -11.258184      -306.3507
   5   2.0000     -11.258044      -306.3470
   6   2.0000     -11.254944      -306.2626
   7   2.0000     -11.251621      -306.1722
   8   2.0000     -11.251326      -306.1641
   9   2.0000     -11.244544      -305.9796
  10   2.0000      -1.264345       -34.4046
  11   2.0000      -1.169396       -31.8209
  12   2.0000      -1.077266       -29.3139
  13   2.0000      -1.051301       -28.6073
  14   2.0000      -1.007300       -27.4100
  15   2.0000      -0.886262       -24.1164
  16   2.0000      -0.864363       -23.5205
  17   2.0000      -0.832338       -22.6491
  18   2.0000      -0.726562       -19.7708
  19   2.0000      -0.719974       -19.5915
  20   2.0000      -0.689485       -18.7618
  21   2.0000      -0.640772       -17.4363
  22   2.0000      -0.629294       -17.1240
  23   2.0000      -0.601975       -16.3806
  24   2.0000      -0.598327       -16.2813
  25   2.0000      -0.560060       -15.2400
  26   2.0000      -0.559851       -15.2343
  27   2.0000      -0.528611       -14.3842
  28   2.0000      -0.495816       -13.4918
  29   2.0000      -0.483251       -13.1499
  30   2.0000      -0.417480       -11.3602
  31   2.0000      -0.401816       -10.9340
  32   2.0000      -0.347584        -9.4582
  33   2.0000      -0.304681        -8.2908
  34   0.0000       0.030831         0.8390
  35   0.0000       0.036949         1.0054
  36   0.0000       0.041069         1.1176
  37   0.0000       0.051637         1.4051
  38   0.0000       0.055484         1.5098

MULLIKEN ATOMIC CHARGES
-----------------------
   0 N :   -0.707226
   1 C :    0.333582
   2 C :    0.879975
   3 C :   -0.169440
   4 C :    1.097977
   5 C :    0.252086
   6 C :    0.759038
   7 C :    0.234444
   8 C :    0.143408
   9 C :    0.587293
  10 H :   -0.443788
  11 H :   -0.527699
  12 H :   -0.348253
  13 H :   -0.575989
  14 H :   -0.472125
  15 H :   -0.476934
  16 H :   -0.566348
Sum of atomic charges:   -0.0000000

LOEWDIN ATOMIC CHARGES
----------------------
   0 N :    0.033755
   1 C :    0.018641
   2 C :   -0.129748
   3 C :   -0.142963
   4 C :    0.055950
   5 C :   -0.029011
   6 C :    0.058475
   7 C :    0.022691
   8 C :    0.016301
   9 C :    0.057000
  10 H :    0.011317
  11 H :    0.005781
  12 H :   -0.001187
  13 H :    0.007790
  14 H :    0.004282
  15 H :    0.000351
  16 H :    0.010576

  Mayer bond orders larger than 0.100000
B(  0-N ,  1-C ) :   1.4669 B(  0-N ,  5-C ) :   1.1281 B(  1-C ,  2-C ) :   1.0324
B(  1-C ,  3-C ) :  -0.6135 B(  1-C ,  5-C ) :   0.2088 B(  1-C ,  8-C ) :   0.4918
B(  1-C ,  9-C ) :  -0.4316 B(  1-C , 10-H ) :   0.6887 B(  2-C ,  3-C ) :   2.8886
B(  2-C ,  4-C ) :  -0.6584 B(  2-C ,  5-C ) :  -0.2361 B(  2-C ,  6-C ) :  -1.3282
B(  2-C ,  8-C ) :  -0.2145 B(  2-C ,  9-C ) :   1.6852 B(  2-C , 16-H ) :   0.7305
B(  3-C ,  4-C ) :   1.6050 B(  3-C ,  5-C ) :   0.4989 B(  3-C ,  6-C ) :   1.7568
B(  3-C ,  7-C ) :  -0.1465 B(  3-C ,  8-C ) :   0.1873 B(  3-C ,  9-C ) :  -1.5677
B(  3-C , 11-H ) :   0.8870 B(  3-C , 12-H ) :   0.1740 B(  3-C , 13-H ) :   0.9154
B(  4-C ,  5-C ) :   0.7102 B(  4-C ,  6-C ) :  -1.1181 B(  4-C ,  7-C ) :   0.3002
B(  4-C ,  9-C ) :   0.3359 B(  4-C , 11-H ) :  -0.1576 B(  5-C ,  6-C ) :   0.1789
B(  5-C , 11-H ) :   0.1718 B(  5-C , 12-H ) :   0.8660 B(  6-C ,  7-C ) :   1.5091
B(  6-C ,  8-C ) :   0.1618 B(  6-C ,  9-C ) :   0.1809 B(  6-C , 11-H ) :  -0.1573
B(  6-C , 13-H ) :  -0.3877 B(  6-C , 14-H ) :   0.3270 B(  6-C , 16-H ) :   0.1106
B(  7-C ,  8-C ) :   1.8141 B(  7-C , 13-H ) :   0.2380 B(  7-C , 14-H ) :   0.1898
B(  7-C , 15-H ) :   0.2339 B(  7-C , 16-H ) :  -0.1293 B(  8-C ,  9-C ) :   1.3368
B(  8-C , 13-H ) :  -0.1295 B(  8-C , 14-H ) :   0.1707 B(  8-C , 15-H ) :   0.2378
B(  8-C , 16-H ) :   0.2767 B(  9-C , 15-H ) :   0.2083 B(  9-C , 16-H ) :  -0.3669

MP2 TOTAL ENERGY:     -400.759033226 Eh
FINAL SINGLE POINT ENERGY      -400.759033225921

DIPOLE MOMENT
-------------
                                X             Y             Z
Electronic contribution:     -2.11407       0.79177      -0.00000
Nuclear contribution   :      3.08403      -1.13533       0.00000
                        -----------------------------------------
Total Dipole Moment    :      0.96995      -0.34356      -0.00000
                        -----------------------------------------
Magnitude (a.u.)       :      1.02900
Magnitude (Debye)      :      2.61551

Rotational constants in cm-1:     0.107377     0.041498     0.029931
Rotational constants in MHz :  3219.077195  1244.085817   897.302713

                             ****ORCA TERMINATED NORMALLY****
TOTAL RUN TIME: 0 days 0 hours 1 minutes 50 seconds 390 msec
