                         Program Version 5.0.3 -  RELEASE  -
|  1> !ri-mp2 aug-cc-pvdz aug-cc-pvdz/c tightscf
|  2> %pal nprocs 16 end
|  3>
|  4> * xyz 0 1
|  5> H      1.230807   -0.798909    0.000000
|  6> C      0.140652   -0.856817    0.000000
|  7> H      0.007049   -2.562492    1.308766
|  8> H     -1.436380   -1.541527    1.309424
|  9> H      0.023820   -1.009617    2.153756
| 10> C     -0.346546   -1.531370    1.272020
| 11> H      0.007049   -2.562492   -1.308766
| 12> H      0.023820   -1.009617   -2.153756
| 13> H     -1.436380   -1.541527   -1.309424
| 14> C     -0.346546   -1.531370   -1.272020
| 15> O     -0.346546    0.512894    0.000000
| 16> O      0.328520    2.544021    0.000000
| 17> N      0.719868    1.441172    0.000000
| 18> *
| 19>
| 20>                          ****END OF INPUT****

CARTESIAN COORDINATES (ANGSTROEM)
---------------------------------
  H      1.230807   -0.798909    0.000000
  C      0.140652   -0.856817    0.000000
  H      0.007049   -2.562492    1.308766
  H     -1.436380   -1.541527    1.309424
  H      0.023820   -1.009617    2.153756
  C     -0.346546   -1.531370    1.272020
  H      0.007049   -2.562492   -1.308766
  H      0.023820   -1.009617   -2.153756
  H     -1.436380   -1.541527   -1.309424
  C     -0.346546   -1.531370   -1.272020
  O     -0.346546    0.512894    0.000000
  O      0.328520    2.544021    0.000000
  N      0.719868    1.441172    0.000000

 Total Charge           Charge          ....    0
 Multiplicity           Mult            ....    1
 Number of Electrons    NEL             ....   48
 Basis Dimension        Dim             ....  201

ORBITAL ENERGIES
----------------

  NO   OCC          E(Eh)            E(eV)
   0   2.0000     -20.657370      -562.1156
   1   2.0000     -20.627366      -561.2992
   2   2.0000     -15.789961      -429.6667
   3   2.0000     -11.307634      -307.6964
   4   2.0000     -11.235283      -305.7276
   5   2.0000     -11.235265      -305.7271
   6   2.0000      -1.599600       -43.5273
   7   2.0000      -1.398267       -38.0488
   8   2.0000      -1.077407       -29.3177
   9   2.0000      -0.955878       -26.0108
  10   2.0000      -0.931761       -25.3545
  11   2.0000      -0.827738       -22.5239
  12   2.0000      -0.750581       -20.4244
  13   2.0000      -0.707234       -19.2448
  14   2.0000      -0.682015       -18.5586
  15   2.0000      -0.624483       -16.9930
  16   2.0000      -0.603603       -16.4249
  17   2.0000      -0.594822       -16.1859
  18   2.0000      -0.555352       -15.1119
  19   2.0000      -0.537455       -14.6249
  20   2.0000      -0.522893       -14.2287
  21   2.0000      -0.500101       -13.6084
  22   2.0000      -0.460401       -12.5282
  23   2.0000      -0.440519       -11.9871
  24   0.0000       0.034298         0.9333
  25   0.0000       0.045664         1.2426
  26   0.0000       0.047135         1.2826
  27   0.0000       0.055980         1.5233
  28   0.0000       0.071967         1.9583

MULLIKEN ATOMIC CHARGES
-----------------------
   0 H :   -0.096635
   1 C :    0.007278
   2 H :   -0.014996
   3 H :   -0.006705
   4 H :   -0.061910
   5 C :    0.528127
   6 H :   -0.014996
   7 H :   -0.061910
   8 H :   -0.006705
   9 C :    0.528127
  10 O :   -0.929518
  11 O :   -0.522629
  12 N :    0.652473
Sum of atomic charges:   -0.0000000

LOEWDIN ATOMIC CHARGES
----------------------
   0 H :    0.012530
   1 C :   -0.295134
   2 H :   -0.010715
   3 H :   -0.008994
   4 H :   -0.012169
   5 C :    0.156542
   6 H :   -0.010715
   7 H :   -0.012169
   8 H :   -0.008994
   9 C :    0.156542
  10 O :   -0.005262
  11 O :    0.034600
  12 N :    0.003937

  Mayer bond orders larger than 0.100000
B(  0-H ,  1-C ) :   0.7615 B(  1-C ,  3-H ) :   0.1283 B(  1-C ,  4-H ) :   0.1131
B(  1-C ,  5-C ) :   1.3620 B(  1-C ,  7-H ) :   0.1131 B(  1-C ,  8-H ) :   0.1283
B(  1-C ,  9-C ) :   1.3620 B(  1-C , 10-O ) :   0.2083 B(  1-C , 12-N ) :  -0.1246
B(  2-H ,  5-C ) :   0.8771 B(  3-H ,  5-C ) :   0.8813 B(  4-H ,  5-C ) :   0.8627
B(  5-C ,  9-C ) :  -0.1476 B(  6-H ,  9-C ) :   0.8771 B(  7-H ,  9-C ) :   0.8627
B(  8-H ,  9-C ) :   0.8813 B( 10-O , 12-N ) :   0.8996 B( 11-O , 12-N ) :   1.4846

MP2 TOTAL ENERGY:     -322.810250003 Eh
FINAL SINGLE POINT ENERGY      -322.810250003368

DIPOLE MOMENT
-------------
                                X             Y             Z
Electronic contribution:      1.81559       9.95322       0.00000
Nuclear contribution   :     -1.59491     -11.09924      -0.00000
                        -----------------------------------------
Total Dipole Moment    :      0.22067      -1.14602       0.00000
                        -----------------------------------------
Magnitude (a.u.)       :      1.16707
Magnitude (Debye)      :      2.96646

Rotational constants in cm-1:     0.250340     0.069925     0.059358
Rotational constants in MHz :  7505.007678  2096.308483  1779.497720

                             ****ORCA TERMINATED NORMALLY****
TOTAL RUN TIME: 0 days 0 hours 0 minutes 54 seconds 679 msec
