                         Program Version 5.0.3 -  RELEASE  -
|  1> !ri-mp2 aug-cc-pvdz aug-cc-pvdz/c tightscf
|  2> %pal nprocs 16 end
|  3> %maxcore 3800
|  4>
|  5> * xyz 0 1
|  6> N     -0.597265    1.880669   -0.121090
|  7> C     -0.495562    0.459188   -0.493741
|  8> C     -1.805491   -0.236189   -0.085662
|  9> O     -2.217442   -1.236297   -0.608791
| 10> O     -2.449652    0.365789    0.927683
| 11> H     -1.968150    1.206422    1.080701
| 12> C      0.740774   -0.181501    0.194975
| 13> C      2.036361    0.322896   -0.473170
| 14> C      0.692385   -1.712042    0.209785
| 15> C      3.305554    0.081041    0.344256
| 16> H     -0.402470    0.308887   -1.572904
| 17> H      0.731995    0.170577    1.233213
| 18> H      2.129419   -0.159520   -1.450886
| 19> H      1.964888    1.394467   -0.677881
| 20> H      1.596770   -2.114151    0.664101
| 21> H     -0.156498   -2.089792    0.775213
| 22> H      0.613261   -2.111699   -0.802100
| 23> H      4.176666    0.493046   -0.166281
| 24> H      3.239861    0.558480    1.324121
| 25> H      3.494746   -0.979801    0.504685
| 26> H      0.309205    2.294943    0.044674
| 27> H     -1.056201    2.427172   -0.838822
| 28> *
| 29>
| 30>                          ****END OF INPUT****

CARTESIAN COORDINATES (ANGSTROEM)
---------------------------------
  N     -0.597265    1.880669   -0.121090
  C     -0.495562    0.459188   -0.493741
  C     -1.805491   -0.236189   -0.085662
  O     -2.217442   -1.236297   -0.608791
  O     -2.449652    0.365789    0.927683
  H     -1.968150    1.206422    1.080701
  C      0.740774   -0.181501    0.194975
  C      2.036361    0.322896   -0.473170
  C      0.692385   -1.712042    0.209785
  C      3.305554    0.081041    0.344256
  H     -0.402470    0.308887   -1.572904
  H      0.731995    0.170577    1.233213
  H      2.129419   -0.159520   -1.450886
  H      1.964888    1.394467   -0.677881
  H      1.596770   -2.114151    0.664101
  H     -0.156498   -2.089792    0.775213
  H      0.613261   -2.111699   -0.802100
  H      4.176666    0.493046   -0.166281
  H      3.239861    0.558480    1.324121
  H      3.494746   -0.979801    0.504685
  H      0.309205    2.294943    0.044674
  H     -1.056201    2.427172   -0.838822

 Total Charge           Charge          ....    0
 Multiplicity           Mult            ....    1
 Number of Electrons    NEL             ....   72
 Basis Dimension        Dim             ....  324

ORBITAL ENERGIES
----------------

  NO   OCC          E(Eh)            E(eV)
   0   2.0000     -20.602911      -560.6337
   1   2.0000     -20.544300      -559.0388
   2   2.0000     -15.587920      -424.1689
   3   2.0000     -11.380071      -309.6675
   4   2.0000     -11.293329      -307.3071
   5   2.0000     -11.256871      -306.3150
   6   2.0000     -11.244155      -305.9690
   7   2.0000     -11.232983      -305.6650
   8   2.0000     -11.223025      -305.3940
   9   2.0000      -1.452603       -39.5273
  10   2.0000      -1.357576       -36.9415
  11   2.0000      -1.223439       -33.2915
  12   2.0000      -1.099295       -29.9133
  13   2.0000      -1.010669       -27.5017
  14   2.0000      -0.946852       -25.7652
  15   2.0000      -0.887881       -24.1605
  16   2.0000      -0.810038       -22.0422
  17   2.0000      -0.794530       -21.6203
  18   2.0000      -0.720911       -19.6170
  19   2.0000      -0.696167       -18.9437
  20   2.0000      -0.675201       -18.3732
  21   2.0000      -0.639504       -17.4018
  22   2.0000      -0.635909       -17.3040
  23   2.0000      -0.615109       -16.7380
  24   2.0000      -0.595154       -16.1950
  25   2.0000      -0.584948       -15.9173
  26   2.0000      -0.558503       -15.1976
  27   2.0000      -0.542776       -14.7697
  28   2.0000      -0.530740       -14.4422
  29   2.0000      -0.517402       -14.0792
  30   2.0000      -0.490694       -13.3525
  31   2.0000      -0.480775       -13.0826
  32   2.0000      -0.477190       -12.9850
  33   2.0000      -0.460489       -12.5305
  34   2.0000      -0.449401       -12.2288
  35   2.0000      -0.417516       -11.3612
  36   0.0000       0.025546         0.6951
  37   0.0000       0.036459         0.9921
  38   0.0000       0.039759         1.0819
  39   0.0000       0.047568         1.2944
  40   0.0000       0.059066         1.6073

MULLIKEN ATOMIC CHARGES
-----------------------
   0 N :   -0.480392
   1 C :    0.719795
   2 C :    1.372998
   3 O :   -0.803303
   4 O :   -0.763878
   5 H :    0.293849
   6 C :   -1.202363
   7 C :    0.809568
   8 C :    0.819755
   9 C :    0.469901
  10 H :   -0.123335
  11 H :   -0.300067
  12 H :   -0.153782
  13 H :   -0.249280
  14 H :   -0.125498
  15 H :   -0.024455
  16 H :   -0.050633
  17 H :   -0.058227
  18 H :   -0.090504
  19 H :   -0.118531
  20 H :    0.032001
  21 H :    0.026380
Sum of atomic charges:    0.0000000

LOEWDIN ATOMIC CHARGES
----------------------
   0 N :    0.230082
   1 C :   -0.131662
   2 C :   -0.320619
   3 O :    0.050652
   4 O :    0.214468
   5 H :   -0.086552
   6 C :   -0.197175
   7 C :   -0.033185
   8 C :    0.175435
   9 C :    0.147241
  10 H :    0.048811
  11 H :    0.045033
  12 H :    0.022428
  13 H :    0.000708
  14 H :   -0.022105
  15 H :   -0.014364
  16 H :    0.001349
  17 H :   -0.016720
  18 H :   -0.014087
  19 H :   -0.027129
  20 H :   -0.052339
  21 H :   -0.020271

  Mayer bond orders larger than 0.100000
B(  0-N ,  1-C ) :   0.7347 B(  0-N , 20-H ) :   1.0304 B(  0-N , 21-H ) :   1.0843
B(  1-C ,  2-C ) :   0.8824 B(  1-C ,  4-O ) :   0.1792 B(  1-C ,  6-C ) :   1.1056
B(  1-C ,  8-C ) :  -0.1454 B(  1-C , 10-H ) :   0.4785 B(  1-C , 11-H ) :   0.1321
B(  1-C , 16-H ) :  -0.1687 B(  2-C ,  3-O ) :   1.4062 B(  2-C ,  4-O ) :   0.3388
B(  4-O ,  5-H ) :   0.9033 B(  6-C ,  7-C ) :   0.9439 B(  6-C ,  8-C ) :   1.3821
B(  6-C , 10-H ) :   0.3356 B(  6-C , 11-H ) :   0.5934 B(  6-C , 12-H ) :   0.1797
B(  6-C , 13-H ) :   0.2344 B(  6-C , 15-H ) :   0.1615 B(  6-C , 16-H ) :   0.2992
B(  7-C ,  8-C ) :  -0.1619 B(  7-C ,  9-C ) :   1.1237 B(  7-C , 11-H ) :  -0.1490
B(  7-C , 12-H ) :   0.7735 B(  7-C , 13-H ) :   0.5753 B(  7-C , 16-H ) :  -0.1382
B(  7-C , 17-H ) :   0.1108 B(  8-C , 14-H ) :   0.8180 B(  8-C , 15-H ) :   0.7639
B(  8-C , 16-H ) :   0.8413 B(  9-C , 17-H ) :   0.8787 B(  9-C , 18-H ) :   0.9491
B(  9-C , 19-H ) :   0.9219 B( 12-H , 13-H ) :  -0.1083 B( 14-H , 15-H ) :  -0.1012

MP2 TOTAL ENERGY:     -440.491381619 Eh
FINAL SINGLE POINT ENERGY      -440.491381619138

DIPOLE MOMENT
-------------
                                X             Y             Z
Electronic contribution:    -13.36502       0.01903      -0.28939
Nuclear contribution   :     15.04666       1.43942       0.12592
                        -----------------------------------------
Total Dipole Moment    :      1.68163       1.45845      -0.16347
                        -----------------------------------------
Magnitude (a.u.)       :      2.23197
Magnitude (Debye)      :      5.67322

Rotational constants in cm-1:     0.090545     0.032951     0.027304
Rotational constants in MHz :  2714.468174   987.848087   818.564379

                             ****ORCA TERMINATED NORMALLY****
TOTAL RUN TIME: 0 days 0 hours 1 minutes 47 seconds 307 msec
