                         Program Version 5.0.3 -  RELEASE  -
|  1> !ri-mp2 aug-cc-pvdz aug-cc-pvdz/c tightscf
|  2> %pal nprocs 16 end
|  3>
|  4> * xyz 0 1
|  5> S      2.147620    0.209811    0.031553
|  6> O     -2.177251    0.884502    0.079532
|  7> N     -0.449502   -0.736185   -0.147699
|  8> C      0.650412   -0.289749   -0.045393
|  9> C     -1.845506   -0.478904    0.091503
| 10> H     -2.115777    1.223264   -0.819967
| 11> H     -2.414295   -1.043253   -0.649351
| 12> H     -2.096761   -0.847779    1.085447
| 13> *
| 14>
| 15>                          ****END OF INPUT****

CARTESIAN COORDINATES (ANGSTROEM)
---------------------------------
  S      2.147620    0.209811    0.031553
  O     -2.177251    0.884502    0.079532
  N     -0.449502   -0.736185   -0.147699
  C      0.650412   -0.289749   -0.045393
  C     -1.845506   -0.478904    0.091503
  H     -2.115777    1.223264   -0.819967
  H     -2.414295   -1.043253   -0.649351
  H     -2.096761   -0.847779    1.085447

 Total Charge           Charge          ....    0
 Multiplicity           Mult            ....    1
 Number of Electrons    NEL             ....   46
 Basis Dimension        Dim             ....  146

ORBITAL ENERGIES
----------------

  NO   OCC          E(Eh)            E(eV)
   0   2.0000     -91.956862     -2502.2734
   1   2.0000     -20.606801      -560.7396
   2   2.0000     -15.617699      -424.9792
   3   2.0000     -11.390531      -309.9521
   4   2.0000     -11.371549      -309.4356
   5   2.0000      -8.960251      -243.8208
   6   2.0000      -6.642917      -180.7630
   7   2.0000      -6.639158      -180.6607
   8   2.0000      -6.638790      -180.6507
   9   2.0000      -1.414998       -38.5040
  10   2.0000      -1.292903       -35.1817
  11   2.0000      -1.056889       -28.7594
  12   2.0000      -0.982971       -26.7480
  13   2.0000      -0.783907       -21.3312
  14   2.0000      -0.718906       -19.5624
  15   2.0000      -0.673455       -18.3256
  16   2.0000      -0.610242       -16.6055
  17   2.0000      -0.591225       -16.0881
  18   2.0000      -0.553247       -15.0546
  19   2.0000      -0.530233       -14.4284
  20   2.0000      -0.507544       -13.8110
  21   2.0000      -0.373104       -10.1527
  22   2.0000      -0.361021        -9.8239
  23   0.0000       0.027751         0.7551
  24   0.0000       0.044891         1.2215
  25   0.0000       0.053235         1.4486
  26   0.0000       0.070226         1.9110
  27   0.0000       0.085870         2.3366

MULLIKEN ATOMIC CHARGES
-----------------------
   0 S :    0.168352
   1 O :   -0.617945
   2 N :   -0.437540
   3 C :   -0.267194
   4 C :    1.304880
   5 H :    0.137335
   6 H :   -0.140416
   7 H :   -0.147472
Sum of atomic charges:    0.0000000

LOEWDIN ATOMIC CHARGES
----------------------
   0 S :    0.593383
   1 O :    0.135377
   2 N :   -0.023409
   3 C :   -0.637739
   4 C :   -0.040487
   5 H :   -0.046864
   6 H :    0.007061
   7 H :    0.012678

  Mayer bond orders larger than 0.100000
B(  0-S ,  3-C ) :   1.8191 B(  1-O ,  4-C ) :   0.6025 B(  1-O ,  5-H ) :   1.0613
B(  2-N ,  3-C ) :   1.9796 B(  2-N ,  4-C ) :   0.7205 B(  3-C ,  4-C ) :  -0.1136
B(  4-C ,  6-H ) :   0.9643 B(  4-C ,  7-H ) :   0.9710

MP2 TOTAL ENERGY:     -605.114557238 Eh
FINAL SINGLE POINT ENERGY      -605.114557237821

DIPOLE MOMENT
-------------
                                X             Y             Z
Electronic contribution:      5.42236       0.34710      -0.05858
Nuclear contribution   :     -6.52459      -0.64433      -0.37272
                        -----------------------------------------
Total Dipole Moment    :     -1.10223      -0.29723      -0.43130
                        -----------------------------------------
Magnitude (a.u.)       :      1.22035
Magnitude (Debye)      :      3.10189

Rotational constants in cm-1:     0.536099     0.058199     0.053428
Rotational constants in MHz : 16071.832744  1744.770588  1601.746016

                             ****ORCA TERMINATED NORMALLY****
TOTAL RUN TIME: 0 days 0 hours 0 minutes 37 seconds 416 msec
