                         Program Version 5.0.3 -  RELEASE  -
|  1> !ri-mp2 aug-cc-pvdz aug-cc-pvdz/c tightscf
|  2> %pal nprocs 16 end
|  3>
|  4> * xyz 0 1
|  5> S     0.000005    0.180949   -0.000031
|  6> O     4.161913    1.053413    0.440220
|  7> O    -4.161949    1.053366   -0.440227
|  8> N     2.574769   -0.356348   -0.604807
|  9> N    -2.574743   -0.356296    0.604841
| 10> C     1.346924   -1.035946   -0.351650
| 11> C    -1.346915   -1.035919    0.351674
| 12> C     3.340117    0.359645   -0.014871
| 13> C    -3.340125    0.359642    0.014882
| 14> H     1.444429   -1.712184    0.498745
| 15> H     1.081666   -1.610562   -1.235849
| 16> H    -1.081634   -1.610502    1.235889
| 17> H    -1.444453   -1.712191   -0.498690
| 18> *
| 19>
| 20>                          ****END OF INPUT****

CARTESIAN COORDINATES (ANGSTROEM)
---------------------------------
  S      0.000005    0.180949   -0.000031
  O      4.161913    1.053413    0.440220
  O     -4.161949    1.053366   -0.440227
  N      2.574769   -0.356348   -0.604807
  N     -2.574743   -0.356296    0.604841
  C      1.346924   -1.035946   -0.351650
  C     -1.346915   -1.035919    0.351674
  C      3.340117    0.359645   -0.014871
  C     -3.340125    0.359642    0.014882
  H      1.444429   -1.712184    0.498745
  H      1.081666   -1.610562   -1.235849
  H     -1.081634   -1.610502    1.235889
  H     -1.444453   -1.712191   -0.498690

 Total Charge           Charge          ....    0
 Multiplicity           Mult            ....    1
 Number of Electrons    NEL             ....   74
 Basis Dimension        Dim             ....  247

ORBITAL ENERGIES
----------------

  NO   OCC          E(Eh)            E(eV)
   0   2.0000     -91.983192     -2502.9899
   1   2.0000     -20.631570      -561.4136
   2   2.0000     -20.631569      -561.4135
   3   2.0000     -15.615136      -424.9095
   4   2.0000     -15.615135      -424.9094
   5   2.0000     -11.429044      -311.0001
   6   2.0000     -11.429044      -311.0001
   7   2.0000     -11.351714      -308.8959
   8   2.0000     -11.351704      -308.8956
   9   2.0000      -8.984957      -244.4931
  10   2.0000      -6.666624      -181.4081
  11   2.0000      -6.665355      -181.3735
  12   2.0000      -6.662977      -181.3088
  13   2.0000      -1.479525       -40.2599
  14   2.0000      -1.479524       -40.2599
  15   2.0000      -1.302045       -35.4304
  16   2.0000      -1.299069       -35.3495
  17   2.0000      -1.092564       -29.7302
  18   2.0000      -1.016864       -27.6703
  19   2.0000      -0.898266       -24.4431
  20   2.0000      -0.762339       -20.7443
  21   2.0000      -0.752857       -20.4863
  22   2.0000      -0.726439       -19.7674
  23   2.0000      -0.712400       -19.3854
  24   2.0000      -0.694445       -18.8968
  25   2.0000      -0.683490       -18.5987
  26   2.0000      -0.676539       -18.4096
  27   2.0000      -0.658108       -17.9080
  28   2.0000      -0.628893       -17.1131
  29   2.0000      -0.612763       -16.6741
  30   2.0000      -0.595724       -16.2105
  31   2.0000      -0.506467       -13.7817
  32   2.0000      -0.461843       -12.5674
  33   2.0000      -0.459459       -12.5025
  34   2.0000      -0.438270       -11.9259
  35   2.0000      -0.421235       -11.4624
  36   2.0000      -0.375161       -10.2087
  37   0.0000       0.024053         0.6545
  38   0.0000       0.040028         1.0892
  39   0.0000       0.041819         1.1380
  40   0.0000       0.059726         1.6252
  41   0.0000       0.067580         1.8389

MULLIKEN ATOMIC CHARGES
-----------------------
   0 S :    0.408294
   1 O :   -0.405768
   2 O :   -0.405768
   3 N :   -0.286330
   4 N :   -0.286331
   5 C :    0.667512
   6 C :    0.667510
   7 C :    0.090977
   8 C :    0.090978
   9 H :   -0.097616
  10 H :   -0.172921
  11 H :   -0.172922
  12 H :   -0.097614
Sum of atomic charges:    0.0000000

LOEWDIN ATOMIC CHARGES
----------------------
   0 S :    0.842389
   1 O :    0.105572
   2 O :    0.105571
   3 N :   -0.010138
   4 N :   -0.010138
   5 C :   -0.271438
   6 C :   -0.271440
   7 C :   -0.183882
   8 C :   -0.183880
   9 H :   -0.026805
  10 H :   -0.034503
  11 H :   -0.034502
  12 H :   -0.026805

  Mayer bond orders larger than 0.100000
B(  0-S ,  5-C ) :   1.0283 B(  0-S ,  6-C ) :   1.0283 B(  1-O ,  7-C ) :   2.0107
B(  2-O ,  8-C ) :   2.0107 B(  3-N ,  5-C ) :   0.6497 B(  3-N ,  7-C ) :   2.0537
B(  4-N ,  6-C ) :   0.6497 B(  4-N ,  8-C ) :   2.0537 B(  5-C ,  7-C ) :  -0.1965
B(  5-C ,  9-H ) :   0.9635 B(  5-C , 10-H ) :   1.0578 B(  6-C ,  8-C ) :  -0.1965
B(  6-C , 11-H ) :   1.0579 B(  6-C , 12-H ) :   0.9635

MP2 TOTAL ENERGY:     -811.392443015 Eh
FINAL SINGLE POINT ENERGY      -811.392443014696

DIPOLE MOMENT
-------------
                                X             Y             Z
Electronic contribution:     -0.00001       4.66758      -0.00007
Nuclear contribution   :      0.00001      -6.38446       0.00009
                        -----------------------------------------
Total Dipole Moment    :     -0.00001      -1.71688       0.00002
                        -----------------------------------------
Magnitude (a.u.)       :      1.71688
Magnitude (Debye)      :      4.36396

Rotational constants in cm-1:     0.163918     0.015593     0.014814
Rotational constants in MHz :  4914.141133   467.457407   444.111020

                             ****ORCA TERMINATED NORMALLY****
TOTAL RUN TIME: 0 days 0 hours 0 minutes 53 seconds 296 msec
