                         Program Version 5.0.3 -  RELEASE  -
|  1> !ri-mp2 aug-cc-pvdz aug-cc-pvdz/c tightscf
|  2> %pal nprocs 16 end
|  3>
|  4> * xyz 0 1
|  5> S     -1.706782   -0.543256   -0.058637
|  6> O      2.540354   -0.659034   -0.086094
|  7> N      0.706588    0.801429    0.239004
|  8> C     -0.664935    0.969752   -0.139339
|  9> C      1.599379    0.023801    0.031598
| 10> H     -1.726078   -0.641935    1.283273
| 11> H     -1.104325    1.734549    0.492248
| 12> H     -0.736693    1.300429   -1.175164
| 13> *
| 14>
| 15>                          ****END OF INPUT****

CARTESIAN COORDINATES (ANGSTROEM)
---------------------------------
  S     -1.706782   -0.543256   -0.058637
  O      2.540354   -0.659034   -0.086094
  N      0.706588    0.801429    0.239004
  C     -0.664935    0.969752   -0.139339
  C      1.599379    0.023801    0.031598
  H     -1.726078   -0.641935    1.283273
  H     -1.104325    1.734549    0.492248
  H     -0.736693    1.300429   -1.175164

 Total Charge           Charge          ....    0
 Multiplicity           Mult            ....    1
 Number of Electrons    NEL             ....   46
 Basis Dimension        Dim             ....  146

ORBITAL ENERGIES
----------------

  NO   OCC          E(Eh)            E(eV)
   0   2.0000     -91.979188     -2502.8810
   1   2.0000     -20.624839      -561.2304
   2   2.0000     -15.605451      -424.6459
   3   2.0000     -11.421027      -310.7819
   4   2.0000     -11.344873      -308.7097
   5   2.0000      -8.981000      -244.3854
   6   2.0000      -6.662949      -181.3081
   7   2.0000      -6.661616      -181.2718
   8   2.0000      -6.659482      -181.2137
   9   2.0000      -1.472351       -40.0647
  10   2.0000      -1.290641       -35.1201
  11   2.0000      -1.063514       -28.9397
  12   2.0000      -0.926213       -25.2036
  13   2.0000      -0.750957       -20.4346
  14   2.0000      -0.714311       -19.4374
  15   2.0000      -0.683243       -18.5920
  16   2.0000      -0.659174       -17.9370
  17   2.0000      -0.619964       -16.8701
  18   2.0000      -0.572227       -15.5711
  19   2.0000      -0.516736       -14.0611
  20   2.0000      -0.443845       -12.0776
  21   2.0000      -0.428241       -11.6530
  22   2.0000      -0.384521       -10.4633
  23   0.0000       0.030857         0.8397
  24   0.0000       0.044427         1.2089
  25   0.0000       0.053301         1.4504
  26   0.0000       0.074535         2.0282
  27   0.0000       0.093641         2.5481

MULLIKEN ATOMIC CHARGES
-----------------------
   0 S :    0.218923
   1 O :   -0.431382
   2 N :   -0.294978
   3 C :    0.341811
   4 C :    0.235020
   5 H :    0.144279
   6 H :   -0.174452
   7 H :   -0.039221
Sum of atomic charges:    0.0000000

LOEWDIN ATOMIC CHARGES
----------------------
   0 S :    0.718023
   1 O :    0.099960
   2 N :   -0.011127
   3 C :   -0.318694
   4 C :   -0.194625
   5 H :   -0.219534
   6 H :   -0.039219
   7 H :   -0.034784

  Mayer bond orders larger than 0.100000
B(  0-S ,  3-C ) :   1.0892 B(  0-S ,  5-H ) :   0.9584 B(  1-O ,  4-C ) :   1.9309
B(  2-N ,  3-C ) :   0.7409 B(  2-N ,  4-C ) :   2.0440 B(  3-C ,  4-C ) :  -0.1076
B(  3-C ,  6-H ) :   1.0629 B(  3-C ,  7-H ) :   0.9631

MP2 TOTAL ENERGY:     -605.124574919 Eh
FINAL SINGLE POINT ENERGY      -605.124574918713

DIPOLE MOMENT
-------------
                                X             Y             Z
Electronic contribution:      2.59301      -1.68753      -0.47605
Nuclear contribution   :     -3.36429       2.33072       0.58383
                        -----------------------------------------
Total Dipole Moment    :     -0.77128       0.64319       0.10777
                        -----------------------------------------
Magnitude (a.u.)       :      1.01004
Magnitude (Debye)      :      2.56733

Rotational constants in cm-1:     0.363852     0.067744     0.058904
Rotational constants in MHz : 10907.995814  2030.911713  1765.911225

                             ****ORCA TERMINATED NORMALLY****
TOTAL RUN TIME: 0 days 0 hours 0 minutes 39 seconds 709 msec
