                         Program Version 5.0.3 -  RELEASE  -
|  1> !ri-mp2 aug-cc-pvdz aug-cc-pvdz/c tightscf
|  2> %pal nprocs 16 end
|  3>
|  4> * xyz 0 1
|  5> S      2.278497   -0.427178   -0.000076
|  6> N     -0.046708    1.072004   -0.000069
|  7> N     -2.433025   -1.423286   -0.000046
|  8> C     -1.477822    1.012116    0.000203
|  9> C     -2.013110   -0.354003    0.000063
| 10> C      0.927544    0.377873   -0.000052
| 11> H     -1.858915    1.539109   -0.876755
| 12> H     -1.858578    1.538797    0.877498
| 13> *
| 14>
| 15>                          ****END OF INPUT****

CARTESIAN COORDINATES (ANGSTROEM)
---------------------------------
  S      2.278497   -0.427178   -0.000076
  N     -0.046708    1.072004   -0.000069
  N     -2.433025   -1.423286   -0.000046
  C     -1.477822    1.012116    0.000203
  C     -2.013110   -0.354003    0.000063
  C      0.927544    0.377873   -0.000052
  H     -1.858915    1.539109   -0.876755
  H     -1.858578    1.538797    0.877498

 Total Charge           Charge          ....    0
 Multiplicity           Mult            ....    1
 Number of Electrons    NEL             ....   50
 Basis Dimension        Dim             ....  160

ORBITAL ENERGIES
----------------

  NO   OCC          E(Eh)            E(eV)
   0   2.0000     -91.974760     -2502.7605
   1   2.0000     -15.638714      -425.5510
   2   2.0000     -15.610166      -424.7742
   3   2.0000     -11.408465      -310.4401
   4   2.0000     -11.375773      -309.5505
   5   2.0000     -11.308264      -307.7135
   6   2.0000      -8.978093      -244.3063
   7   2.0000      -6.660668      -181.2460
   8   2.0000      -6.657016      -181.1466
   9   2.0000      -6.656522      -181.1332
  10   2.0000      -1.328272       -36.1441
  11   2.0000      -1.251063       -34.0431
  12   2.0000      -1.103249       -30.0209
  13   2.0000      -1.034779       -28.1578
  14   2.0000      -0.816975       -22.2310
  15   2.0000      -0.725729       -19.7481
  16   2.0000      -0.701238       -19.0817
  17   2.0000      -0.617805       -16.8113
  18   2.0000      -0.593661       -16.1543
  19   2.0000      -0.562963       -15.3190
  20   2.0000      -0.562032       -15.2937
  21   2.0000      -0.497903       -13.5486
  22   2.0000      -0.489247       -13.3131
  23   2.0000      -0.391712       -10.6590
  24   2.0000      -0.376710       -10.2508
  25   0.0000       0.023488         0.6391
  26   0.0000       0.044204         1.2029
  27   0.0000       0.062871         1.7108
  28   0.0000       0.068955         1.8764
  29   0.0000       0.076004         2.0682

MULLIKEN ATOMIC CHARGES
-----------------------
   0 S :    0.224160
   1 N :   -0.465627
   2 N :   -0.325482
   3 C :    0.998364
   4 C :   -0.085332
   5 C :   -0.282141
   6 H :   -0.031999
   7 H :   -0.031943
Sum of atomic charges:    0.0000000

LOEWDIN ATOMIC CHARGES
----------------------
   0 S :    0.645678
   1 N :   -0.020610
   2 N :    0.090130
   3 C :   -0.023514
   4 C :   -0.121039
   5 C :   -0.632617
   6 H :    0.030982
   7 H :    0.030989

  Mayer bond orders larger than 0.100000
B(  0-S ,  5-C ) :   1.8912 B(  1-N ,  3-C ) :   0.7447 B(  1-N ,  5-C ) :   1.9320
B(  2-N ,  4-C ) :   2.6951 B(  3-C ,  4-C ) :   0.8164 B(  3-C ,  5-C ) :  -0.1474
B(  3-C ,  6-H ) :   0.8975 B(  3-C ,  7-H ) :   0.8975

MP2 TOTAL ENERGY:     -622.054053817 Eh
FINAL SINGLE POINT ENERGY      -622.054053817214

DIPOLE MOMENT
-------------
                                X             Y             Z
Electronic contribution:      3.22735      -1.52401      -0.00042
Nuclear contribution   :     -3.63885       2.95620       0.00071
                        -----------------------------------------
Total Dipole Moment    :     -0.41150       1.43219       0.00029
                        -----------------------------------------
Magnitude (a.u.)       :      1.49014
Magnitude (Debye)      :      3.78762

Rotational constants in cm-1:     0.234286     0.049130     0.040919
Rotational constants in MHz :  7023.729720  1472.888491  1226.731190

                             ****ORCA TERMINATED NORMALLY****
TOTAL RUN TIME: 0 days 0 hours 0 minutes 47 seconds 746 msec
