                         Program Version 5.0.3 -  RELEASE  -
|  1> !ri-mp2 aug-cc-pvdz aug-cc-pvdz/c tightscf
|  2> %pal nprocs 16 end
|  3>
|  4> * xyz 0 1
|  5> C      0.654473   -1.275757        0.000000
|  6> C     -0.759568   -1.159013        0.000000
|  7> C      1.232534   -0.038075        0.000000
|  8> N     -1.256067    0.058336        0.000000
|  9> S      0.000000    1.151175        0.000000
| 10> H      1.194557   -2.209548        0.000000
| 11> H     -1.446653   -1.995169        0.000000
| 12> H      2.279932    0.214642        0.000000
| 13> *
| 14>
| 15>                          ****END OF INPUT****

CARTESIAN COORDINATES (ANGSTROEM)
---------------------------------
  C      0.654473   -1.275757    0.000000
  C     -0.759568   -1.159013    0.000000
  C      1.232534   -0.038075    0.000000
  N     -1.256067    0.058336    0.000000
  S      0.000000    1.151175    0.000000
  H      1.194557   -2.209548    0.000000
  H     -1.446653   -1.995169    0.000000
  H      2.279932    0.214642    0.000000

 Total Charge           Charge          ....    0
 Multiplicity           Mult            ....    1
 Number of Electrons    NEL             ....   44
 Basis Dimension        Dim             ....  146

ORBITAL ENERGIES
----------------

  NO   OCC          E(Eh)            E(eV)
   0   2.0000     -92.014761     -2503.8489
   1   2.0000     -15.601033      -424.5257
   2   2.0000     -11.292865      -307.2945
   3   2.0000     -11.292311      -307.2794
   4   2.0000     -11.255487      -306.2774
   5   2.0000      -9.014427      -245.2950
   6   2.0000      -6.696064      -182.2092
   7   2.0000      -6.694737      -182.1731
   8   2.0000      -6.692969      -182.1249
   9   2.0000      -1.280882       -34.8546
  10   2.0000      -1.070639       -29.1336
  11   2.0000      -1.009786       -27.4777
  12   2.0000      -0.802010       -21.8238
  13   2.0000      -0.777343       -21.1526
  14   2.0000      -0.708738       -19.2857
  15   2.0000      -0.589053       -16.0290
  16   2.0000      -0.582186       -15.8421
  17   2.0000      -0.563729       -15.3399
  18   2.0000      -0.491990       -13.3877
  19   2.0000      -0.453839       -12.3496
  20   2.0000      -0.377525       -10.2730
  21   2.0000      -0.358073        -9.7437
  22   0.0000       0.031709         0.8629
  23   0.0000       0.040799         1.1102
  24   0.0000       0.052688         1.4337
  25   0.0000       0.078472         2.1353
  26   0.0000       0.082700         2.2504

MULLIKEN ATOMIC CHARGES
-----------------------
   0 C :    0.681283
   1 C :    0.407170
   2 C :   -0.149350
   3 N :   -0.921444
   4 S :    0.795683
   5 H :   -0.301889
   6 H :   -0.217835
   7 H :   -0.293618
Sum of atomic charges:    0.0000000

LOEWDIN ATOMIC CHARGES
----------------------
   0 C :   -0.098648
   1 C :   -0.163189
   2 C :   -0.286558
   3 N :   -0.317879
   4 S :    0.933944
   5 H :   -0.013402
   6 H :   -0.005270
   7 H :   -0.048998

  Mayer bond orders larger than 0.100000
B(  0-C ,  1-C ) :   1.1536 B(  0-C ,  2-C ) :   1.7924 B(  0-C ,  5-H ) :   0.7764
B(  0-C ,  6-H ) :  -0.1201 B(  1-C ,  2-C ) :   0.1544 B(  1-C ,  3-N ) :   1.4836
B(  1-C ,  6-H ) :   0.9929 B(  2-C ,  4-S ) :   1.0601 B(  2-C ,  7-H ) :   0.9733
B(  3-N ,  4-S ) :   0.9192

MP2 TOTAL ENERGY:     -568.043814368 Eh
FINAL SINGLE POINT ENERGY      -568.043814367847

DIPOLE MOMENT
-------------
                                X             Y             Z
Electronic contribution:     -1.01855       3.31621      -0.00000
Nuclear contribution   :      1.96139      -3.90757       0.00000
                        -----------------------------------------
Total Dipole Moment    :      0.94284      -0.59136      -0.00000
                        -----------------------------------------
Magnitude (a.u.)       :      1.11294
Magnitude (Debye)      :      2.82888

Rotational constants in cm-1:     0.275640     0.193704     0.113760
Rotational constants in MHz :  8263.470995  5807.089486  3410.433835

                             ****ORCA TERMINATED NORMALLY****
TOTAL RUN TIME: 0 days 0 hours 0 minutes 46 seconds 568 msec
