                         Program Version 5.0.3 -  RELEASE  -
|  1> !ri-mp2 aug-cc-pvdz aug-cc-pvdz/c tightscf
|  2> %pal nprocs 16 end
|  3>
|  4> * xyz 0 1
|  5> C     -1.888132   -0.186303    0.038084
|  6> C     -2.956955    0.824440   -0.283481
|  7> C      1.958051    1.395183    0.513927
|  8> C      2.923162   -0.824646   -0.220717
|  9> C      0.456498   -0.579654    0.020652
| 10> C      1.743964    0.144881   -0.342302
| 11> O     -2.082486   -1.286641    0.491535
| 12> O     -0.661558    0.297410   -0.245338
| 13> H     -2.889982    1.121863   -1.329676
| 14> H     -2.812725    1.721105    0.319523
| 15> H     -3.933425    0.396820   -0.079568
| 16> H      2.870252    1.915116    0.218046
| 17> H      2.055108    1.129449    1.569732
| 18> H      1.126417    2.091889    0.417111
| 19> H      3.854481   -0.335170   -0.506854
| 20> H      2.793952   -1.698388   -0.861379
| 21> H      3.038067   -1.176866    0.807098
| 22> H      0.330891   -1.489124   -0.567547
| 23> H      0.440158   -0.859686    1.075856
| 24> H      1.659630    0.453440   -1.388885
| 25> *
| 26>
| 27>                          ****END OF INPUT****

CARTESIAN COORDINATES (ANGSTROEM)
---------------------------------
  C     -1.888132   -0.186303    0.038084
  C     -2.956955    0.824440   -0.283481
  C      1.958051    1.395183    0.513927
  C      2.923162   -0.824646   -0.220717
  C      0.456498   -0.579654    0.020652
  C      1.743964    0.144881   -0.342302
  O     -2.082486   -1.286641    0.491535
  O     -0.661558    0.297410   -0.245338
  H     -2.889982    1.121863   -1.329676
  H     -2.812725    1.721105    0.319523
  H     -3.933425    0.396820   -0.079568
  H      2.870252    1.915116    0.218046
  H      2.055108    1.129449    1.569732
  H      1.126417    2.091889    0.417111
  H      3.854481   -0.335170   -0.506854
  H      2.793952   -1.698388   -0.861379
  H      3.038067   -1.176866    0.807098
  H      0.330891   -1.489124   -0.567547
  H      0.440158   -0.859686    1.075856
  H      1.659630    0.453440   -1.388885

 Total Charge           Charge          ....    0
 Multiplicity           Mult            ....    1
 Number of Electrons    NEL             ....   64
 Basis Dimension        Dim             ....  292

ORBITAL ENERGIES
----------------

  NO   OCC          E(Eh)            E(eV)
   0   2.0000     -20.606709      -560.7371
   1   2.0000     -20.551768      -559.2420
   2   2.0000     -11.386594      -309.8450
   3   2.0000     -11.289121      -307.1926
   4   2.0000     -11.245938      -306.0175
   5   2.0000     -11.240119      -305.8592
   6   2.0000     -11.226530      -305.4894
   7   2.0000     -11.220836      -305.3345
   8   2.0000      -1.459467       -39.7141
   9   2.0000      -1.360036       -37.0085
  10   2.0000      -1.096941       -29.8493
  11   2.0000      -1.023398       -27.8481
  12   2.0000      -0.938104       -25.5271
  13   2.0000      -0.935296       -25.4507
  14   2.0000      -0.790734       -21.5170
  15   2.0000      -0.777648       -21.1609
  16   2.0000      -0.688794       -18.7430
  17   2.0000      -0.683755       -18.6059
  18   2.0000      -0.667078       -18.1521
  19   2.0000      -0.624243       -16.9865
  20   2.0000      -0.601805       -16.3759
  21   2.0000      -0.585750       -15.9391
  22   2.0000      -0.571250       -15.5445
  23   2.0000      -0.554683       -15.0937
  24   2.0000      -0.540862       -14.7176
  25   2.0000      -0.531321       -14.4580
  26   2.0000      -0.518615       -14.1122
  27   2.0000      -0.484484       -13.1835
  28   2.0000      -0.477721       -12.9994
  29   2.0000      -0.472182       -12.8487
  30   2.0000      -0.454059       -12.3556
  31   2.0000      -0.444084       -12.0841
  32   0.0000       0.033874         0.9218
  33   0.0000       0.039721         1.0809
  34   0.0000       0.045718         1.2441
  35   0.0000       0.048066         1.3079
  36   0.0000       0.058584         1.5941

MULLIKEN ATOMIC CHARGES
-----------------------
   0 C :    0.618814
   1 C :    0.275181
   2 C :    0.833909
   3 C :    0.825667
   4 C :    1.257247
   5 C :   -1.414135
   6 O :   -0.707570
   7 O :   -0.810794
   8 H :    0.020107
   9 H :    0.033565
  10 H :   -0.034021
  11 H :   -0.091458
  12 H :   -0.021448
  13 H :   -0.081819
  14 H :   -0.069045
  15 H :   -0.082307
  16 H :   -0.015074
  17 H :   -0.213115
  18 H :   -0.173811
  19 H :   -0.149893
Sum of atomic charges:   -0.0000000

LOEWDIN ATOMIC CHARGES
----------------------
   0 C :   -0.368003
   1 C :    0.206763
   2 C :    0.162382
   3 C :    0.162656
   4 C :    0.025407
   5 C :   -0.286699
   6 O :    0.042483
   7 O :    0.073322
   8 H :   -0.006657
   9 H :   -0.006199
  10 H :   -0.008065
  11 H :   -0.014293
  12 H :   -0.009441
  13 H :   -0.017366
  14 H :   -0.013274
  15 H :   -0.013894
  16 H :   -0.009703
  17 H :    0.018232
  18 H :    0.021748
  19 H :    0.040600

  Mayer bond orders larger than 0.100000
B(  0-C ,  1-C ) :   1.0267 B(  0-C ,  6-O ) :   1.5488 B(  0-C ,  7-O ) :   0.8426
B(  1-C ,  8-H ) :   0.9403 B(  1-C ,  9-H ) :   0.9466 B(  1-C , 10-H ) :   0.8880
B(  2-C ,  3-C ) :  -0.1540 B(  2-C ,  4-C ) :  -0.1117 B(  2-C ,  5-C ) :   1.3371
B(  2-C , 11-H ) :   0.8265 B(  2-C , 12-H ) :   0.8759 B(  2-C , 13-H ) :   0.8440
B(  3-C ,  4-C ) :  -0.1168 B(  3-C ,  5-C ) :   1.3407 B(  3-C , 14-H ) :   0.8157
B(  3-C , 15-H ) :   0.8266 B(  3-C , 16-H ) :   0.8988 B(  4-C ,  5-C ) :   1.2744
B(  4-C ,  7-O ) :   0.4478 B(  4-C , 17-H ) :   0.8023 B(  4-C , 18-H ) :   0.8625
B(  5-C , 11-H ) :   0.1176 B(  5-C , 12-H ) :   0.1245 B(  5-C , 13-H ) :   0.1069
B(  5-C , 14-H ) :   0.1554 B(  5-C , 15-H ) :   0.1023 B(  5-C , 16-H ) :   0.1202
B(  5-C , 19-H ) :   0.6883 B( 11-H , 13-H ) :  -0.1012 B( 14-H , 15-H ) :  -0.1007

MP2 TOTAL ENERGY:     -385.261982369 Eh
FINAL SINGLE POINT ENERGY      -385.261982369170

DIPOLE MOMENT
-------------
                                X             Y             Z
Electronic contribution:     -8.35772      -2.62643      -0.01739
Nuclear contribution   :      8.78459       3.36796      -0.33388
                        -----------------------------------------
Total Dipole Moment    :      0.42686       0.74153      -0.35127
                        -----------------------------------------
Magnitude (a.u.)       :      0.92492
Magnitude (Debye)      :      2.35095

Rotational constants in cm-1:     0.147756     0.032847     0.028762
Rotational constants in MHz :  4429.607249   984.741479   862.266429

                             ****ORCA TERMINATED NORMALLY****
TOTAL RUN TIME: 0 days 0 hours 1 minutes 14 seconds 64 msec
