                         Program Version 5.0.3 -  RELEASE  -
|  1> !ri-mp2 aug-cc-pvdz aug-cc-pvdz/c tightscf
|  2> %pal nprocs 16 end
|  3>
|  4> * xyz 0 1
|  5> C     -0.221060    2.864428    0.000000
|  6> C     -0.221060   -2.371524    1.265102
|  7> C     -0.221060   -2.371524   -1.265102
|  8> C      1.048508   -0.544433    0.000000
|  9> C     -0.053651    0.498440    0.000000
| 10> C      0.564195   -2.007414    0.000000
| 11> O     -1.421923    2.840809    0.000000
| 12> O      0.588857    1.801614    0.000000
| 13> H      0.384539    3.779558    0.000000
| 14> H     -0.428507   -3.442220    1.294360
| 15> H     -1.181810   -1.855200    1.308497
| 16> H      0.337007   -2.116386    2.167817
| 17> H     -1.181810   -1.855200   -1.308497
| 18> H     -0.428507   -3.442220   -1.294360
| 19> H      0.337007   -2.116386   -2.167817
| 20> H      1.679808   -0.377477   -0.876121
| 21> H      1.679808   -0.377477    0.876121
| 22> H     -0.691293    0.435316   -0.880677
| 23> H     -0.691293    0.435316    0.880677
| 24> H      1.474353   -2.614843    0.000000
| 25> *
| 26>
| 27>                          ****END OF INPUT****

CARTESIAN COORDINATES (ANGSTROEM)
---------------------------------
  C     -0.221060    2.864428    0.000000
  C     -0.221060   -2.371524    1.265102
  C     -0.221060   -2.371524   -1.265102
  C      1.048508   -0.544433    0.000000
  C     -0.053651    0.498440    0.000000
  C      0.564195   -2.007414    0.000000
  O     -1.421923    2.840809    0.000000
  O      0.588857    1.801614    0.000000
  H      0.384539    3.779558    0.000000
  H     -0.428507   -3.442220    1.294360
  H     -1.181810   -1.855200    1.308497
  H      0.337007   -2.116386    2.167817
  H     -1.181810   -1.855200   -1.308497
  H     -0.428507   -3.442220   -1.294360
  H      0.337007   -2.116386   -2.167817
  H      1.679808   -0.377477   -0.876121
  H      1.679808   -0.377477    0.876121
  H     -0.691293    0.435316   -0.880677
  H     -0.691293    0.435316    0.880677
  H      1.474353   -2.614843    0.000000

 Total Charge           Charge          ....    0
 Multiplicity           Mult            ....    1
 Number of Electrons    NEL             ....   64
 Basis Dimension        Dim             ....  292

ORBITAL ENERGIES
----------------

  NO   OCC          E(Eh)            E(eV)
   0   2.0000     -20.617247      -561.0238
   1   2.0000     -20.563700      -559.5667
   2   2.0000     -11.390779      -309.9588
   3   2.0000     -11.296015      -307.3802
   4   2.0000     -11.242078      -305.9125
   5   2.0000     -11.234524      -305.7069
   6   2.0000     -11.224522      -305.4348
   7   2.0000     -11.224498      -305.4341
   8   2.0000      -1.466835       -39.9146
   9   2.0000      -1.370849       -37.3027
  10   2.0000      -1.105264       -30.0758
  11   2.0000      -1.016425       -27.6583
  12   2.0000      -0.938353       -25.5339
  13   2.0000      -0.902065       -24.5464
  14   2.0000      -0.815652       -22.1950
  15   2.0000      -0.772273       -21.0146
  16   2.0000      -0.719497       -19.5785
  17   2.0000      -0.685036       -18.6408
  18   2.0000      -0.682007       -18.5584
  19   2.0000      -0.630472       -17.1560
  20   2.0000      -0.605963       -16.4891
  21   2.0000      -0.598045       -16.2736
  22   2.0000      -0.562531       -15.3072
  23   2.0000      -0.559307       -15.2195
  24   2.0000      -0.534819       -14.5532
  25   2.0000      -0.526575       -14.3288
  26   2.0000      -0.508315       -13.8319
  27   2.0000      -0.477533       -12.9943
  28   2.0000      -0.471949       -12.8424
  29   2.0000      -0.463660       -12.6168
  30   2.0000      -0.459893       -12.5143
  31   2.0000      -0.453187       -12.3318
  32   0.0000       0.032894         0.8951
  33   0.0000       0.040371         1.0985
  34   0.0000       0.044791         1.2188
  35   0.0000       0.045576         1.2402
  36   0.0000       0.056888         1.5480

MULLIKEN ATOMIC CHARGES
-----------------------
   0 C :    1.014443
   1 C :    0.815788
   2 C :    0.815788
   3 C :    0.349890
   4 C :    1.057913
   5 C :   -1.179219
   6 O :   -0.600733
   7 O :   -0.730380
   8 H :   -0.213002
   9 H :   -0.102910
  10 H :   -0.064249
  11 H :   -0.083552
  12 H :   -0.064249
  13 H :   -0.102910
  14 H :   -0.083552
  15 H :   -0.141433
  16 H :   -0.141433
  17 H :   -0.229649
  18 H :   -0.229649
  19 H :   -0.086903
Sum of atomic charges:   -0.0000000

LOEWDIN ATOMIC CHARGES
----------------------
   0 C :   -0.149817
   1 C :    0.158470
   2 C :    0.158470
   3 C :   -0.005028
   4 C :    0.012615
   5 C :   -0.274350
   6 O :    0.017821
   7 O :    0.048453
   8 H :    0.014608
   9 H :   -0.013490
  10 H :   -0.017049
  11 H :   -0.010880
  12 H :   -0.017049
  13 H :   -0.013490
  14 H :   -0.010880
  15 H :    0.021833
  16 H :    0.021833
  17 H :    0.010428
  18 H :    0.010428
  19 H :    0.037074

  Mayer bond orders larger than 0.100000
B(  0-C ,  6-O ) :   1.6438 B(  0-C ,  7-O ) :   0.9733 B(  0-C ,  8-H ) :   0.9675
B(  1-C ,  2-C ) :  -0.1980 B(  1-C ,  3-C ) :  -0.1031 B(  1-C ,  5-C ) :   1.3746
B(  1-C ,  9-H ) :   0.7973 B(  1-C , 10-H ) :   0.8918 B(  1-C , 11-H ) :   0.8115
B(  2-C ,  3-C ) :  -0.1031 B(  2-C ,  5-C ) :   1.3746 B(  2-C , 12-H ) :   0.8918
B(  2-C , 13-H ) :   0.7973 B(  2-C , 14-H ) :   0.8115 B(  3-C ,  4-C ) :   1.1907
B(  3-C ,  5-C ) :   1.4023 B(  3-C , 15-H ) :   0.7813 B(  3-C , 16-H ) :   0.7813
B(  4-C ,  5-C ) :  -0.1700 B(  4-C ,  7-O ) :   0.4441 B(  4-C ,  8-H ) :   0.1121
B(  4-C , 17-H ) :   0.8063 B(  4-C , 18-H ) :   0.8063 B(  5-C ,  9-H ) :   0.1573
B(  5-C , 10-H ) :   0.1355 B(  5-C , 11-H ) :   0.1003 B(  5-C , 12-H ) :   0.1355
B(  5-C , 13-H ) :   0.1573 B(  5-C , 14-H ) :   0.1003 B(  5-C , 15-H ) :   0.1512
B(  5-C , 16-H ) :   0.1512 B(  5-C , 19-H ) :   0.6325 B(  9-H , 11-H ) :  -0.1049
B( 13-H , 14-H ) :  -0.1049 B( 15-H , 16-H ) :  -0.1583

MP2 TOTAL ENERGY:     -385.249942147 Eh
FINAL SINGLE POINT ENERGY      -385.249942147313

DIPOLE MOMENT
-------------
                                X             Y             Z
Electronic contribution:     -0.54775      13.30184      -0.00000
Nuclear contribution   :      1.32052     -13.94227       0.00000
                        -----------------------------------------
Total Dipole Moment    :      0.77276      -0.64044      -0.00000
                        -----------------------------------------
Magnitude (a.u.)       :      1.00365
Magnitude (Debye)      :      2.55108

Rotational constants in cm-1:     0.141819     0.028290     0.028142
Rotational constants in MHz :  4251.616188   848.120406   843.667236

                             ****ORCA TERMINATED NORMALLY****
TOTAL RUN TIME: 0 days 0 hours 1 minutes 46 seconds 319 msec
