                         Program Version 5.0.3 -  RELEASE  -
|  1> !ri-mp2 aug-cc-pvdz aug-cc-pvdz/c tightscf
|  2> %pal nprocs 16 end
|  3>
|  4> * xyz 0 1
|  5> C     0.000000     0.000000    0.371001
|  6> C     0.000000     1.458065   -0.095429
|  7> C    -1.262722    -0.729033   -0.095429
|  8> C     1.262722    -0.729033   -0.095429
|  9> H    -1.282986    -1.759266    0.264412
| 10> H     1.282986    -1.759266    0.264412
| 11> H    -0.882076     1.990731    0.264412
| 12> H     0.882076     1.990731    0.264412
| 13> H    -2.165062    -0.231466    0.264412
| 14> H    -1.313214    -0.758184   -1.187000
| 15> H     2.165062    -0.231466    0.264412
| 16> H     0.000000     1.516369   -1.187000
| 17> H     1.313214    -0.758184   -1.187000
| 18> H     0.000000     0.000000    1.466243
| 19> *
| 20>
| 21>                          ****END OF INPUT****

CARTESIAN COORDINATES (ANGSTROEM)
---------------------------------
  C      0.000000    0.000000    0.371001
  C      0.000000    1.458065   -0.095429
  C     -1.262722   -0.729033   -0.095429
  C      1.262722   -0.729033   -0.095429
  H     -1.282986   -1.759266    0.264412
  H      1.282986   -1.759266    0.264412
  H     -0.882076    1.990731    0.264412
  H      0.882076    1.990731    0.264412
  H     -2.165062   -0.231466    0.264412
  H     -1.313214   -0.758184   -1.187000
  H      2.165062   -0.231466    0.264412
  H      0.000000    1.516369   -1.187000
  H      1.313214   -0.758184   -1.187000
  H      0.000000    0.000000    1.466243

 Total Charge           Charge          ....    0
 Multiplicity           Mult            ....    1
 Number of Electrons    NEL             ....   34
 Basis Dimension        Dim             ....  182

ORBITAL ENERGIES
----------------

  NO   OCC          E(Eh)            E(eV)
   0   2.0000     -11.228443      -305.5415
   1   2.0000     -11.214252      -305.1553
   2   2.0000     -11.214252      -305.1553
   3   2.0000     -11.214213      -305.1542
   4   2.0000      -1.080026       -29.3890
   5   2.0000      -0.927047       -25.2262
   6   2.0000      -0.927047       -25.2262
   7   2.0000      -0.766325       -20.8528
   8   2.0000      -0.629018       -17.1165
   9   2.0000      -0.588341       -16.0096
  10   2.0000      -0.588341       -16.0096
  11   2.0000      -0.531688       -14.4680
  12   2.0000      -0.531688       -14.4680
  13   2.0000      -0.508835       -13.8461
  14   2.0000      -0.461197       -12.5498
  15   2.0000      -0.461197       -12.5498
  16   2.0000      -0.456555       -12.4235
  17   0.0000       0.037553         1.0219
  18   0.0000       0.048671         1.3244
  19   0.0000       0.048671         1.3244
  20   0.0000       0.049187         1.3384
  21   0.0000       0.070892         1.9291

MULLIKEN ATOMIC CHARGES
-----------------------
   0 C :   -1.626914
   1 C :    0.789260
   2 C :    0.789261
   3 C :    0.789261
   4 H :   -0.092281
   5 H :   -0.092281
   6 H :   -0.092281
   7 H :   -0.092281
   8 H :   -0.092282
   9 H :   -0.025998
  10 H :   -0.092282
  11 H :   -0.025998
  12 H :   -0.025998
  13 H :   -0.109187
Sum of atomic charges:    0.0000000

LOEWDIN ATOMIC CHARGES
----------------------
   0 C :   -0.333031
   1 C :    0.146695
   2 C :    0.146696
   3 C :    0.146696
   4 H :   -0.016713
   5 H :   -0.016713
   6 H :   -0.016712
   7 H :   -0.016712
   8 H :   -0.016713
   9 H :   -0.012880
  10 H :   -0.016713
  11 H :   -0.012880
  12 H :   -0.012880
  13 H :    0.031861

  Mayer bond orders larger than 0.100000
B(  0-C ,  1-C ) :   1.3642 B(  0-C ,  2-C ) :   1.3642 B(  0-C ,  3-C ) :   1.3642
B(  0-C ,  4-H ) :   0.1195 B(  0-C ,  5-H ) :   0.1195 B(  0-C ,  6-H ) :   0.1195
B(  0-C ,  7-H ) :   0.1195 B(  0-C ,  8-H ) :   0.1195 B(  0-C ,  9-H ) :   0.1102
B(  0-C , 10-H ) :   0.1195 B(  0-C , 11-H ) :   0.1102 B(  0-C , 12-H ) :   0.1102
B(  0-C , 13-H ) :   0.7659 B(  1-C ,  2-C ) :  -0.1173 B(  1-C ,  3-C ) :  -0.1173
B(  1-C ,  6-H ) :   0.8242 B(  1-C ,  7-H ) :   0.8242 B(  1-C , 11-H ) :   0.8923
B(  2-C ,  3-C ) :  -0.1173 B(  2-C ,  4-H ) :   0.8242 B(  2-C ,  8-H ) :   0.8242
B(  2-C ,  9-H ) :   0.8923 B(  3-C ,  5-H ) :   0.8242 B(  3-C , 10-H ) :   0.8242
B(  3-C , 12-H ) :   0.8923 B(  4-H ,  8-H ) :  -0.1004 B(  5-H , 10-H ) :  -0.1004
B(  6-H ,  7-H ) :  -0.1003

MP2 TOTAL ENERGY:     -157.928687662 Eh
FINAL SINGLE POINT ENERGY      -157.928687662139

DIPOLE MOMENT
-------------
                                X             Y             Z
Electronic contribution:     -0.00000      -0.00000       0.60993
Nuclear contribution   :     -0.00000       0.00000      -0.55840
                        -----------------------------------------
Total Dipole Moment    :     -0.00000       0.00000       0.05153
                        -----------------------------------------
Magnitude (a.u.)       :      0.05153
Magnitude (Debye)      :      0.13098

Rotational constants in cm-1:     0.259574     0.259574     0.150204
Rotational constants in MHz :  7781.833215  7781.829990  4502.995694

                             ****ORCA TERMINATED NORMALLY****
TOTAL RUN TIME: 0 days 0 hours 0 minutes 31 seconds 872 msec
