                         Program Version 5.0.3 -  RELEASE  -
|  1> !ri-mp2 aug-cc-pvdz aug-cc-pvdz/c tightscf
|  2> %pal nprocs 16 end
|  3>
|  4> * xyz 0 1
|  5> H      1.358380   -1.380419        0.000000
|  6> N      0.395111   -1.094787        0.000000
|  7> C      0.000000    0.049280        0.000000
|  8> O     -0.515520    1.093531        0.000000
|  9> *
| 10>
| 11>                          ****END OF INPUT****

CARTESIAN COORDINATES (ANGSTROEM)
---------------------------------
  H      1.358380   -1.380419    0.000000
  N      0.395111   -1.094787    0.000000
  C      0.000000    0.049280    0.000000
  O     -0.515520    1.093531    0.000000

 Total Charge           Charge          ....    0
 Multiplicity           Mult            ....    1
 Number of Electrons    NEL             ....   22
 Basis Dimension        Dim             ....   78

ORBITAL ENERGIES
----------------

  NO   OCC          E(Eh)            E(eV)
   0   2.0000     -20.635079      -561.5091
   1   2.0000     -15.604200      -424.6119
   2   2.0000     -11.429017      -310.9994
   3   2.0000      -1.484150       -40.3858
   4   2.0000      -1.269852       -34.5544
   5   2.0000      -0.818675       -22.2773
   6   2.0000      -0.735516       -20.0144
   7   2.0000      -0.659447       -17.9445
   8   2.0000      -0.649219       -17.6661
   9   2.0000      -0.487007       -13.2521
  10   2.0000      -0.454294       -12.3620
  11   0.0000       0.029214         0.7949
  12   0.0000       0.082140         2.2351
  13   0.0000       0.090699         2.4680
  14   0.0000       0.093318         2.5393
  15   0.0000       0.113892         3.0992

MULLIKEN ATOMIC CHARGES
-----------------------
   0 H :    0.068159
   1 N :   -0.131809
   2 C :    0.427279
   3 O :   -0.363628
Sum of atomic charges:    0.0000000

LOEWDIN ATOMIC CHARGES
----------------------
   0 H :   -0.056720
   1 N :    0.192608
   2 C :   -0.236691
   3 O :    0.100804

  Mayer bond orders larger than 0.100000
B(  0-H ,  1-N ) :   0.9918 B(  1-N ,  2-C ) :   1.9844 B(  2-C ,  3-O ) :   1.9541

MP2 TOTAL ENERGY:     -168.279218124 Eh
FINAL SINGLE POINT ENERGY      -168.279218123848

DIPOLE MOMENT
-------------
                                X             Y             Z
Electronic contribution:     -0.47007       0.93719       0.00000
Nuclear contribution   :      1.29890      -1.31526       0.00000
                        -----------------------------------------
Total Dipole Moment    :      0.82883      -0.37806       0.00000
                        -----------------------------------------
Magnitude (a.u.)       :      0.91098
Magnitude (Debye)      :      2.31554

Rotational constants in cm-1:    29.695573     0.370370     0.365807
Rotational constants in MHz : 890250.896759 11103.400559 10966.622486

                             ****ORCA TERMINATED NORMALLY****
TOTAL RUN TIME: 0 days 0 hours 0 minutes 32 seconds 768 msec
