                         Program Version 5.0.3 -  RELEASE  -
|  1> !ri-mp2 aug-cc-pvdz aug-cc-pvdz/c tightscf
|  2> %pal nprocs 16 end
|  3>
|  4> * xyz 0 1
|  5> C     -0.218615    0.231720   -0.334249
|  6> C      2.099372    0.063633    0.050519
|  7> C     -1.485571   -0.576666   -0.009374
|  8> O      0.817838   -0.322832    0.399628
|  9> F      2.373326   -0.321108   -1.226533
| 10> F      2.924768   -0.591330    0.873399
| 11> F     -1.301155   -1.854169   -0.377515
| 12> F     -2.528100   -0.095040   -0.699597
| 13> F     -1.784593   -0.552251    1.290062
| 14> Cl    -0.487352    1.980503    0.064712
| 15> H     -0.042858    0.187772   -1.406517
| 16> H      2.255795    1.139294    0.129683
| 17> *
| 18>
| 19>                          ****END OF INPUT****

CARTESIAN COORDINATES (ANGSTROEM)
---------------------------------
  C     -0.218615    0.231720   -0.334249
  C      2.099372    0.063633    0.050519
  C     -1.485571   -0.576666   -0.009374
  O      0.817838   -0.322832    0.399628
  F      2.373326   -0.321108   -1.226533
  F      2.924768   -0.591330    0.873399
  F     -1.301155   -1.854169   -0.377515
  F     -2.528100   -0.095040   -0.699597
  F     -1.784593   -0.552251    1.290062
  Cl    -0.487352    1.980503    0.064712
  H     -0.042858    0.187772   -1.406517
  H      2.255795    1.139294    0.129683

 Total Charge           Charge          ....    0
 Multiplicity           Mult            ....    1
 Number of Electrons    NEL             ....   90
 Basis Dimension        Dim             ....  252

ORBITAL ENERGIES
----------------

  NO   OCC          E(Eh)            E(eV)
   0   2.0000    -104.870431     -2853.6695
   1   2.0000     -26.376776      -717.7486
   2   2.0000     -26.374824      -717.6954
   3   2.0000     -26.374801      -717.6948
   4   2.0000     -26.361561      -717.3345
   5   2.0000     -26.359911      -717.2896
   6   2.0000     -20.664017      -562.2965
   7   2.0000     -11.550825      -314.3139
   8   2.0000     -11.508093      -313.1511
   9   2.0000     -11.426930      -310.9426
  10   2.0000     -10.596584      -288.3477
  11   2.0000      -8.064189      -219.4377
  12   2.0000      -8.060937      -219.3492
  13   2.0000      -8.060741      -219.3439
  14   2.0000      -1.760179       -47.8969
  15   2.0000      -1.716031       -46.6956
  16   2.0000      -1.665405       -45.3180
  17   2.0000      -1.663237       -45.2590
  18   2.0000      -1.646222       -44.7960
  19   2.0000      -1.490051       -40.5463
  20   2.0000      -1.179329       -32.0912
  21   2.0000      -1.065464       -28.9928
  22   2.0000      -0.990850       -26.9624
  23   2.0000      -0.928479       -25.2652
  24   2.0000      -0.859833       -23.3972
  25   2.0000      -0.852762       -23.2048
  26   2.0000      -0.847427       -23.0597
  27   2.0000      -0.827502       -22.5175
  28   2.0000      -0.813433       -22.1346
  29   2.0000      -0.791002       -21.5243
  30   2.0000      -0.735080       -20.0025
  31   2.0000      -0.732640       -19.9361
  32   2.0000      -0.705596       -19.2002
  33   2.0000      -0.696404       -18.9501
  34   2.0000      -0.692107       -18.8332
  35   2.0000      -0.683374       -18.5955
  36   2.0000      -0.674299       -18.3486
  37   2.0000      -0.670816       -18.2538
  38   2.0000      -0.668004       -18.1773
  39   2.0000      -0.644764       -17.5449
  40   2.0000      -0.610013       -16.5993
  41   2.0000      -0.581922       -15.8349
  42   2.0000      -0.525849       -14.3091
  43   2.0000      -0.493461       -13.4278
  44   2.0000      -0.484228       -13.1765
  45   0.0000       0.036507         0.9934
  46   0.0000       0.047655         1.2967
  47   0.0000       0.072612         1.9759
  48   0.0000       0.078781         2.1438
  49   0.0000       0.094105         2.5607

MULLIKEN ATOMIC CHARGES
-----------------------
   0 C :    0.116520
   1 C :    1.782778
   2 C :    2.229472
   3 O :   -0.920468
   4 F :   -0.585562
   5 F :   -0.549716
   6 F :   -0.637336
   7 F :   -0.600224
   8 F :   -0.624506
   9 Cl:   -0.096784
  10 H :    0.063178
  11 H :   -0.177353
Sum of atomic charges:    0.0000000

LOEWDIN ATOMIC CHARGES
----------------------
   0 C :   -0.431991
   1 C :   -0.189653
   2 C :   -0.403689
   3 O :    0.036041
   4 F :    0.049391
   5 F :    0.079987
   6 F :    0.098535
   7 F :    0.086919
   8 F :    0.098993
   9 Cl:    0.552716
  10 H :    0.005196
  11 H :    0.017555

  Mayer bond orders larger than 0.100000
B(  0-C ,  2-C ) :   1.0757 B(  0-C ,  3-O ) :   0.5572 B(  0-C ,  6-F ) :   0.1938
B(  0-C ,  8-F ) :   0.1184 B(  0-C ,  9-Cl) :   1.2421 B(  0-C , 10-H ) :   0.8042
B(  1-C ,  3-O ) :   0.8071 B(  1-C ,  4-F ) :   0.4502 B(  1-C ,  5-F ) :   0.4968
B(  1-C , 11-H ) :   0.9747 B(  2-C ,  6-F ) :   0.2182 B(  2-C ,  7-F ) :   0.2808
B(  2-C ,  8-F ) :   0.3024

MP2 TOTAL ENERGY:    -1148.187553510 Eh
FINAL SINGLE POINT ENERGY     -1148.187553509797

DIPOLE MOMENT
-------------
                                X             Y             Z
Electronic contribution:     -2.69673      -1.03808       0.69990
Nuclear contribution   :      2.96374       1.70417      -1.12202
                        -----------------------------------------
Total Dipole Moment    :      0.26701       0.66610      -0.42212
                        -----------------------------------------
Magnitude (a.u.)       :      0.83256
Magnitude (Debye)      :      2.11621

Rotational constants in cm-1:     0.052783     0.024768     0.020698
Rotational constants in MHz :  1582.398590   742.521653   620.514307

                             ****ORCA TERMINATED NORMALLY****
TOTAL RUN TIME: 0 days 0 hours 1 minutes 3 seconds 729 msec
