                         Program Version 5.0.3 -  RELEASE  -
|  1> !ri-mp2 aug-cc-pvdz aug-cc-pvdz/c tightscf
|  2> %pal nprocs 16 end
|  3>
|  4> * xyz 0 1
|  5> C     -2.290734    0.312473   -0.152529
|  6> C      1.730575    1.318317    0.376938
|  7> C      2.349480   -1.102336   -0.024284
|  8> C     -0.050404   -0.444296    0.035206
|  9> C      1.350871    0.017165   -0.333148
| 10> O     -2.730830   -0.652419    0.410787
| 11> O     -1.002022    0.556886   -0.408491
| 12> H     -2.898837    1.139165   -0.541138
| 13> H      2.726140    1.646204    0.075225
| 14> H      1.741116    1.179254    1.460987
| 15> H      1.028303    2.118260    0.146337
| 16> H      3.358716   -0.805723   -0.310746
| 17> H      2.105762   -2.020077   -0.561819
| 18> H      2.364512   -1.333019    1.043503
| 19> H     -0.300747   -1.390490   -0.444761
| 20> H     -0.160689   -0.574017    1.113477
| 21> H      1.359807    0.196764   -1.412535
| 22> *
| 23>
| 24>                          ****END OF INPUT****

CARTESIAN COORDINATES (ANGSTROEM)
---------------------------------
  C     -2.290734    0.312473   -0.152529
  C      1.730575    1.318317    0.376938
  C      2.349480   -1.102336   -0.024284
  C     -0.050404   -0.444296    0.035206
  C      1.350871    0.017165   -0.333148
  O     -2.730830   -0.652419    0.410787
  O     -1.002022    0.556886   -0.408491
  H     -2.898837    1.139165   -0.541138
  H      2.726140    1.646204    0.075225
  H      1.741116    1.179254    1.460987
  H      1.028303    2.118260    0.146337
  H      3.358716   -0.805723   -0.310746
  H      2.105762   -2.020077   -0.561819
  H      2.364512   -1.333019    1.043503
  H     -0.300747   -1.390490   -0.444761
  H     -0.160689   -0.574017    1.113477
  H      1.359807    0.196764   -1.412535

 Total Charge           Charge          ....    0
 Multiplicity           Mult            ....    1
 Number of Electrons    NEL             ....   56
 Basis Dimension        Dim             ....  251

ORBITAL ENERGIES
----------------

  NO   OCC          E(Eh)            E(eV)
   0   2.0000     -20.618057      -561.0459
   1   2.0000     -20.564594      -559.5911
   2   2.0000     -11.391919      -309.9899
   3   2.0000     -11.296237      -307.3862
   4   2.0000     -11.244416      -305.9761
   5   2.0000     -11.229884      -305.5807
   6   2.0000     -11.223804      -305.4152
   7   2.0000      -1.468201       -39.9518
   8   2.0000      -1.372167       -37.3386
   9   2.0000      -1.100171       -29.9372
  10   2.0000      -0.966805       -26.3081
  11   2.0000      -0.941081       -25.6081
  12   2.0000      -0.830475       -22.5984
  13   2.0000      -0.787045       -21.4166
  14   2.0000      -0.725060       -19.7299
  15   2.0000      -0.686374       -18.6772
  16   2.0000      -0.678386       -18.4598
  17   2.0000      -0.622803       -16.9473
  18   2.0000      -0.608279       -16.5521
  19   2.0000      -0.569313       -15.4918
  20   2.0000      -0.547086       -14.8870
  21   2.0000      -0.544417       -14.8143
  22   2.0000      -0.535616       -14.5749
  23   2.0000      -0.490200       -13.3390
  24   2.0000      -0.483333       -13.1522
  25   2.0000      -0.477124       -12.9832
  26   2.0000      -0.460696       -12.5362
  27   2.0000      -0.458128       -12.4663
  28   0.0000       0.033935         0.9234
  29   0.0000       0.041317         1.1243
  30   0.0000       0.045787         1.2459
  31   0.0000       0.047365         1.2889
  32   0.0000       0.060611         1.6493

MULLIKEN ATOMIC CHARGES
-----------------------
   0 C :    0.965000
   1 C :    0.824820
   2 C :    0.796176
   3 C :    1.205713
   4 C :   -1.430906
   5 O :   -0.597122
   6 O :   -0.702203
   7 H :   -0.208576
   8 H :   -0.088580
   9 H :   -0.021792
  10 H :   -0.066405
  11 H :   -0.073975
  12 H :   -0.084844
  13 H :   -0.013614
  14 H :   -0.214853
  15 H :   -0.173282
  16 H :   -0.115558
Sum of atomic charges:    0.0000000

LOEWDIN ATOMIC CHARGES
----------------------
   0 C :   -0.149023
   1 C :    0.162598
   2 C :    0.163254
   3 C :    0.025129
   4 C :   -0.288605
   5 O :    0.019099
   6 O :    0.048457
   7 H :    0.015168
   8 H :   -0.013788
   9 H :   -0.009333
  10 H :   -0.016932
  11 H :   -0.012735
  12 H :   -0.013646
  13 H :   -0.009475
  14 H :    0.017520
  15 H :    0.021336
  16 H :    0.040974

  Mayer bond orders larger than 0.100000
B(  0-C ,  5-O ) :   1.6714 B(  0-C ,  6-O ) :   0.9456 B(  0-C ,  7-H ) :   0.9998
B(  1-C ,  2-C ) :  -0.1450 B(  1-C ,  4-C ) :   1.3362 B(  1-C ,  8-H ) :   0.8229
B(  1-C ,  9-H ) :   0.8785 B(  1-C , 10-H ) :   0.8424 B(  2-C ,  3-C ) :  -0.1247
B(  2-C ,  4-C ) :   1.3675 B(  2-C , 11-H ) :   0.8143 B(  2-C , 12-H ) :   0.8319
B(  2-C , 13-H ) :   0.9039 B(  3-C ,  4-C ) :   1.2571 B(  3-C ,  6-O ) :   0.4224
B(  3-C , 14-H ) :   0.8092 B(  3-C , 15-H ) :   0.8722 B(  4-C ,  8-H ) :   0.1273
B(  4-C ,  9-H ) :   0.1126 B(  4-C , 11-H ) :   0.1618 B(  4-C , 12-H ) :   0.1051
B(  4-C , 13-H ) :   0.1022 B(  4-C , 16-H ) :   0.7210 B( 11-H , 12-H ) :  -0.1001

MP2 TOTAL ENERGY:     -346.064646429 Eh
FINAL SINGLE POINT ENERGY      -346.064646429026

DIPOLE MOMENT
-------------
                                X             Y             Z
Electronic contribution:    -10.79450       0.26063      -0.91352
Nuclear contribution   :     11.60045       0.15942       0.58549
                        -----------------------------------------
Total Dipole Moment    :      0.80595       0.42005      -0.32804
                        -----------------------------------------
Magnitude (a.u.)       :      0.96623
Magnitude (Debye)      :      2.45597

Rotational constants in cm-1:     0.196673     0.044232     0.038787
Rotational constants in MHz :  5896.119566  1326.048063  1162.811786

                             ****ORCA TERMINATED NORMALLY****
TOTAL RUN TIME: 0 days 0 hours 0 minutes 56 seconds 349 msec
