                         Program Version 5.0.3 -  RELEASE  -
|  1> !ri-mp2 aug-cc-pvdz aug-cc-pvdz/c tightscf
|  2> %pal nprocs 16 end
|  3>
|  4> * xyz 0 1
|  5> O     -1.742007    1.965021   -0.000021
|  6> C     -1.177229    0.903277   -0.000010
|  7> C      0.255043    0.578698   -0.000007
|  8> C      0.379731   -0.819241    0.000009
|  9> C      1.623314   -1.425094    0.000016
| 10> C      2.745582   -0.595433    0.000007
| 11> C      2.634874    0.794760   -0.000010
| 12> C      1.378592    1.391778   -0.000017
| 13> N     -0.883171   -1.422253    0.000016
| 14> C     -1.904802   -0.492965    0.000006
| 15> O     -3.086643   -0.710872    0.000008
| 16> H      1.729179   -2.501176    0.000029
| 17> H      3.728266   -1.047628    0.000012
| 18> H      3.527112    1.404141   -0.000017
| 19> H      1.265488    2.467328   -0.000029
| 20> H     -1.049284   -2.414768    0.000030
| 21> *
| 22>
| 23>                          ****END OF INPUT****

CARTESIAN COORDINATES (ANGSTROEM)
---------------------------------
  O     -1.742007    1.965021   -0.000021
  C     -1.177229    0.903277   -0.000010
  C      0.255043    0.578698   -0.000007
  C      0.379731   -0.819241    0.000009
  C      1.623314   -1.425094    0.000016
  C      2.745582   -0.595433    0.000007
  C      2.634874    0.794760   -0.000010
  C      1.378592    1.391778   -0.000017
  N     -0.883171   -1.422253    0.000016
  C     -1.904802   -0.492965    0.000006
  O     -3.086643   -0.710872    0.000008
  H      1.729179   -2.501176    0.000029
  H      3.728266   -1.047628    0.000012
  H      3.527112    1.404141   -0.000017
  H      1.265488    2.467328   -0.000029
  H     -1.049284   -2.414768    0.000030

 Total Charge           Charge          ....    0
 Multiplicity           Mult            ....    1
 Number of Electrons    NEL             ....   76
 Basis Dimension        Dim             ....  298

ORBITAL ENERGIES
----------------

  NO   OCC          E(Eh)            E(eV)
   0   2.0000     -20.589590      -560.2712
   1   2.0000     -20.573700      -559.8388
   2   2.0000     -15.634554      -425.4378
   3   2.0000     -11.389528      -309.9248
   4   2.0000     -11.367111      -309.3148
   5   2.0000     -11.330469      -308.3177
   6   2.0000     -11.285184      -307.0855
   7   2.0000     -11.284522      -307.0675
   8   2.0000     -11.269579      -306.6608
   9   2.0000     -11.264216      -306.5149
  10   2.0000     -11.261118      -306.4306
  11   2.0000      -1.435839       -39.0712
  12   2.0000      -1.409979       -38.3675
  13   2.0000      -1.310389       -35.6575
  14   2.0000      -1.178478       -32.0680
  15   2.0000      -1.077364       -29.3166
  16   2.0000      -1.043776       -28.4026
  17   2.0000      -0.968330       -26.3496
  18   2.0000      -0.870730       -23.6938
  19   2.0000      -0.840295       -22.8656
  20   2.0000      -0.798874       -21.7385
  21   2.0000      -0.752111       -20.4660
  22   2.0000      -0.720222       -19.5982
  23   2.0000      -0.682252       -18.5650
  24   2.0000      -0.668442       -18.1892
  25   2.0000      -0.643527       -17.5113
  26   2.0000      -0.640645       -17.4328
  27   2.0000      -0.637999       -17.3608
  28   2.0000      -0.634930       -17.2773
  29   2.0000      -0.561164       -15.2701
  30   2.0000      -0.549017       -14.9395
  31   2.0000      -0.540378       -14.7044
  32   2.0000      -0.538837       -14.6625
  33   2.0000      -0.505819       -13.7640
  34   2.0000      -0.467803       -12.7296
  35   2.0000      -0.414772       -11.2865
  36   2.0000      -0.375280       -10.2119
  37   2.0000      -0.336326        -9.1519
  38   0.0000       0.022384         0.6091
  39   0.0000       0.025052         0.6817
  40   0.0000       0.031620         0.8604
  41   0.0000       0.041175         1.1204
  42   0.0000       0.055777         1.5178

MULLIKEN ATOMIC CHARGES
-----------------------
   0 O :   -0.790019
   1 C :    0.026868
   2 C :    1.149922
   3 C :   -0.476057
   4 C :    0.728522
   5 C :    0.321633
   6 C :    0.616019
   7 C :    1.062301
   8 N :   -0.761248
   9 C :    0.880940
  10 O :   -0.751620
  11 H :   -0.518088
  12 H :   -0.460037
  13 H :   -0.455698
  14 H :   -0.488947
  15 H :   -0.084491
Sum of atomic charges:    0.0000000

LOEWDIN ATOMIC CHARGES
----------------------
   0 O :    0.091499
   1 C :   -0.154763
   2 C :   -0.103391
   3 C :   -0.141491
   4 C :    0.073818
   5 C :    0.036981
   6 C :    0.019990
   7 C :    0.092265
   8 N :    0.157526
   9 C :   -0.215448
  10 O :    0.067336
  11 H :    0.005610
  12 H :    0.010115
  13 H :   -0.001163
  14 H :    0.023769
  15 H :    0.037348

  Mayer bond orders larger than 0.100000
B(  0-O ,  1-C ) :   1.4509 B(  0-O ,  2-C ) :  -0.1621 B(  0-O ,  7-C ) :  -0.1258
B(  1-C ,  2-C ) :   0.6676 B(  1-C ,  3-C ) :  -0.1252 B(  1-C ,  4-C ) :   0.2325
B(  1-C ,  6-C ) :   0.2439 B(  1-C ,  7-C ) :  -0.7514 B(  1-C ,  9-C ) :   0.7572
B(  2-C ,  3-C ) :   1.8779 B(  2-C ,  4-C ) :  -0.6607 B(  2-C ,  7-C ) :   2.0889
B(  2-C ,  8-N ) :   0.1357 B(  2-C , 11-H ) :  -0.1546 B(  2-C , 14-H ) :   0.7298
B(  3-C ,  4-C ) :   2.2477 B(  3-C ,  5-C ) :   0.1827 B(  3-C ,  6-C ) :  -0.2435
B(  3-C ,  7-C ) :  -0.6752 B(  3-C ,  8-N ) :   0.5094 B(  3-C ,  9-C ) :  -0.4530
B(  3-C , 10-O ) :   0.1146 B(  3-C , 11-H ) :   1.1810 B(  3-C , 15-H ) :  -0.1943
B(  4-C ,  5-C ) :   1.6910 B(  4-C ,  8-N ) :  -0.1310 B(  4-C , 11-H ) :  -0.4474
B(  4-C , 12-H ) :   0.1787 B(  5-C ,  6-C ) :   1.7863 B(  5-C , 11-H ) :   0.1939
B(  5-C , 12-H ) :   0.3263 B(  5-C , 13-H ) :   0.2439 B(  6-C ,  7-C ) :   1.4537
B(  6-C , 12-H ) :   0.2204 B(  6-C , 13-H ) :   0.2239 B(  7-C ,  9-C ) :   0.2350
B(  7-C , 13-H ) :   0.2303 B(  8-N ,  9-C ) :   1.1507 B(  8-N , 11-H ) :  -0.1160
B(  8-N , 15-H ) :   1.2519 B(  9-C , 10-O ) :   1.3020 B(  9-C , 15-H ) :  -0.1202

MP2 TOTAL ENERGY:     -511.711043505 Eh
FINAL SINGLE POINT ENERGY      -511.711043504798

DIPOLE MOMENT
-------------
                                X             Y             Z
Electronic contribution:     -6.45366       0.81443      -0.00001
Nuclear contribution   :      8.84678      -2.01847       0.00002
                        -----------------------------------------
Total Dipole Moment    :      2.39312      -1.20404       0.00002
                        -----------------------------------------
Magnitude (a.u.)       :      2.67894
Magnitude (Debye)      :      6.80933

Rotational constants in cm-1:     0.082688     0.031522     0.022822
Rotational constants in MHz :  2478.911909   944.997495   684.178600

                             ****ORCA TERMINATED NORMALLY****
TOTAL RUN TIME: 0 days 0 hours 1 minutes 29 seconds 18 msec
