                         Program Version 5.0.3 -  RELEASE  -
|  1> !ri-mp2 aug-cc-pvdz aug-cc-pvdz/c tightscf
|  2> %pal nprocs 16 end
|  3>
|  4> * xyz 0 1
|  5> N     -2.466280   -0.000132   -0.115548
|  6> N      1.326285   -2.243604    0.007368
|  7> N      1.326027    2.243752    0.007368
|  8> C      0.059128    0.000000   -0.004517
|  9> C     -1.277855   -0.000071    0.009938
| 10> C      0.760958   -1.239785    0.001005
| 11> C      0.760821    1.239864    0.001005
| 12> H     -3.120536   -0.000167    0.661103
| 13> *
| 14>
| 15>                          ****END OF INPUT****

CARTESIAN COORDINATES (ANGSTROEM)
---------------------------------
  N     -2.466280   -0.000132   -0.115548
  N      1.326285   -2.243604    0.007368
  N      1.326027    2.243752    0.007368
  C      0.059128    0.000000   -0.004517
  C     -1.277855   -0.000071    0.009938
  C      0.760958   -1.239785    0.001005
  C      0.760821    1.239864    0.001005
  H     -3.120536   -0.000167    0.661103

 Total Charge           Charge          ....    0
 Multiplicity           Mult            ....    1
 Number of Electrons    NEL             ....   46
 Basis Dimension        Dim             ....  170

ORBITAL ENERGIES
----------------

  NO   OCC          E(Eh)            E(eV)
   0   2.0000     -15.682628      -426.7460
   1   2.0000     -15.611566      -424.8123
   2   2.0000     -15.611566      -424.8123
   3   2.0000     -11.427301      -310.9527
   4   2.0000     -11.356925      -309.0376
   5   2.0000     -11.319672      -308.0239
   6   2.0000     -11.319652      -308.0234
   7   2.0000      -1.346730       -36.6464
   8   2.0000      -1.263748       -34.3883
   9   2.0000      -1.249005       -33.9871
  10   2.0000      -1.146740       -31.2044
  11   2.0000      -0.896450       -24.3936
  12   2.0000      -0.832627       -22.6569
  13   2.0000      -0.818481       -22.2720
  14   2.0000      -0.648953       -17.6589
  15   2.0000      -0.593443       -16.1484
  16   2.0000      -0.589379       -16.0378
  17   2.0000      -0.565564       -15.3898
  18   2.0000      -0.562745       -15.3131
  19   2.0000      -0.508893       -13.8477
  20   2.0000      -0.507331       -13.8052
  21   2.0000      -0.492399       -13.3989
  22   2.0000      -0.394408       -10.7324
  23   0.0000       0.013660         0.3717
  24   0.0000       0.054809         1.4914
  25   0.0000       0.065867         1.7923
  26   0.0000       0.069171         1.8822
  27   0.0000       0.072479         1.9722

MULLIKEN ATOMIC CHARGES
-----------------------
   0 N :   -0.236608
   1 N :   -0.300912
   2 N :   -0.300914
   3 C :    2.321240
   4 C :   -0.323556
   5 C :   -0.643925
   6 C :   -0.643926
   7 H :    0.128601
Sum of atomic charges:   -0.0000000

LOEWDIN ATOMIC CHARGES
----------------------
   0 N :    0.285076
   1 N :    0.106156
   2 N :    0.106156
   3 C :   -0.239640
   4 C :    0.026159
   5 C :   -0.136268
   6 C :   -0.136267
   7 H :   -0.011371

  Mayer bond orders larger than 0.100000
B(  0-N ,  3-C ) :  -0.1651 B(  0-N ,  4-C ) :   2.3818 B(  0-N ,  7-H ) :   0.9240
B(  1-N ,  3-C ) :  -0.2119 B(  1-N ,  5-C ) :   2.6922 B(  2-N ,  3-C ) :  -0.2119
B(  2-N ,  6-C ) :   2.6922 B(  3-C ,  4-C ) :   0.7557 B(  3-C ,  5-C ) :   0.1388
B(  3-C ,  6-C ) :   0.1388

MP2 TOTAL ENERGY:     -316.354144498 Eh
FINAL SINGLE POINT ENERGY      -316.354144497602

DIPOLE MOMENT
-------------
                                X             Y             Z
Electronic contribution:      0.73767       0.00003      -0.07439
Nuclear contribution   :     -2.95909      -0.00016       0.62656
                        -----------------------------------------
Total Dipole Moment    :     -2.22142      -0.00013       0.55217
                        -----------------------------------------
Magnitude (a.u.)       :      2.28901
Magnitude (Debye)      :      5.81821

Rotational constants in cm-1:     0.094512     0.094413     0.047391
Rotational constants in MHz :  2833.408863  2830.426687  1420.747982

                             ****ORCA TERMINATED NORMALLY****
TOTAL RUN TIME: 0 days 0 hours 0 minutes 38 seconds 318 msec
