                         Program Version 5.0.3 -  RELEASE  -
|  1> !ri-mp2 aug-cc-pvdz aug-cc-pvdz/c tightscf
|  2> %pal nprocs 16 end
|  3> %maxcore 3800
|  4>
|  5> * xyz 0 1
|  6> C     -0.601226   -2.584627    0.000000
|  7> C      0.748982   -2.260917    0.000000
|  8> C     -1.547135   -1.565096    0.000000
|  9> C      1.146365   -0.928060    0.000000
| 10> C     -1.144028   -0.236286    0.000000
| 11> C      0.210818    0.106161    0.000000
| 12> C      0.210818    2.299507    1.265971
| 13> C      0.210818    2.299507   -1.265971
| 14> C      0.662737    1.556271    0.000000
| 15> H     -0.915190   -3.619865    0.000000
| 16> H      1.495397   -3.044499    0.000000
| 17> H     -2.602280   -1.805893    0.000000
| 18> H      2.202394   -0.686488    0.000000
| 19> H     -1.896202    0.542418    0.000000
| 20> H     -0.877383    2.362280    1.320609
| 21> H      0.602440    3.318326    1.273546
| 22> H      0.560437    1.794019    2.166585
| 23> H      0.560437    1.794019   -2.166585
| 24> H      0.602440    3.318326   -1.273546
| 25> H     -0.877383    2.362280   -1.320609
| 26> H      1.755995    1.546317    0.000000
| 27> *
| 28>
| 29>                          ****END OF INPUT****

CARTESIAN COORDINATES (ANGSTROEM)
---------------------------------
  C     -0.601226   -2.584627    0.000000
  C      0.748982   -2.260917    0.000000
  C     -1.547135   -1.565096    0.000000
  C      1.146365   -0.928060    0.000000
  C     -1.144028   -0.236286    0.000000
  C      0.210818    0.106161    0.000000
  C      0.210818    2.299507    1.265971
  C      0.210818    2.299507   -1.265971
  C      0.662737    1.556271    0.000000
  H     -0.915190   -3.619865    0.000000
  H      1.495397   -3.044499    0.000000
  H     -2.602280   -1.805893    0.000000
  H      2.202394   -0.686488    0.000000
  H     -1.896202    0.542418    0.000000
  H     -0.877383    2.362280    1.320609
  H      0.602440    3.318326    1.273546
  H      0.560437    1.794019    2.166585
  H      0.560437    1.794019   -2.166585
  H      0.602440    3.318326   -1.273546
  H     -0.877383    2.362280   -1.320609
  H      1.755995    1.546317    0.000000

 Total Charge           Charge          ....    0
 Multiplicity           Mult            ....    1
 Number of Electrons    NEL             ....   66
 Basis Dimension        Dim             ....  315

ORBITAL ENERGIES
----------------

  NO   OCC          E(Eh)            E(eV)
   0   2.0000     -11.240186      -305.8610
   1   2.0000     -11.238732      -305.8215
   2   2.0000     -11.237158      -305.7786
   3   2.0000     -11.236726      -305.7669
   4   2.0000     -11.233172      -305.6701
   5   2.0000     -11.232354      -305.6479
   6   2.0000     -11.232237      -305.6447
   7   2.0000     -11.220260      -305.3188
   8   2.0000     -11.220239      -305.3182
   9   2.0000      -1.158106       -31.5137
  10   2.0000      -1.082330       -29.4517
  11   2.0000      -1.013927       -27.5904
  12   2.0000      -0.994556       -27.0632
  13   2.0000      -0.931867       -25.3574
  14   2.0000      -0.847299       -23.0562
  15   2.0000      -0.824589       -22.4382
  16   2.0000      -0.771449       -20.9922
  17   2.0000      -0.694016       -18.8851
  18   2.0000      -0.645561       -17.5666
  19   2.0000      -0.627934       -17.0869
  20   2.0000      -0.599788       -16.3211
  21   2.0000      -0.591122       -16.0852
  22   2.0000      -0.579515       -15.7694
  23   2.0000      -0.567068       -15.4307
  24   2.0000      -0.537647       -14.6301
  25   2.0000      -0.530577       -14.4377
  26   2.0000      -0.498877       -13.5751
  27   2.0000      -0.496144       -13.5008
  28   2.0000      -0.473884       -12.8950
  29   2.0000      -0.465628       -12.6704
  30   2.0000      -0.461355       -12.5541
  31   2.0000      -0.333664        -9.0795
  32   2.0000      -0.323749        -8.8096
  33   0.0000       0.034622         0.9421
  34   0.0000       0.039890         1.0855
  35   0.0000       0.041979         1.1423
  36   0.0000       0.050863         1.3841
  37   0.0000       0.054040         1.4705

MULLIKEN ATOMIC CHARGES
-----------------------
   0 C :    0.504054
   1 C :    0.363842
   2 C :    0.198086
   3 C :    0.416611
   4 C :    0.610332
   5 C :    1.079467
   6 C :    0.741422
   7 C :    0.741422
   8 C :   -1.195765
   9 H :   -0.456972
  10 H :   -0.449762
  11 H :   -0.469008
  12 H :   -0.645020
  13 H :   -0.662783
  14 H :   -0.066993
  15 H :   -0.101058
  16 H :   -0.104873
  17 H :   -0.104873
  18 H :   -0.101058
  19 H :   -0.066993
  20 H :   -0.230076
Sum of atomic charges:    0.0000000

LOEWDIN ATOMIC CHARGES
----------------------
   0 C :    0.002213
   1 C :    0.009104
   2 C :    0.009854
   3 C :    0.043106
   4 C :    0.044101
   5 C :   -0.156439
   6 C :    0.166764
   7 C :    0.166764
   8 C :   -0.245334
   9 H :   -0.002746
  10 H :   -0.000331
  11 H :   -0.000080
  12 H :    0.004655
  13 H :    0.003670
  14 H :   -0.016130
  15 H :   -0.013788
  16 H :   -0.009001
  17 H :   -0.009001
  18 H :   -0.013788
  19 H :   -0.016130
  20 H :    0.032537

  Mayer bond orders larger than 0.100000
B(  0-C ,  1-C ) :   1.7848 B(  0-C ,  2-C ) :   1.8249 B(  0-C ,  5-C ) :   0.2133
B(  0-C ,  9-H ) :   0.2040 B(  0-C , 10-H ) :   0.1195 B(  0-C , 11-H ) :   0.1912
B(  1-C ,  3-C ) :   1.6183 B(  1-C ,  5-C ) :  -0.4882 B(  1-C ,  8-C ) :   0.2686
B(  1-C ,  9-H ) :   0.2446 B(  1-C , 10-H ) :   0.2369 B(  1-C , 11-H ) :  -0.1191
B(  1-C , 12-H ) :   0.2566 B(  2-C ,  4-C ) :   1.7883 B(  2-C ,  5-C ) :  -0.6632
B(  2-C ,  8-C ) :   0.2922 B(  2-C ,  9-H ) :   0.2834 B(  2-C , 11-H ) :   0.1918
B(  2-C , 13-H ) :   0.3086 B(  3-C ,  4-C ) :  -0.5877 B(  3-C ,  5-C ) :   2.0172
B(  3-C ,  8-C ) :  -0.6129 B(  3-C , 10-H ) :   0.3545 B(  3-C , 11-H ) :   0.1062
B(  3-C , 12-H ) :  -0.3936 B(  3-C , 20-H ) :  -0.1683 B(  4-C ,  5-C ) :   1.6550
B(  4-C ,  8-C ) :  -0.6689 B(  4-C , 11-H ) :   0.3644 B(  4-C , 13-H ) :  -0.2562
B(  5-C ,  8-C ) :   1.7851 B(  5-C , 12-H ) :   0.6767 B(  5-C , 13-H ) :   0.5357
B(  5-C , 20-H ) :   0.2704 B(  6-C ,  7-C ) :  -0.2018 B(  6-C ,  8-C ) :   1.3944
B(  6-C , 14-H ) :   0.9180 B(  6-C , 15-H ) :   0.7757 B(  6-C , 16-H ) :   0.8511
B(  7-C ,  8-C ) :   1.3944 B(  7-C , 17-H ) :   0.8511 B(  7-C , 18-H ) :   0.7757
B(  7-C , 19-H ) :   0.9180 B(  8-C , 13-H ) :  -0.1095 B(  8-C , 14-H ) :   0.1417
B(  8-C , 15-H ) :   0.1192 B(  8-C , 16-H ) :   0.1161 B(  8-C , 17-H ) :   0.1161
B(  8-C , 18-H ) :   0.1192 B(  8-C , 19-H ) :   0.1417 B(  8-C , 20-H ) :   0.5305
B( 15-H , 16-H ) :  -0.1000 B( 17-H , 18-H ) :  -0.1000

MP2 TOTAL ENERGY:     -349.110188000 Eh
FINAL SINGLE POINT ENERGY      -349.110187999686

DIPOLE MOMENT
-------------
                                X             Y             Z
Electronic contribution:     -0.57290      -7.97443      -0.00000
Nuclear contribution   :      0.63021       8.12764       0.00000
                        -----------------------------------------
Total Dipole Moment    :      0.05731       0.15321      -0.00000
                        -----------------------------------------
Magnitude (a.u.)       :      0.16358
Magnitude (Debye)      :      0.41578

Rotational constants in cm-1:     0.112296     0.035958     0.033091
Rotational constants in MHz :  3366.547948  1077.991082   992.035777

                             ****ORCA TERMINATED NORMALLY****
TOTAL RUN TIME: 0 days 0 hours 1 minutes 47 seconds 132 msec
