                         Program Version 5.0.3 -  RELEASE  -
|  1> !ri-mp2 aug-cc-pvdz aug-cc-pvdz/c tightscf
|  2> %pal nprocs 16 end
|  3>
|  4> * xyz 0 1
|  5> C      1.268727    0.080167   -0.135548
|  6> C      2.457391   -0.631709    0.455479
|  7> C     -2.121048   -1.091773   -0.335245
|  8> C     -1.578136    1.165030    0.695009
|  9> C     -1.134427    0.057348   -0.246875
| 10> O      1.327987    1.053724   -0.845937
| 11> O      0.117817   -0.516965    0.234551
| 12> H      2.448277   -1.682083    0.165657
| 13> H      2.406702   -0.594627    1.543829
| 14> H      3.371738   -0.157764    0.112852
| 15> H     -3.078523   -0.731193   -0.712382
| 16> H     -1.756978   -1.866034   -1.009806
| 17> H     -2.285710   -1.538625    0.646050
| 18> H     -2.518095    1.595146    0.346575
| 19> H     -0.836390    1.960880    0.734621
| 20> H     -1.733027    0.773621    1.701565
| 21> H     -0.939471    0.472232   -1.234796
| 22> *
| 23>
| 24>                          ****END OF INPUT****

CARTESIAN COORDINATES (ANGSTROEM)
---------------------------------
  C      1.268727    0.080167   -0.135548
  C      2.457391   -0.631709    0.455479
  C     -2.121048   -1.091773   -0.335245
  C     -1.578136    1.165030    0.695009
  C     -1.134427    0.057348   -0.246875
  O      1.327987    1.053724   -0.845937
  O      0.117817   -0.516965    0.234551
  H      2.448277   -1.682083    0.165657
  H      2.406702   -0.594627    1.543829
  H      3.371738   -0.157764    0.112852
  H     -3.078523   -0.731193   -0.712382
  H     -1.756978   -1.866034   -1.009806
  H     -2.285710   -1.538625    0.646050
  H     -2.518095    1.595146    0.346575
  H     -0.836390    1.960880    0.734621
  H     -1.733027    0.773621    1.701565
  H     -0.939471    0.472232   -1.234796

 Total Charge           Charge          ....    0
 Multiplicity           Mult            ....    1
 Number of Electrons    NEL             ....   56
 Basis Dimension        Dim             ....  251

ORBITAL ENERGIES
----------------

  NO   OCC          E(Eh)            E(eV)
   0   2.0000     -20.603379      -560.6465
   1   2.0000     -20.550233      -559.2003
   2   2.0000     -11.386165      -309.8333
   3   2.0000     -11.297378      -307.4173
   4   2.0000     -11.244485      -305.9780
   5   2.0000     -11.228762      -305.5501
   6   2.0000     -11.225247      -305.4545
   7   2.0000      -1.456021       -39.6204
   8   2.0000      -1.358458       -36.9655
   9   2.0000      -1.077233       -29.3130
  10   2.0000      -1.006771       -27.3956
  11   2.0000      -0.947861       -25.7926
  12   2.0000      -0.841906       -22.9094
  13   2.0000      -0.765635       -20.8340
  14   2.0000      -0.693937       -18.8830
  15   2.0000      -0.665635       -18.1129
  16   2.0000      -0.655808       -17.8455
  17   2.0000      -0.612098       -16.6560
  18   2.0000      -0.585423       -15.9302
  19   2.0000      -0.578112       -15.7312
  20   2.0000      -0.563223       -15.3261
  21   2.0000      -0.548839       -14.9347
  22   2.0000      -0.534259       -14.5379
  23   2.0000      -0.518527       -14.1098
  24   2.0000      -0.502552       -13.6751
  25   2.0000      -0.482737       -13.1359
  26   2.0000      -0.451088       -12.2747
  27   2.0000      -0.441008       -12.0004
  28   0.0000       0.034652         0.9429
  29   0.0000       0.042377         1.1531
  30   0.0000       0.046580         1.2675
  31   0.0000       0.051382         1.3982
  32   0.0000       0.063623         1.7313

MULLIKEN ATOMIC CHARGES
-----------------------
   0 C :    0.640872
   1 C :    0.292756
   2 C :    0.582002
   3 C :    0.487159
   4 C :   -0.049856
   5 O :   -0.722824
   6 O :   -0.901904
   7 H :    0.019312
   8 H :    0.021934
   9 H :   -0.024439
  10 H :   -0.016946
  11 H :   -0.066722
  12 H :   -0.013749
  13 H :   -0.044536
  14 H :   -0.103973
  15 H :   -0.004904
  16 H :   -0.094182
Sum of atomic charges:    0.0000000

LOEWDIN ATOMIC CHARGES
----------------------
   0 C :   -0.368003
   1 C :    0.206806
   2 C :    0.164621
   3 C :    0.169672
   4 C :   -0.245207
   5 O :    0.043705
   6 O :    0.082721
   7 H :   -0.006820
   8 H :   -0.005826
   9 H :   -0.008192
  10 H :   -0.009276
  11 H :   -0.010767
  12 H :   -0.008657
  13 H :   -0.009465
  14 H :   -0.012193
  15 H :   -0.007600
  16 H :    0.024482

  Mayer bond orders larger than 0.100000
B(  0-C ,  1-C ) :   1.0573 B(  0-C ,  5-O ) :   1.5249 B(  0-C ,  6-O ) :   0.8400
B(  0-C ,  9-H ) :   0.1226 B(  1-C ,  7-H ) :   0.9602 B(  1-C ,  8-H ) :   0.9540
B(  1-C ,  9-H ) :   0.8614 B(  2-C ,  3-C ) :  -0.1984 B(  2-C ,  4-C ) :   1.4467
B(  2-C , 10-H ) :   0.8732 B(  2-C , 11-H ) :   0.8323 B(  2-C , 12-H ) :   0.8909
B(  3-C ,  4-C ) :   1.3664 B(  3-C ,  6-O ) :   0.1042 B(  3-C , 13-H ) :   0.8618
B(  3-C , 14-H ) :   0.9034 B(  3-C , 15-H ) :   0.8676 B(  4-C ,  6-O ) :   0.1858
B(  4-C , 11-H ) :   0.1552 B(  4-C , 12-H ) :   0.1514 B(  4-C , 14-H ) :   0.1097
B(  4-C , 15-H ) :   0.1135 B(  4-C , 16-H ) :   0.7394

MP2 TOTAL ENERGY:     -346.077594649 Eh
FINAL SINGLE POINT ENERGY      -346.077594648996

DIPOLE MOMENT
-------------
                                X             Y             Z
Electronic contribution:      4.69398       1.19301      -1.89973
Nuclear contribution   :     -5.04445      -1.81236       2.35251
                        -----------------------------------------
Total Dipole Moment    :     -0.35047      -0.61935       0.45277
                        -----------------------------------------
Magnitude (a.u.)       :      0.84346
Magnitude (Debye)      :      2.14390

Rotational constants in cm-1:     0.157955     0.055439     0.048655
Rotational constants in MHz :  4735.372595  1662.027660  1458.631334

                             ****ORCA TERMINATED NORMALLY****
TOTAL RUN TIME: 0 days 0 hours 1 minutes 0 seconds 898 msec
