                         Program Version 5.0.3 -  RELEASE  -
|  1> !ri-mp2 aug-cc-pvdz aug-cc-pvdz/c tightscf
|  2> %pal nprocs 16 end
|  3> %maxcore 3800
|  4>
|  5> * xyz 0 1
|  6> C     -1.325775    0.584643    0.237990
|  7> C      0.155142   -1.441860    0.227032
|  8> C      1.169971    0.852886    0.241238
|  9> C     -0.155142    1.441860   -0.227032
| 10> C     -1.169971   -0.852886   -0.241238
| 11> C      1.325775   -0.584643   -0.237990
| 12> O     -2.565352    1.060854   -0.274243
| 13> O      0.365045   -2.749548   -0.293829
| 14> O      2.199913    1.693855   -0.266419
| 15> O     -0.365045    2.749548    0.293829
| 16> O     -2.199913   -1.693855    0.266419
| 17> O      2.565352   -1.060854    0.274243
| 18> H     -1.353744    0.594834    1.334200
| 19> H      0.153684   -1.479157    1.323029
| 20> H      1.196484    0.861338    1.337560
| 21> H     -0.153684    1.479157   -1.323029
| 22> H     -1.196484   -0.861338   -1.337560
| 23> H      1.353744   -0.594834   -1.334200
| 24> H     -2.646403    1.991559   -0.037548
| 25> H     -0.403701   -3.285449   -0.068670
| 26> H      3.047455    1.296990   -0.036282
| 27> H      0.403701    3.285449    0.068670
| 28> H     -3.047455   -1.296990    0.036282
| 29> H      2.646403   -1.991559    0.037548
| 30> *
| 31>
| 32>                          ****END OF INPUT****

CARTESIAN COORDINATES (ANGSTROEM)
---------------------------------
  C     -1.325775    0.584643    0.237990
  C      0.155142   -1.441860    0.227032
  C      1.169971    0.852886    0.241238
  C     -0.155142    1.441860   -0.227032
  C     -1.169971   -0.852886   -0.241238
  C      1.325775   -0.584643   -0.237990
  O     -2.565352    1.060854   -0.274243
  O      0.365045   -2.749548   -0.293829
  O      2.199913    1.693855   -0.266419
  O     -0.365045    2.749548    0.293829
  O     -2.199913   -1.693855    0.266419
  O      2.565352   -1.060854    0.274243
  H     -1.353744    0.594834    1.334200
  H      0.153684   -1.479157    1.323029
  H      1.196484    0.861338    1.337560
  H     -0.153684    1.479157   -1.323029
  H     -1.196484   -0.861338   -1.337560
  H      1.353744   -0.594834   -1.334200
  H     -2.646403    1.991559   -0.037548
  H     -0.403701   -3.285449   -0.068670
  H      3.047455    1.296990   -0.036282
  H      0.403701    3.285449    0.068670
  H     -3.047455   -1.296990    0.036282
  H      2.646403   -1.991559    0.037548

 Total Charge           Charge          ....    0
 Multiplicity           Mult            ....    1
 Number of Electrons    NEL             ....   96
 Basis Dimension        Dim             ....  384

ORBITAL ENERGIES
----------------

  NO   OCC          E(Eh)            E(eV)
   0   2.0000     -20.583148      -560.0959
   1   2.0000     -20.583147      -560.0959
   2   2.0000     -20.583100      -560.0946
   3   2.0000     -20.583099      -560.0946
   4   2.0000     -20.583066      -560.0937
   5   2.0000     -20.583065      -560.0937
   6   2.0000     -11.301990      -307.5428
   7   2.0000     -11.301701      -307.5349
   8   2.0000     -11.301682      -307.5344
   9   2.0000     -11.301060      -307.5175
  10   2.0000     -11.301041      -307.5170
  11   2.0000     -11.300720      -307.5082
  12   2.0000      -1.408601       -38.3300
  13   2.0000      -1.392831       -37.9009
  14   2.0000      -1.392774       -37.8993
  15   2.0000      -1.368194       -37.2304
  16   2.0000      -1.368162       -37.2296
  17   2.0000      -1.356616       -36.9154
  18   2.0000      -1.114999       -30.3407
  19   2.0000      -0.998354       -27.1666
  20   2.0000      -0.998150       -27.1610
  21   2.0000      -0.856721       -23.3126
  22   2.0000      -0.856693       -23.3118
  23   2.0000      -0.808071       -21.9887
  24   2.0000      -0.768883       -20.9224
  25   2.0000      -0.719240       -19.5715
  26   2.0000      -0.719064       -19.5667
  27   2.0000      -0.711774       -19.3684
  28   2.0000      -0.668955       -18.2032
  29   2.0000      -0.668870       -18.2009
  30   2.0000      -0.659083       -17.9345
  31   2.0000      -0.637820       -17.3560
  32   2.0000      -0.637624       -17.3506
  33   2.0000      -0.604885       -16.4597
  34   2.0000      -0.604747       -16.4560
  35   2.0000      -0.603326       -16.4173
  36   2.0000      -0.557265       -15.1640
  37   2.0000      -0.557235       -15.1631
  38   2.0000      -0.540935       -14.7196
  39   2.0000      -0.524574       -14.2744
  40   2.0000      -0.524445       -14.2709
  41   2.0000      -0.521079       -14.1793
  42   2.0000      -0.466790       -12.7020
  43   2.0000      -0.462819       -12.5940
  44   2.0000      -0.455573       -12.3968
  45   2.0000      -0.455505       -12.3949
  46   2.0000      -0.449699       -12.2369
  47   2.0000      -0.449530       -12.2323
  48   0.0000       0.036229         0.9858
  49   0.0000       0.042866         1.1664
  50   0.0000       0.042898         1.1673
  51   0.0000       0.043869         1.1937
  52   0.0000       0.059431         1.6172

MULLIKEN ATOMIC CHARGES
-----------------------
   0 C :    0.764224
   1 C :    0.764458
   2 C :    0.763157
   3 C :    0.764458
   4 C :    0.763157
   5 C :    0.764224
   6 O :   -0.895180
   7 O :   -0.895710
   8 O :   -0.895189
   9 O :   -0.895710
  10 O :   -0.895189
  11 O :   -0.895180
  12 H :   -0.029453
  13 H :   -0.029171
  14 H :   -0.029133
  15 H :   -0.029171
  16 H :   -0.029133
  17 H :   -0.029453
  18 H :    0.160595
  19 H :    0.160878
  20 H :    0.160524
  21 H :    0.160878
  22 H :    0.160524
  23 H :    0.160595
Sum of atomic charges:   -0.0000000

LOEWDIN ATOMIC CHARGES
----------------------
   0 C :   -0.161766
   1 C :   -0.161617
   2 C :   -0.161715
   3 C :   -0.161617
   4 C :   -0.161715
   5 C :   -0.161766
   6 O :    0.156077
   7 O :    0.156059
   8 O :    0.156139
   9 O :    0.156059
  10 O :    0.156139
  11 O :    0.156077
  12 H :    0.056224
  13 H :    0.056167
  14 H :    0.056233
  15 H :    0.056167
  16 H :    0.056233
  17 H :    0.056224
  18 H :   -0.050548
  19 H :   -0.050704
  20 H :   -0.050548
  21 H :   -0.050704
  22 H :   -0.050548
  23 H :   -0.050548

  Mayer bond orders larger than 0.100000
B(  0-C ,  3-C ) :   1.2840 B(  0-C ,  4-C ) :   1.2842 B(  0-C ,  9-O ) :   0.1301
B(  0-C , 10-O ) :   0.2825 B(  0-C , 12-H ) :   0.5136 B(  0-C , 16-H ) :   0.2620
B(  1-C ,  4-C ) :   1.2822 B(  1-C ,  5-C ) :   1.2840 B(  1-C , 10-O ) :   0.1297
B(  1-C , 11-O ) :   0.2828 B(  1-C , 13-H ) :   0.5144 B(  1-C , 17-H ) :   0.2625
B(  2-C ,  3-C ) :   1.2822 B(  2-C ,  5-C ) :   1.2842 B(  2-C ,  9-O ) :   0.2834
B(  2-C , 11-O ) :   0.1305 B(  2-C , 14-H ) :   0.5143 B(  2-C , 15-H ) :   0.2618
B(  3-C ,  6-O ) :   0.2828 B(  3-C ,  8-O ) :   0.1297 B(  3-C , 12-H ) :   0.2625
B(  3-C , 15-H ) :   0.5144 B(  4-C ,  6-O ) :   0.1305 B(  4-C ,  7-O ) :   0.2834
B(  4-C , 13-H ) :   0.2618 B(  4-C , 16-H ) :   0.5143 B(  5-C ,  7-O ) :   0.1301
B(  5-C ,  8-O ) :   0.2825 B(  5-C , 14-H ) :   0.2620 B(  5-C , 17-H ) :   0.5136
B(  6-O , 18-H ) :   1.0936 B(  7-O , 19-H ) :   1.0934 B(  8-O , 20-H ) :   1.0937
B(  9-O , 21-H ) :   1.0934 B( 10-O , 22-H ) :   1.0937 B( 11-O , 23-H ) :   1.0936

MP2 TOTAL ENERGY:     -685.543692631 Eh
FINAL SINGLE POINT ENERGY      -685.543692630562

DIPOLE MOMENT
-------------
                                X             Y             Z
Electronic contribution:     -0.00000      -0.00000       0.00000
Nuclear contribution   :      0.00000      -0.00000       0.00000
                        -----------------------------------------
Total Dipole Moment    :     -0.00000      -0.00000       0.00000
                        -----------------------------------------
Magnitude (a.u.)       :      0.00000
Magnitude (Debye)      :      0.00000

Rotational constants in cm-1:     0.033231     0.033226     0.017373
Rotational constants in MHz :   996.254862   996.101392   520.839759

                             ****ORCA TERMINATED NORMALLY****
TOTAL RUN TIME: 0 days 0 hours 2 minutes 45 seconds 621 msec
