                         Program Version 5.0.3 -  RELEASE  -
|  1> !ri-mp2 aug-cc-pvdz aug-cc-pvdz/c tightscf
|  2> %pal nprocs 16 end
|  3>
|  4> * xyz 0 1
|  5> C     -2.607951   -0.070177   -0.002533
|  6> C     -1.956385    1.138080    0.223390
|  7> C     -1.855508   -1.217102   -0.220271
|  8> C     -0.570564    1.197284    0.222786
|  9> C     -0.467158   -1.156536   -0.216683
| 10> C      0.205539    0.053889   -0.010474
| 11> C      2.337269    1.223085   -0.419484
| 12> C      1.689055    0.121675   -0.030681
| 13> C      2.453037   -1.107640    0.391878
| 14> H     -3.688478   -0.117438    0.001289
| 15> H     -2.529999    2.035788    0.412585
| 16> H     -2.348629   -2.164590   -0.392684
| 17> H     -0.080152    2.138271    0.429309
| 18> H      0.095144   -2.062538   -0.391815
| 19> H      3.417985    1.266340   -0.413429
| 20> H      1.818583    2.103555   -0.771554
| 21> H      2.308302   -1.930951   -0.311139
| 22> H      2.122756   -1.463201    1.369923
| 23> H      3.520478   -0.900594    0.439945
| 24> *
| 25>
| 26>                          ****END OF INPUT****

CARTESIAN COORDINATES (ANGSTROEM)
---------------------------------
  C     -2.607951   -0.070177   -0.002533
  C     -1.956385    1.138080    0.223390
  C     -1.855508   -1.217102   -0.220271
  C     -0.570564    1.197284    0.222786
  C     -0.467158   -1.156536   -0.216683
  C      0.205539    0.053889   -0.010474
  C      2.337269    1.223085   -0.419484
  C      1.689055    0.121675   -0.030681
  C      2.453037   -1.107640    0.391878
  H     -3.688478   -0.117438    0.001289
  H     -2.529999    2.035788    0.412585
  H     -2.348629   -2.164590   -0.392684
  H     -0.080152    2.138271    0.429309
  H      0.095144   -2.062538   -0.391815
  H      3.417985    1.266340   -0.413429
  H      1.818583    2.103555   -0.771554
  H      2.308302   -1.930951   -0.311139
  H      2.122756   -1.463201    1.369923
  H      3.520478   -0.900594    0.439945

 Total Charge           Charge          ....    0
 Multiplicity           Mult            ....    1
 Number of Electrons    NEL             ....   64
 Basis Dimension        Dim             ....  297

ORBITAL ENERGIES
----------------

  NO   OCC          E(Eh)            E(eV)
   0   2.0000     -11.251108      -306.1582
   1   2.0000     -11.248279      -306.0812
   2   2.0000     -11.240670      -305.8742
   3   2.0000     -11.240149      -305.8600
   4   2.0000     -11.238933      -305.8269
   5   2.0000     -11.238522      -305.8157
   6   2.0000     -11.237756      -305.7949
   7   2.0000     -11.229852      -305.5798
   8   2.0000     -11.224448      -305.4328
   9   2.0000      -1.163809       -31.6688
  10   2.0000      -1.092426       -29.7264
  11   2.0000      -1.019357       -27.7381
  12   2.0000      -1.002024       -27.2665
  13   2.0000      -0.938607       -25.5408
  14   2.0000      -0.842418       -22.9234
  15   2.0000      -0.825462       -22.4620
  16   2.0000      -0.747167       -20.3315
  17   2.0000      -0.697271       -18.9737
  18   2.0000      -0.638744       -17.3811
  19   2.0000      -0.635515       -17.2932
  20   2.0000      -0.618032       -16.8175
  21   2.0000      -0.589374       -16.0377
  22   2.0000      -0.583315       -15.8728
  23   2.0000      -0.564751       -15.3677
  24   2.0000      -0.537072       -14.6145
  25   2.0000      -0.520545       -14.1648
  26   2.0000      -0.503961       -13.7135
  27   2.0000      -0.489925       -13.3315
  28   2.0000      -0.478750       -13.0275
  29   2.0000      -0.388017       -10.5585
  30   2.0000      -0.337666        -9.1884
  31   2.0000      -0.308141        -8.3849
  32   0.0000       0.035048         0.9537
  33   0.0000       0.039719         1.0808
  34   0.0000       0.041024         1.1163
  35   0.0000       0.051455         1.4002
  36   0.0000       0.054027         1.4701

MULLIKEN ATOMIC CHARGES
-----------------------
   0 C :    0.456568
   1 C :    0.234083
   2 C :    0.096406
   3 C :    0.185031
   4 C :    0.341859
   5 C :    1.062191
   6 C :    1.157247
   7 C :   -0.269836
   8 C :    0.283224
   9 H :   -0.442728
  10 H :   -0.459506
  11 H :   -0.482510
  12 H :   -0.594600
  13 H :   -0.663112
  14 H :   -0.438056
  15 H :   -0.430161
  16 H :    0.119637
  17 H :    0.078227
  18 H :   -0.233966
Sum of atomic charges:    0.0000000

LOEWDIN ATOMIC CHARGES
----------------------
   0 C :    0.007421
   1 C :    0.011562
   2 C :    0.011372
   3 C :    0.049833
   4 C :    0.049355
   5 C :   -0.149401
   6 C :    0.211581
   7 C :   -0.243892
   8 C :    0.165565
   9 H :   -0.001422
  10 H :    0.000657
  11 H :    0.000335
  12 H :    0.000702
  13 H :   -0.003949
  14 H :   -0.037905
  15 H :   -0.039883
  16 H :   -0.014070
  17 H :   -0.002649
  18 H :   -0.015212

  Mayer bond orders larger than 0.100000
B(  0-C ,  1-C ) :   1.8307 B(  0-C ,  2-C ) :   1.8010 B(  0-C ,  5-C ) :   0.2031
B(  0-C ,  7-C ) :  -0.1040 B(  0-C ,  9-H ) :   0.2848 B(  0-C , 10-H ) :   0.1604
B(  0-C , 11-H ) :   0.1553 B(  1-C ,  3-C ) :   1.9819 B(  1-C ,  4-C ) :   0.1260
B(  1-C ,  5-C ) :  -0.6501 B(  1-C ,  7-C ) :   0.1968 B(  1-C ,  8-C ) :   0.1336
B(  1-C ,  9-H ) :   0.2103 B(  1-C , 10-H ) :   0.1769 B(  1-C , 11-H ) :  -0.1305
B(  1-C , 12-H ) :   0.2073 B(  2-C ,  3-C ) :   0.1164 B(  2-C ,  4-C ) :   1.9097
B(  2-C ,  5-C ) :  -0.8477 B(  2-C ,  7-C ) :   0.1917 B(  2-C ,  8-C ) :   0.1760
B(  2-C ,  9-H ) :   0.2393 B(  2-C , 10-H ) :  -0.1203 B(  2-C , 11-H ) :   0.1175
B(  2-C , 13-H ) :   0.3370 B(  3-C ,  4-C ) :  -0.8844 B(  3-C ,  5-C ) :   1.6524
B(  3-C ,  7-C ) :  -0.6465 B(  3-C , 10-H ) :   0.4321 B(  4-C ,  5-C ) :   1.6766
B(  4-C ,  7-C ) :  -0.4939 B(  4-C ,  8-C ) :  -0.2411 B(  4-C , 11-H ) :   0.5073
B(  4-C , 13-H ) :  -0.2653 B(  5-C ,  7-C ) :   1.9419 B(  5-C , 12-H ) :   0.4703
B(  5-C , 13-H ) :   0.4262 B(  5-C , 14-H ) :   0.1210 B(  5-C , 15-H ) :  -0.1321
B(  6-C ,  7-C ) :   1.5015 B(  6-C ,  8-C ) :  -0.1249 B(  6-C , 14-H ) :   0.4984
B(  6-C , 15-H ) :   0.3391 B(  7-C ,  8-C ) :   1.2847 B(  7-C , 15-H ) :   0.4948
B(  7-C , 16-H ) :   0.1670 B(  7-C , 17-H ) :   0.1259 B(  7-C , 18-H ) :   0.1483
B(  8-C , 16-H ) :   0.8332 B(  8-C , 17-H ) :   0.8238 B(  8-C , 18-H ) :   0.7443
B( 14-H , 15-H ) :  -0.1831

MP2 TOTAL ENERGY:     -347.895437476 Eh
FINAL SINGLE POINT ENERGY      -347.895437476029

DIPOLE MOMENT
-------------
                                X             Y             Z
Electronic contribution:     -4.71024       0.99186      -0.33395
Nuclear contribution   :      4.71514      -1.11406       0.37879
                        -----------------------------------------
Total Dipole Moment    :      0.00490      -0.12219       0.04483
                        -----------------------------------------
Magnitude (a.u.)       :      0.13025
Magnitude (Debye)      :      0.33107

Rotational constants in cm-1:     0.120299     0.040019     0.031131
Rotational constants in MHz :  3606.486521  1199.726943   933.275867

                             ****ORCA TERMINATED NORMALLY****
TOTAL RUN TIME: 0 days 0 hours 1 minutes 44 seconds 839 msec
