                         Program Version 5.0.3 -  RELEASE  -
|  1> !ri-mp2 aug-cc-pvdz aug-cc-pvdz/c tightscf
|  2> %pal nprocs 16 end
|  3>
|  4> * xyz 0 1
|  5> S     2.996748    0.021824   -0.268596
|  6> O     0.456110    0.082338   -0.793882
|  7> O     0.927761   -0.148682    1.382040
|  8> N    -0.867057    0.036647   -0.354945
|  9> N    -2.862943    0.732728    0.190086
| 10> C     1.424260   -0.020504    0.159117
| 11> C    -1.640834    1.120155   -0.072639
| 12> C    -1.634472   -1.100967   -0.292195
| 13> C    -2.871350   -0.637105    0.057407
| 14> H     1.677808   -0.212492    1.990373
| 15> H    -1.254127    2.124562   -0.078045
| 16> H    -1.230660   -2.075076   -0.495225
| 17> H    -3.767578   -1.210522    0.219041
| 18> *
| 19>
| 20>                          ****END OF INPUT****

CARTESIAN COORDINATES (ANGSTROEM)
---------------------------------
  S      2.996748    0.021824   -0.268596
  O      0.456110    0.082338   -0.793882
  O      0.927761   -0.148682    1.382040
  N     -0.867057    0.036647   -0.354945
  N     -2.862943    0.732728    0.190086
  C      1.424260   -0.020504    0.159117
  C     -1.640834    1.120155   -0.072639
  C     -1.634472   -1.100967   -0.292195
  C     -2.871350   -0.637105    0.057407
  H      1.677808   -0.212492    1.990373
  H     -1.254127    2.124562   -0.078045
  H     -1.230660   -2.075076   -0.495225
  H     -3.767578   -1.210522    0.219041

 Total Charge           Charge          ....    0
 Multiplicity           Mult            ....    1
 Number of Electrons    NEL             ....   74
 Basis Dimension        Dim             ....  247

ORBITAL ENERGIES
----------------

  NO   OCC          E(Eh)            E(eV)
   0   2.0000     -91.950838     -2502.1095
   1   2.0000     -20.713551      -563.6444
   2   2.0000     -20.679835      -562.7269
   3   2.0000     -15.706850      -427.4051
   4   2.0000     -15.574494      -423.8035
   5   2.0000     -11.478295      -312.3403
   6   2.0000     -11.326570      -308.2116
   7   2.0000     -11.289776      -307.2104
   8   2.0000     -11.270255      -306.6792
   9   2.0000      -8.954752      -243.6712
  10   2.0000      -6.637121      -180.6052
  11   2.0000      -6.634150      -180.5244
  12   2.0000      -6.633007      -180.4933
  13   2.0000      -1.564634       -42.5759
  14   2.0000      -1.479761       -40.2663
  15   2.0000      -1.348968       -36.7073
  16   2.0000      -1.177018       -32.0283
  17   2.0000      -1.058290       -28.7975
  18   2.0000      -1.032549       -28.0971
  19   2.0000      -0.912423       -24.8283
  20   2.0000      -0.851180       -23.1618
  21   2.0000      -0.844192       -22.9716
  22   2.0000      -0.790178       -21.5018
  23   2.0000      -0.734714       -19.9926
  24   2.0000      -0.702958       -19.1285
  25   2.0000      -0.692245       -18.8369
  26   2.0000      -0.650752       -17.7078
  27   2.0000      -0.640775       -17.4364
  28   2.0000      -0.600579       -16.3426
  29   2.0000      -0.598245       -16.2791
  30   2.0000      -0.579402       -15.7663
  31   2.0000      -0.562243       -15.2994
  32   2.0000      -0.454058       -12.3555
  33   2.0000      -0.417288       -11.3550
  34   2.0000      -0.392214       -10.6727
  35   2.0000      -0.377472       -10.2715
  36   2.0000      -0.343560        -9.3487
  37   0.0000       0.027818         0.7570
  38   0.0000       0.040037         1.0895
  39   0.0000       0.045747         1.2448
  40   0.0000       0.050714         1.3800
  41   0.0000       0.072743         1.9795

MULLIKEN ATOMIC CHARGES
-----------------------
   0 S :    0.119024
   1 O :   -0.949017
   2 O :   -0.660262
   3 N :    0.145187
   4 N :   -0.798095
   5 C :    0.525283
   6 C :    0.742112
   7 C :    0.900800
   8 C :    0.399661
   9 H :    0.282721
  10 H :   -0.196705
  11 H :   -0.312951
  12 H :   -0.197758
Sum of atomic charges:    0.0000000

LOEWDIN ATOMIC CHARGES
----------------------
   0 S :    0.577864
   1 O :    0.084654
   2 O :    0.181313
   3 N :   -0.148079
   4 N :    0.021582
   5 C :   -0.752727
   6 C :    0.014498
   7 C :    0.070243
   8 C :   -0.039806
   9 H :   -0.019243
  10 H :    0.016224
  11 H :    0.003733
  12 H :   -0.010255

  Mayer bond orders larger than 0.100000
B(  0-S ,  5-C ) :   1.9672 B(  1-O ,  3-N ) :   0.5947 B(  1-O ,  5-C ) :   0.9191
B(  1-O ,  7-C ) :  -0.2431 B(  2-O ,  5-C ) :   0.7605 B(  2-O ,  9-H ) :   0.9611
B(  3-N ,  5-C ) :  -0.1116 B(  3-N ,  6-C ) :   0.9922 B(  3-N ,  7-C ) :   0.9340
B(  3-N , 10-H ) :  -0.1421 B(  4-N ,  6-C ) :   1.4403 B(  4-N ,  8-C ) :   1.0375
B(  4-N , 10-H ) :  -0.1161 B(  6-C ,  7-C ) :  -0.1113 B(  6-C , 10-H ) :   1.1151
B(  7-C ,  8-C ) :   1.5923 B(  7-C , 11-H ) :   0.7996 B(  8-C , 12-H ) :   0.9627

MP2 TOTAL ENERGY:     -811.330257628 Eh
FINAL SINGLE POINT ENERGY      -811.330257628172

DIPOLE MOMENT
-------------
                                X             Y             Z
Electronic contribution:      4.80915       0.82955      -0.96030
Nuclear contribution   :     -4.49970      -1.32156       1.59345
                        -----------------------------------------
Total Dipole Moment    :      0.30946      -0.49202       0.63315
                        -----------------------------------------
Magnitude (a.u.)       :      0.85949
Magnitude (Debye)      :      2.18465

Rotational constants in cm-1:     0.162382     0.024459     0.024388
Rotational constants in MHz :  4868.077096   733.258405   731.124523

                             ****ORCA TERMINATED NORMALLY****
TOTAL RUN TIME: 0 days 0 hours 0 minutes 58 seconds 618 msec
