                         Program Version 5.0.3 -  RELEASE  -
|  1> !ri-mp2 aug-cc-pvdz aug-cc-pvdz/c tightscf
|  2> %pal nprocs 16 end
|  3> %maxcore 3800
|  4>
|  5> * xyz 0 1
|  6> C      1.333873    2.598690    0.000000
|  7> C      0.875686    2.067268    1.199941
|  8> C      0.875686    2.067268   -1.199941
|  9> C     -0.026619    1.009896    1.196493
| 10> C     -0.026619    1.009896   -1.196493
| 11> C     -0.488807    0.456180    0.000000
| 12> C     -0.026619   -2.412117   -1.261997
| 13> C     -0.026619   -2.412117    1.261997
| 14> C     -1.461521   -0.699761    0.000000
| 15> C     -0.842543   -2.122471    0.000000
| 16> H      2.032977    3.424064    0.000000
| 17> H      1.216030    2.479956    2.140563
| 18> H      1.216030    2.479956   -2.140563
| 19> H     -0.383900    0.613202    2.138360
| 20> H     -0.383900    0.613202   -2.138360
| 21> H      0.854188   -1.771177   -1.323883
| 22> H     -0.618707   -2.255130   -2.165763
| 23> H      0.317444   -3.447758   -1.266811
| 24> H      0.317444   -3.447758    1.266811
| 25> H      0.854188   -1.771177    1.323883
| 26> H     -0.618707   -2.255130    2.165763
| 27> H     -2.110211   -0.616300    0.875339
| 28> H     -2.110211   -0.616300   -0.875339
| 29> H     -1.698056   -2.806051    0.000000
| 30> *
| 31>
| 32>                          ****END OF INPUT****

CARTESIAN COORDINATES (ANGSTROEM)
---------------------------------
  C      1.333873    2.598690    0.000000
  C      0.875686    2.067268    1.199941
  C      0.875686    2.067268   -1.199941
  C     -0.026619    1.009896    1.196493
  C     -0.026619    1.009896   -1.196493
  C     -0.488807    0.456180    0.000000
  C     -0.026619   -2.412117   -1.261997
  C     -0.026619   -2.412117    1.261997
  C     -1.461521   -0.699761    0.000000
  C     -0.842543   -2.122471    0.000000
  H      2.032977    3.424064    0.000000
  H      1.216030    2.479956    2.140563
  H      1.216030    2.479956   -2.140563
  H     -0.383900    0.613202    2.138360
  H     -0.383900    0.613202   -2.138360
  H      0.854188   -1.771177   -1.323883
  H     -0.618707   -2.255130   -2.165763
  H      0.317444   -3.447758   -1.266811
  H      0.317444   -3.447758    1.266811
  H      0.854188   -1.771177    1.323883
  H     -0.618707   -2.255130    2.165763
  H     -2.110211   -0.616300    0.875339
  H     -2.110211   -0.616300   -0.875339
  H     -1.698056   -2.806051    0.000000

 Total Charge           Charge          ....    0
 Multiplicity           Mult            ....    1
 Number of Electrons    NEL             ....   74
 Basis Dimension        Dim             ....  356

ORBITAL ENERGIES
----------------

  NO   OCC          E(Eh)            E(eV)
   0   2.0000     -11.241025      -305.8839
   1   2.0000     -11.236768      -305.7680
   2   2.0000     -11.236541      -305.7618
   3   2.0000     -11.233597      -305.6817
   4   2.0000     -11.233293      -305.6734
   5   2.0000     -11.232475      -305.6512
   6   2.0000     -11.232378      -305.6485
   7   2.0000     -11.229077      -305.5587
   8   2.0000     -11.214233      -305.1548
   9   2.0000     -11.214210      -305.1542
  10   2.0000      -1.156669       -31.4746
  11   2.0000      -1.089544       -29.6480
  12   2.0000      -1.023590       -27.8533
  13   2.0000      -1.013552       -27.5802
  14   2.0000      -0.928606       -25.2687
  15   2.0000      -0.927130       -25.2285
  16   2.0000      -0.825168       -22.4540
  17   2.0000      -0.812676       -22.1140
  18   2.0000      -0.758946       -20.6520
  19   2.0000      -0.688959       -18.7475
  20   2.0000      -0.638894       -17.3852
  21   2.0000      -0.637006       -17.3338
  22   2.0000      -0.623503       -16.9664
  23   2.0000      -0.590940       -16.0803
  24   2.0000      -0.584211       -15.8972
  25   2.0000      -0.575679       -15.6650
  26   2.0000      -0.558698       -15.2029
  27   2.0000      -0.530902       -14.4466
  28   2.0000      -0.514399       -13.9975
  29   2.0000      -0.504442       -13.7266
  30   2.0000      -0.497375       -13.5343
  31   2.0000      -0.482654       -13.1337
  32   2.0000      -0.462446       -12.5838
  33   2.0000      -0.461436       -12.5563
  34   2.0000      -0.450385       -12.2556
  35   2.0000      -0.333229        -9.0676
  36   2.0000      -0.322860        -8.7855
  37   0.0000       0.034487         0.9384
  38   0.0000       0.039029         1.0620
  39   0.0000       0.041785         1.1370
  40   0.0000       0.047283         1.2866
  41   0.0000       0.053500         1.4558

MULLIKEN ATOMIC CHARGES
-----------------------
   0 C :    0.624405
   1 C :    0.116177
   2 C :    0.116177
   3 C :    0.661119
   4 C :    0.661119
   5 C :    0.706977
   6 C :    0.843064
   7 C :    0.843064
   8 C :    0.620653
   9 C :   -1.452715
  10 H :   -0.447532
  11 H :   -0.479415
  12 H :   -0.479415
  13 H :   -0.709829
  14 H :   -0.709829
  15 H :    0.012577
  16 H :   -0.083937
  17 H :   -0.129906
  18 H :   -0.129906
  19 H :    0.012577
  20 H :   -0.083937
  21 H :   -0.188554
  22 H :   -0.188554
  23 H :   -0.134382
Sum of atomic charges:   -0.0000000

LOEWDIN ATOMIC CHARGES
----------------------
   0 C :    0.002292
   1 C :    0.008311
   2 C :    0.008311
   3 C :    0.038411
   4 C :    0.038411
   5 C :   -0.174376
   6 C :    0.156352
   7 C :    0.156352
   8 C :    0.026424
   9 C :   -0.269064
  10 H :   -0.002726
  11 H :   -0.000607
  12 H :   -0.000607
  13 H :    0.007562
  14 H :    0.007562
  15 H :   -0.013931
  16 H :   -0.012293
  17 H :   -0.014706
  18 H :   -0.014706
  19 H :   -0.013931
  20 H :   -0.012293
  21 H :    0.021234
  22 H :    0.021234
  23 H :    0.036782

  Mayer bond orders larger than 0.100000
B(  0-C ,  1-C ) :   1.7741 B(  0-C ,  2-C ) :   1.7741 B(  0-C ,  5-C ) :   0.3156
B(  0-C , 10-H ) :   0.2390 B(  0-C , 11-H ) :   0.1381 B(  0-C , 12-H ) :   0.1381
B(  0-C , 13-H ) :  -0.1173 B(  0-C , 14-H ) :  -0.1173 B(  1-C ,  3-C ) :   1.7441
B(  1-C ,  5-C ) :  -0.3833 B(  1-C ,  8-C ) :   0.2919 B(  1-C , 10-H ) :   0.2396
B(  1-C , 11-H ) :   0.1804 B(  1-C , 12-H ) :  -0.1013 B(  1-C , 13-H ) :   0.3713
B(  2-C ,  4-C ) :   1.7441 B(  2-C ,  5-C ) :  -0.3833 B(  2-C ,  8-C ) :   0.2919
B(  2-C , 10-H ) :   0.2396 B(  2-C , 11-H ) :  -0.1013 B(  2-C , 12-H ) :   0.1804
B(  2-C , 14-H ) :   0.3713 B(  3-C ,  4-C ) :  -0.6947 B(  3-C ,  5-C ) :   1.7910
B(  3-C ,  8-C ) :  -0.3759 B(  3-C , 11-H ) :   0.4145 B(  3-C , 13-H ) :  -0.4964
B(  3-C , 14-H ) :  -0.1109 B(  4-C ,  5-C ) :   1.7910 B(  4-C ,  8-C ) :  -0.3759
B(  4-C , 12-H ) :   0.4145 B(  4-C , 13-H ) :  -0.1109 B(  4-C , 14-H ) :  -0.4964
B(  5-C ,  8-C ) :   1.4926 B(  5-C ,  9-C ) :  -0.2308 B(  5-C , 13-H ) :   0.6830
B(  5-C , 14-H ) :   0.6830 B(  6-C ,  7-C ) :  -0.2313 B(  6-C ,  8-C ) :  -0.1196
B(  6-C ,  9-C ) :   1.4642 B(  6-C , 15-H ) :   0.8824 B(  6-C , 16-H ) :   0.7680
B(  6-C , 17-H ) :   0.7652 B(  6-C , 19-H ) :  -0.1030 B(  7-C ,  8-C ) :  -0.1196
B(  7-C ,  9-C ) :   1.4642 B(  7-C , 15-H ) :  -0.1030 B(  7-C , 18-H ) :   0.7652
B(  7-C , 19-H ) :   0.8824 B(  7-C , 20-H ) :   0.7680 B(  8-C ,  9-C ) :   1.1301
B(  8-C , 21-H ) :   0.6218 B(  8-C , 22-H ) :   0.6218 B(  9-C , 15-H ) :   0.1868
B(  9-C , 16-H ) :   0.1208 B(  9-C , 17-H ) :   0.1861 B(  9-C , 18-H ) :   0.1861
B(  9-C , 19-H ) :   0.1868 B(  9-C , 20-H ) :   0.1208 B(  9-C , 21-H ) :   0.2062
B(  9-C , 22-H ) :   0.2062 B(  9-C , 23-H ) :   0.6943 B( 15-H , 17-H ) :  -0.1117
B( 16-H , 17-H ) :  -0.1161 B( 18-H , 19-H ) :  -0.1117 B( 18-H , 20-H ) :  -0.1161
B( 21-H , 22-H ) :  -0.1511

MP2 TOTAL ENERGY:     -388.299275950 Eh
FINAL SINGLE POINT ENERGY      -388.299275950173

DIPOLE MOMENT
-------------
                                X             Y             Z
Electronic contribution:      1.06830       9.55008       0.00000
Nuclear contribution   :     -1.15491      -9.70860       0.00000
                        -----------------------------------------
Total Dipole Moment    :     -0.08661      -0.15852       0.00000
                        -----------------------------------------
Magnitude (a.u.)       :      0.18063
Magnitude (Debye)      :      0.45913

Rotational constants in cm-1:     0.084399     0.028928     0.025163
Rotational constants in MHz :  2530.204229   867.243105   754.379935

                             ****ORCA TERMINATED NORMALLY****
TOTAL RUN TIME: 0 days 0 hours 2 minutes 10 seconds 343 msec
