                         Program Version 5.0.3 -  RELEASE  -
|  1> !ri-mp2 aug-cc-pvdz aug-cc-pvdz/c tightscf
|  2> %pal nprocs 16 end
|  3>
|  4> * xyz 0 1
|  5> C     -0.045568   -2.249090    0.696137
|  6> C     -0.045568   -2.249090   -0.696137
|  7> C      0.004095   -1.048325    1.400520
|  8> C      0.004095   -1.048325   -1.400520
|  9> C      0.049674    0.148504    0.698241
| 10> C      0.049674    0.148504   -0.698241
| 11> C      0.125739    1.561338    1.227438
| 12> C      0.125739    1.561338   -1.227438
| 13> C     -0.258685    2.418849    0.000000
| 14> H     -0.089794   -3.187131    1.233424
| 15> H     -0.089794   -3.187131   -1.233424
| 16> H      0.001095   -1.053757    2.483428
| 17> H      0.001095   -1.053757   -2.483428
| 18> H     -0.526446    1.733848    2.084324
| 19> H      1.145985    1.785770    1.556006
| 20> H      1.145985    1.785770   -1.556006
| 21> H     -0.526446    1.733848   -2.084324
| 22> H     -1.337645    2.583506    0.000000
| 23> H      0.220799    3.396809    0.000000
| 24> *
| 25>
| 26>                          ****END OF INPUT****

CARTESIAN COORDINATES (ANGSTROEM)
---------------------------------
  C     -0.045568   -2.249090    0.696137
  C     -0.045568   -2.249090   -0.696137
  C      0.004095   -1.048325    1.400520
  C      0.004095   -1.048325   -1.400520
  C      0.049674    0.148504    0.698241
  C      0.049674    0.148504   -0.698241
  C      0.125739    1.561338    1.227438
  C      0.125739    1.561338   -1.227438
  C     -0.258685    2.418849    0.000000
  H     -0.089794   -3.187131    1.233424
  H     -0.089794   -3.187131   -1.233424
  H      0.001095   -1.053757    2.483428
  H      0.001095   -1.053757   -2.483428
  H     -0.526446    1.733848    2.084324
  H      1.145985    1.785770    1.556006
  H      1.145985    1.785770   -1.556006
  H     -0.526446    1.733848   -2.084324
  H     -1.337645    2.583506    0.000000
  H      0.220799    3.396809    0.000000

 Total Charge           Charge          ....    0
 Multiplicity           Mult            ....    1
 Number of Electrons    NEL             ....   64
 Basis Dimension        Dim             ....  297

ORBITAL ENERGIES
----------------

  NO   OCC          E(Eh)            E(eV)
   0   2.0000     -11.233920      -305.6905
   1   2.0000     -11.233409      -305.6766
   2   2.0000     -11.233064      -305.6672
   3   2.0000     -11.232058      -305.6398
   4   2.0000     -11.232027      -305.6390
   5   2.0000     -11.231353      -305.6206
   6   2.0000     -11.230891      -305.6081
   7   2.0000     -11.230685      -305.6025
   8   2.0000     -11.228818      -305.5517
   9   2.0000      -1.169922       -31.8352
  10   2.0000      -1.091463       -29.7002
  11   2.0000      -1.025095       -27.8942
  12   2.0000      -0.974283       -26.5116
  13   2.0000      -0.941163       -25.6103
  14   2.0000      -0.831646       -22.6302
  15   2.0000      -0.792056       -21.5529
  16   2.0000      -0.782594       -21.2955
  17   2.0000      -0.683582       -18.6012
  18   2.0000      -0.647454       -17.6181
  19   2.0000      -0.629674       -17.1343
  20   2.0000      -0.619046       -16.8451
  21   2.0000      -0.572625       -15.5819
  22   2.0000      -0.566620       -15.4185
  23   2.0000      -0.557031       -15.1576
  24   2.0000      -0.511213       -13.9108
  25   2.0000      -0.497304       -13.5323
  26   2.0000      -0.490689       -13.3523
  27   2.0000      -0.473680       -12.8895
  28   2.0000      -0.467346       -12.7171
  29   2.0000      -0.461489       -12.5578
  30   2.0000      -0.328551        -8.9403
  31   2.0000      -0.314450        -8.5566
  32   0.0000       0.036886         1.0037
  33   0.0000       0.040027         1.0892
  34   0.0000       0.041833         1.1383
  35   0.0000       0.050169         1.3652
  36   0.0000       0.054131         1.4730

MULLIKEN ATOMIC CHARGES
-----------------------
   0 C :    0.249513
   1 C :    0.249513
   2 C :    0.996158
   3 C :    0.996158
   4 C :   -0.654155
   5 C :   -0.654155
   6 C :    0.092895
   7 C :    0.092895
   8 C :    0.723458
   9 H :   -0.475281
  10 H :   -0.475281
  11 H :   -0.529002
  12 H :   -0.529002
  13 H :    0.003313
  14 H :    0.091137
  15 H :    0.091137
  16 H :    0.003313
  17 H :   -0.148673
  18 H :   -0.123940
Sum of atomic charges:    0.0000000

LOEWDIN ATOMIC CHARGES
----------------------
   0 C :    0.004890
   1 C :    0.004890
   2 C :    0.052628
   3 C :    0.052628
   4 C :   -0.148054
   5 C :   -0.148054
   6 C :    0.035117
   7 C :    0.035117
   8 C :    0.014048
   9 H :   -0.003374
  10 H :   -0.003374
  11 H :    0.004634
  12 H :    0.004634
  13 H :    0.015632
  14 H :    0.020851
  15 H :    0.020851
  16 H :    0.015632
  17 H :    0.013551
  18 H :    0.007755

  Mayer bond orders larger than 0.100000
B(  0-C ,  1-C ) :   1.9592 B(  0-C ,  2-C ) :   1.4913 B(  0-C ,  6-C ) :   0.2651
B(  0-C ,  9-H ) :   0.2265 B(  0-C , 10-H ) :   0.2603 B(  0-C , 11-H ) :   0.1771
B(  0-C , 12-H ) :  -0.1166 B(  1-C ,  3-C ) :   1.4913 B(  1-C ,  7-C ) :   0.2651
B(  1-C ,  9-H ) :   0.2603 B(  1-C , 10-H ) :   0.2265 B(  1-C , 11-H ) :  -0.1166
B(  1-C , 12-H ) :   0.1771 B(  2-C ,  3-C ) :   0.2644 B(  2-C ,  4-C ) :   1.4669
B(  2-C ,  5-C ) :  -0.3183 B(  2-C ,  6-C ) :   0.1190 B(  2-C ,  7-C ) :   0.1614
B(  2-C ,  8-C ) :  -0.1075 B(  2-C ,  9-H ) :   0.1832 B(  2-C , 11-H ) :  -0.3952
B(  2-C , 13-H ) :  -0.1593 B(  3-C ,  4-C ) :  -0.3183 B(  3-C ,  5-C ) :   1.4669
B(  3-C ,  6-C ) :   0.1614 B(  3-C ,  7-C ) :   0.1190 B(  3-C ,  8-C ) :  -0.1075
B(  3-C , 10-H ) :   0.1832 B(  3-C , 12-H ) :  -0.3952 B(  3-C , 16-H ) :  -0.1593
B(  4-C ,  5-C ) :   2.1431 B(  4-C ,  6-C ) :   0.7604 B(  4-C ,  7-C ) :  -0.2062
B(  4-C ,  8-C ) :   0.1184 B(  4-C , 11-H ) :   0.8078 B(  4-C , 13-H ) :   0.5226
B(  4-C , 14-H ) :   0.3470 B(  4-C , 15-H ) :   0.1045 B(  5-C ,  6-C ) :  -0.2062
B(  5-C ,  7-C ) :   0.7604 B(  5-C ,  8-C ) :   0.1184 B(  5-C , 12-H ) :   0.8078
B(  5-C , 14-H ) :   0.1045 B(  5-C , 15-H ) :   0.3470 B(  5-C , 16-H ) :   0.5226
B(  6-C ,  8-C ) :   1.1106 B(  6-C , 11-H ) :   0.1680 B(  6-C , 13-H ) :   0.4957
B(  6-C , 14-H ) :   0.7352 B(  7-C ,  8-C ) :   1.1106 B(  7-C , 12-H ) :   0.1680
B(  7-C , 15-H ) :   0.7352 B(  7-C , 16-H ) :   0.4957 B(  8-C , 17-H ) :   0.7808
B(  8-C , 18-H ) :   0.7339 B( 13-H , 14-H ) :  -0.1669 B( 15-H , 16-H ) :  -0.1669
B( 17-H , 18-H ) :  -0.1268

MP2 TOTAL ENERGY:     -347.923346220 Eh
FINAL SINGLE POINT ENERGY      -347.923346219611

DIPOLE MOMENT
-------------
                                X             Y             Z
Electronic contribution:      0.07582      -4.34072      -0.00000
Nuclear contribution   :     -0.05611       4.61525      -0.00000
                        -----------------------------------------
Total Dipole Moment    :      0.01971       0.27453      -0.00000
                        -----------------------------------------
Magnitude (a.u.)       :      0.27523
Magnitude (Debye)      :      0.69959

Rotational constants in cm-1:     0.118573     0.050017     0.036139
Rotational constants in MHz :  3554.732434  1499.472183  1083.406875

                             ****ORCA TERMINATED NORMALLY****
TOTAL RUN TIME: 0 days 0 hours 1 minutes 29 seconds 274 msec
