                         Program Version 5.0.3 -  RELEASE  -
|  1> !ri-mp2 aug-cc-pvdz aug-cc-pvdz/c tightscf
|  2> %pal nprocs 16 end
|  3>
|  4> * xyz 0 1
|  5> C      0.467629    0.583634    0.000000
|  6> C     -0.031191    1.784928    0.753865
|  7> C     -0.031191    1.784928   -0.753865
|  8> C     -0.315789   -0.714728    0.000000
|  9> C     -0.031191   -1.532744    1.263884
| 10> C     -0.031191   -1.532744   -1.263884
| 11> H      1.544280    0.445861    0.000000
| 12> H     -0.986654    1.703209   -1.255077
| 13> H      0.685059    2.411395    1.266643
| 14> H      0.685059    2.411395   -1.266643
| 15> H     -0.986654    1.703209    1.255077
| 16> H     -0.623644   -2.449214    1.283788
| 17> H     -0.623644   -2.449214   -1.283788
| 18> H     -0.260425   -0.962286   -2.164879
| 19> H     -0.260425   -0.962286    2.164879
| 20> H      1.022414   -1.819061   -1.310538
| 21> H      1.022414   -1.819061    1.310538
| 22> H     -1.380233   -0.453598    0.000000
| 23> *
| 24>
| 25>                          ****END OF INPUT****

CARTESIAN COORDINATES (ANGSTROEM)
---------------------------------
  C      0.467629    0.583634    0.000000
  C     -0.031191    1.784928    0.753865
  C     -0.031191    1.784928   -0.753865
  C     -0.315789   -0.714728    0.000000
  C     -0.031191   -1.532744    1.263884
  C     -0.031191   -1.532744   -1.263884
  H      1.544280    0.445861    0.000000
  H     -0.986654    1.703209   -1.255077
  H      0.685059    2.411395    1.266643
  H      0.685059    2.411395   -1.266643
  H     -0.986654    1.703209    1.255077
  H     -0.623644   -2.449214    1.283788
  H     -0.623644   -2.449214   -1.283788
  H     -0.260425   -0.962286   -2.164879
  H     -0.260425   -0.962286    2.164879
  H      1.022414   -1.819061   -1.310538
  H      1.022414   -1.819061    1.310538
  H     -1.380233   -0.453598    0.000000

 Total Charge           Charge          ....    0
 Multiplicity           Mult            ....    1
 Number of Electrons    NEL             ....   48
 Basis Dimension        Dim             ....  246

ORBITAL ENERGIES
----------------

  NO   OCC          E(Eh)            E(eV)
   0   2.0000     -11.230230      -305.5901
   1   2.0000     -11.227953      -305.5281
   2   2.0000     -11.224213      -305.4264
   3   2.0000     -11.223617      -305.4102
   4   2.0000     -11.213885      -305.1453
   5   2.0000     -11.213861      -305.1447
   6   2.0000      -1.147409       -31.2226
   7   2.0000      -1.050232       -28.5783
   8   2.0000      -0.926859       -25.2211
   9   2.0000      -0.843755       -22.9598
  10   2.0000      -0.817982       -22.2584
  11   2.0000      -0.758583       -20.6421
  12   2.0000      -0.655752       -17.8439
  13   2.0000      -0.635105       -17.2821
  14   2.0000      -0.593214       -16.1422
  15   2.0000      -0.559929       -15.2365
  16   2.0000      -0.553424       -15.0594
  17   2.0000      -0.530287       -14.4298
  18   2.0000      -0.508129       -13.8269
  19   2.0000      -0.481199       -13.0941
  20   2.0000      -0.479730       -13.0541
  21   2.0000      -0.458093       -12.4653
  22   2.0000      -0.407403       -11.0860
  23   2.0000      -0.398742       -10.8503
  24   0.0000       0.038276         1.0415
  25   0.0000       0.043388         1.1806
  26   0.0000       0.044448         1.2095
  27   0.0000       0.046821         1.2741
  28   0.0000       0.064263         1.7487

MULLIKEN ATOMIC CHARGES
-----------------------
   0 C :    0.678222
   1 C :    0.830716
   2 C :    0.830716
   3 C :   -1.432034
   4 C :    0.810141
   5 C :    0.810141
   6 H :   -0.510684
   7 H :   -0.394121
   8 H :   -0.378686
   9 H :   -0.378686
  10 H :   -0.394121
  11 H :   -0.066928
  12 H :   -0.066928
  13 H :   -0.077468
  14 H :   -0.077468
  15 H :   -0.015955
  16 H :   -0.015955
  17 H :   -0.150904
Sum of atomic charges:   -0.0000000

LOEWDIN ATOMIC CHARGES
----------------------
   0 C :   -0.156849
   1 C :    0.062683
   2 C :    0.062683
   3 C :   -0.272510
   4 C :    0.161087
   5 C :    0.161087
   6 H :    0.035685
   7 H :   -0.001842
   8 H :   -0.004660
   9 H :   -0.004660
  10 H :   -0.001842
  11 H :   -0.015417
  12 H :   -0.015417
  13 H :   -0.014176
  14 H :   -0.014176
  15 H :   -0.011029
  16 H :   -0.011029
  17 H :    0.040380

  Mayer bond orders larger than 0.100000
B(  0-C ,  1-C ) :   0.9293 B(  0-C ,  2-C ) :   0.9293 B(  0-C ,  3-C ) :   1.0781
B(  0-C ,  6-H ) :   0.4038 B(  0-C ,  8-H ) :   0.1437 B(  0-C ,  9-H ) :   0.1437
B(  0-C , 17-H ) :   0.2394 B(  1-C ,  2-C ) :   1.1387 B(  1-C ,  8-H ) :   0.6532
B(  1-C , 10-H ) :   0.7221 B(  2-C ,  7-H ) :   0.7221 B(  2-C ,  9-H ) :   0.6532
B(  3-C ,  4-C ) :   1.3487 B(  3-C ,  5-C ) :   1.3487 B(  3-C , 11-H ) :   0.1582
B(  3-C , 12-H ) :   0.1582 B(  3-C , 15-H ) :   0.1355 B(  3-C , 16-H ) :   0.1355
B(  3-C , 17-H ) :   0.6591 B(  4-C ,  5-C ) :  -0.2166 B(  4-C , 11-H ) :   0.8035
B(  4-C , 14-H ) :   0.8350 B(  4-C , 16-H ) :   0.8734 B(  5-C , 12-H ) :   0.8035
B(  5-C , 13-H ) :   0.8350 B(  5-C , 15-H ) :   0.8734 B(  7-H ,  9-H ) :  -0.1651
B(  8-H , 10-H ) :  -0.1651

MP2 TOTAL ENERGY:     -235.080037304 Eh
FINAL SINGLE POINT ENERGY      -235.080037304118

DIPOLE MOMENT
-------------
                                X             Y             Z
Electronic contribution:      0.17057       2.38477      -0.00000
Nuclear contribution   :     -0.17401      -2.39893       0.00000
                        -----------------------------------------
Total Dipole Moment    :     -0.00343      -0.01416      -0.00000
                        -----------------------------------------
Magnitude (a.u.)       :      0.01457
Magnitude (Debye)      :      0.03703

Rotational constants in cm-1:     0.190446     0.086062     0.065671
Rotational constants in MHz :  5709.425889  2580.074541  1968.771272

                             ****ORCA TERMINATED NORMALLY****
TOTAL RUN TIME: 0 days 0 hours 1 minutes 12 seconds 91 msec
