                         Program Version 5.0.3 -  RELEASE  -
|  1> !ri-mp2 aug-cc-pvdz aug-cc-pvdz/c tightscf
|  2> %pal nprocs 16 end
|  3>
|  4> * xyz 0 1
|  5> C      1.121838    0.366816        0.000000
|  6> C      0.615592   -0.959856        0.000000
|  7> C      0.000000    1.124633        0.000000
|  8> N     -0.689000   -0.992693        0.000000
|  9> O     -1.091411    0.346235        0.000000
| 10> H      2.145312    0.693430        0.000000
| 11> H      1.160098   -1.890521        0.000000
| 12> H     -0.175703    2.186501        0.000000
| 13> *
| 14>
| 15>                          ****END OF INPUT****

CARTESIAN COORDINATES (ANGSTROEM)
---------------------------------
  C      1.121838    0.366816    0.000000
  C      0.615592   -0.959856    0.000000
  C      0.000000    1.124633    0.000000
  N     -0.689000   -0.992693    0.000000
  O     -1.091411    0.346235    0.000000
  H      2.145312    0.693430    0.000000
  H      1.160098   -1.890521    0.000000
  H     -0.175703    2.186501    0.000000

 Total Charge           Charge          ....    0
 Multiplicity           Mult            ....    1
 Number of Electrons    NEL             ....   36
 Basis Dimension        Dim             ....  142

ORBITAL ENERGIES
----------------

  NO   OCC          E(Eh)            E(eV)
   0   2.0000     -20.659388      -562.1705
   1   2.0000     -15.636389      -425.4878
   2   2.0000     -11.327913      -308.2482
   3   2.0000     -11.292342      -307.2802
   4   2.0000     -11.251544      -306.1701
   5   2.0000      -1.502854       -40.8947
   6   2.0000      -1.175656       -31.9912
   7   2.0000      -1.080187       -29.3934
   8   2.0000      -0.839984       -22.8571
   9   2.0000      -0.823478       -22.4080
  10   2.0000      -0.748647       -20.3717
  11   2.0000      -0.659021       -17.9329
  12   2.0000      -0.626541       -17.0490
  13   2.0000      -0.592749       -16.1295
  14   2.0000      -0.570093       -15.5130
  15   2.0000      -0.486859       -13.2481
  16   2.0000      -0.432485       -11.7685
  17   2.0000      -0.372991       -10.1496
  18   0.0000       0.030228         0.8226
  19   0.0000       0.039585         1.0772
  20   0.0000       0.050968         1.3869
  21   0.0000       0.091033         2.4771
  22   0.0000       0.101940         2.7739

MULLIKEN ATOMIC CHARGES
-----------------------
   0 C :    0.487977
   1 C :    0.518435
   2 C :    0.702272
   3 N :   -0.225996
   4 O :   -0.803113
   5 H :   -0.291764
   6 H :   -0.161487
   7 H :   -0.226325
Sum of atomic charges:   -0.0000000

LOEWDIN ATOMIC CHARGES
----------------------
   0 C :   -0.000497
   1 C :   -0.063030
   2 C :    0.015896
   3 N :    0.026932
   4 O :    0.027269
   5 H :   -0.013448
   6 H :    0.003281
   7 H :    0.003597

  Mayer bond orders larger than 0.100000
B(  0-C ,  1-C ) :   1.2524 B(  0-C ,  2-C ) :   1.4809 B(  0-C ,  4-O ) :   0.1102
B(  0-C ,  5-H ) :   0.7503 B(  0-C ,  7-H ) :  -0.1264 B(  1-C ,  2-C ) :   0.1409
B(  1-C ,  3-N ) :   1.3670 B(  1-C ,  6-H ) :   0.8804 B(  2-C ,  4-O ) :   0.8172
B(  2-C ,  7-H ) :   0.9709 B(  3-N ,  4-O ) :   0.6552

MP2 TOTAL ENERGY:     -245.393035743 Eh
FINAL SINGLE POINT ENERGY      -245.393035743273

DIPOLE MOMENT
-------------
                                X             Y             Z
Electronic contribution:     -1.87259      -0.35570       0.00000
Nuclear contribution   :      3.04309       0.96824       0.00000
                        -----------------------------------------
Total Dipole Moment    :      1.17050       0.61254       0.00000
                        -----------------------------------------
Magnitude (a.u.)       :      1.32109
Magnitude (Debye)      :      3.35795

Rotational constants in cm-1:     0.329129     0.320905     0.162483
Rotational constants in MHz :  9867.043675  9620.488875  4871.103289

                             ****ORCA TERMINATED NORMALLY****
TOTAL RUN TIME: 0 days 0 hours 0 minutes 45 seconds 449 msec
