                         Program Version 5.0.3 -  RELEASE  -
|  1> !ri-mp2 aug-cc-pvdz aug-cc-pvdz/c tightscf
|  2> %pal nprocs 16 end
|  3>
|  4> * xyz 0 1
|  5> C      0.000000    0.000000   -1.205838
|  6> C      0.000000    0.000000    0.102176
|  7> O      0.000000    0.000000    1.262386
|  8> H      0.000000    0.937241   -1.738559
|  9> H      0.000000   -0.937241   -1.738559
| 10> *
| 11>
| 12>                          ****END OF INPUT****

CARTESIAN COORDINATES (ANGSTROEM)
---------------------------------
  C      0.000000    0.000000   -1.205838
  C      0.000000    0.000000    0.102176
  O      0.000000    0.000000    1.262386
  H      0.000000    0.937241   -1.738559
  H      0.000000   -0.937241   -1.738559

 Total Charge           Charge          ....    0
 Multiplicity           Mult            ....    1
 Number of Electrons    NEL             ....   22
 Basis Dimension        Dim             ....   87

ORBITAL ENERGIES
----------------

  NO   OCC          E(Eh)            E(eV)
   0   2.0000     -20.640931      -561.6683
   1   2.0000     -11.395401      -310.0846
   2   2.0000     -11.248092      -306.0761
   3   2.0000      -1.482051       -40.3286
   4   2.0000      -1.058373       -28.7998
   5   2.0000      -0.762414       -20.7463
   6   2.0000      -0.683291       -18.5933
   7   2.0000      -0.658379       -17.9154
   8   2.0000      -0.645017       -17.5518
   9   2.0000      -0.562772       -15.3138
  10   2.0000      -0.367162        -9.9910
  11   0.0000       0.034222         0.9312
  12   0.0000       0.048698         1.3252
  13   0.0000       0.070576         1.9205
  14   0.0000       0.106280         2.8920
  15   0.0000       0.108366         2.9488

MULLIKEN ATOMIC CHARGES
-----------------------
   0 C :    0.690541
   1 C :    0.078787
   2 O :   -0.440265
   3 H :   -0.164531
   4 H :   -0.164531
Sum of atomic charges:    0.0000000

LOEWDIN ATOMIC CHARGES
----------------------
   0 C :    0.153052
   1 C :   -0.157910
   2 O :    0.104220
   3 H :   -0.049681
   4 H :   -0.049681

  Mayer bond orders larger than 0.100000
B(  0-C ,  1-C ) :   1.5974 B(  0-C ,  3-H ) :   0.9115 B(  0-C ,  4-H ) :   0.9115
B(  1-C ,  2-O ) :   2.0998 B(  3-H ,  4-H ) :  -0.1376

MP2 TOTAL ENERGY:     -152.203156550 Eh
FINAL SINGLE POINT ENERGY      -152.203156549765

DIPOLE MOMENT
-------------
                                X             Y             Z
Electronic contribution:      0.00000      -0.00000       2.68890
Nuclear contribution   :      0.00000       0.00000      -3.39805
                        -----------------------------------------
Total Dipole Moment    :      0.00000      -0.00000      -0.70916
                        -----------------------------------------
Magnitude (a.u.)       :      0.70916
Magnitude (Debye)      :      1.80253

Rotational constants in cm-1:     9.519274     0.344745     0.332696
Rotational constants in MHz : 285380.647312 10335.183505  9973.971805

                             ****ORCA TERMINATED NORMALLY****
TOTAL RUN TIME: 0 days 0 hours 0 minutes 48 seconds 930 msec
