                         Program Version 5.0.3 -  RELEASE  -
|  1> !ri-mp2 aug-cc-pvdz aug-cc-pvdz/c tightscf
|  2> %pal nprocs 16 end
|  3> %maxcore 3800
|  4>
|  5> * xyz 0 1
|  6> N      1.748606    1.711717   -0.110623
|  7> C      1.505536    0.334496    0.352601
|  8> C      2.743343   -0.539294    0.053037
|  9> O      2.755177   -1.732408    0.197432
| 10> O      3.816383    0.153863   -0.349539
| 11> H      3.520520    1.090385   -0.381692
| 12> C      0.229447   -0.318859   -0.188199
| 13> C     -1.059289    0.316065    0.333331
| 14> C     -2.318639   -0.348453   -0.223242
| 15> C     -3.608418    0.279792    0.294578
| 16> N     -4.779870   -0.416009   -0.243436
| 17> H      1.447816    0.361100    1.444428
| 18> H      0.251892   -0.273372   -1.283075
| 19> H      0.258775   -1.376399    0.073343
| 20> H     -1.070260    0.251414    1.426664
| 21> H     -1.077545    1.383378    0.090243
| 22> H     -2.306561   -0.289099   -1.317231
| 23> H     -2.322972   -1.411934    0.025905
| 24> H     -3.642216    0.188063    1.382961
| 25> H     -3.599403    1.356577    0.069884
| 26> H     -5.636961   -0.050753    0.151625
| 27> H     -4.841888   -0.299571   -1.247876
| 28> H      1.314168    1.882851   -1.009374
| 29> H      1.399106    2.403285    0.536824
| 30> *
| 31>
| 32>                          ****END OF INPUT****

CARTESIAN COORDINATES (ANGSTROEM)
---------------------------------
  N      1.748606    1.711717   -0.110623
  C      1.505536    0.334496    0.352601
  C      2.743343   -0.539294    0.053037
  O      2.755177   -1.732408    0.197432
  O      3.816383    0.153863   -0.349539
  H      3.520520    1.090385   -0.381692
  C      0.229447   -0.318859   -0.188199
  C     -1.059289    0.316065    0.333331
  C     -2.318639   -0.348453   -0.223242
  C     -3.608418    0.279792    0.294578
  N     -4.779870   -0.416009   -0.243436
  H      1.447816    0.361100    1.444428
  H      0.251892   -0.273372   -1.283075
  H      0.258775   -1.376399    0.073343
  H     -1.070260    0.251414    1.426664
  H     -1.077545    1.383378    0.090243
  H     -2.306561   -0.289099   -1.317231
  H     -2.322972   -1.411934    0.025905
  H     -3.642216    0.188063    1.382961
  H     -3.599403    1.356577    0.069884
  H     -5.636961   -0.050753    0.151625
  H     -4.841888   -0.299571   -1.247876
  H      1.314168    1.882851   -1.009374
  H      1.399106    2.403285    0.536824

 Total Charge           Charge          ....    0
 Multiplicity           Mult            ....    1
 Number of Electrons    NEL             ....   80
 Basis Dimension        Dim             ....  356

ORBITAL ENERGIES
----------------

  NO   OCC          E(Eh)            E(eV)
   0   2.0000     -20.602446      -560.6211
   1   2.0000     -20.543621      -559.0203
   2   2.0000     -15.591586      -424.2686
   3   2.0000     -15.553354      -423.2283
   4   2.0000     -11.380890      -309.6898
   5   2.0000     -11.297478      -307.4200
   6   2.0000     -11.260945      -306.4259
   7   2.0000     -11.243713      -305.9570
   8   2.0000     -11.241119      -305.8864
   9   2.0000     -11.231865      -305.6346
  10   2.0000      -1.453038       -39.5392
  11   2.0000      -1.357661       -36.9438
  12   2.0000      -1.224852       -33.3299
  13   2.0000      -1.185797       -32.2672
  14   2.0000      -1.085863       -29.5478
  15   2.0000      -1.012713       -27.5573
  16   2.0000      -0.934339       -25.4247
  17   2.0000      -0.849327       -23.1114
  18   2.0000      -0.809490       -22.0274
  19   2.0000      -0.801550       -21.8113
  20   2.0000      -0.737405       -20.0658
  21   2.0000      -0.696715       -18.9586
  22   2.0000      -0.672461       -18.2986
  23   2.0000      -0.666141       -18.1266
  24   2.0000      -0.648869       -17.6566
  25   2.0000      -0.626400       -17.0452
  26   2.0000      -0.620509       -16.8849
  27   2.0000      -0.608370       -16.5546
  28   2.0000      -0.588931       -16.0256
  29   2.0000      -0.567094       -15.4314
  30   2.0000      -0.546644       -14.8749
  31   2.0000      -0.533353       -14.5133
  32   2.0000      -0.507905       -13.8208
  33   2.0000      -0.491344       -13.3702
  34   2.0000      -0.482687       -13.1346
  35   2.0000      -0.479408       -13.0454
  36   2.0000      -0.463908       -12.6236
  37   2.0000      -0.461098       -12.5471
  38   2.0000      -0.413676       -11.2567
  39   2.0000      -0.394089       -10.7237
  40   0.0000       0.022900         0.6231
  41   0.0000       0.033162         0.9024
  42   0.0000       0.035964         0.9786
  43   0.0000       0.046059         1.2533
  44   0.0000       0.053502         1.4559

MULLIKEN ATOMIC CHARGES
-----------------------
   0 N :   -0.636090
   1 C :    0.034667
   2 C :    1.389469
   3 O :   -0.771240
   4 O :   -0.713838
   5 H :    0.285453
   6 C :    0.434549
   7 C :    0.373714
   8 C :    0.368141
   9 C :    1.110711
  10 N :   -0.380076
  11 H :   -0.034852
  12 H :   -0.171106
  13 H :   -0.228852
  14 H :   -0.200493
  15 H :   -0.237109
  16 H :   -0.183932
  17 H :   -0.138707
  18 H :   -0.232542
  19 H :   -0.173044
  20 H :   -0.039050
  21 H :   -0.006703
  22 H :    0.072848
  23 H :    0.078080
Sum of atomic charges:   -0.0000000

LOEWDIN ATOMIC CHARGES
----------------------
   0 N :    0.222788
   1 C :   -0.151856
   2 C :   -0.311328
   3 O :    0.045685
   4 O :    0.212395
   5 H :   -0.096259
   6 C :    0.008594
   7 C :   -0.028416
   8 C :   -0.028576
   9 C :   -0.076583
  10 N :    0.179920
  11 H :    0.052476
  12 H :    0.027205
  13 H :    0.020830
  14 H :    0.021068
  15 H :    0.009968
  16 H :    0.016637
  17 H :    0.022061
  18 H :    0.011123
  19 H :    0.006234
  20 H :   -0.054033
  21 H :   -0.054313
  22 H :   -0.024935
  23 H :   -0.030684

  Mayer bond orders larger than 0.100000
B(  0-N ,  1-C ) :   0.6780 B(  0-N , 22-H ) :   1.0875 B(  0-N , 23-H ) :   1.0490
B(  1-C ,  2-C ) :   0.9200 B(  1-C ,  4-O ) :   0.2053 B(  1-C ,  6-C ) :   1.3243
B(  1-C ,  7-C ) :  -0.1026 B(  1-C , 11-H ) :   0.7575 B(  2-C ,  3-O ) :   1.4082
B(  2-C ,  4-O ) :   0.3678 B(  4-O ,  5-H ) :   0.9267 B(  6-C ,  7-C ) :   1.3531
B(  6-C , 12-H ) :   0.8325 B(  6-C , 13-H ) :   0.7458 B(  7-C ,  8-C ) :   1.2964
B(  7-C , 14-H ) :   0.7299 B(  7-C , 15-H ) :   0.7595 B(  8-C ,  9-C ) :   1.1839
B(  8-C , 16-H ) :   0.7426 B(  8-C , 17-H ) :   0.7727 B(  9-C , 10-N ) :   0.8436
B(  9-C , 18-H ) :   0.7351 B(  9-C , 19-H ) :   0.8037 B( 10-N , 20-H ) :   1.0828
B( 10-N , 21-H ) :   1.0634

MP2 TOTAL ENERGY:     -495.702221431 Eh
FINAL SINGLE POINT ENERGY      -495.702221430738

DIPOLE MOMENT
-------------
                                X             Y             Z
Electronic contribution:     15.10034      -3.10592      -0.01040
Nuclear contribution   :    -16.66972       5.34287      -0.04301
                        -----------------------------------------
Total Dipole Moment    :     -1.56938       2.23695      -0.05341
                        -----------------------------------------
Magnitude (a.u.)       :      2.73309
Magnitude (Debye)      :      6.94696

Rotational constants in cm-1:     0.119442     0.014013     0.012947
Rotational constants in MHz :  3580.795737   420.094066   388.145451

                             ****ORCA TERMINATED NORMALLY****
TOTAL RUN TIME: 0 days 0 hours 2 minutes 38 seconds 815 msec
