                         Program Version 5.0.3 -  RELEASE  -
|  1> !ri-mp2 aug-cc-pvdz aug-cc-pvdz/c tightscf
|  2> %pal nprocs 16 end
|  3> %maxcore 3800
|  4>
|  5> * xyz 0 1
|  6> N      0.889792    1.733167   -0.084168
|  7> C      0.653062    0.324866    0.279326
|  8> C      1.942908   -0.495104    0.057054
|  9> O      1.987940   -1.690661    0.174653
| 10> O      3.015494    0.245946   -0.248211
| 11> H      2.687089    1.172239   -0.274368
| 12> C     -0.530559   -0.332551   -0.440004
| 13> C     -1.916908    0.221973   -0.078321
| 14> C     -2.973038   -0.350115   -1.029174
| 15> C     -2.296085   -0.059131    1.378824
| 16> H      0.489109    0.281675    1.357974
| 17> H     -0.369734   -0.225663   -1.518607
| 18> H     -0.496406   -1.403150   -0.233024
| 19> H     -1.902453    1.308771   -0.219438
| 20> H     -3.962107    0.053227   -0.807413
| 21> H     -2.741372   -0.116292   -2.069654
| 22> H     -3.029551   -1.437289   -0.938398
| 23> H     -3.288045    0.335699    1.602720
| 24> H     -2.313437   -1.133743    1.574081
| 25> H     -1.600962    0.393952    2.087128
| 26> H      0.485395    1.959508   -0.984328
| 27> H      0.510182    2.376995    0.594739
| 28> *
| 29>
| 30>                          ****END OF INPUT****

CARTESIAN COORDINATES (ANGSTROEM)
---------------------------------
  N      0.889792    1.733167   -0.084168
  C      0.653062    0.324866    0.279326
  C      1.942908   -0.495104    0.057054
  O      1.987940   -1.690661    0.174653
  O      3.015494    0.245946   -0.248211
  H      2.687089    1.172239   -0.274368
  C     -0.530559   -0.332551   -0.440004
  C     -1.916908    0.221973   -0.078321
  C     -2.973038   -0.350115   -1.029174
  C     -2.296085   -0.059131    1.378824
  H      0.489109    0.281675    1.357974
  H     -0.369734   -0.225663   -1.518607
  H     -0.496406   -1.403150   -0.233024
  H     -1.902453    1.308771   -0.219438
  H     -3.962107    0.053227   -0.807413
  H     -2.741372   -0.116292   -2.069654
  H     -3.029551   -1.437289   -0.938398
  H     -3.288045    0.335699    1.602720
  H     -2.313437   -1.133743    1.574081
  H     -1.600962    0.393952    2.087128
  H      0.485395    1.959508   -0.984328
  H      0.510182    2.376995    0.594739

 Total Charge           Charge          ....    0
 Multiplicity           Mult            ....    1
 Number of Electrons    NEL             ....   72
 Basis Dimension        Dim             ....  324

ORBITAL ENERGIES
----------------

  NO   OCC          E(Eh)            E(eV)
   0   2.0000     -20.601711      -560.6011
   1   2.0000     -20.542671      -558.9945
   2   2.0000     -15.590968      -424.2518
   3   2.0000     -11.379996      -309.6654
   4   2.0000     -11.296155      -307.3840
   5   2.0000     -11.247782      -306.0677
   6   2.0000     -11.242070      -305.9123
   7   2.0000     -11.230800      -305.6056
   8   2.0000     -11.229038      -305.5577
   9   2.0000      -1.452293       -39.5189
  10   2.0000      -1.356791       -36.9202
  11   2.0000      -1.224237       -33.3132
  12   2.0000      -1.102714       -30.0064
  13   2.0000      -1.007736       -27.4219
  14   2.0000      -0.943966       -25.6866
  15   2.0000      -0.901792       -24.5390
  16   2.0000      -0.805378       -21.9155
  17   2.0000      -0.782840       -21.3022
  18   2.0000      -0.736482       -20.0407
  19   2.0000      -0.698789       -19.0150
  20   2.0000      -0.667501       -18.1636
  21   2.0000      -0.641105       -17.4454
  22   2.0000      -0.623386       -16.9632
  23   2.0000      -0.620643       -16.8886
  24   2.0000      -0.605057       -16.4644
  25   2.0000      -0.575802       -15.6684
  26   2.0000      -0.553479       -15.0609
  27   2.0000      -0.548265       -14.9191
  28   2.0000      -0.544504       -14.8167
  29   2.0000      -0.520410       -14.1611
  30   2.0000      -0.483791       -13.1646
  31   2.0000      -0.478894       -13.0314
  32   2.0000      -0.474415       -12.9095
  33   2.0000      -0.463101       -12.6016
  34   2.0000      -0.459044       -12.4912
  35   2.0000      -0.412054       -11.2126
  36   0.0000       0.023401         0.6368
  37   0.0000       0.036805         1.0015
  38   0.0000       0.038575         1.0497
  39   0.0000       0.046764         1.2725
  40   0.0000       0.058765         1.5991

MULLIKEN ATOMIC CHARGES
-----------------------
   0 N :   -0.625183
   1 C :   -0.115527
   2 C :    1.357833
   3 O :   -0.778235
   4 O :   -0.707782
   5 H :    0.288504
   6 C :    0.921356
   7 C :   -1.296350
   8 C :    0.924583
   9 C :    0.865607
  10 H :   -0.005701
  11 H :   -0.144036
  12 H :   -0.204284
  13 H :   -0.239938
  14 H :   -0.052773
  15 H :   -0.095108
  16 H :   -0.011004
  17 H :   -0.085974
  18 H :   -0.013854
  19 H :   -0.128393
  20 H :    0.077714
  21 H :    0.068546
Sum of atomic charges:    0.0000000

LOEWDIN ATOMIC CHARGES
----------------------
   0 N :    0.227059
   1 C :   -0.147063
   2 C :   -0.310419
   3 O :    0.045311
   4 O :    0.212770
   5 H :   -0.096657
   6 C :    0.026585
   7 C :   -0.276800
   8 C :    0.161079
   9 C :    0.164276
  10 H :    0.040533
  11 H :    0.027904
  12 H :    0.025122
  13 H :    0.030191
  14 H :   -0.013769
  15 H :   -0.014035
  16 H :   -0.007277
  17 H :   -0.012003
  18 H :   -0.003971
  19 H :   -0.024081
  20 H :   -0.025429
  21 H :   -0.029324

  Mayer bond orders larger than 0.100000
B(  0-N ,  1-C ) :   0.6675 B(  0-N , 20-H ) :   1.0849 B(  0-N , 21-H ) :   1.0647
B(  1-C ,  2-C ) :   1.0217 B(  1-C ,  4-O ) :   0.2217 B(  1-C ,  6-C ) :   1.1816
B(  1-C , 10-H ) :   0.8039 B(  1-C , 11-H ) :   0.1330 B(  2-C ,  3-O ) :   1.4225
B(  2-C ,  4-O ) :   0.3842 B(  4-O ,  5-H ) :   0.9257 B(  6-C ,  7-C ) :   1.0792
B(  6-C ,  8-C ) :  -0.1112 B(  6-C ,  9-C ) :  -0.1064 B(  6-C , 11-H ) :   0.7122
B(  6-C , 12-H ) :   0.7868 B(  6-C , 18-H ) :  -0.1319 B(  7-C ,  8-C ) :   1.3150
B(  7-C ,  9-C ) :   1.3409 B(  7-C , 12-H ) :   0.1105 B(  7-C , 13-H ) :   0.6377
B(  7-C , 14-H ) :   0.1672 B(  7-C , 15-H ) :   0.1218 B(  7-C , 16-H ) :   0.1245
B(  7-C , 17-H ) :   0.1602 B(  7-C , 18-H ) :   0.2541 B(  8-C ,  9-C ) :  -0.1771
B(  8-C , 14-H ) :   0.8034 B(  8-C , 15-H ) :   0.7896 B(  8-C , 16-H ) :   0.8912
B(  9-C , 17-H ) :   0.8031 B(  9-C , 18-H ) :   0.8404 B(  9-C , 19-H ) :   0.8417
B( 11-H , 12-H ) :  -0.1255 B( 14-H , 15-H ) :  -0.1089

MP2 TOTAL ENERGY:     -440.493207203 Eh
FINAL SINGLE POINT ENERGY      -440.493207203178

DIPOLE MOMENT
-------------
                                X             Y             Z
Electronic contribution:     14.33588      -1.92025      -0.16689
Nuclear contribution   :    -15.92471       3.66293       0.17499
                        -----------------------------------------
Total Dipole Moment    :     -1.58883       1.74268       0.00810
                        -----------------------------------------
Magnitude (a.u.)       :      2.35826
Magnitude (Debye)      :      5.99423

Rotational constants in cm-1:     0.095699     0.027602     0.025394
Rotational constants in MHz :  2868.974913   827.490373   761.284825

                             ****ORCA TERMINATED NORMALLY****
TOTAL RUN TIME: 0 days 0 hours 1 minutes 47 seconds 412 msec
