                         Program Version 5.0.3 -  RELEASE  -
|  1> !ri-mp2 aug-cc-pvdz aug-cc-pvdz/c tightscf
|  2> %pal nprocs 16 end
|  3>
|  4> * xyz 0 1
|  5> N      0.000000    0.625382    0.000000
|  6> O     -1.204276    0.568235    0.000000
|  7> O      0.724269    1.578295    0.000000
|  8> O      0.708849   -0.603160    0.000000
|  9> C     -0.143421   -1.760352    0.000000
| 10> H      0.559744   -2.588769    0.000000
| 11> H     -0.764976   -1.786875    0.892235
| 12> H     -0.764976   -1.786875   -0.892235
| 13> *
| 14>
| 15>                          ****END OF INPUT****

CARTESIAN COORDINATES (ANGSTROEM)
---------------------------------
  N      0.000000    0.625382    0.000000
  O     -1.204276    0.568235    0.000000
  O      0.724269    1.578295    0.000000
  O      0.708849   -0.603160    0.000000
  C     -0.143421   -1.760352    0.000000
  H      0.559744   -2.588769    0.000000
  H     -0.764976   -1.786875    0.892235
  H     -0.764976   -1.786875   -0.892235

 Total Charge           Charge          ....    0
 Multiplicity           Mult            ....    1
 Number of Electrons    NEL             ....   40
 Basis Dimension        Dim             ....  142

ORBITAL ENERGIES
----------------

  NO   OCC          E(Eh)            E(eV)
   0   2.0000     -20.681830      -562.7812
   1   2.0000     -20.644903      -561.7764
   2   2.0000     -20.643137      -561.7283
   3   2.0000     -15.932331      -433.5408
   4   2.0000     -11.322949      -308.1131
   5   2.0000      -1.680635       -45.7324
   6   2.0000      -1.460997       -39.7558
   7   2.0000      -1.435497       -39.0618
   8   2.0000      -1.024379       -27.8748
   9   2.0000      -0.889425       -24.2025
  10   2.0000      -0.812642       -22.1131
  11   2.0000      -0.787105       -21.4182
  12   2.0000      -0.772685       -21.0258
  13   2.0000      -0.658199       -17.9105
  14   2.0000      -0.655533       -17.8380
  15   2.0000      -0.594663       -16.1816
  16   2.0000      -0.526976       -14.3397
  17   2.0000      -0.520691       -14.1687
  18   2.0000      -0.519961       -14.1489
  19   2.0000      -0.487286       -13.2597
  20   0.0000       0.030104         0.8192
  21   0.0000       0.051832         1.4104
  22   0.0000       0.053619         1.4591
  23   0.0000       0.077773         2.1163
  24   0.0000       0.091017         2.4767

MULLIKEN ATOMIC CHARGES
-----------------------
   0 N :    1.405485
   1 O :   -0.608279
   2 O :   -0.632584
   3 O :   -0.755053
   4 C :    0.869828
   5 H :   -0.199855
   6 H :   -0.039771
   7 H :   -0.039771
Sum of atomic charges:   -0.0000000

LOEWDIN ATOMIC CHARGES
----------------------
   0 N :   -0.393998
   1 O :    0.106049
   2 O :    0.118086
   3 O :    0.071784
   4 C :    0.166827
   5 H :   -0.021169
   6 H :   -0.023789
   7 H :   -0.023789

  Mayer bond orders larger than 0.100000
B(  0-N ,  1-O ) :   1.1808 B(  0-N ,  2-O ) :   1.2177 B(  0-N ,  3-O ) :   0.7822
B(  1-O ,  2-O ) :   0.1236 B(  3-O ,  4-C ) :   0.6035 B(  4-C ,  5-H ) :   1.0173
B(  4-C ,  6-H ) :   0.9744 B(  4-C ,  7-H ) :   0.9744

MP2 TOTAL ENERGY:     -319.456649469 Eh
FINAL SINGLE POINT ENERGY      -319.456649468802

DIPOLE MOMENT
-------------
                                X             Y             Z
Electronic contribution:      0.77480       4.60166      -0.00000
Nuclear contribution   :     -0.94256      -5.98194       0.00000
                        -----------------------------------------
Total Dipole Moment    :     -0.16776      -1.38028      -0.00000
                        -----------------------------------------
Magnitude (a.u.)       :      1.39044
Magnitude (Debye)      :      3.53421

Rotational constants in cm-1:     0.395497     0.155802     0.114201
Rotational constants in MHz : 11856.695021  4670.820984  3423.668225

                             ****ORCA TERMINATED NORMALLY****
TOTAL RUN TIME: 0 days 0 hours 0 minutes 34 seconds 874 msec
