                         Program Version 5.0.3 -  RELEASE  -
|  1> !ri-mp2 aug-cc-pvdz aug-cc-pvdz/c tightscf
|  2> %pal nprocs 16 end
|  3>
|  4> * xyz 0 1
|  5> H      2.527150   -1.893203    0.000000
|  6> H      2.462309   -0.342027    0.886291
|  7> H      2.462309   -0.342027   -0.886291
|  8> C      2.133452   -0.881675    0.000000
|  9> O      0.704179   -1.022573    0.000000
| 10> O      0.512478    1.224123    0.000000
| 11> C      0.000000    0.130493    0.000000
| 12> H     -1.752520   -1.187537    0.000000
| 13> C     -1.456302   -0.147598    0.000000
| 14> H     -3.407145    0.640284    0.000000
| 15> H     -2.020476    1.871183    0.000000
| 16> C     -2.344631    0.838935    0.000000
| 17> *
| 18>
| 19>                          ****END OF INPUT****

CARTESIAN COORDINATES (ANGSTROEM)
---------------------------------
  H      2.527150   -1.893203    0.000000
  H      2.462309   -0.342027    0.886291
  H      2.462309   -0.342027   -0.886291
  C      2.133452   -0.881675    0.000000
  O      0.704179   -1.022573    0.000000
  O      0.512478    1.224123    0.000000
  C      0.000000    0.130493    0.000000
  H     -1.752520   -1.187537    0.000000
  C     -1.456302   -0.147598    0.000000
  H     -3.407145    0.640284    0.000000
  H     -2.020476    1.871183    0.000000
  C     -2.344631    0.838935    0.000000

 Total Charge           Charge          ....    0
 Multiplicity           Mult            ....    1
 Number of Electrons    NEL             ....   46
 Basis Dimension        Dim             ....  192

ORBITAL ENERGIES
----------------

  NO   OCC          E(Eh)            E(eV)
   0   2.0000     -20.613707      -560.9275
   1   2.0000     -20.552964      -559.2746
   2   2.0000     -11.390328      -309.9466
   3   2.0000     -11.292754      -307.2915
   4   2.0000     -11.265293      -306.5442
   5   2.0000     -11.255860      -306.2875
   6   2.0000      -1.463569       -39.8257
   7   2.0000      -1.362623       -37.0789
   8   2.0000      -1.083408       -29.4810
   9   2.0000      -0.981905       -26.7190
  10   2.0000      -0.856686       -23.3116
  11   2.0000      -0.762115       -20.7382
  12   2.0000      -0.714853       -19.4521
  13   2.0000      -0.677422       -18.4336
  14   2.0000      -0.670267       -18.2389
  15   2.0000      -0.633439       -17.2367
  16   2.0000      -0.585408       -15.9298
  17   2.0000      -0.555459       -15.1148
  18   2.0000      -0.549689       -14.9578
  19   2.0000      -0.528537       -14.3822
  20   2.0000      -0.463368       -12.6089
  21   2.0000      -0.452095       -12.3021
  22   2.0000      -0.395848       -10.7716
  23   0.0000       0.033887         0.9221
  24   0.0000       0.040138         1.0922
  25   0.0000       0.050891         1.3848
  26   0.0000       0.063250         1.7211
  27   0.0000       0.063716         1.7338

MULLIKEN ATOMIC CHARGES
-----------------------
   0 H :   -0.245299
   1 H :   -0.058833
   2 H :   -0.058833
   3 C :    0.826276
   4 O :   -0.807043
   5 O :   -0.729109
   6 C :    0.591301
   7 H :   -0.497784
   8 C :    0.941460
   9 H :   -0.252046
  10 H :   -0.251301
  11 C :    0.541211
Sum of atomic charges:   -0.0000000

LOEWDIN ATOMIC CHARGES
----------------------
   0 H :   -0.026555
   1 H :   -0.018997
   2 H :   -0.018997
   3 C :    0.179523
   4 O :    0.042270
   5 O :    0.042931
   6 C :   -0.359996
   7 H :   -0.006271
   8 C :   -0.007265
   9 H :   -0.028553
  10 H :   -0.021560
  11 C :    0.223470

  Mayer bond orders larger than 0.100000
B(  0-H ,  3-C ) :   1.0306 B(  1-H ,  3-C ) :   0.9834 B(  2-H ,  3-C ) :   0.9834
B(  3-C ,  4-O ) :   0.5870 B(  4-O ,  6-C ) :   0.6033 B(  5-O ,  6-C ) :   1.5117
B(  6-C ,  7-H ) :   0.1223 B(  6-C ,  8-C ) :   0.7777 B(  6-C , 11-C ) :   0.1581
B(  7-H ,  8-C ) :   0.6359 B(  8-C , 10-H ) :  -0.1059 B(  8-C , 11-C ) :   1.6853
B(  9-H , 10-H ) :  -0.1717 B(  9-H , 11-C ) :   0.8519 B( 10-H , 11-C ) :   0.9493

MP2 TOTAL ENERGY:     -305.660291745 Eh
FINAL SINGLE POINT ENERGY      -305.660291745052

DIPOLE MOMENT
-------------
                                X             Y             Z
Electronic contribution:     -0.59448       0.64538      -0.00000
Nuclear contribution   :      0.29182      -1.25453       0.00000
                        -----------------------------------------
Total Dipole Moment    :     -0.30265      -0.60915      -0.00000
                        -----------------------------------------
Magnitude (a.u.)       :      0.68019
Magnitude (Debye)      :      1.72891

Rotational constants in cm-1:     0.344316     0.077244     0.063847
Rotational constants in MHz : 10322.332080  2315.704212  1914.079011

                             ****ORCA TERMINATED NORMALLY****
TOTAL RUN TIME: 0 days 0 hours 0 minutes 59 seconds 748 msec
