                         Program Version 5.0.3 -  RELEASE  -
|  1> !ri-mp2 aug-cc-pvdz aug-cc-pvdz/c tightscf
|  2> %pal nprocs 16 end
|  3>
|  4> * xyz 0 1
|  5> O      0.000000    2.236047    0.597444
|  6> C      0.000000    1.129930    0.158173
|  7> O      0.000000    0.000000    0.969792
|  8> C      0.000000   -1.129930    0.158173
|  9> O      0.000000   -2.236047    0.597444
| 10> C      0.000000   -0.664242   -1.254113
| 11> C      0.000000    0.664242   -1.254113
| 12> H      0.000000   -1.352815   -2.083086
| 13> H      0.000000    1.352815   -2.083086
| 14> *
| 15>
| 16>                          ****END OF INPUT****

CARTESIAN COORDINATES (ANGSTROEM)
---------------------------------
  O      0.000000    2.236047    0.597444
  C      0.000000    1.129930    0.158173
  O      0.000000    0.000000    0.969792
  C      0.000000   -1.129930    0.158173
  O      0.000000   -2.236047    0.597444
  C      0.000000   -0.664242   -1.254113
  C      0.000000    0.664242   -1.254113
  H      0.000000   -1.352815   -2.083086
  H      0.000000    1.352815   -2.083086

 Total Charge           Charge          ....    0
 Multiplicity           Mult            ....    1
 Number of Electrons    NEL             ....   50
 Basis Dimension        Dim             ....  179

ORBITAL ENERGIES
----------------

  NO   OCC          E(Eh)            E(eV)
   0   2.0000     -20.659145      -562.1639
   1   2.0000     -20.603755      -560.6567
   2   2.0000     -20.603753      -560.6566
   3   2.0000     -11.434047      -311.1362
   4   2.0000     -11.434027      -311.1357
   5   2.0000     -11.320206      -308.0385
   6   2.0000     -11.318458      -307.9909
   7   2.0000      -1.525415       -41.5086
   8   2.0000      -1.453500       -39.5517
   9   2.0000      -1.405898       -38.2564
  10   2.0000      -1.160568       -31.5807
  11   2.0000      -0.962147       -26.1814
  12   2.0000      -0.865970       -23.5642
  13   2.0000      -0.834106       -22.6972
  14   2.0000      -0.739140       -20.1130
  15   2.0000      -0.700813       -19.0701
  16   2.0000      -0.696216       -18.9450
  17   2.0000      -0.675194       -18.3730
  18   2.0000      -0.644043       -17.5253
  19   2.0000      -0.621170       -16.9029
  20   2.0000      -0.583451       -15.8765
  21   2.0000      -0.509948       -13.8764
  22   2.0000      -0.508968       -13.8497
  23   2.0000      -0.477851       -13.0030
  24   2.0000      -0.450125       -12.2485
  25   0.0000       0.018920         0.5148
  26   0.0000       0.022068         0.6005
  27   0.0000       0.039711         1.0806
  28   0.0000       0.073273         1.9939
  29   0.0000       0.088002         2.3947

MULLIKEN ATOMIC CHARGES
-----------------------
   0 O :   -0.632391
   1 C :    0.854041
   2 O :   -0.805845
   3 C :    0.854041
   4 O :   -0.632391
   5 C :    0.429215
   6 C :    0.429215
   7 H :   -0.247942
   8 H :   -0.247942
Sum of atomic charges:   -0.0000000

LOEWDIN ATOMIC CHARGES
----------------------
   0 O :    0.089684
   1 C :   -0.285747
   2 O :    0.132676
   3 C :   -0.285747
   4 O :    0.089684
   5 C :    0.112163
   6 C :    0.112163
   7 H :    0.017562
   8 H :    0.017562

  Mayer bond orders larger than 0.100000
B(  0-O ,  1-C ) :   1.6267 B(  0-O ,  6-C ) :  -0.1803 B(  1-C ,  2-O ) :   0.5838
B(  1-C ,  6-C ) :   0.9142 B(  2-O ,  3-C ) :   0.5838 B(  3-C ,  4-O ) :   1.6267
B(  3-C ,  5-C ) :   0.9142 B(  4-O ,  5-C ) :  -0.1803 B(  5-C ,  6-C ) :   2.2449
B(  5-C ,  7-H ) :   0.7402 B(  6-C ,  8-H ) :   0.7402

MP2 TOTAL ENERGY:     -378.368536164 Eh
FINAL SINGLE POINT ENERGY      -378.368536163786

DIPOLE MOMENT
-------------
                                X             Y             Z
Electronic contribution:     -0.00000      -0.00000       2.06605
Nuclear contribution   :      0.00000       0.00000      -3.95703
                        -----------------------------------------
Total Dipole Moment    :     -0.00000      -0.00000      -1.89098
                        -----------------------------------------
Magnitude (a.u.)       :      1.89098
Magnitude (Debye)      :      4.80649

Rotational constants in cm-1:     0.229583     0.082254     0.060558
Rotational constants in MHz :  6882.739770  2465.923572  1815.479884

                             ****ORCA TERMINATED NORMALLY****
TOTAL RUN TIME: 0 days 0 hours 0 minutes 37 seconds 579 msec
