                         Program Version 5.0.3 -  RELEASE  -
|  1> !ri-mp2 aug-cc-pvdz aug-cc-pvdz/c tightscf
|  2> %pal nprocs 16 end
|  3>
|  4> * xyz 0 1
|  5> C      0.050669    0.624607    0.000000
|  6> C     -1.855094    2.001586    0.000000
|  7> C      0.511832   -0.857791    0.000000
|  8> O      0.811982    1.547940    0.000000
|  9> O     -1.275222    0.677957    0.000000
| 10> F      0.050669   -1.497770    1.087625
| 11> F      0.050669   -1.497770   -1.087625
| 12> F      1.840087   -0.932253    0.000000
| 13> H     -1.541783    2.544186    0.888968
| 14> H     -2.927775    1.844167    0.000000
| 15> H     -1.541783    2.544186   -0.888968
| 16> *
| 17>
| 18>                          ****END OF INPUT****

CARTESIAN COORDINATES (ANGSTROEM)
---------------------------------
  C      0.050669    0.624607    0.000000
  C     -1.855094    2.001586    0.000000
  C      0.511832   -0.857791    0.000000
  O      0.811982    1.547940    0.000000
  O     -1.275222    0.677957    0.000000
  F      0.050669   -1.497770    1.087625
  F      0.050669   -1.497770   -1.087625
  F      1.840087   -0.932253    0.000000
  H     -1.541783    2.544186    0.888968
  H     -2.927775    1.844167    0.000000
  H     -1.541783    2.544186   -0.888968

 Total Charge           Charge          ....    0
 Multiplicity           Mult            ....    1
 Number of Electrons    NEL             ....   64
 Basis Dimension        Dim             ....  211

ORBITAL ENERGIES
----------------

  NO   OCC          E(Eh)            E(eV)
   0   2.0000     -26.370581      -717.5800
   1   2.0000     -26.370562      -717.5795
   2   2.0000     -26.368142      -717.5136
   3   2.0000     -20.652124      -561.9729
   4   2.0000     -20.603148      -560.6402
   5   2.0000     -11.544641      -314.1456
   6   2.0000     -11.437585      -311.2325
   7   2.0000     -11.321262      -308.0672
   8   2.0000      -1.753572       -47.7171
   9   2.0000      -1.658273       -45.1239
  10   2.0000      -1.657496       -45.1028
  11   2.0000      -1.508926       -41.0600
  12   2.0000      -1.412165       -38.4270
  13   2.0000      -1.059461       -28.8294
  14   2.0000      -0.985109       -26.8062
  15   2.0000      -0.885197       -24.0874
  16   2.0000      -0.843342       -22.9485
  17   2.0000      -0.841949       -22.9106
  18   2.0000      -0.801459       -21.8088
  19   2.0000      -0.731422       -19.9030
  20   2.0000      -0.729182       -19.8421
  21   2.0000      -0.712273       -19.3819
  22   2.0000      -0.699744       -19.0410
  23   2.0000      -0.692956       -18.8563
  24   2.0000      -0.679865       -18.5001
  25   2.0000      -0.678154       -18.4535
  26   2.0000      -0.664343       -18.0777
  27   2.0000      -0.608939       -16.5701
  28   2.0000      -0.583892       -15.8885
  29   2.0000      -0.562685       -15.3114
  30   2.0000      -0.497366       -13.5340
  31   2.0000      -0.495584       -13.4855
  32   0.0000       0.030063         0.8181
  33   0.0000       0.052794         1.4366
  34   0.0000       0.054295         1.4774
  35   0.0000       0.070371         1.9149
  36   0.0000       0.087575         2.3830

MULLIKEN ATOMIC CHARGES
-----------------------
   0 C :    0.457275
   1 C :    0.821104
   2 C :    2.259597
   3 O :   -0.615909
   4 O :   -0.757606
   5 F :   -0.609260
   6 F :   -0.609260
   7 F :   -0.626751
   8 H :   -0.046692
   9 H :   -0.225807
  10 H :   -0.046692
Sum of atomic charges:   -0.0000000

LOEWDIN ATOMIC CHARGES
----------------------
   0 C :   -0.291785
   1 C :    0.209746
   2 C :   -0.309311
   3 O :    0.089014
   4 O :    0.066784
   5 F :    0.090641
   6 F :    0.090641
   7 F :    0.103981
   8 H :   -0.014455
   9 H :   -0.020803
  10 H :   -0.014455

  Mayer bond orders larger than 0.100000
B(  0-C ,  2-C ) :   0.7863 B(  0-C ,  3-O ) :   1.5915 B(  0-C ,  4-O ) :   0.8559
B(  0-C ,  5-F ) :   0.1457 B(  0-C ,  6-F ) :   0.1457 B(  0-C ,  7-F ) :   0.3010
B(  1-C ,  4-O ) :   0.5946 B(  1-C ,  8-H ) :   0.9612 B(  1-C ,  9-H ) :   1.0412
B(  1-C , 10-H ) :   0.9612 B(  2-C ,  5-F ) :   0.3211 B(  2-C ,  6-F ) :   0.3211
B(  2-C ,  7-F ) :   0.1060

MP2 TOTAL ENERGY:     -564.875815929 Eh
FINAL SINGLE POINT ENERGY      -564.875815929456

DIPOLE MOMENT
-------------
                                X             Y             Z
Electronic contribution:      6.36759      -9.54907       0.00000
Nuclear contribution   :     -7.44932      10.18153       0.00000
                        -----------------------------------------
Total Dipole Moment    :     -1.08173       0.63246       0.00000
                        -----------------------------------------
Magnitude (a.u.)       :      1.25306
Magnitude (Debye)      :      3.18502

Rotational constants in cm-1:     0.119639     0.050280     0.044003
Rotational constants in MHz :  3586.694278  1507.362099  1319.188846

                             ****ORCA TERMINATED NORMALLY****
TOTAL RUN TIME: 0 days 0 hours 0 minutes 54 seconds 911 msec
