                         Program Version 5.0.3 -  RELEASE  -
|  1> !ri-mp2 aug-cc-pvdz aug-cc-pvdz/c tightscf
|  2> %pal nprocs 16 end
|  3>
|  4> * xyz 0 1
|  5> S     -2.265968   -0.918361   -0.000001
|  6> S      2.145504   -0.995460    0.000002
|  7> O     -0.634755   -0.362504    0.000000
|  8> O     -1.517867    1.704175   -0.000002
|  9> C     -0.541512    0.991131   -0.000001
| 10> C      0.843271    1.467699    0.000000
| 11> C      1.974268    0.747540    0.000000
| 12> H     -1.833773   -2.193713    0.000000
| 13> H      3.490805   -0.983923    0.000003
| 14> H      0.921463    2.545287   -0.000001
| 15> H      2.913753    1.281908    0.000000
| 16> *
| 17>
| 18>                          ****END OF INPUT****

CARTESIAN COORDINATES (ANGSTROEM)
---------------------------------
  S     -2.265968   -0.918361   -0.000001
  S      2.145504   -0.995460    0.000002
  O     -0.634755   -0.362504    0.000000
  O     -1.517867    1.704175   -0.000002
  C     -0.541512    0.991131   -0.000001
  C      0.843271    1.467699    0.000000
  C      1.974268    0.747540    0.000000
  H     -1.833773   -2.193713    0.000000
  H      3.490805   -0.983923    0.000003
  H      0.921463    2.545287   -0.000001
  H      2.913753    1.281908    0.000000

 Total Charge           Charge          ....    0
 Multiplicity           Mult            ....    1
 Number of Electrons    NEL             ....   70
 Basis Dimension        Dim             ....  205

ORBITAL ENERGIES
----------------

  NO   OCC          E(Eh)            E(eV)
   0   2.0000     -92.030173     -2504.2683
   1   2.0000     -91.996056     -2503.3399
   2   2.0000     -20.641248      -561.6769
   3   2.0000     -20.565471      -559.6149
   4   2.0000     -11.404599      -310.3349
   5   2.0000     -11.319365      -308.0156
   6   2.0000     -11.264809      -306.5310
   7   2.0000      -9.024744      -245.5758
   8   2.0000      -8.997710      -244.8401
   9   2.0000      -6.706715      -182.4990
  10   2.0000      -6.704794      -182.4467
  11   2.0000      -6.701901      -182.3680
  12   2.0000      -6.679579      -181.7606
  13   2.0000      -6.678300      -181.7258
  14   2.0000      -6.676184      -181.6682
  15   2.0000      -1.474719       -40.1291
  16   2.0000      -1.370571       -37.2951
  17   2.0000      -1.127212       -30.6730
  18   2.0000      -1.020688       -27.7743
  19   2.0000      -0.977106       -26.5884
  20   2.0000      -0.856306       -23.3013
  21   2.0000      -0.765068       -20.8186
  22   2.0000      -0.706204       -19.2168
  23   2.0000      -0.683341       -18.5947
  24   2.0000      -0.656973       -17.8772
  25   2.0000      -0.653649       -17.7867
  26   2.0000      -0.599497       -16.3131
  27   2.0000      -0.566889       -15.4258
  28   2.0000      -0.512875       -13.9560
  29   2.0000      -0.510205       -13.8834
  30   2.0000      -0.484640       -13.1877
  31   2.0000      -0.474184       -12.9032
  32   2.0000      -0.464826       -12.6486
  33   2.0000      -0.378647       -10.3035
  34   2.0000      -0.350960        -9.5501
  35   0.0000       0.026677         0.7259
  36   0.0000       0.040942         1.1141
  37   0.0000       0.045802         1.2463
  38   0.0000       0.061351         1.6695
  39   0.0000       0.071432         1.9438

MULLIKEN ATOMIC CHARGES
-----------------------
   0 S :    0.462292
   1 S :    0.304818
   2 O :   -0.802696
   3 O :   -0.667682
   4 C :    0.550222
   5 C :    0.993363
   6 C :    0.068097
   7 H :    0.075877
   8 H :    0.066054
   9 H :   -0.487972
  10 H :   -0.562373
Sum of atomic charges:    0.0000000

LOEWDIN ATOMIC CHARGES
----------------------
   0 S :    0.765578
   1 S :    0.812981
   2 O :   -0.266622
   3 O :    0.009989
   4 C :   -0.467605
   5 C :   -0.046009
   6 C :   -0.320391
   7 H :   -0.234976
   8 H :   -0.208469
   9 H :   -0.003028
  10 H :   -0.041447

  Mayer bond orders larger than 0.100000
B(  0-S ,  2-O ) :   0.6288 B(  0-S ,  7-H ) :   0.9859 B(  1-S ,  2-O ) :  -0.1005
B(  1-S ,  4-C ) :   0.1104 B(  1-S ,  6-C ) :   1.0754 B(  1-S ,  8-H ) :   0.9314
B(  2-O ,  4-C ) :   0.7086 B(  3-O ,  4-C ) :   1.4644 B(  4-C ,  5-C ) :   0.9653
B(  4-C ,  9-H ) :   0.1662 B(  5-C ,  6-C ) :   1.7889 B(  5-C ,  9-H ) :   0.5171
B(  6-C , 10-H ) :   0.8589

MP2 TOTAL ENERGY:    -1061.795525143 Eh
FINAL SINGLE POINT ENERGY     -1061.795525143018

DIPOLE MOMENT
-------------
                                X             Y             Z
Electronic contribution:     -3.77987      -1.34300      -0.00000
Nuclear contribution   :      5.27281       0.70448       0.00000
                        -----------------------------------------
Total Dipole Moment    :      1.49294      -0.63851       0.00000
                        -----------------------------------------
Magnitude (a.u.)       :      1.62375
Magnitude (Debye)      :      4.12724

Rotational constants in cm-1:     0.101792     0.038364     0.027863
Rotational constants in MHz :  3051.641439  1150.132703   835.312061

                             ****ORCA TERMINATED NORMALLY****
TOTAL RUN TIME: 0 days 0 hours 0 minutes 55 seconds 470 msec
