                         Program Version 5.0.3 -  RELEASE  -
|  1> !ri-mp2 aug-cc-pvdz aug-cc-pvdz/c tightscf
|  2> %pal nprocs 16 end
|  3>
|  4> * xyz 0 1
|  5> C     -1.629703    2.519691    0.000000
|  6> C     -0.245437    2.661629    0.000000
|  7> C     -2.199329    1.250750    0.000000
|  8> C      0.567055    1.537570    0.000000
|  9> C     -1.389364    0.123082    0.000000
| 10> C      0.000000    0.261893    0.000000
| 11> C      0.918942   -0.909822    0.000000
| 12> C      1.082579   -3.263273    0.000000
| 13> O      2.125324   -0.833326    0.000000
| 14> O      0.258943   -2.087035    0.000000
| 15> H     -2.263404    3.396510    0.000000
| 16> H      0.198432    3.647794    0.000000
| 17> H     -3.275165    1.139998    0.000000
| 18> H      1.643793    1.627324    0.000000
| 19> H     -1.827393   -0.863439    0.000000
| 20> H      1.713986   -3.286294    0.886283
| 21> H      1.713986   -3.286294   -0.886283
| 22> H      0.393171   -4.101840    0.000000
| 23> *
| 24>
| 25>                          ****END OF INPUT****

CARTESIAN COORDINATES (ANGSTROEM)
---------------------------------
  C     -1.629703    2.519691    0.000000
  C     -0.245437    2.661629    0.000000
  C     -2.199329    1.250750    0.000000
  C      0.567055    1.537570    0.000000
  C     -1.389364    0.123082    0.000000
  C      0.000000    0.261893    0.000000
  C      0.918942   -0.909822    0.000000
  C      1.082579   -3.263273    0.000000
  O      2.125324   -0.833326    0.000000
  O      0.258943   -2.087035    0.000000
  H     -2.263404    3.396510    0.000000
  H      0.198432    3.647794    0.000000
  H     -3.275165    1.139998    0.000000
  H      1.643793    1.627324    0.000000
  H     -1.827393   -0.863439    0.000000
  H      1.713986   -3.286294    0.886283
  H      1.713986   -3.286294   -0.886283
  H      0.393171   -4.101840    0.000000

 Total Charge           Charge          ....    0
 Multiplicity           Mult            ....    1
 Number of Electrons    NEL             ....   72
 Basis Dimension        Dim             ....  302

ORBITAL ENERGIES
----------------

  NO   OCC          E(Eh)            E(eV)
   0   2.0000     -20.613116      -560.9114
   1   2.0000     -20.553322      -559.2843
   2   2.0000     -11.391104      -309.9677
   3   2.0000     -11.293366      -307.3081
   4   2.0000     -11.257609      -306.3351
   5   2.0000     -11.257354      -306.3282
   6   2.0000     -11.256302      -306.2995
   7   2.0000     -11.253682      -306.2283
   8   2.0000     -11.249130      -306.1044
   9   2.0000     -11.248308      -306.0820
  10   2.0000      -1.464921       -39.8625
  11   2.0000      -1.362827       -37.0844
  12   2.0000      -1.171919       -31.8895
  13   2.0000      -1.053868       -28.6772
  14   2.0000      -1.031520       -28.0691
  15   2.0000      -0.975054       -26.5326
  16   2.0000      -0.867433       -23.6040
  17   2.0000      -0.840286       -22.8653
  18   2.0000      -0.780732       -21.2448
  19   2.0000      -0.740580       -20.1522
  20   2.0000      -0.687707       -18.7135
  21   2.0000      -0.673872       -18.3370
  22   2.0000      -0.671717       -18.2783
  23   2.0000      -0.634212       -17.2578
  24   2.0000      -0.629865       -17.1395
  25   2.0000      -0.601735       -16.3741
  26   2.0000      -0.585358       -15.9284
  27   2.0000      -0.560624       -15.2554
  28   2.0000      -0.532976       -14.5030
  29   2.0000      -0.523177       -14.2364
  30   2.0000      -0.507469       -13.8089
  31   2.0000      -0.503285       -13.6951
  32   2.0000      -0.463435       -12.6107
  33   2.0000      -0.452113       -12.3026
  34   2.0000      -0.351354        -9.5608
  35   2.0000      -0.347428        -9.4540
  36   0.0000       0.031989         0.8705
  37   0.0000       0.037708         1.0261
  38   0.0000       0.042977         1.1695
  39   0.0000       0.052741         1.4352
  40   0.0000       0.057850         1.5742

MULLIKEN ATOMIC CHARGES
-----------------------
   0 C :    0.409038
   1 C :    0.552490
   2 C :    0.381256
   3 C :   -0.103155
   4 C :    0.439113
   5 C :    1.638664
   6 C :    0.436464
   7 C :    0.803313
   8 O :   -0.747846
   9 O :   -0.889437
  10 H :   -0.437337
  11 H :   -0.436484
  12 H :   -0.458194
  13 H :   -0.628158
  14 H :   -0.598693
  15 H :   -0.042640
  16 H :   -0.042640
  17 H :   -0.275754
Sum of atomic charges:   -0.0000000

LOEWDIN ATOMIC CHARGES
----------------------
   0 C :    0.021489
   1 C :    0.020061
   2 C :    0.016912
   3 C :    0.069747
   4 C :    0.064423
   5 C :   -0.130430
   6 C :   -0.307412
   7 C :    0.182418
   8 O :    0.052525
   9 O :    0.050397
  10 H :    0.004100
  11 H :    0.001386
  12 H :    0.000677
  13 H :    0.011273
  14 H :    0.003505
  15 H :   -0.017736
  16 H :   -0.017736
  17 H :   -0.025599

  Mayer bond orders larger than 0.100000
B(  0-C ,  1-C ) :   1.6888 B(  0-C ,  2-C ) :   1.6889 B(  0-C ,  3-C ) :   0.1776
B(  0-C ,  6-C ) :   0.1354 B(  0-C , 10-H ) :   0.3828 B(  0-C , 11-H ) :   0.1030
B(  0-C , 12-H ) :   0.1181 B(  1-C ,  3-C ) :   2.1390 B(  1-C ,  5-C ) :  -0.5544
B(  1-C ,  6-C ) :   0.1490 B(  1-C , 10-H ) :   0.1609 B(  1-C , 11-H ) :   0.1795
B(  1-C , 12-H ) :  -0.1187 B(  1-C , 13-H ) :   0.2161 B(  2-C ,  3-C ) :   0.1020
B(  2-C ,  4-C ) :   1.9450 B(  2-C ,  5-C ) :  -0.3990 B(  2-C ,  6-C ) :   0.2202
B(  2-C , 10-H ) :   0.1974 B(  2-C , 11-H ) :  -0.1143 B(  2-C , 12-H ) :   0.2113
B(  2-C , 14-H ) :   0.3591 B(  3-C ,  4-C ) :  -0.7946 B(  3-C ,  5-C ) :   1.0933
B(  3-C ,  6-C ) :  -0.5693 B(  3-C , 11-H ) :   0.4796 B(  4-C ,  5-C ) :   1.8062
B(  4-C ,  6-C ) :  -0.4397 B(  4-C , 12-H ) :   0.4190 B(  4-C , 14-H ) :   0.1208
B(  5-C ,  6-C ) :   0.5003 B(  5-C ,  9-O ) :   0.1287 B(  5-C , 13-H ) :   0.3728
B(  5-C , 14-H ) :   0.2083 B(  6-C ,  8-O ) :   1.4946 B(  6-C ,  9-O ) :   0.4888
B(  7-C ,  9-O ) :   0.6101 B(  7-C , 15-H ) :   0.9969 B(  7-C , 16-H ) :   0.9969
B(  7-C , 17-H ) :   0.9903

MP2 TOTAL ENERGY:     -458.873336297 Eh
FINAL SINGLE POINT ENERGY      -458.873336296841

DIPOLE MOMENT
-------------
                                X             Y             Z
Electronic contribution:      0.79853       1.69800       0.00000
Nuclear contribution   :     -1.65365      -1.76019       0.00000
                        -----------------------------------------
Total Dipole Moment    :     -0.85512      -0.06218       0.00000
                        -----------------------------------------
Magnitude (a.u.)       :      0.85737
Magnitude (Debye)      :      2.17927

Rotational constants in cm-1:     0.118104     0.028069     0.022776
Rotational constants in MHz :  3540.673166   841.476820   682.802563

                             ****ORCA TERMINATED NORMALLY****
TOTAL RUN TIME: 0 days 0 hours 1 minutes 40 seconds 571 msec
