                         Program Version 5.0.3 -  RELEASE  -
|  1> !ri-mp2 aug-cc-pvdz aug-cc-pvdz/c tightscf
|  2> %pal nprocs 16 end
|  3>
|  4> * xyz 0 1
|  5> C      1.130346   -0.225128    0.025065
|  6> O     -0.015267    0.606026   -0.027255
|  7> O     -1.167167   -0.278825   -0.095051
|  8> H      1.971335    0.468788    0.022108
|  9> H      1.147766   -0.826787    0.937012
| 10> H      1.184789   -0.873635   -0.851239
| 11> H     -1.626495   -0.035207    0.720173
| 12> *
| 13>
| 14>                          ****END OF INPUT****

CARTESIAN COORDINATES (ANGSTROEM)
---------------------------------
  C      1.130346   -0.225128    0.025065
  O     -0.015267    0.606026   -0.027255
  O     -1.167167   -0.278825   -0.095051
  H      1.971335    0.468788    0.022108
  H      1.147766   -0.826787    0.937012
  H      1.184789   -0.873635   -0.851239
  H     -1.626495   -0.035207    0.720173

 Total Charge           Charge          ....    0
 Multiplicity           Mult            ....    1
 Number of Electrons    NEL             ....   26
 Basis Dimension        Dim             ....  105

ORBITAL ENERGIES
----------------

  NO   OCC          E(Eh)            E(eV)
   0   2.0000     -20.635084      -561.5092
   1   2.0000     -20.632783      -561.4466
   2   2.0000     -11.288426      -307.1737
   3   2.0000      -1.476464       -40.1766
   4   2.0000      -1.232456       -33.5368
   5   2.0000      -0.920933       -25.0599
   6   2.0000      -0.723445       -19.6859
   7   2.0000      -0.662374       -18.0241
   8   2.0000      -0.648634       -17.6502
   9   2.0000      -0.594622       -16.1805
  10   2.0000      -0.529899       -14.4193
  11   2.0000      -0.497178       -13.5289
  12   2.0000      -0.451595       -12.2885
  13   0.0000       0.035263         0.9596
  14   0.0000       0.049323         1.3421
  15   0.0000       0.060900         1.6572
  16   0.0000       0.061942         1.6855
  17   0.0000       0.105068         2.8590

MULLIKEN ATOMIC CHARGES
-----------------------
   0 C :    0.909545
   1 O :   -0.535183
   2 O :   -0.272615
   3 H :   -0.154226
   4 H :   -0.086418
   5 H :   -0.078830
   6 H :    0.217726
Sum of atomic charges:    0.0000000

LOEWDIN ATOMIC CHARGES
----------------------
   0 C :    0.106188
   1 O :   -0.040855
   2 O :    0.103649
   3 H :   -0.029658
   4 H :   -0.030576
   5 H :   -0.029211
   6 H :   -0.079537

  Mayer bond orders larger than 0.100000
B(  0-C ,  1-O ) :   0.6215 B(  0-C ,  2-O ) :  -0.1021 B(  0-C ,  3-H ) :   0.9894
B(  0-C ,  4-H ) :   0.9699 B(  0-C ,  5-H ) :   0.9827 B(  1-O ,  2-O ) :   0.8136
B(  2-O ,  6-H ) :   0.9715

MP2 TOTAL ENERGY:     -190.391384025 Eh
FINAL SINGLE POINT ENERGY      -190.391384025160

DIPOLE MOMENT
-------------
                                X             Y             Z
Electronic contribution:     -2.38889       1.05274      -0.25867
Nuclear contribution   :      2.70242      -1.28240       0.83969
                        -----------------------------------------
Total Dipole Moment    :      0.31352      -0.22966       0.58102
                        -----------------------------------------
Magnitude (a.u.)       :      0.69902
Magnitude (Debye)      :      1.77676

Rotational constants in cm-1:     1.451735     0.346542     0.302506
Rotational constants in MHz : 43521.914826 10389.059525  9068.894070

                             ****ORCA TERMINATED NORMALLY****
TOTAL RUN TIME: 0 days 0 hours 0 minutes 38 seconds 275 msec
