                         Program Version 5.0.3 -  RELEASE  -
|  1> !ri-mp2 aug-cc-pvdz aug-cc-pvdz/c tightscf
|  2> %pal nprocs 16 end
|  3>
|  4> * xyz 0 1
|  5> C      0.151273    1.784647    0.002216
|  6> C     -1.096568    1.176867   -0.008450
|  7> C      1.312680    1.021029    0.007796
|  8> C     -0.038671   -0.979205   -0.009708
|  9> C     -1.203017   -0.216446   -0.011775
| 10> C      1.211066   -0.366488    0.000942
| 11> C     -2.552960   -0.884863    0.009391
| 12> O      2.309364   -1.184166    0.000798
| 13> H      0.225667    2.863983    0.002825
| 14> H     -1.992065    1.784194   -0.016938
| 15> H      2.285648    1.497705    0.012651
| 16> H     -0.084931   -2.060188   -0.018605
| 17> H     -2.509721   -1.885386   -0.419767
| 18> H     -2.922457   -0.982907    1.033294
| 19> H     -3.290088   -0.306426   -0.547493
| 20> H      3.110211   -0.650896    0.005175
| 21> *
| 22>
| 23>                          ****END OF INPUT****

CARTESIAN COORDINATES (ANGSTROEM)
---------------------------------
  C      0.151273    1.784647    0.002216
  C     -1.096568    1.176867   -0.008450
  C      1.312680    1.021029    0.007796
  C     -0.038671   -0.979205   -0.009708
  C     -1.203017   -0.216446   -0.011775
  C      1.211066   -0.366488    0.000942
  C     -2.552960   -0.884863    0.009391
  O      2.309364   -1.184166    0.000798
  H      0.225667    2.863983    0.002825
  H     -1.992065    1.784194   -0.016938
  H      2.285648    1.497705    0.012651
  H     -0.084931   -2.060188   -0.018605
  H     -2.509721   -1.885386   -0.419767
  H     -2.922457   -0.982907    1.033294
  H     -3.290088   -0.306426   -0.547493
  H      3.110211   -0.650896    0.005175

 Total Charge           Charge          ....    0
 Multiplicity           Mult            ....    1
 Number of Electrons    NEL             ....   58
 Basis Dimension        Dim             ....  256

ORBITAL ENERGIES
----------------

  NO   OCC          E(Eh)            E(eV)
   0   2.0000     -20.599320      -560.5360
   1   2.0000     -11.307347      -307.6885
   2   2.0000     -11.251271      -306.1626
   3   2.0000     -11.245680      -306.0105
   4   2.0000     -11.233857      -305.6888
   5   2.0000     -11.230748      -305.6042
   6   2.0000     -11.227065      -305.5040
   7   2.0000     -11.226052      -305.4764
   8   2.0000      -1.407732       -38.3063
   9   2.0000      -1.154751       -31.4224
  10   2.0000      -1.048588       -28.5335
  11   2.0000      -1.009915       -27.4812
  12   2.0000      -0.939784       -25.5728
  13   2.0000      -0.827769       -22.5248
  14   2.0000      -0.825016       -22.4498
  15   2.0000      -0.714606       -19.4454
  16   2.0000      -0.684104       -18.6154
  17   2.0000      -0.656570       -17.8662
  18   2.0000      -0.611370       -16.6362
  19   2.0000      -0.591899       -16.1064
  20   2.0000      -0.573597       -15.6084
  21   2.0000      -0.572541       -15.5796
  22   2.0000      -0.570132       -15.5141
  23   2.0000      -0.534610       -14.5475
  24   2.0000      -0.508120       -13.8266
  25   2.0000      -0.487392       -13.2626
  26   2.0000      -0.471890       -12.8408
  27   2.0000      -0.333478        -9.0744
  28   2.0000      -0.312426        -8.5015
  29   0.0000       0.032692         0.8896
  30   0.0000       0.039638         1.0786
  31   0.0000       0.043327         1.1790
  32   0.0000       0.056263         1.5310
  33   0.0000       0.057862         1.5745

MULLIKEN ATOMIC CHARGES
-----------------------
   0 C :    0.110896
   1 C :    0.705187
   2 C :    0.345396
   3 C :    0.746732
   4 C :    0.155446
   5 C :    0.567136
   6 C :    0.308792
   7 O :   -0.912535
   8 H :   -0.455771
   9 H :   -0.580169
  10 H :   -0.562289
  11 H :   -0.547703
  12 H :   -0.095529
  13 H :    0.098024
  14 H :   -0.050249
  15 H :    0.166636
Sum of atomic charges:   -0.0000000

LOEWDIN ATOMIC CHARGES
----------------------
   0 C :    0.006944
   1 C :    0.027685
   2 C :    0.034436
   3 C :    0.079080
   4 C :   -0.215994
   5 C :   -0.226751
   6 C :    0.176829
   7 O :    0.181857
   8 H :    0.002604
   9 H :   -0.000586
  10 H :   -0.002870
  11 H :    0.010681
  12 H :   -0.014204
  13 H :   -0.004870
  14 H :   -0.013097
  15 H :   -0.041744

  Mayer bond orders larger than 0.100000
B(  0-C ,  1-C ) :   1.7739 B(  0-C ,  2-C ) :   2.0031 B(  0-C ,  3-C ) :   0.1355
B(  0-C ,  4-C ) :  -0.4091 B(  0-C ,  5-C ) :  -0.3235 B(  0-C ,  6-C ) :   0.4068
B(  0-C ,  8-H ) :   0.2807 B(  0-C ,  9-H ) :   0.2361 B(  0-C , 10-H ) :   0.1673
B(  1-C ,  2-C ) :   0.1256 B(  1-C ,  3-C ) :  -0.4592 B(  1-C ,  4-C ) :   1.7812
B(  1-C ,  6-C ) :  -0.6420 B(  1-C ,  8-H ) :   0.2711 B(  2-C ,  4-C ) :   0.1981
B(  2-C ,  5-C ) :   1.6120 B(  2-C ,  7-O ) :   0.1657 B(  2-C ,  8-H ) :   0.2340
B(  3-C ,  4-C ) :   1.9599 B(  3-C ,  5-C ) :   1.5003 B(  3-C ,  6-C ) :  -0.6236
B(  3-C , 12-H ) :  -0.1383 B(  4-C ,  5-C ) :  -0.3128 B(  4-C ,  6-C ) :   1.7441
B(  4-C ,  9-H ) :   0.3474 B(  4-C , 11-H ) :   0.2723 B(  4-C , 12-H ) :   0.3153
B(  4-C , 13-H ) :   0.2424 B(  4-C , 14-H ) :   0.2516 B(  5-C ,  6-C ) :   0.4934
B(  5-C ,  8-H ) :  -0.1052 B(  5-C , 10-H ) :   0.4231 B(  5-C , 11-H ) :   0.3814
B(  6-C , 12-H ) :   0.7467 B(  6-C , 13-H ) :   0.8758 B(  6-C , 14-H ) :   0.8004
B(  7-O , 15-H ) :   1.0582

MP2 TOTAL ENERGY:     -345.800808746 Eh
FINAL SINGLE POINT ENERGY      -345.800808745910

DIPOLE MOMENT
-------------
                                X             Y             Z
Electronic contribution:      5.24673       0.17572      -0.03645
Nuclear contribution   :     -5.17881       0.24317       0.05153
                        -----------------------------------------
Total Dipole Moment    :      0.06793       0.41889       0.01507
                        -----------------------------------------
Magnitude (a.u.)       :      0.42463
Magnitude (Debye)      :      1.07933

Rotational constants in cm-1:     0.122834     0.060063     0.040642
Rotational constants in MHz :  3682.464132  1800.646458  1218.426440

                             ****ORCA TERMINATED NORMALLY****
TOTAL RUN TIME: 0 days 0 hours 1 minutes 27 seconds 407 msec
