                         Program Version 5.0.3 -  RELEASE  -
|  1> !ri-mp2 aug-cc-pvdz aug-cc-pvdz/c tightscf
|  2> %pal nprocs 16 end
|  3>
|  4> * xyz 0 1
|  5> N     1.861945    0.000000   -0.456084
|  6> N    -1.883795   -2.246172    0.097385
|  7> N    -1.883789    2.246175    0.097385
|  8> C    -0.633316    0.000000   -0.061156
|  9> C     0.702935    0.000000   -0.213424
| 10> C    -1.327965   -1.238667    0.025608
| 11> C    -1.327962    1.238668    0.025608
| 12> C     3.099732   -0.000002    0.296584
| 13> H     3.669604    0.881017    0.009638
| 14> H     3.669563   -0.881067    0.009698
| 15> H     2.919761    0.000038    1.370540
| 16> *
| 17>
| 18>                          ****END OF INPUT****

CARTESIAN COORDINATES (ANGSTROEM)
---------------------------------
  N      1.861945    0.000000   -0.456084
  N     -1.883795   -2.246172    0.097385
  N     -1.883789    2.246175    0.097385
  C     -0.633316    0.000000   -0.061156
  C      0.702935    0.000000   -0.213424
  C     -1.327965   -1.238667    0.025608
  C     -1.327962    1.238668    0.025608
  C      3.099732   -0.000002    0.296584
  H      3.669604    0.881017    0.009638
  H      3.669563   -0.881067    0.009698
  H      2.919761    0.000038    1.370540

 Total Charge           Charge          ....    0
 Multiplicity           Mult            ....    1
 Number of Electrons    NEL             ....   54
 Basis Dimension        Dim             ....  211

ORBITAL ENERGIES
----------------

  NO   OCC          E(Eh)            E(eV)
   0   2.0000     -15.676710      -426.5850
   1   2.0000     -15.598372      -424.4533
   2   2.0000     -15.598372      -424.4533
   3   2.0000     -11.408535      -310.4420
   4   2.0000     -11.338795      -308.5443
   5   2.0000     -11.338592      -308.5388
   6   2.0000     -11.308430      -307.7180
   7   2.0000     -11.308408      -307.7174
   8   2.0000      -1.349811       -36.7302
   9   2.0000      -1.251873       -34.0652
  10   2.0000      -1.236929       -33.6585
  11   2.0000      -1.136996       -30.9392
  12   2.0000      -1.045012       -28.4362
  13   2.0000      -0.846456       -23.0332
  14   2.0000      -0.819205       -22.2917
  15   2.0000      -0.752560       -20.4782
  16   2.0000      -0.689497       -18.7622
  17   2.0000      -0.673120       -18.3165
  18   2.0000      -0.597354       -16.2548
  19   2.0000      -0.578065       -15.7299
  20   2.0000      -0.575859       -15.6699
  21   2.0000      -0.532985       -14.5033
  22   2.0000      -0.529134       -14.3985
  23   2.0000      -0.497086       -13.5264
  24   2.0000      -0.496379       -13.5072
  25   2.0000      -0.480041       -13.0626
  26   2.0000      -0.373085       -10.1522
  27   0.0000       0.014515         0.3950
  28   0.0000       0.040673         1.1068
  29   0.0000       0.040888         1.1126
  30   0.0000       0.056315         1.5324
  31   0.0000       0.075390         2.0515

MULLIKEN ATOMIC CHARGES
-----------------------
   0 N :   -0.489709
   1 N :   -0.313068
   2 N :   -0.313070
   3 C :    2.354788
   4 C :   -0.351813
   5 C :   -0.717264
   6 C :   -0.717262
   7 C :    0.791637
   8 H :   -0.086145
   9 H :   -0.086139
  10 H :   -0.071955
Sum of atomic charges:   -0.0000000

LOEWDIN ATOMIC CHARGES
----------------------
   0 N :    0.087430
   1 N :    0.096197
   2 N :    0.096197
   3 C :   -0.244267
   4 C :    0.071935
   5 C :   -0.145983
   6 C :   -0.145984
   7 C :    0.200523
   8 H :   -0.005246
   9 H :   -0.005245
  10 H :   -0.005557

  Mayer bond orders larger than 0.100000
B(  0-N ,  3-C ) :  -0.1840 B(  0-N ,  4-C ) :   2.6294 B(  0-N ,  7-C ) :   0.7263
B(  1-N ,  3-C ) :  -0.2167 B(  1-N ,  5-C ) :   2.6429 B(  2-N ,  3-C ) :  -0.2167
B(  2-N ,  6-C ) :   2.6429 B(  3-C ,  4-C ) :   0.6728 B(  4-C ,  5-C ) :  -0.1074
B(  4-C ,  6-C ) :  -0.1074 B(  4-C ,  7-C ) :  -0.1596 B(  7-C ,  8-H ) :   0.9778
B(  7-C ,  9-H ) :   0.9778 B(  7-C , 10-H ) :   0.9532

MP2 TOTAL ENERGY:     -355.537904284 Eh
FINAL SINGLE POINT ENERGY      -355.537904283851

DIPOLE MOMENT
-------------
                                X             Y             Z
Electronic contribution:     -6.86623       0.00001      -1.11387
Nuclear contribution   :      9.88853      -0.00001       1.33968
                        -----------------------------------------
Total Dipole Moment    :      3.02230      -0.00001       0.22581
                        -----------------------------------------
Magnitude (a.u.)       :      3.03072
Magnitude (Debye)      :      7.70349

Rotational constants in cm-1:     0.090424     0.047093     0.031744
Rotational constants in MHz :  2710.838680  1411.810199   951.646913

                             ****ORCA TERMINATED NORMALLY****
TOTAL RUN TIME: 0 days 0 hours 0 minutes 57 seconds 571 msec
