                         Program Version 5.0.3 -  RELEASE  -
|  1> !ri-mp2 aug-cc-pvdz aug-cc-pvdz/c tightscf
|  2> %pal nprocs 16 end
|  3> %maxcore 3800
|  4>
|  5> * xyz 0 1
|  6> C      1.195072    0.696188   -0.000003
|  7> C     -1.200452    0.686869   -0.000003
|  8> C      0.005380   -1.383057   -0.000003
|  9> C      0.000000    1.404022   -0.000002
| 10> C      1.215919   -0.702011   -0.000002
| 11> C     -1.215919   -0.702011   -0.000002
| 12> C     -0.014264    2.911190    0.000003
| 13> C      2.528296   -1.443242    0.000003
| 14> C     -2.514032   -1.467948    0.000003
| 15> H      2.133281    1.239569   -0.000006
| 16> H     -2.140139    1.227691   -0.000006
| 17> H      0.006857   -2.467260   -0.000006
| 18> H     -0.532837    3.302058   -0.878113
| 19> H     -0.532703    3.302052    0.878201
| 20> H      0.996060    3.318393   -0.000072
| 21> H      2.375782   -2.521810   -0.000072
| 22> H      3.126084   -1.189578   -0.878113
| 23> H      3.126012   -1.189692    0.878201
| 24> H     -2.593309   -2.112360    0.878201
| 25> H     -3.371843   -0.796583   -0.000072
| 26> H     -2.593247   -2.112479   -0.878113
| 27> *
| 28>
| 29>                          ****END OF INPUT****

CARTESIAN COORDINATES (ANGSTROEM)
---------------------------------
  C      1.195072    0.696188   -0.000003
  C     -1.200452    0.686869   -0.000003
  C      0.005380   -1.383057   -0.000003
  C      0.000000    1.404022   -0.000002
  C      1.215919   -0.702011   -0.000002
  C     -1.215919   -0.702011   -0.000002
  C     -0.014264    2.911190    0.000003
  C      2.528296   -1.443242    0.000003
  C     -2.514032   -1.467948    0.000003
  H      2.133281    1.239569   -0.000006
  H     -2.140139    1.227691   -0.000006
  H      0.006857   -2.467260   -0.000006
  H     -0.532837    3.302058   -0.878113
  H     -0.532703    3.302052    0.878201
  H      0.996060    3.318393   -0.000072
  H      2.375782   -2.521810   -0.000072
  H      3.126084   -1.189578   -0.878113
  H      3.126012   -1.189692    0.878201
  H     -2.593309   -2.112360    0.878201
  H     -3.371843   -0.796583   -0.000072
  H     -2.593247   -2.112479   -0.878113

 Total Charge           Charge          ....    0
 Multiplicity           Mult            ....    1
 Number of Electrons    NEL             ....   66
 Basis Dimension        Dim             ....  315

ORBITAL ENERGIES
----------------

  NO   OCC          E(Eh)            E(eV)
   0   2.0000     -11.240728      -305.8757
   1   2.0000     -11.240693      -305.8748
   2   2.0000     -11.240692      -305.8748
   3   2.0000     -11.226444      -305.4871
   4   2.0000     -11.226443      -305.4871
   5   2.0000     -11.226443      -305.4870
   6   2.0000     -11.220409      -305.3229
   7   2.0000     -11.220408      -305.3228
   8   2.0000     -11.220340      -305.3210
   9   2.0000      -1.157419       -31.4950
  10   2.0000      -1.054381       -28.6912
  11   2.0000      -1.054381       -28.6912
  12   2.0000      -0.949659       -25.8415
  13   2.0000      -0.924592       -25.1594
  14   2.0000      -0.924592       -25.1594
  15   2.0000      -0.781801       -21.2739
  16   2.0000      -0.781801       -21.2739
  17   2.0000      -0.673118       -18.3165
  18   2.0000      -0.651386       -17.7251
  19   2.0000      -0.593937       -16.1618
  20   2.0000      -0.581578       -15.8255
  21   2.0000      -0.564513       -15.3612
  22   2.0000      -0.564513       -15.3612
  23   2.0000      -0.557357       -15.1664
  24   2.0000      -0.557357       -15.1664
  25   2.0000      -0.547111       -14.8876
  26   2.0000      -0.547110       -14.8876
  27   2.0000      -0.512023       -13.9329
  28   2.0000      -0.472962       -12.8700
  29   2.0000      -0.472962       -12.8700
  30   2.0000      -0.462639       -12.5890
  31   2.0000      -0.315157        -8.5759
  32   2.0000      -0.315157        -8.5759
  33   0.0000       0.035637         0.9697
  34   0.0000       0.040099         1.0911
  35   0.0000       0.040099         1.0911
  36   0.0000       0.054750         1.4898
  37   0.0000       0.054876         1.4933

MULLIKEN ATOMIC CHARGES
-----------------------
   0 C :    0.548679
   1 C :    0.548672
   2 C :    0.548659
   3 C :   -0.342817
   4 C :   -0.342825
   5 C :   -0.342814
   6 C :    0.418612
   7 C :    0.418610
   8 C :    0.418616
   9 H :   -0.667258
  10 H :   -0.667258
  11 H :   -0.667260
  12 H :    0.126184
  13 H :    0.126214
  14 H :   -0.209605
  15 H :   -0.209604
  16 H :    0.126184
  17 H :    0.126214
  18 H :    0.126213
  19 H :   -0.209602
  20 H :    0.126183
Sum of atomic charges:    0.0000000

LOEWDIN ATOMIC CHARGES
----------------------
   0 C :    0.065255
   1 C :    0.065256
   2 C :    0.065257
   3 C :   -0.212352
   4 C :   -0.212351
   5 C :   -0.212351
   6 C :    0.175040
   7 C :    0.175039
   8 C :    0.175039
   9 H :    0.007086
  10 H :    0.007086
  11 H :    0.007086
  12 H :   -0.008810
  13 H :   -0.008809
  14 H :   -0.017412
  15 H :   -0.017412
  16 H :   -0.008810
  17 H :   -0.008809
  18 H :   -0.008809
  19 H :   -0.017412
  20 H :   -0.008810

  Mayer bond orders larger than 0.100000
B(  0-C ,  1-C ) :  -0.3160 B(  0-C ,  2-C ) :  -0.3160 B(  0-C ,  3-C ) :   1.9457
B(  0-C ,  4-C ) :   0.6744 B(  0-C ,  5-C ) :   0.5076 B(  0-C ,  6-C ) :  -0.2838
B(  0-C ,  7-C ) :  -0.6205 B(  0-C ,  9-H ) :  -0.2879 B(  0-C , 14-H ) :  -0.1775
B(  1-C ,  2-C ) :  -0.3160 B(  1-C ,  3-C ) :   0.6744 B(  1-C ,  4-C ) :   0.5076
B(  1-C ,  5-C ) :   1.9457 B(  1-C ,  6-C ) :  -0.6205 B(  1-C ,  8-C ) :  -0.2838
B(  1-C , 10-H ) :  -0.2879 B(  1-C , 19-H ) :  -0.1775 B(  2-C ,  3-C ) :   0.5076
B(  2-C ,  4-C ) :   1.9457 B(  2-C ,  5-C ) :   0.6744 B(  2-C ,  7-C ) :  -0.2838
B(  2-C ,  8-C ) :  -0.6205 B(  2-C , 11-H ) :  -0.2879 B(  2-C , 15-H ) :  -0.1775
B(  3-C ,  6-C ) :   1.3941 B(  3-C ,  8-C ) :   0.2450 B(  3-C ,  9-H ) :   0.4188
B(  3-C , 10-H ) :   0.1932 B(  3-C , 12-H ) :   0.1833 B(  3-C , 13-H ) :   0.1832
B(  3-C , 14-H ) :   0.5777 B(  4-C ,  6-C ) :   0.2450 B(  4-C ,  7-C ) :   1.3941
B(  4-C ,  9-H ) :   0.1932 B(  4-C , 11-H ) :   0.4189 B(  4-C , 15-H ) :   0.5777
B(  4-C , 16-H ) :   0.1833 B(  4-C , 17-H ) :   0.1832 B(  5-C ,  7-C ) :   0.2450
B(  5-C ,  8-C ) :   1.3941 B(  5-C , 10-H ) :   0.4188 B(  5-C , 11-H ) :   0.1932
B(  5-C , 18-H ) :   0.1832 B(  5-C , 19-H ) :   0.5777 B(  5-C , 20-H ) :   0.1833
B(  6-C ,  7-C ) :   0.1045 B(  6-C ,  8-C ) :   0.1045 B(  6-C , 10-H ) :   0.1782
B(  6-C , 12-H ) :   0.8766 B(  6-C , 13-H ) :   0.8766 B(  6-C , 14-H ) :   0.4565
B(  7-C ,  8-C ) :   0.1045 B(  7-C ,  9-H ) :   0.1782 B(  7-C , 15-H ) :   0.4565
B(  7-C , 16-H ) :   0.8766 B(  7-C , 17-H ) :   0.8766 B(  8-C , 11-H ) :   0.1782
B(  8-C , 18-H ) :   0.8766 B(  8-C , 19-H ) :   0.4565 B(  8-C , 20-H ) :   0.8766

MP2 TOTAL ENERGY:     -349.114824385 Eh
FINAL SINGLE POINT ENERGY      -349.114824384563

DIPOLE MOMENT
-------------
                                X             Y             Z
Electronic contribution:      0.00000      -0.00000      -0.00002
Nuclear contribution   :     -0.00000       0.00000       0.00003
                        -----------------------------------------
Total Dipole Moment    :     -0.00000      -0.00000       0.00001
                        -----------------------------------------
Magnitude (a.u.)       :      0.00001
Magnitude (Debye)      :      0.00002

Rotational constants in cm-1:     0.058428     0.058428     0.029694
Rotational constants in MHz :  1751.618159  1751.617658   890.199095

                             ****ORCA TERMINATED NORMALLY****
TOTAL RUN TIME: 0 days 0 hours 1 minutes 34 seconds 800 msec
