                         Program Version 5.0.3 -  RELEASE  -
|  1> !ri-mp2 aug-cc-pvdz aug-cc-pvdz/c tightscf
|  2> %pal nprocs 16 end
|  3>
|  4> * xyz 0 1
|  5> C     -1.779558   -0.307747   -0.176939
|  6> C     -0.520387    0.167305    0.499192
|  7> C      0.364858    1.153255   -0.152316
|  8> S      1.096395   -0.525749   -0.053924
|  9> H     -1.640106   -0.377917   -1.255255
| 10> H     -2.077985   -1.288840    0.191938
| 11> H     -2.597663    0.389956    0.023094
| 12> H     -0.579906    0.234408    1.579077
| 13> H      0.109461    1.476866   -1.153106
| 14> H      0.854404    1.900623    0.457404
| 15> *
| 16>
| 17>                          ****END OF INPUT****

CARTESIAN COORDINATES (ANGSTROEM)
---------------------------------
  C     -1.779558   -0.307747   -0.176939
  C     -0.520387    0.167305    0.499192
  C      0.364858    1.153255   -0.152316
  S      1.096395   -0.525749   -0.053924
  H     -1.640106   -0.377917   -1.255255
  H     -2.077985   -1.288840    0.191938
  H     -2.597663    0.389956    0.023094
  H     -0.579906    0.234408    1.579077
  H      0.109461    1.476866   -1.153106
  H      0.854404    1.900623    0.457404

 Total Charge           Charge          ....    0
 Multiplicity           Mult            ....    1
 Number of Electrons    NEL             ....   40
 Basis Dimension        Dim             ....  150

ORBITAL ENERGIES
----------------

  NO   OCC          E(Eh)            E(eV)
   0   2.0000     -91.940791     -2501.8361
   1   2.0000     -11.287510      -307.1488
   2   2.0000     -11.278536      -306.9046
   3   2.0000     -11.238718      -305.8211
   4   2.0000      -8.942375      -243.3344
   5   2.0000      -6.624211      -180.2539
   6   2.0000      -6.622317      -180.2024
   7   2.0000      -6.620234      -180.1457
   8   2.0000      -1.150376       -31.3033
   9   2.0000      -0.981169       -26.6990
  10   2.0000      -0.836877       -22.7726
  11   2.0000      -0.794505       -21.6196
  12   2.0000      -0.664840       -18.0912
  13   2.0000      -0.606691       -16.5089
  14   2.0000      -0.579205       -15.7610
  15   2.0000      -0.547317       -14.8932
  16   2.0000      -0.521491       -14.1905
  17   2.0000      -0.429945       -11.6994
  18   2.0000      -0.407893       -11.0993
  19   2.0000      -0.341832        -9.3017
  20   0.0000       0.034584         0.9411
  21   0.0000       0.045197         1.2299
  22   0.0000       0.047177         1.2838
  23   0.0000       0.057262         1.5582
  24   0.0000       0.067664         1.8412

MULLIKEN ATOMIC CHARGES
-----------------------
   0 C :    0.242081
   1 C :   -0.077296
   2 C :    0.650855
   3 S :    0.117345
   4 H :   -0.063699
   5 H :   -0.009816
   6 H :    0.007851
   7 H :   -0.321939
   8 H :   -0.280338
   9 H :   -0.265044
Sum of atomic charges:    0.0000000

LOEWDIN ATOMIC CHARGES
----------------------
   0 C :    0.108701
   1 C :   -0.479658
   2 C :   -0.219219
   3 S :    0.725404
   4 H :   -0.017828
   5 H :   -0.016291
   6 H :   -0.013043
   7 H :   -0.011593
   8 H :   -0.037360
   9 H :   -0.039113

  Mayer bond orders larger than 0.100000
B(  0-C ,  1-C ) :   1.4329 B(  0-C ,  4-H ) :   0.9345 B(  0-C ,  5-H ) :   0.8892
B(  0-C ,  6-H ) :   0.8794 B(  1-C ,  2-C ) :   0.9010 B(  1-C ,  3-S ) :   0.9798
B(  1-C ,  7-H ) :   0.8182 B(  2-C ,  3-S ) :   0.9609 B(  2-C ,  8-H ) :   0.9531
B(  2-C ,  9-H ) :   0.8998 B(  8-H ,  9-H ) :  -0.1142

MP2 TOTAL ENERGY:     -515.203110866 Eh
FINAL SINGLE POINT ENERGY      -515.203110865740

DIPOLE MOMENT
-------------
                                X             Y             Z
Electronic contribution:      5.28443      -1.76428       0.28131
Nuclear contribution   :     -6.04463       2.38246      -0.15724
                        -----------------------------------------
Total Dipole Moment    :     -0.76020       0.61819       0.12407
                        -----------------------------------------
Magnitude (a.u.)       :      0.98765
Magnitude (Debye)      :      2.51041

Rotational constants in cm-1:     0.389340     0.159695     0.129653
Rotational constants in MHz : 11672.108221  4787.544231  3886.903740

                             ****ORCA TERMINATED NORMALLY****
TOTAL RUN TIME: 0 days 0 hours 0 minutes 50 seconds 114 msec
