                         Program Version 5.0.3 -  RELEASE  -
|  1> !ri-mp2 aug-cc-pvdz aug-cc-pvdz/c tightscf
|  2> %pal nprocs 16 end
|  3>
|  4> * xyz 0 1
|  5> O     -0.918919    0.545512   -0.000017
|  6> O      2.432931    0.084775    0.000018
|  7> N      0.106029   -0.423845   -0.000029
|  8> C     -2.173941   -0.133816    0.000020
|  9> C      1.278201   -0.072865   -0.000002
| 10> H     -2.914348    0.662738    0.000020
| 11> H     -2.282738   -0.749000    0.894011
| 12> H     -2.282772   -0.749032   -0.893944
| 13> *
| 14>
| 15>                          ****END OF INPUT****

CARTESIAN COORDINATES (ANGSTROEM)
---------------------------------
  O     -0.918919    0.545512   -0.000017
  O      2.432931    0.084775    0.000018
  N      0.106029   -0.423845   -0.000029
  C     -2.173941   -0.133816    0.000020
  C      1.278201   -0.072865   -0.000002
  H     -2.914348    0.662738    0.000020
  H     -2.282738   -0.749000    0.894011
  H     -2.282772   -0.749032   -0.893944

 Total Charge           Charge          ....    0
 Multiplicity           Mult            ....    1
 Number of Electrons    NEL             ....   38
 Basis Dimension        Dim             ....  142

ORBITAL ENERGIES
----------------

  NO   OCC          E(Eh)            E(eV)
   0   2.0000     -20.648471      -561.8735
   1   2.0000     -20.647500      -561.8470
   2   2.0000     -15.645545      -425.7369
   3   2.0000     -11.429111      -311.0019
   4   2.0000     -11.302579      -307.5588
   5   2.0000      -1.493016       -40.6270
   6   2.0000      -1.454463       -39.5780
   7   2.0000      -1.216125       -33.0924
   8   2.0000      -0.947631       -25.7863
   9   2.0000      -0.778042       -21.1716
  10   2.0000      -0.735169       -20.0050
  11   2.0000      -0.696498       -18.9527
  12   2.0000      -0.684400       -18.6235
  13   2.0000      -0.646790       -17.6001
  14   2.0000      -0.612486       -16.6666
  15   2.0000      -0.569213       -15.4891
  16   2.0000      -0.530436       -14.4339
  17   2.0000      -0.473646       -12.8886
  18   2.0000      -0.406102       -11.0506
  19   0.0000       0.033947         0.9237
  20   0.0000       0.053502         1.4559
  21   0.0000       0.056067         1.5256
  22   0.0000       0.066197         1.8013
  23   0.0000       0.090181         2.4539

MULLIKEN ATOMIC CHARGES
-----------------------
   0 O :   -0.822507
   1 O :   -0.380390
   2 N :    0.094041
   3 C :    0.849203
   4 C :    0.549147
   5 H :   -0.183416
   6 H :   -0.053040
   7 H :   -0.053038
Sum of atomic charges:    0.0000000

LOEWDIN ATOMIC CHARGES
----------------------
   0 O :   -0.018654
   1 O :    0.114336
   2 N :    0.003994
   3 C :    0.141456
   4 C :   -0.163863
   5 H :   -0.026231
   6 H :   -0.025519
   7 H :   -0.025519

  Mayer bond orders larger than 0.100000
B(  0-O ,  2-N ) :   0.7155 B(  0-O ,  3-C ) :   0.6283 B(  1-O ,  4-C ) :   1.9359
B(  2-N ,  4-C ) :   1.8666 B(  3-C ,  5-H ) :   1.0157 B(  3-C ,  6-H ) :   0.9858
B(  3-C ,  7-H ) :   0.9858

MP2 TOTAL ENERGY:     -282.431751550 Eh
FINAL SINGLE POINT ENERGY      -282.431751550460

DIPOLE MOMENT
-------------
                                X             Y             Z
Electronic contribution:      6.29169       0.72687      -0.00006
Nuclear contribution   :     -7.28348      -0.80876       0.00008
                        -----------------------------------------
Total Dipole Moment    :     -0.99179      -0.08189       0.00002
                        -----------------------------------------
Magnitude (a.u.)       :      0.99517
Magnitude (Debye)      :      2.52951

Rotational constants in cm-1:     1.555951     0.082355     0.079402
Rotational constants in MHz : 46646.224679  2468.946532  2380.425881

                             ****ORCA TERMINATED NORMALLY****
TOTAL RUN TIME: 0 days 0 hours 0 minutes 33 seconds 338 msec
