                         Program Version 5.0.3 -  RELEASE  -
|  1> !ri-mp2 aug-cc-pvdz aug-cc-pvdz/c tightscf
|  2> %pal nprocs 16 end
|  3>
|  4> * xyz 0 1
|  5> C     -1.527992   -0.778219   -0.025802
|  6> C     -1.527998    0.778215   -0.025762
|  7> C     -0.054746   -1.195602    0.153522
|  8> C     -0.054742    1.195610    0.153491
|  9> C      0.759977   -0.000005   -0.361654
| 10> C      2.225909   -0.000001    0.053568
| 11> H     -2.163452   -1.189245    0.758393
| 12> H     -1.917173   -1.155891   -0.972214
| 13> H     -1.917255    1.155933   -0.972124
| 14> H     -2.163406    1.189187    0.758504
| 15> H      0.170715   -1.346139    1.213831
| 16> H      0.187200   -2.127106   -0.360157
| 17> H      0.187182    2.127090   -0.360241
| 18> H      0.170755    1.346201    1.213784
| 19> H      0.706863   -0.000021   -1.457058
| 20> H      2.748064    0.880936   -0.324665
| 21> H      2.320004    0.000014    1.142416
| 22> H      2.748063   -0.880949   -0.324642
| 23> *
| 24>
| 25>                          ****END OF INPUT****

CARTESIAN COORDINATES (ANGSTROEM)
---------------------------------
  C     -1.527992   -0.778219   -0.025802
  C     -1.527998    0.778215   -0.025762
  C     -0.054746   -1.195602    0.153522
  C     -0.054742    1.195610    0.153491
  C      0.759977   -0.000005   -0.361654
  C      2.225909   -0.000001    0.053568
  H     -2.163452   -1.189245    0.758393
  H     -1.917173   -1.155891   -0.972214
  H     -1.917255    1.155933   -0.972124
  H     -2.163406    1.189187    0.758504
  H      0.170715   -1.346139    1.213831
  H      0.187200   -2.127106   -0.360157
  H      0.187182    2.127090   -0.360241
  H      0.170755    1.346201    1.213784
  H      0.706863   -0.000021   -1.457058
  H      2.748064    0.880936   -0.324665
  H      2.320004    0.000014    1.142416
  H      2.748063   -0.880949   -0.324642

 Total Charge           Charge          ....    0
 Multiplicity           Mult            ....    1
 Number of Electrons    NEL             ....   48
 Basis Dimension        Dim             ....  246

ORBITAL ENERGIES
----------------

  NO   OCC          E(Eh)            E(eV)
   0   2.0000     -11.222044      -305.3674
   1   2.0000     -11.216848      -305.2260
   2   2.0000     -11.216329      -305.2118
   3   2.0000     -11.214650      -305.1661
   4   2.0000     -11.214629      -305.1656
   5   2.0000     -11.214254      -305.1554
   6   2.0000      -1.121192       -30.5092
   7   2.0000      -1.002484       -27.2790
   8   2.0000      -0.957445       -26.0534
   9   2.0000      -0.888467       -24.1764
  10   2.0000      -0.771064       -20.9817
  11   2.0000      -0.758349       -20.6357
  12   2.0000      -0.650754       -17.7079
  13   2.0000      -0.621465       -16.9109
  14   2.0000      -0.586168       -15.9504
  15   2.0000      -0.573339       -15.6013
  16   2.0000      -0.550929       -14.9915
  17   2.0000      -0.517863       -14.0918
  18   2.0000      -0.472253       -12.8507
  19   2.0000      -0.465259       -12.6603
  20   2.0000      -0.460072       -12.5192
  21   2.0000      -0.448134       -12.1943
  22   2.0000      -0.446833       -12.1589
  23   2.0000      -0.438774       -11.9397
  24   0.0000       0.038106         1.0369
  25   0.0000       0.044872         1.2210
  26   0.0000       0.046940         1.2773
  27   0.0000       0.047558         1.2941
  28   0.0000       0.064081         1.7437

MULLIKEN ATOMIC CHARGES
-----------------------
   0 C :    0.354745
   1 C :    0.354744
   2 C :    0.628480
   3 C :    0.628462
   4 C :   -1.133652
   5 C :    0.812696
   6 H :   -0.132096
   7 H :   -0.161174
   8 H :   -0.161145
   9 H :   -0.132080
  10 H :   -0.164916
  11 H :   -0.178533
  12 H :   -0.178535
  13 H :   -0.164922
  14 H :   -0.230727
  15 H :   -0.049181
  16 H :   -0.042987
  17 H :   -0.049179
Sum of atomic charges:   -0.0000000

LOEWDIN ATOMIC CHARGES
----------------------
   0 C :    0.005750
   1 C :    0.005755
   2 C :    0.005086
   3 C :    0.005091
   4 C :   -0.253009
   5 C :    0.158925
   6 H :    0.002838
   7 H :    0.004464
   8 H :    0.004463
   9 H :    0.002837
  10 H :    0.016050
  11 H :    0.013612
  12 H :    0.013611
  13 H :    0.016047
  14 H :    0.042970
  15 H :   -0.015361
  16 H :   -0.013767
  17 H :   -0.015360

  Mayer bond orders larger than 0.100000
B(  0-C ,  1-C ) :   1.2889 B(  0-C ,  2-C ) :   1.2036 B(  0-C ,  6-H ) :   0.7815
B(  0-C ,  7-H ) :   0.7339 B(  1-C ,  3-C ) :   1.2036 B(  1-C ,  8-H ) :   0.7339
B(  1-C ,  9-H ) :   0.7815 B(  2-C ,  4-C ) :   1.1353 B(  2-C ,  5-C ) :  -0.1464
B(  2-C , 10-H ) :   0.7041 B(  2-C , 11-H ) :   0.7167 B(  3-C ,  4-C ) :   1.1353
B(  3-C ,  5-C ) :  -0.1464 B(  3-C , 12-H ) :   0.7167 B(  3-C , 13-H ) :   0.7041
B(  4-C ,  5-C ) :   1.2558 B(  4-C , 10-H ) :   0.1784 B(  4-C , 11-H ) :   0.1140
B(  4-C , 12-H ) :   0.1140 B(  4-C , 13-H ) :   0.1784 B(  4-C , 14-H ) :   0.6047
B(  4-C , 15-H ) :   0.1237 B(  4-C , 16-H ) :   0.1082 B(  4-C , 17-H ) :   0.1237
B(  5-C , 15-H ) :   0.8153 B(  5-C , 16-H ) :   0.9034 B(  5-C , 17-H ) :   0.8153
B(  6-H ,  7-H ) :  -0.1562 B(  8-H ,  9-H ) :  -0.1562 B( 10-H , 11-H ) :  -0.1529
B( 12-H , 13-H ) :  -0.1529

MP2 TOTAL ENERGY:     -235.113288211 Eh
FINAL SINGLE POINT ENERGY      -235.113288210530

DIPOLE MOMENT
-------------
                                X             Y             Z
Electronic contribution:     -1.16219      -0.00001      -0.37374
Nuclear contribution   :      1.15419       0.00001       0.33829
                        -----------------------------------------
Total Dipole Moment    :     -0.00799      -0.00000      -0.03546
                        -----------------------------------------
Magnitude (a.u.)       :      0.03635
Magnitude (Debye)      :      0.09239

Rotational constants in cm-1:     0.208324     0.097515     0.073456
Rotational constants in MHz :  6245.405843  2923.430510  2202.144883

                             ****ORCA TERMINATED NORMALLY****
TOTAL RUN TIME: 0 days 0 hours 1 minutes 38 seconds 268 msec
