                         Program Version 5.0.3 -  RELEASE  -
|  1> !ri-mp2 aug-cc-pvdz aug-cc-pvdz/c tightscf
|  2> %pal nprocs 16 end
|  3>
|  4> * xyz 0 1
|  5> C      0.838039    1.595359    0.000000
|  6> O      0.838039   -0.743500    1.259473
|  7> O      0.838039   -0.743500   -1.259473
|  8> S      0.445322   -0.156189    0.000000
|  9> Cl    -1.666500   -0.052456    0.000000
| 10> H      0.421587    2.033909    0.900953
| 11> H      1.925327    1.646800    0.000000
| 12> H      0.421587    2.033909   -0.900953
| 13> *
| 14>
| 15>                          ****END OF INPUT****

CARTESIAN COORDINATES (ANGSTROEM)
---------------------------------
  C      0.838039    1.595359    0.000000
  O      0.838039   -0.743500    1.259473
  O      0.838039   -0.743500   -1.259473
  S      0.445322   -0.156189    0.000000
  Cl    -1.666500   -0.052456    0.000000
  H      0.421587    2.033909    0.900953
  H      1.925327    1.646800    0.000000
  H      0.421587    2.033909   -0.900953

 Total Charge           Charge          ....    0
 Multiplicity           Mult            ....    1
 Number of Electrons    NEL             ....   58
 Basis Dimension        Dim             ....  150

ORBITAL ENERGIES
----------------

  NO   OCC          E(Eh)            E(eV)
   0   2.0000    -104.868278     -2853.6109
   1   2.0000     -92.263821     -2510.6262
   2   2.0000     -20.601514      -560.5957
   3   2.0000     -20.601494      -560.5952
   4   2.0000     -11.320008      -308.0331
   5   2.0000     -10.594583      -288.2933
   6   2.0000      -9.233127      -251.2462
   7   2.0000      -8.062040      -219.3793
   8   2.0000      -8.058522      -219.2835
   9   2.0000      -8.058376      -219.2796
  10   2.0000      -6.917927      -188.2464
  11   2.0000      -6.917715      -188.2406
  12   2.0000      -6.915997      -188.1938
  13   2.0000      -1.501679       -40.8628
  14   2.0000      -1.387611       -37.7588
  15   2.0000      -1.144009       -31.1301
  16   2.0000      -1.066587       -29.0233
  17   2.0000      -0.857418       -23.3315
  18   2.0000      -0.719435       -19.5768
  19   2.0000      -0.706301       -19.2194
  20   2.0000      -0.693682       -18.8760
  21   2.0000      -0.635508       -17.2930
  22   2.0000      -0.632284       -17.2053
  23   2.0000      -0.546275       -14.8649
  24   2.0000      -0.533679       -14.5221
  25   2.0000      -0.516365       -14.0510
  26   2.0000      -0.491432       -13.3726
  27   2.0000      -0.477273       -12.9873
  28   2.0000      -0.475461       -12.9380
  29   0.0000       0.025151         0.6844
  30   0.0000       0.049821         1.3557
  31   0.0000       0.051674         1.4061
  32   0.0000       0.057689         1.5698
  33   0.0000       0.081663         2.2222

MULLIKEN ATOMIC CHARGES
-----------------------
   0 C :   -0.030374
   1 O :   -1.053296
   2 O :   -1.053296
   3 S :    2.259036
   4 Cl:   -0.249507
   5 H :    0.034202
   6 H :    0.059032
   7 H :    0.034202
Sum of atomic charges:   -0.0000000

LOEWDIN ATOMIC CHARGES
----------------------
   0 C :    0.053651
   1 O :   -0.400662
   2 O :   -0.400662
   3 S :    0.680267
   4 Cl:    0.161869
   5 H :   -0.033610
   6 H :   -0.027244
   7 H :   -0.033610

  Mayer bond orders larger than 0.100000
B(  0-C ,  1-O ) :   0.1085 B(  0-C ,  2-O ) :   0.1085 B(  0-C ,  3-S ) :   1.0295
B(  0-C ,  5-H ) :   0.9622 B(  0-C ,  6-H ) :   0.9225 B(  0-C ,  7-H ) :   0.9622
B(  1-O ,  2-O ) :   0.1725 B(  1-O ,  3-S ) :   0.9936 B(  2-O ,  3-S ) :   0.9936
B(  3-S ,  4-Cl) :   0.7994

MP2 TOTAL ENERGY:    -1047.172456590 Eh
FINAL SINGLE POINT ENERGY     -1047.172456589676

DIPOLE MOMENT
-------------
                                X             Y             Z
Electronic contribution:     -4.83191      -3.75332       0.00000
Nuclear contribution   :      4.91204       5.48801       0.00000
                        -----------------------------------------
Total Dipole Moment    :      0.08013       1.73469       0.00000
                        -----------------------------------------
Magnitude (a.u.)       :      1.73654
Magnitude (Debye)      :      4.41394

Rotational constants in cm-1:     0.150134     0.087791     0.084493
Rotational constants in MHz :  4500.918194  2631.911946  2533.032070

                             ****ORCA TERMINATED NORMALLY****
TOTAL RUN TIME: 0 days 0 hours 0 minutes 57 seconds 397 msec
