                         Program Version 5.0.3 -  RELEASE  -
|  1> !ri-mp2 aug-cc-pvdz aug-cc-pvdz/c tightscf
|  2> %pal nprocs 16 end
|  3> %maxcore 3800
|  4>
|  5> * xyz 0 1
|  6> C      1.212750   -0.008767    0.000000
|  7> C     -1.191217   -0.059999    0.000000
|  8> C      1.253899   -1.395528    0.000000
|  9> C     -1.163891   -1.439772    0.000000
| 10> C      0.000000    0.676566    0.000000
| 11> C      0.059380   -2.119086    0.000000
| 12> C      0.029615    2.157734    0.000000
| 13> C      1.187057   -4.229322    0.000000
| 14> C     -1.258011    4.136065    0.000000
| 15> O      1.037630    2.827599    0.000000
| 16> O     -0.016913   -3.473560    0.000000
| 17> O     -1.208484    2.702078    0.000000
| 18> H      2.130570    0.561741    0.000000
| 19> H     -2.138564    0.457542    0.000000
| 20> H      2.208636   -1.897967    0.000000
| 21> H     -2.077198   -2.017737    0.000000
| 22> H      1.783547   -4.025408    0.892035
| 23> H      1.783547   -4.025408   -0.892035
| 24> H      0.883035   -5.272089    0.000000
| 25> H     -2.313254    4.391701    0.000000
| 26> H     -0.767834    4.535668   -0.886018
| 27> H     -0.767834    4.535668    0.886018
| 28> *
| 29>
| 30>                          ****END OF INPUT****

CARTESIAN COORDINATES (ANGSTROEM)
---------------------------------
  C      1.212750   -0.008767    0.000000
  C     -1.191217   -0.059999    0.000000
  C      1.253899   -1.395528    0.000000
  C     -1.163891   -1.439772    0.000000
  C      0.000000    0.676566    0.000000
  C      0.059380   -2.119086    0.000000
  C      0.029615    2.157734    0.000000
  C      1.187057   -4.229322    0.000000
  C     -1.258011    4.136065    0.000000
  O      1.037630    2.827599    0.000000
  O     -0.016913   -3.473560    0.000000
  O     -1.208484    2.702078    0.000000
  H      2.130570    0.561741    0.000000
  H     -2.138564    0.457542    0.000000
  H      2.208636   -1.897967    0.000000
  H     -2.077198   -2.017737    0.000000
  H      1.783547   -4.025408    0.892035
  H      1.783547   -4.025408   -0.892035
  H      0.883035   -5.272089    0.000000
  H     -2.313254    4.391701    0.000000
  H     -0.767834    4.535668   -0.886018
  H     -0.767834    4.535668    0.886018

 Total Charge           Charge          ....    0
 Multiplicity           Mult            ....    1
 Number of Electrons    NEL             ....   88
 Basis Dimension        Dim             ....  366

ORBITAL ENERGIES
----------------

  NO   OCC          E(Eh)            E(eV)
   0   2.0000     -20.608057      -560.7737
   1   2.0000     -20.607636      -560.7623
   2   2.0000     -20.546636      -559.1024
   3   2.0000     -11.385756      -309.8222
   4   2.0000     -11.324193      -308.1470
   5   2.0000     -11.301113      -307.5189
   6   2.0000     -11.289538      -307.2040
   7   2.0000     -11.258551      -306.3608
   8   2.0000     -11.258419      -306.3572
   9   2.0000     -11.245761      -306.0127
  10   2.0000     -11.244107      -305.9677
  11   2.0000     -11.239904      -305.8533
  12   2.0000      -1.458831       -39.6968
  13   2.0000      -1.427870       -38.8543
  14   2.0000      -1.356500       -36.9123
  15   2.0000      -1.167905       -31.7803
  16   2.0000      -1.052031       -28.6272
  17   2.0000      -1.036092       -28.1935
  18   2.0000      -0.980395       -26.6779
  19   2.0000      -0.952298       -25.9133
  20   2.0000      -0.851746       -23.1772
  21   2.0000      -0.844518       -22.9805
  22   2.0000      -0.777296       -21.1513
  23   2.0000      -0.741838       -20.1864
  24   2.0000      -0.712858       -19.3978
  25   2.0000      -0.688102       -18.7242
  26   2.0000      -0.667465       -18.1627
  27   2.0000      -0.665139       -18.0993
  28   2.0000      -0.658281       -17.9127
  29   2.0000      -0.637197       -17.3390
  30   2.0000      -0.608375       -16.5547
  31   2.0000      -0.601454       -16.3664
  32   2.0000      -0.584782       -15.9127
  33   2.0000      -0.557805       -15.1787
  34   2.0000      -0.556022       -15.1301
  35   2.0000      -0.532799       -14.4982
  36   2.0000      -0.532363       -14.4863
  37   2.0000      -0.523698       -14.2505
  38   2.0000      -0.490600       -13.3499
  39   2.0000      -0.475670       -12.9436
  40   2.0000      -0.458262       -12.4699
  41   2.0000      -0.447489       -12.1768
  42   2.0000      -0.352230        -9.5847
  43   2.0000      -0.325160        -8.8481
  44   0.0000       0.031395         0.8543
  45   0.0000       0.037977         1.0334
  46   0.0000       0.042994         1.1699
  47   0.0000       0.049041         1.3345
  48   0.0000       0.055249         1.5034

MULLIKEN ATOMIC CHARGES
-----------------------
   0 C :   -0.345294
   1 C :    0.716196
   2 C :    0.686636
   3 C :    0.755950
   4 C :    1.632136
   5 C :    0.533216
   6 C :    0.511465
   7 C :    0.866092
   8 C :    0.816340
   9 O :   -0.764999
  10 O :   -1.066018
  11 O :   -0.884821
  12 H :   -0.670281
  13 H :   -0.619023
  14 H :   -0.735088
  15 H :   -0.597925
  16 H :   -0.066152
  17 H :   -0.066152
  18 H :   -0.323014
  19 H :   -0.282992
  20 H :   -0.048135
  21 H :   -0.048135
Sum of atomic charges:    0.0000000

LOEWDIN ATOMIC CHARGES
----------------------
   0 C :    0.076494
   1 C :    0.069863
   2 C :    0.054071
   3 C :    0.061188
   4 C :   -0.138765
   5 C :   -0.192466
   6 C :   -0.312782
   7 C :    0.162509
   8 C :    0.179118
   9 O :    0.045980
  10 O :    0.039560
  11 O :    0.048641
  12 H :    0.015652
  13 H :    0.007682
  14 H :   -0.011475
  15 H :    0.009250
  16 H :   -0.015046
  17 H :   -0.015046
  18 H :   -0.021646
  19 H :   -0.026166
  20 H :   -0.018308
  21 H :   -0.018308

  Mayer bond orders larger than 0.100000
B(  0-C ,  1-C ) :  -1.2429 B(  0-C ,  2-C ) :   2.5777 B(  0-C ,  4-C ) :   1.2475
B(  0-C ,  5-C ) :   0.1761 B(  0-C ,  6-C ) :  -0.7229 B(  0-C , 12-H ) :  -0.3179
B(  0-C , 14-H ) :   0.7070 B(  0-C , 15-H ) :   0.1130 B(  1-C ,  3-C ) :   2.1117
B(  1-C ,  4-C ) :   2.1947 B(  1-C ,  5-C ) :   0.1561 B(  1-C ,  6-C ) :  -0.4883
B(  1-C , 13-H ) :  -0.2015 B(  1-C , 15-H ) :   0.2891 B(  2-C ,  4-C ) :  -0.7680
B(  2-C ,  5-C ) :   1.0031 B(  2-C ,  6-C ) :   0.2607 B(  2-C , 12-H ) :   0.3946
B(  2-C , 14-H ) :  -0.4771 B(  3-C ,  4-C ) :  -0.8402 B(  3-C ,  5-C ) :   1.5949
B(  3-C ,  6-C ) :   0.2880 B(  3-C , 11-O ) :  -0.1277 B(  3-C , 13-H ) :   0.3505
B(  3-C , 14-H ) :  -0.1228 B(  3-C , 15-H ) :  -0.6856 B(  4-C ,  5-C ) :   0.1486
B(  4-C ,  6-C ) :   0.4597 B(  4-C , 11-O ) :   0.2212 B(  4-C , 12-H ) :   0.5569
B(  4-C , 13-H ) :   0.5481 B(  4-C , 15-H ) :  -0.2500 B(  5-C ,  6-C ) :   0.1386
B(  5-C ,  7-C ) :  -0.1679 B(  5-C , 12-H ) :  -0.1173 B(  5-C , 13-H ) :  -0.1610
B(  5-C , 14-H ) :   0.2962 B(  5-C , 15-H ) :   1.1007 B(  6-C ,  9-O ) :   1.4975
B(  6-C , 11-O ) :   0.4319 B(  7-C , 10-O ) :   0.7329 B(  7-C , 16-H ) :   0.9722
B(  7-C , 17-H ) :   0.9722 B(  7-C , 18-H ) :   1.0009 B(  8-C , 11-O ) :   0.6144
B(  8-C , 19-H ) :   0.9854 B(  8-C , 20-H ) :   0.9935 B(  8-C , 21-H ) :   0.9935
B( 16-H , 18-H ) :  -0.1069 B( 17-H , 18-H ) :  -0.1069

MP2 TOTAL ENERGY:     -573.113950224 Eh
FINAL SINGLE POINT ENERGY      -573.113950224336

DIPOLE MOMENT
-------------
                                X             Y             Z
Electronic contribution:     -0.88721       1.91843       0.00000
Nuclear contribution   :      0.71776      -2.70903       0.00000
                        -----------------------------------------
Total Dipole Moment    :     -0.16945      -0.79060       0.00000
                        -----------------------------------------
Magnitude (a.u.)       :      0.80856
Magnitude (Debye)      :      2.05519

Rotational constants in cm-1:     0.108844     0.014265     0.012672
Rotational constants in MHz :  3263.051885   427.649565   379.908430

                             ****ORCA TERMINATED NORMALLY****
TOTAL RUN TIME: 0 days 0 hours 2 minutes 49 seconds 620 msec
