                         Program Version 5.0.3 -  RELEASE  -
|  1> !ri-mp2 aug-cc-pvdz aug-cc-pvdz/c tightscf
|  2> %pal nprocs 16 end
|  3>
|  4> * xyz 0 1
|  5> S     -1.181973   -0.258533   -0.605061
|  6> S      0.526277   -0.912219    0.396167
|  7> N      2.499926    1.048130   -0.266984
|  8> C     -1.850452    1.006228    0.528769
|  9> C      1.684030    0.266004   -0.023640
| 10> H     -2.789196    1.324506    0.074977
| 11> H     -1.175486    1.854944    0.595860
| 12> H     -2.045134    0.582281    1.509582
| 13> *
| 14>
| 15>                          ****END OF INPUT****

CARTESIAN COORDINATES (ANGSTROEM)
---------------------------------
  S     -1.181973   -0.258533   -0.605061
  S      0.526277   -0.912219    0.396167
  N      2.499926    1.048130   -0.266984
  C     -1.850452    1.006228    0.528769
  C      1.684030    0.266004   -0.023640
  H     -2.789196    1.324506    0.074977
  H     -1.175486    1.854944    0.595860
  H     -2.045134    0.582281    1.509582

 Total Charge           Charge          ....    0
 Multiplicity           Mult            ....    1
 Number of Electrons    NEL             ....   54
 Basis Dimension        Dim             ....  150

ORBITAL ENERGIES
----------------

  NO   OCC          E(Eh)            E(eV)
   0   2.0000     -92.046593     -2504.7151
   1   2.0000     -92.016700     -2503.9017
   2   2.0000     -15.600753      -424.5181
   3   2.0000     -11.311776      -307.8091
   4   2.0000     -11.293015      -307.2986
   5   2.0000      -9.045444      -246.1390
   6   2.0000      -9.016308      -245.3462
   7   2.0000      -6.727359      -183.0607
   8   2.0000      -6.725515      -183.0106
   9   2.0000      -6.723164      -182.9466
  10   2.0000      -6.698176      -182.2666
  11   2.0000      -6.696026      -182.2081
  12   2.0000      -6.693900      -182.1503
  13   2.0000      -1.240763       -33.7629
  14   2.0000      -1.116333       -30.3770
  15   2.0000      -1.022300       -27.8182
  16   2.0000      -0.876543       -23.8520
  17   2.0000      -0.682368       -18.5682
  18   2.0000      -0.624657       -16.9978
  19   2.0000      -0.616301       -16.7704
  20   2.0000      -0.572185       -15.5699
  21   2.0000      -0.558746       -15.2043
  22   2.0000      -0.536233       -14.5916
  23   2.0000      -0.504129       -13.7180
  24   2.0000      -0.453392       -12.3374
  25   2.0000      -0.402502       -10.9526
  26   2.0000      -0.390152       -10.6166
  27   0.0000       0.029968         0.8155
  28   0.0000       0.044360         1.2071
  29   0.0000       0.052529         1.4294
  30   0.0000       0.060180         1.6376
  31   0.0000       0.064737         1.7616

MULLIKEN ATOMIC CHARGES
-----------------------
   0 S :    0.150312
   1 S :    0.334989
   2 N :   -0.299580
   3 C :    0.084409
   4 C :   -0.179846
   5 H :   -0.042619
   6 H :   -0.019922
   7 H :   -0.027743
Sum of atomic charges:   -0.0000000

LOEWDIN ATOMIC CHARGES
----------------------
   0 S :    0.488742
   1 S :    0.524546
   2 N :   -0.021594
   3 C :   -0.171951
   4 C :   -0.612099
   5 H :   -0.068330
   6 H :   -0.068848
   7 H :   -0.070466

  Mayer bond orders larger than 0.100000
B(  0-S ,  1-S ) :   1.1511 B(  0-S ,  3-C ) :   1.0559 B(  0-S ,  4-C ) :  -0.1042
B(  1-S ,  4-C ) :   0.9031 B(  2-N ,  4-C ) :   2.5167 B(  3-C ,  5-H ) :   0.9955
B(  3-C ,  6-H ) :   0.9892 B(  3-C ,  7-H ) :   0.9939

MP2 TOTAL ENERGY:     -927.709826862 Eh
FINAL SINGLE POINT ENERGY      -927.709826862163

DIPOLE MOMENT
-------------
                                X             Y             Z
Electronic contribution:      4.22295      -3.86349      -1.56492
Nuclear contribution   :     -5.76147       3.66812       2.10723
                        -----------------------------------------
Total Dipole Moment    :     -1.53852      -0.19537       0.54232
                        -----------------------------------------
Magnitude (a.u.)       :      1.64296
Magnitude (Debye)      :      4.17607

Rotational constants in cm-1:     0.195972     0.066517     0.057654
Rotational constants in MHz :  5875.105092  1994.130646  1728.413958

                             ****ORCA TERMINATED NORMALLY****
TOTAL RUN TIME: 0 days 0 hours 0 minutes 51 seconds 704 msec
