                         Program Version 5.0.3 -  RELEASE  -
|  1> !ri-mp2 aug-cc-pvdz aug-cc-pvdz/c tightscf
|  2> %pal nprocs 16 end
|  3>
|  4> * xyz 0 1
|  5> C      1.328264    0.334723    0.000000
|  6> O      0.000000    0.884876    0.000000
|  7> H      1.983497    1.199685    0.000000
|  8> H      1.493655   -0.273528    0.888518
|  9> H      1.493655   -0.273528   -0.888518
| 10> N     -1.045924   -0.048758    0.000000
| 11> O     -0.702365   -1.174834    0.000000
| 12> *
| 13>
| 14>                          ****END OF INPUT****

CARTESIAN COORDINATES (ANGSTROEM)
---------------------------------
  C      1.328264    0.334723    0.000000
  O      0.000000    0.884876    0.000000
  H      1.983497    1.199685    0.000000
  H      1.493655   -0.273528    0.888518
  H      1.493655   -0.273528   -0.888518
  N     -1.045924   -0.048758    0.000000
  O     -0.702365   -1.174834    0.000000

 Total Charge           Charge          ....    0
 Multiplicity           Mult            ....    1
 Number of Electrons    NEL             ....   32
 Basis Dimension        Dim             ....  119

ORBITAL ENERGIES
----------------

  NO   OCC          E(Eh)            E(eV)
   0   2.0000     -20.663954      -562.2948
   1   2.0000     -20.642815      -561.7195
   2   2.0000     -15.796142      -429.8349
   3   2.0000     -11.303634      -307.5875
   4   2.0000      -1.606893       -43.7258
   5   2.0000      -1.405433       -38.2438
   6   2.0000      -1.023266       -27.8445
   7   2.0000      -0.880039       -23.9471
   8   2.0000      -0.764931       -20.8148
   9   2.0000      -0.727387       -19.7932
  10   2.0000      -0.703535       -19.1442
  11   2.0000      -0.603261       -16.4156
  12   2.0000      -0.602417       -16.3926
  13   2.0000      -0.550094       -14.9688
  14   2.0000      -0.486302       -13.2330
  15   2.0000      -0.457365       -12.4455
  16   0.0000       0.034699         0.9442
  17   0.0000       0.055195         1.5019
  18   0.0000       0.057303         1.5593
  19   0.0000       0.085823         2.3354
  20   0.0000       0.092998         2.5306

MULLIKEN ATOMIC CHARGES
-----------------------
   0 C :    0.884280
   1 O :   -0.713030
   2 H :   -0.217857
   3 H :   -0.055385
   4 H :   -0.055385
   5 N :    0.594764
   6 O :   -0.437387
Sum of atomic charges:    0.0000000

LOEWDIN ATOMIC CHARGES
----------------------
   0 C :    0.130097
   1 O :   -0.058636
   2 H :   -0.029927
   3 H :   -0.032579
   4 H :   -0.032579
   5 N :    0.001333
   6 O :    0.022291

  Mayer bond orders larger than 0.100000
B(  0-C ,  1-O ) :   0.6063 B(  0-C ,  2-H ) :   1.0350 B(  0-C ,  3-H ) :   0.9675
B(  0-C ,  4-H ) :   0.9675 B(  1-O ,  5-N ) :   0.6069 B(  5-N ,  6-O ) :   1.4197

MP2 TOTAL ENERGY:     -244.426115944 Eh
FINAL SINGLE POINT ENERGY      -244.426115944430

DIPOLE MOMENT
-------------
                                X             Y             Z
Electronic contribution:     -4.06356      -0.60949       0.00000
Nuclear contribution   :      4.87718       0.63778       0.00000
                        -----------------------------------------
Total Dipole Moment    :      0.81362       0.02829       0.00000
                        -----------------------------------------
Magnitude (a.u.)       :      0.81411
Magnitude (Debye)      :      2.06930

Rotational constants in cm-1:     0.686746     0.245408     0.187190
Rotational constants in MHz : 20588.123612  7357.147190  5611.815014

                             ****ORCA TERMINATED NORMALLY****
TOTAL RUN TIME: 0 days 0 hours 0 minutes 31 seconds 661 msec
