                         Program Version 5.0.3 -  RELEASE  -
|  1> !ri-mp2 aug-cc-pvdz aug-cc-pvdz/c tightscf
|  2> %pal nprocs 16 end
|  3>
|  4> * xyz 0 1
|  5> C      2.631509    0.344451    0.000050
|  6> C      1.698472    1.371404   -0.000121
|  7> C      2.188597   -0.975522    0.000179
|  8> C      0.334547    1.093914   -0.000188
|  9> C      0.832934   -1.262341    0.000136
| 10> C     -0.109855   -0.227934   -0.000068
| 11> C     -2.721440    0.856894    0.000405
| 12> S     -1.818130   -0.717138   -0.000261
| 13> H      3.689808    0.566132    0.000100
| 14> H      2.026789    2.402640   -0.000214
| 15> H      2.903178   -1.788083    0.000345
| 16> H     -0.367984    1.913568   -0.000322
| 17> H      0.498331   -2.291718    0.000281
| 18> H     -2.506706    1.440121    0.893802
| 19> H     -3.774965    0.585558    0.000442
| 20> H     -2.506952    1.440801   -0.892611
| 21> *
| 22>
| 23>                          ****END OF INPUT****

CARTESIAN COORDINATES (ANGSTROEM)
---------------------------------
  C      2.631509    0.344451    0.000050
  C      1.698472    1.371404   -0.000121
  C      2.188597   -0.975522    0.000179
  C      0.334547    1.093914   -0.000188
  C      0.832934   -1.262341    0.000136
  C     -0.109855   -0.227934   -0.000068
  C     -2.721440    0.856894    0.000405
  S     -1.818130   -0.717138   -0.000261
  H      3.689808    0.566132    0.000100
  H      2.026789    2.402640   -0.000214
  H      2.903178   -1.788083    0.000345
  H     -0.367984    1.913568   -0.000322
  H      0.498331   -2.291718    0.000281
  H     -2.506706    1.440121    0.893802
  H     -3.774965    0.585558    0.000442
  H     -2.506952    1.440801   -0.892611

 Total Charge           Charge          ....    0
 Multiplicity           Mult            ....    1
 Number of Electrons    NEL             ....   66
 Basis Dimension        Dim             ....  260

ORBITAL ENERGIES
----------------

  NO   OCC          E(Eh)            E(eV)
   0   2.0000     -91.960627     -2502.3759
   1   2.0000     -11.277489      -306.8761
   2   2.0000     -11.267974      -306.6171
   3   2.0000     -11.246178      -306.0240
   4   2.0000     -11.245503      -306.0057
   5   2.0000     -11.243597      -305.9538
   6   2.0000     -11.242209      -305.9161
   7   2.0000     -11.238500      -305.8151
   8   2.0000      -8.962544      -243.8832
   9   2.0000      -6.644734      -180.8124
  10   2.0000      -6.643076      -180.7673
  11   2.0000      -6.641115      -180.7139
  12   2.0000      -1.166984       -31.7552
  13   2.0000      -1.072384       -29.1811
  14   2.0000      -1.024506       -27.8782
  15   2.0000      -1.001159       -27.2429
  16   2.0000      -0.886434       -24.1211
  17   2.0000      -0.833675       -22.6854
  18   2.0000      -0.794068       -21.6077
  19   2.0000      -0.702468       -19.1151
  20   2.0000      -0.636068       -17.3083
  21   2.0000      -0.633603       -17.2412
  22   2.0000      -0.608579       -16.5603
  23   2.0000      -0.597976       -16.2717
  24   2.0000      -0.589601       -16.0439
  25   2.0000      -0.549334       -14.9481
  26   2.0000      -0.516241       -14.0476
  27   2.0000      -0.506707       -13.7882
  28   2.0000      -0.490627       -13.3506
  29   2.0000      -0.445337       -12.1182
  30   2.0000      -0.400386       -10.8951
  31   2.0000      -0.343246        -9.3402
  32   2.0000      -0.298517        -8.1231
  33   0.0000       0.034193         0.9304
  34   0.0000       0.038132         1.0376
  35   0.0000       0.042902         1.1674
  36   0.0000       0.053666         1.4603
  37   0.0000       0.058345         1.5876

MULLIKEN ATOMIC CHARGES
-----------------------
   0 C :    0.323626
   1 C :    0.706257
   2 C :    0.694328
   3 C :    0.425953
   4 C :   -0.300070
   5 C :    0.681514
   6 C :    0.079625
   7 S :    0.192395
   8 H :   -0.442648
   9 H :   -0.464261
  10 H :   -0.448941
  11 H :   -0.733312
  12 H :   -0.524305
  13 H :    0.021968
  14 H :   -0.234238
  15 H :    0.022108
Sum of atomic charges:    0.0000000

LOEWDIN ATOMIC CHARGES
----------------------
   0 C :    0.001889
   1 C :    0.004699
   2 C :    0.002444
   3 C :   -0.023372
   4 C :   -0.034652
   5 C :   -0.473760
   6 C :   -0.132243
   7 S :    0.875013
   8 H :   -0.003089
   9 H :    0.001469
  10 H :    0.002029
  11 H :   -0.024488
  12 H :   -0.006502
  13 H :   -0.060520
  14 H :   -0.068384
  15 H :   -0.060534

  Mayer bond orders larger than 0.100000
B(  0-C ,  1-C ) :   1.6868 B(  0-C ,  2-C ) :   1.6084 B(  0-C ,  3-C ) :   0.2107
B(  0-C ,  4-C ) :   0.2256 B(  0-C ,  8-H ) :   0.3809 B(  0-C ,  9-H ) :   0.1757
B(  0-C , 10-H ) :   0.1377 B(  1-C ,  3-C ) :   1.6432 B(  1-C ,  5-C ) :  -0.1521
B(  1-C ,  8-H ) :   0.1565 B(  1-C , 10-H ) :  -0.1052 B(  1-C , 11-H ) :   0.1792
B(  2-C ,  4-C ) :   1.8877 B(  2-C ,  5-C ) :  -0.2003 B(  2-C ,  8-H ) :   0.1846
B(  2-C ,  9-H ) :  -0.1257 B(  2-C , 10-H ) :   0.2245 B(  2-C , 12-H ) :   0.1152
B(  3-C ,  4-C ) :  -0.1398 B(  3-C ,  5-C ) :   1.1978 B(  3-C ,  7-S ) :  -0.1427
B(  3-C ,  9-H ) :   0.5463 B(  4-C ,  5-C ) :   1.5343 B(  4-C ,  7-S ) :  -0.4775
B(  4-C , 10-H ) :   0.3875 B(  4-C , 12-H ) :   0.2422 B(  5-C ,  6-C ) :  -0.1857
B(  5-C ,  7-S ) :   1.3766 B(  5-C , 11-H ) :   0.1437 B(  5-C , 12-H ) :   0.3315
B(  6-C ,  7-S ) :   1.0427 B(  6-C , 13-H ) :   0.9495 B(  6-C , 14-H ) :   1.0599
B(  6-C , 15-H ) :   0.9494

MP2 TOTAL ENERGY:     -668.398474085 Eh
FINAL SINGLE POINT ENERGY      -668.398474085494

DIPOLE MOMENT
-------------
                                X             Y             Z
Electronic contribution:     -0.01142      -3.68885      -0.00154
Nuclear contribution   :      0.01757       4.28257       0.00183
                        -----------------------------------------
Total Dipole Moment    :      0.00615       0.59372       0.00029
                        -----------------------------------------
Magnitude (a.u.)       :      0.59376
Magnitude (Debye)      :      1.50921

Rotational constants in cm-1:     0.141727     0.038683     0.030566
Rotational constants in MHz :  4248.864622  1159.698785   916.351142

                             ****ORCA TERMINATED NORMALLY****
TOTAL RUN TIME: 0 days 0 hours 1 minutes 28 seconds 344 msec
