                         Program Version 5.0.3 -  RELEASE  -
|  1> !ri-mp2 aug-cc-pvdz aug-cc-pvdz/c tightscf
|  2> %pal nprocs 16 end
|  3> %maxcore 3800
|  4>
|  5> * xyz 0 1
|  6> C     -1.111854   -0.407602    0.125096
|  7> C      2.519955    0.359470   -0.688408
|  8> C      1.969676   -1.052974   -0.470654
|  9> C      1.411901    1.411583   -0.589259
| 10> C      1.194356   -1.168658    0.847170
| 11> C      0.666104    1.312877    0.744533
| 12> C      0.099900   -0.101797    0.994429
| 13> C     -3.281670    0.319162   -0.471198
| 14> O     -1.250170   -1.370670   -0.588255
| 15> O     -2.072170    0.532062    0.273850
| 16> H      3.284420    0.574297    0.066511
| 17> H      3.016327    0.424143   -1.659020
| 18> H      1.308119   -1.318004   -1.297782
| 19> H      2.784895   -1.779646   -0.477318
| 20> H      1.828011    2.414978   -0.702103
| 21> H      0.706946    1.275720   -1.416225
| 22> H      0.756983   -2.162764    0.937526
| 23> H      1.888488   -1.047022    1.684150
| 24> H      1.361886    1.538168    1.557947
| 25> H     -0.133635    2.050051    0.799485
| 26> H     -0.284837   -0.125874    2.018897
| 27> H     -3.073608    0.295602   -1.539403
| 28> H     -3.927090    1.157271   -0.226901
| 29> H     -3.748380   -0.620419   -0.180785
| 30> *
| 31>
| 32>                          ****END OF INPUT****

CARTESIAN COORDINATES (ANGSTROEM)
---------------------------------
  C     -1.111854   -0.407602    0.125096
  C      2.519955    0.359470   -0.688408
  C      1.969676   -1.052974   -0.470654
  C      1.411901    1.411583   -0.589259
  C      1.194356   -1.168658    0.847170
  C      0.666104    1.312877    0.744533
  C      0.099900   -0.101797    0.994429
  C     -3.281670    0.319162   -0.471198
  O     -1.250170   -1.370670   -0.588255
  O     -2.072170    0.532062    0.273850
  H      3.284420    0.574297    0.066511
  H      3.016327    0.424143   -1.659020
  H      1.308119   -1.318004   -1.297782
  H      2.784895   -1.779646   -0.477318
  H      1.828011    2.414978   -0.702103
  H      0.706946    1.275720   -1.416225
  H      0.756983   -2.162764    0.937526
  H      1.888488   -1.047022    1.684150
  H      1.361886    1.538168    1.557947
  H     -0.133635    2.050051    0.799485
  H     -0.284837   -0.125874    2.018897
  H     -3.073608    0.295602   -1.539403
  H     -3.927090    1.157271   -0.226901
  H     -3.748380   -0.620419   -0.180785

 Total Charge           Charge          ....    0
 Multiplicity           Mult            ....    1
 Number of Electrons    NEL             ....   78
 Basis Dimension        Dim             ....  356

ORBITAL ENERGIES
----------------

  NO   OCC          E(Eh)            E(eV)
   0   2.0000     -20.608034      -560.7731
   1   2.0000     -20.551638      -559.2385
   2   2.0000     -11.381055      -309.6942
   3   2.0000     -11.290653      -307.2343
   4   2.0000     -11.247571      -306.0620
   5   2.0000     -11.230489      -305.5971
   6   2.0000     -11.223866      -305.4169
   7   2.0000     -11.223490      -305.4067
   8   2.0000     -11.219942      -305.3101
   9   2.0000     -11.215519      -305.1898
  10   2.0000      -1.460034       -39.7295
  11   2.0000      -1.359177       -36.9851
  12   2.0000      -1.125709       -30.6321
  13   2.0000      -1.032073       -28.0841
  14   2.0000      -1.007003       -27.4019
  15   2.0000      -0.967681       -26.3319
  16   2.0000      -0.860535       -23.4164
  17   2.0000      -0.835395       -22.7323
  18   2.0000      -0.786753       -21.4086
  19   2.0000      -0.749588       -20.3973
  20   2.0000      -0.682520       -18.5723
  21   2.0000      -0.673296       -18.3213
  22   2.0000      -0.671099       -18.2615
  23   2.0000      -0.644021       -17.5247
  24   2.0000      -0.612160       -16.6577
  25   2.0000      -0.603811       -16.4305
  26   2.0000      -0.588034       -16.0012
  27   2.0000      -0.554546       -15.0900
  28   2.0000      -0.535817       -14.5803
  29   2.0000      -0.528268       -14.3749
  30   2.0000      -0.523818       -14.2538
  31   2.0000      -0.514281       -13.9943
  32   2.0000      -0.511183       -13.9100
  33   2.0000      -0.483690       -13.1619
  34   2.0000      -0.467007       -12.7079
  35   2.0000      -0.456671       -12.4266
  36   2.0000      -0.433065       -11.7843
  37   2.0000      -0.431310       -11.7365
  38   2.0000      -0.428399       -11.6573
  39   0.0000       0.033764         0.9188
  40   0.0000       0.039885         1.0853
  41   0.0000       0.042230         1.1491
  42   0.0000       0.045537         1.2391
  43   0.0000       0.057189         1.5562

MULLIKEN ATOMIC CHARGES
-----------------------
   0 C :    1.068581
   1 C :    0.372668
   2 C :    0.338850
   3 C :    0.356962
   4 C :    0.663996
   5 C :    0.574451
   6 C :   -0.563998
   7 C :    0.885775
   8 O :   -0.774449
   9 O :   -0.941244
  10 H :   -0.145981
  11 H :   -0.154995
  12 H :   -0.141668
  13 H :   -0.133946
  14 H :   -0.145057
  15 H :   -0.167764
  16 H :   -0.189333
  17 H :   -0.085318
  18 H :   -0.117981
  19 H :   -0.181850
  20 H :   -0.076171
  21 H :   -0.086911
  22 H :   -0.262941
  23 H :   -0.091676
Sum of atomic charges:    0.0000000

LOEWDIN ATOMIC CHARGES
----------------------
   0 C :   -0.297416
   1 C :   -0.022813
   2 C :   -0.012302
   3 C :   -0.017056
   4 C :    0.013287
   5 C :    0.015467
   6 C :   -0.138970
   7 C :    0.180075
   8 O :    0.062170
   9 O :    0.052340
  10 H :    0.017412
  11 H :    0.014880
  12 H :    0.014242
  13 H :    0.015687
  14 H :    0.016200
  15 H :    0.019463
  16 H :    0.019783
  17 H :    0.022652
  18 H :    0.023785
  19 H :    0.013181
  20 H :    0.051455
  21 H :   -0.018806
  22 H :   -0.025762
  23 H :   -0.018955

  Mayer bond orders larger than 0.100000
B(  0-C ,  6-C ) :   0.8265 B(  0-C ,  8-O ) :   1.4529 B(  0-C ,  9-O ) :   0.5752
B(  1-C ,  2-C ) :   1.2614 B(  1-C ,  3-C ) :   1.2775 B(  1-C , 10-H ) :   0.7487
B(  1-C , 11-H ) :   0.7558 B(  2-C ,  4-C ) :   1.2361 B(  2-C , 12-H ) :   0.7507
B(  2-C , 13-H ) :   0.7697 B(  3-C ,  5-C ) :   1.1647 B(  3-C , 14-H ) :   0.7684
B(  3-C , 15-H ) :   0.7441 B(  4-C ,  6-C ) :   1.1354 B(  4-C , 16-H ) :   0.7033
B(  4-C , 17-H ) :   0.7238 B(  5-C ,  6-C ) :   1.1749 B(  5-C , 18-H ) :   0.7195
B(  5-C , 19-H ) :   0.7066 B(  6-C , 12-H ) :   0.2147 B(  6-C , 15-H ) :   0.1575
B(  6-C , 17-H ) :   0.1743 B(  6-C , 18-H ) :   0.1721 B(  6-C , 20-H ) :   0.7071
B(  7-C ,  9-O ) :   0.6121 B(  7-C , 21-H ) :   0.9438 B(  7-C , 22-H ) :   1.0150
B(  7-C , 23-H ) :   0.9900 B( 10-H , 11-H ) :  -0.1494 B( 12-H , 13-H ) :  -0.1519
B( 14-H , 15-H ) :  -0.1514 B( 16-H , 17-H ) :  -0.1754 B( 18-H , 19-H ) :  -0.1919
B( 21-H , 22-H ) :  -0.1027

MP2 TOTAL ENERGY:     -462.452800986 Eh
FINAL SINGLE POINT ENERGY      -462.452800985987

DIPOLE MOMENT
-------------
                                X             Y             Z
Electronic contribution:     -5.93990      -2.09615       0.79608
Nuclear contribution   :      5.88867       2.74366      -0.45325
                        -----------------------------------------
Total Dipole Moment    :     -0.05123       0.64751       0.34282
                        -----------------------------------------
Magnitude (a.u.)       :      0.73445
Magnitude (Debye)      :      1.86683

Rotational constants in cm-1:     0.079920     0.030332     0.026885
Rotational constants in MHz :  2395.947742   909.329911   805.992257

                             ****ORCA TERMINATED NORMALLY****
TOTAL RUN TIME: 0 days 0 hours 2 minutes 30 seconds 550 msec
