                         Program Version 5.0.3 -  RELEASE  -
|  1> !ri-mp2 aug-cc-pvdz aug-cc-pvdz/c tightscf
|  2> %pal nprocs 16 end
|  3>
|  4> * xyz 0 1
|  5> C     -0.739782   -1.773761    0.000000
|  6> C     -0.089048   -1.206811    1.264899
|  7> C     -0.089048   -1.206811   -1.264899
|  8> C     -0.089048    0.324852    1.260545
|  9> C     -0.089048    0.324852   -1.260545
| 10> C      0.566508    0.906527    0.000000
| 11> C      0.533702    2.434333    0.000000
| 12> H     -0.680166   -2.864513    0.000000
| 13> H     -1.805477   -1.520961    0.000000
| 14> H     -0.602476   -1.579676    2.154131
| 15> H      0.943314   -1.566555    1.330389
| 16> H      0.943314   -1.566555   -1.330389
| 17> H     -0.602476   -1.579676   -2.154131
| 18> H     -1.122408    0.686328    1.318579
| 19> H      0.419978    0.704095    2.150588
| 20> H      0.419978    0.704095   -2.150588
| 21> H     -1.122408    0.686328   -1.318579
| 22> H      1.617471    0.591208    0.000000
| 23> H      1.030791    2.842574    0.882126
| 24> H      1.030791    2.842574   -0.882126
| 25> H     -0.495635    2.801645    0.000000
| 26> *
| 27>
| 28>                          ****END OF INPUT****

CARTESIAN COORDINATES (ANGSTROEM)
---------------------------------
  C     -0.739782   -1.773761    0.000000
  C     -0.089048   -1.206811    1.264899
  C     -0.089048   -1.206811   -1.264899
  C     -0.089048    0.324852    1.260545
  C     -0.089048    0.324852   -1.260545
  C      0.566508    0.906527    0.000000
  C      0.533702    2.434333    0.000000
  H     -0.680166   -2.864513    0.000000
  H     -1.805477   -1.520961    0.000000
  H     -0.602476   -1.579676    2.154131
  H      0.943314   -1.566555    1.330389
  H      0.943314   -1.566555   -1.330389
  H     -0.602476   -1.579676   -2.154131
  H     -1.122408    0.686328    1.318579
  H      0.419978    0.704095    2.150588
  H      0.419978    0.704095   -2.150588
  H     -1.122408    0.686328   -1.318579
  H      1.617471    0.591208    0.000000
  H      1.030791    2.842574    0.882126
  H      1.030791    2.842574   -0.882126
  H     -0.495635    2.801645    0.000000

 Total Charge           Charge          ....    0
 Multiplicity           Mult            ....    1
 Number of Electrons    NEL             ....   56
 Basis Dimension        Dim             ....  287

ORBITAL ENERGIES
----------------

  NO   OCC          E(Eh)            E(eV)
   0   2.0000     -11.222639      -305.3835
   1   2.0000     -11.217416      -305.2414
   2   2.0000     -11.217126      -305.2335
   3   2.0000     -11.216556      -305.2180
   4   2.0000     -11.215505      -305.1894
   5   2.0000     -11.215465      -305.1883
   6   2.0000     -11.213081      -305.1235
   7   2.0000      -1.117800       -30.4169
   8   2.0000      -1.029311       -28.0090
   9   2.0000      -0.999514       -27.1981
  10   2.0000      -0.915728       -24.9182
  11   2.0000      -0.829265       -22.5655
  12   2.0000      -0.798132       -21.7183
  13   2.0000      -0.747249       -20.3337
  14   2.0000      -0.638486       -17.3741
  15   2.0000      -0.606545       -16.5049
  16   2.0000      -0.597686       -16.2639
  17   2.0000      -0.597123       -16.2486
  18   2.0000      -0.563274       -15.3275
  19   2.0000      -0.530082       -14.4243
  20   2.0000      -0.520265       -14.1571
  21   2.0000      -0.507381       -13.8065
  22   2.0000      -0.486037       -13.2257
  23   2.0000      -0.476365       -12.9626
  24   2.0000      -0.465081       -12.6555
  25   2.0000      -0.444560       -12.0971
  26   2.0000      -0.422466       -11.4959
  27   2.0000      -0.418886       -11.3985
  28   0.0000       0.037961         1.0330
  29   0.0000       0.042721         1.1625
  30   0.0000       0.044210         1.2030
  31   0.0000       0.045365         1.2344
  32   0.0000       0.060837         1.6555

MULLIKEN ATOMIC CHARGES
-----------------------
   0 C :    0.302693
   1 C :    0.358286
   2 C :    0.358286
   3 C :    0.583902
   4 C :    0.583902
   5 C :   -1.217527
   6 C :    0.884713
   7 H :   -0.141004
   8 H :   -0.132728
   9 H :   -0.129949
  10 H :   -0.128832
  11 H :   -0.128832
  12 H :   -0.129949
  13 H :   -0.124112
  14 H :   -0.189060
  15 H :   -0.189060
  16 H :   -0.124112
  17 H :   -0.264263
  18 H :   -0.066201
  19 H :   -0.066201
  20 H :   -0.039953
Sum of atomic charges:    0.0000000

LOEWDIN ATOMIC CHARGES
----------------------
   0 C :   -0.027861
   1 C :   -0.023051
   2 C :   -0.023051
   3 C :   -0.005615
   4 C :   -0.005615
   5 C :   -0.251297
   6 C :    0.160105
   7 H :    0.013361
   8 H :    0.017677
   9 H :    0.013467
  10 H :    0.017657
  11 H :    0.017657
  12 H :    0.013467
  13 H :    0.023060
  14 H :    0.018000
  15 H :    0.018000
  16 H :    0.023060
  17 H :    0.042873
  18 H :   -0.015110
  19 H :   -0.015110
  20 H :   -0.011676

  Mayer bond orders larger than 0.100000
B(  0-C ,  1-C ) :   1.2701 B(  0-C ,  2-C ) :   1.2701 B(  0-C ,  7-H ) :   0.7608
B(  0-C ,  8-H ) :   0.7803 B(  1-C ,  3-C ) :   1.2251 B(  1-C ,  9-H ) :   0.7546
B(  1-C , 10-H ) :   0.7702 B(  2-C ,  4-C ) :   1.2251 B(  2-C , 11-H ) :   0.7702
B(  2-C , 12-H ) :   0.7546 B(  3-C ,  4-C ) :  -0.1066 B(  3-C ,  5-C ) :   1.2195
B(  3-C ,  6-C ) :  -0.1746 B(  3-C , 13-H ) :   0.7210 B(  3-C , 14-H ) :   0.6834
B(  4-C ,  5-C ) :   1.2195 B(  4-C ,  6-C ) :  -0.1746 B(  4-C , 15-H ) :   0.6834
B(  4-C , 16-H ) :   0.7210 B(  5-C ,  6-C ) :   1.3370 B(  5-C , 13-H ) :   0.1799
B(  5-C , 14-H ) :   0.1463 B(  5-C , 15-H ) :   0.1463 B(  5-C , 16-H ) :   0.1799
B(  5-C , 17-H ) :   0.5004 B(  5-C , 18-H ) :   0.1675 B(  5-C , 19-H ) :   0.1675
B(  5-C , 20-H ) :   0.1122 B(  6-C , 18-H ) :   0.7742 B(  6-C , 19-H ) :   0.7742
B(  6-C , 20-H ) :   0.9047 B(  7-H ,  8-H ) :  -0.1477 B(  9-H , 10-H ) :  -0.1442
B( 11-H , 12-H ) :  -0.1442 B( 13-H , 14-H ) :  -0.1521 B( 15-H , 16-H ) :  -0.1521
B( 18-H , 19-H ) :  -0.1040

MP2 TOTAL ENERGY:     -274.312416966 Eh
FINAL SINGLE POINT ENERGY      -274.312416965986

DIPOLE MOMENT
-------------
                                X             Y             Z
Electronic contribution:      0.05002      -1.30492       0.00000
Nuclear contribution   :     -0.02722       1.26490      -0.00000
                        -----------------------------------------
Total Dipole Moment    :      0.02281      -0.04002       0.00000
                        -----------------------------------------
Magnitude (a.u.)       :      0.04606
Magnitude (Debye)      :      0.11709

Rotational constants in cm-1:     0.140196     0.072707     0.052768
Rotational constants in MHz :  4202.975826  2179.697574  1581.951856

                             ****ORCA TERMINATED NORMALLY****
TOTAL RUN TIME: 0 days 0 hours 1 minutes 16 seconds 221 msec
