                         Program Version 5.0.3 -  RELEASE  -
|  1> !ri-mp2 aug-cc-pvdz aug-cc-pvdz/c tightscf
|  2> %pal nprocs 16 end
|  3>
|  4> * xyz 0 1
|  5> C     -0.005439    0.742948    1.206807
|  6> C     -0.005439    0.742948   -1.206807
|  7> C     -0.005439   -0.778359    1.177882
|  8> C     -0.005439   -0.778359   -1.177882
|  9> N      0.657361    1.234334    0.000000
| 10> O     -0.635671   -1.270842    0.000000
| 11> H     -1.046564    1.092682    1.289352
| 12> H      0.540160    1.092900    2.084922
| 13> H      0.540160    1.092900   -2.084922
| 14> H     -1.046564    1.092682   -1.289352
| 15> H      1.027148   -1.146672    1.227425
| 16> H     -0.566071   -1.185206    2.018469
| 17> H     -0.566071   -1.185206   -2.018469
| 18> H      1.027148   -1.146672   -1.227425
| 19> H      0.705027    2.243917    0.000000
| 20> *
| 21>
| 22>                          ****END OF INPUT****

CARTESIAN COORDINATES (ANGSTROEM)
---------------------------------
  C     -0.005439    0.742948    1.206807
  C     -0.005439    0.742948   -1.206807
  C     -0.005439   -0.778359    1.177882
  C     -0.005439   -0.778359   -1.177882
  N      0.657361    1.234334    0.000000
  O     -0.635671   -1.270842    0.000000
  H     -1.046564    1.092682    1.289352
  H      0.540160    1.092900    2.084922
  H      0.540160    1.092900   -2.084922
  H     -1.046564    1.092682   -1.289352
  H      1.027148   -1.146672    1.227425
  H     -0.566071   -1.185206    2.018469
  H     -0.566071   -1.185206   -2.018469
  H      1.027148   -1.146672   -1.227425
  H      0.705027    2.243917    0.000000

 Total Charge           Charge          ....    0
 Multiplicity           Mult            ....    1
 Number of Electrons    NEL             ....   48
 Basis Dimension        Dim             ....  219

ORBITAL ENERGIES
----------------

  NO   OCC          E(Eh)            E(eV)
   0   2.0000     -20.560318      -559.4747
   1   2.0000     -15.553849      -423.2418
   2   2.0000     -11.275109      -306.8113
   3   2.0000     -11.275089      -306.8108
   4   2.0000     -11.254796      -306.2586
   5   2.0000     -11.254780      -306.2581
   6   2.0000      -1.373885       -37.3853
   7   2.0000      -1.208209       -32.8770
   8   2.0000      -1.035770       -28.1847
   9   2.0000      -0.929957       -25.3054
  10   2.0000      -0.873896       -23.7799
  11   2.0000      -0.777866       -21.1668
  12   2.0000      -0.704016       -19.1572
  13   2.0000      -0.638943       -17.3865
  14   2.0000      -0.637845       -17.3566
  15   2.0000      -0.604781       -16.4569
  16   2.0000      -0.601702       -16.3732
  17   2.0000      -0.584894       -15.9158
  18   2.0000      -0.543602       -14.7922
  19   2.0000      -0.500106       -13.6086
  20   2.0000      -0.491247       -13.3675
  21   2.0000      -0.454938       -12.3795
  22   2.0000      -0.415473       -11.3056
  23   2.0000      -0.370802       -10.0900
  24   0.0000       0.035119         0.9556
  25   0.0000       0.044530         1.2117
  26   0.0000       0.047767         1.2998
  27   0.0000       0.049752         1.3538
  28   0.0000       0.064112         1.7446

MULLIKEN ATOMIC CHARGES
-----------------------
   0 C :    0.654362
   1 C :    0.654362
   2 C :    0.805460
   3 C :    0.805460
   4 N :   -0.643775
   5 O :   -0.925350
   6 H :   -0.125803
   7 H :   -0.177152
   8 H :   -0.177152
   9 H :   -0.125803
  10 H :   -0.079769
  11 H :   -0.239908
  12 H :   -0.239908
  13 H :   -0.079769
  14 H :   -0.105257
Sum of atomic charges:   -0.0000000

LOEWDIN ATOMIC CHARGES
----------------------
   0 C :   -0.038969
   1 C :   -0.038969
   2 C :   -0.021256
   3 C :   -0.021256
   4 N :    0.030608
   5 O :   -0.001902
   6 H :    0.017530
   7 H :    0.015573
   8 H :    0.015573
   9 H :    0.017530
  10 H :    0.014976
  11 H :    0.008453
  12 H :    0.008453
  13 H :    0.014976
  14 H :   -0.021322

  Mayer bond orders larger than 0.100000
B(  0-C ,  2-C ) :   1.2430 B(  0-C ,  4-N ) :   0.9345 B(  0-C ,  6-H ) :   0.8358
B(  0-C ,  7-H ) :   0.9003 B(  1-C ,  3-C ) :   1.2430 B(  1-C ,  4-N ) :   0.9345
B(  1-C ,  8-H ) :   0.9003 B(  1-C ,  9-H ) :   0.8358 B(  2-C ,  5-O ) :   0.6293
B(  2-C , 10-H ) :   0.8713 B(  2-C , 11-H ) :   0.9760 B(  3-C ,  5-O ) :   0.6293
B(  3-C , 12-H ) :   0.9760 B(  3-C , 13-H ) :   0.8713 B(  4-N , 14-H ) :   1.1102
B(  6-H ,  7-H ) :  -0.1202 B(  8-H ,  9-H ) :  -0.1202 B( 10-H , 11-H ) :  -0.1342
B( 12-H , 13-H ) :  -0.1342

MP2 TOTAL ENERGY:     -286.994870069 Eh
FINAL SINGLE POINT ENERGY      -286.994870069451

DIPOLE MOMENT
-------------
                                X             Y             Z
Electronic contribution:     -0.53241      -1.36759       0.00000
Nuclear contribution   :      0.62933       2.00586       0.00000
                        -----------------------------------------
Total Dipole Moment    :      0.09692       0.63827       0.00000
                        -----------------------------------------
Magnitude (a.u.)       :      0.64559
Magnitude (Debye)      :      1.64096

Rotational constants in cm-1:     0.163475     0.154787     0.089125
Rotational constants in MHz :  4900.866611  4640.407030  2671.896327

                             ****ORCA TERMINATED NORMALLY****
TOTAL RUN TIME: 0 days 0 hours 0 minutes 56 seconds 58 msec
