                         Program Version 5.0.3 -  RELEASE  -
|  1> !ri-mp2 aug-cc-pvdz aug-cc-pvdz/c tightscf
|  2> %pal nprocs 16 end
|  3>
|  4> * xyz 0 1
|  5> C     -1.374452    0.901229    0.000000
|  6> C     -1.354402    2.251618    0.000000
|  7> C      0.741286    1.626446    0.000000
|  8> C      0.000000    0.483904    0.000000
|  9> C      0.566044   -0.870351    0.000000
| 10> C      0.057679   -3.174642    0.000000
| 11> O      1.747782   -1.126769    0.000000
| 12> O     -0.063377    2.708616    0.000000
| 13> O     -0.400911   -1.813271    0.000000
| 14> H     -2.241521    0.265834    0.000000
| 15> H     -2.117954    3.007351    0.000000
| 16> H      1.801169    1.802830    0.000000
| 17> H      0.656818   -3.374632    0.886389
| 18> H      0.656818   -3.374632   -0.886389
| 19> H     -0.840215   -3.784584    0.000000
| 20> *
| 21>
| 22>                          ****END OF INPUT****

CARTESIAN COORDINATES (ANGSTROEM)
---------------------------------
  C     -1.374452    0.901229    0.000000
  C     -1.354402    2.251618    0.000000
  C      0.741286    1.626446    0.000000
  C      0.000000    0.483904    0.000000
  C      0.566044   -0.870351    0.000000
  C      0.057679   -3.174642    0.000000
  O      1.747782   -1.126769    0.000000
  O     -0.063377    2.708616    0.000000
  O     -0.400911   -1.813271    0.000000
  H     -2.241521    0.265834    0.000000
  H     -2.117954    3.007351    0.000000
  H      1.801169    1.802830    0.000000
  H      0.656818   -3.374632    0.886389
  H      0.656818   -3.374632   -0.886389
  H     -0.840215   -3.784584    0.000000

 Total Charge           Charge          ....    0
 Multiplicity           Mult            ....    1
 Number of Electrons    NEL             ....   66
 Basis Dimension        Dim             ....  261

ORBITAL ENERGIES
----------------

  NO   OCC          E(Eh)            E(eV)
   0   2.0000     -20.652801      -561.9913
   1   2.0000     -20.616196      -560.9952
   2   2.0000     -20.554297      -559.3108
   3   2.0000     -11.396777      -310.1221
   4   2.0000     -11.322907      -308.1120
   5   2.0000     -11.306857      -307.6752
   6   2.0000     -11.294956      -307.3514
   7   2.0000     -11.254369      -306.2469
   8   2.0000     -11.251925      -306.1804
   9   2.0000      -1.484741       -40.4018
  10   2.0000      -1.466060       -39.8935
  11   2.0000      -1.364593       -37.1325
  12   2.0000      -1.117777       -30.4163
  13   2.0000      -1.034007       -28.1368
  14   2.0000      -0.985391       -26.8139
  15   2.0000      -0.867694       -23.6112
  16   2.0000      -0.811178       -22.0733
  17   2.0000      -0.779062       -21.1994
  18   2.0000      -0.756147       -20.5758
  19   2.0000      -0.680179       -18.5086
  20   2.0000      -0.675516       -18.3817
  21   2.0000      -0.666256       -18.1297
  22   2.0000      -0.650437       -17.6993
  23   2.0000      -0.622749       -16.9459
  24   2.0000      -0.592552       -16.1242
  25   2.0000      -0.584963       -15.9177
  26   2.0000      -0.556806       -15.1515
  27   2.0000      -0.555034       -15.1032
  28   2.0000      -0.532538       -14.4911
  29   2.0000      -0.465966       -12.6796
  30   2.0000      -0.456965       -12.4346
  31   2.0000      -0.413048       -11.2396
  32   2.0000      -0.337037        -9.1713
  33   0.0000       0.032593         0.8869
  34   0.0000       0.038811         1.0561
  35   0.0000       0.046996         1.2788
  36   0.0000       0.055121         1.4999
  37   0.0000       0.062735         1.7071

MULLIKEN ATOMIC CHARGES
-----------------------
   0 C :    0.262313
   1 C :    0.772957
   2 C :    0.714390
   3 C :    0.593240
   4 C :    0.893528
   5 C :    0.816897
   6 O :   -0.774058
   7 O :   -0.863053
   8 O :   -0.852480
   9 H :   -0.483927
  10 H :   -0.305985
  11 H :   -0.421519
  12 H :   -0.049679
  13 H :   -0.049679
  14 H :   -0.252945
Sum of atomic charges:    0.0000000

LOEWDIN ATOMIC CHARGES
----------------------
   0 C :    0.046802
   1 C :    0.027929
   2 C :    0.100325
   3 C :   -0.161921
   4 C :   -0.323803
   5 C :    0.182520
   6 O :    0.046715
   7 O :    0.082318
   8 O :    0.050334
   9 H :    0.002150
  10 H :   -0.007616
  11 H :    0.015672
  12 H :   -0.017837
  13 H :   -0.017837
  14 H :   -0.025752

  Mayer bond orders larger than 0.100000
B(  0-C ,  1-C ) :   1.6687 B(  0-C ,  2-C ) :  -0.2238 B(  0-C ,  3-C ) :   1.4728
B(  0-C ,  4-C ) :  -0.1954 B(  0-C ,  7-O ) :   0.1691 B(  0-C ,  9-H ) :   0.4273
B(  0-C , 10-H ) :  -0.1432 B(  1-C ,  7-O ) :   0.4703 B(  1-C , 10-H ) :   0.8926
B(  2-C ,  3-C ) :   1.2518 B(  2-C ,  4-C ) :   0.1990 B(  2-C ,  7-O ) :   0.5597
B(  2-C , 11-H ) :   0.8988 B(  3-C ,  4-C ) :   0.5607 B(  3-C ,  7-O ) :   0.1604
B(  3-C ,  8-O ) :   0.1990 B(  3-C ,  9-H ) :   0.2977 B(  3-C , 10-H ) :   0.1433
B(  3-C , 11-H ) :  -0.1602 B(  4-C ,  6-O ) :   1.4489 B(  4-C ,  8-O ) :   0.3129
B(  5-C ,  8-O ) :   0.5875 B(  5-C , 12-H ) :   0.9879 B(  5-C , 13-H ) :   0.9879
B(  5-C , 14-H ) :   1.0018

MP2 TOTAL ENERGY:     -456.724933043 Eh
FINAL SINGLE POINT ENERGY      -456.724933042912

DIPOLE MOMENT
-------------
                                X             Y             Z
Electronic contribution:      1.15892       5.26040       0.00000
Nuclear contribution   :     -2.02932      -5.36802       0.00000
                        -----------------------------------------
Total Dipole Moment    :     -0.87040      -0.10761       0.00000
                        -----------------------------------------
Magnitude (a.u.)       :      0.87703
Magnitude (Debye)      :      2.22923

Rotational constants in cm-1:     0.155651     0.034313     0.028264
Rotational constants in MHz :  4666.303108  1028.671435   847.341450

                             ****ORCA TERMINATED NORMALLY****
TOTAL RUN TIME: 0 days 0 hours 1 minutes 32 seconds 756 msec
