                         Program Version 5.0.3 -  RELEASE  -
|  1> !ri-mp2 aug-cc-pvdz aug-cc-pvdz/c tightscf
|  2> %pal nprocs 16 end
|  3>
|  4> * xyz 0 1
|  5> C     0.000000     0.000000    1.631581
|  6> C     0.000000     0.000000    0.315547
|  7> H     0.000000     0.924656    2.195166
|  8> H     0.000000    -0.924656    2.195166
|  9> C     0.000000     0.769087   -0.928764
| 10> C     0.000000    -0.769087   -0.928764
| 11> H     0.910119     1.272300   -1.231981
| 12> H    -0.910119     1.272300   -1.231981
| 13> H    -0.910119    -1.272300   -1.231981
| 14> H     0.910119    -1.272300   -1.231981
| 15> *
| 16>
| 17>                          ****END OF INPUT****

CARTESIAN COORDINATES (ANGSTROEM)
---------------------------------
  C      0.000000    0.000000    1.631581
  C      0.000000    0.000000    0.315547
  H      0.000000    0.924656    2.195166
  H      0.000000   -0.924656    2.195166
  C      0.000000    0.769087   -0.928764
  C      0.000000   -0.769087   -0.928764
  H      0.910119    1.272300   -1.231981
  H     -0.910119    1.272300   -1.231981
  H     -0.910119   -1.272300   -1.231981
  H      0.910119   -1.272300   -1.231981

 Total Charge           Charge          ....    0
 Multiplicity           Mult            ....    1
 Number of Electrons    NEL             ....   30
 Basis Dimension        Dim             ....  146

ORBITAL ENERGIES
----------------

  NO   OCC          E(Eh)            E(eV)
   0   2.0000     -11.249956      -306.1269
   1   2.0000     -11.240411      -305.8671
   2   2.0000     -11.239876      -305.8526
   3   2.0000     -11.229350      -305.5662
   4   2.0000      -1.154819       -31.4242
   5   2.0000      -0.978186       -26.6178
   6   2.0000      -0.836004       -22.7488
   7   2.0000      -0.729782       -19.8584
   8   2.0000      -0.646967       -17.6049
   9   2.0000      -0.639596       -17.4043
  10   2.0000      -0.596516       -16.2320
  11   2.0000      -0.522192       -14.2096
  12   2.0000      -0.436607       -11.8807
  13   2.0000      -0.423263       -11.5176
  14   2.0000      -0.362215        -9.8564
  15   0.0000       0.038171         1.0387
  16   0.0000       0.046583         1.2676
  17   0.0000       0.048272         1.3135
  18   0.0000       0.049784         1.3547
  19   0.0000       0.067107         1.8261

MULLIKEN ATOMIC CHARGES
-----------------------
   0 C :    0.578746
   1 C :   -0.471434
   2 H :   -0.269737
   3 H :   -0.269737
   4 C :    0.599516
   5 C :    0.599516
   6 H :   -0.191718
   7 H :   -0.191718
   8 H :   -0.191718
   9 H :   -0.191718
Sum of atomic charges:   -0.0000000

LOEWDIN ATOMIC CHARGES
----------------------
   0 C :    0.201907
   1 C :   -0.267287
   2 H :   -0.042252
   3 H :   -0.042252
   4 C :    0.077599
   5 C :    0.077599
   6 H :   -0.001328
   7 H :   -0.001328
   8 H :   -0.001328
   9 H :   -0.001328

  Mayer bond orders larger than 0.100000
B(  0-C ,  1-C ) :   2.0412 B(  0-C ,  2-H ) :   0.7173 B(  0-C ,  3-H ) :   0.7173
B(  1-C ,  2-H ) :   0.1702 B(  1-C ,  3-H ) :   0.1702 B(  1-C ,  4-C ) :   0.9709
B(  1-C ,  5-C ) :   0.9709 B(  2-H ,  3-H ) :  -0.1741 B(  4-C ,  5-C ) :   1.1564
B(  4-C ,  6-H ) :   0.7713 B(  4-C ,  7-H ) :   0.7713 B(  5-C ,  8-H ) :   0.7713
B(  5-C ,  9-H ) :   0.7713 B(  6-H ,  7-H ) :  -0.1811 B(  8-H ,  9-H ) :  -0.1811

MP2 TOTAL ENERGY:     -155.463224034 Eh
FINAL SINGLE POINT ENERGY      -155.463224034424

DIPOLE MOMENT
-------------
                                X             Y             Z
Electronic contribution:      0.00000      -0.00000       0.36963
Nuclear contribution   :      0.00000       0.00000      -0.55996
                        -----------------------------------------
Total Dipole Moment    :      0.00000      -0.00000      -0.19033
                        -----------------------------------------
Magnitude (a.u.)       :      0.19033
Magnitude (Debye)      :      0.48378

Rotational constants in cm-1:     0.653420     0.230737     0.182878
Rotational constants in MHz : 19589.029761  6917.310248  5482.547746

                             ****ORCA TERMINATED NORMALLY****
TOTAL RUN TIME: 0 days 0 hours 0 minutes 56 seconds 505 msec
