                         Program Version 5.0.3 -  RELEASE  -
|  1> !ri-mp2 aug-cc-pvdz aug-cc-pvdz/c tightscf
|  2> %pal nprocs 16 end
|  3>
|  4> * xyz 0 1
|  5> C     -0.006539    1.816315    0.000770
|  6> C     -1.206885    1.122732    0.003227
|  7> C      1.203615    1.128282   -0.003363
|  8> C      0.003201   -0.944349   -0.003037
|  9> C     -1.217101   -0.275020    0.000767
| 10> C      1.224038   -0.263414   -0.004087
| 11> C     -2.520205   -1.031510   -0.000034
| 12> C      2.523101   -1.026861    0.003313
| 13> H     -0.009355    2.898503    0.000809
| 14> H     -2.143779    1.666030    0.005352
| 15> H      2.135935    1.678679   -0.006919
| 16> H      0.006865   -2.028704   -0.006327
| 17> H     -2.355320   -2.108183    0.003671
| 18> H     -3.122522   -0.782103    0.875925
| 19> H     -3.118135   -0.787666   -0.880617
| 20> H      2.555129   -1.763345   -0.801592
| 21> H      3.375896   -0.360048   -0.117283
| 22> H      2.655935   -1.570209    0.941651
| 23> *
| 24>
| 25>                          ****END OF INPUT****

CARTESIAN COORDINATES (ANGSTROEM)
---------------------------------
  C     -0.006539    1.816315    0.000770
  C     -1.206885    1.122732    0.003227
  C      1.203615    1.128282   -0.003363
  C      0.003201   -0.944349   -0.003037
  C     -1.217101   -0.275020    0.000767
  C      1.224038   -0.263414   -0.004087
  C     -2.520205   -1.031510   -0.000034
  C      2.523101   -1.026861    0.003313
  H     -0.009355    2.898503    0.000809
  H     -2.143779    1.666030    0.005352
  H      2.135935    1.678679   -0.006919
  H      0.006865   -2.028704   -0.006327
  H     -2.355320   -2.108183    0.003671
  H     -3.122522   -0.782103    0.875925
  H     -3.118135   -0.787666   -0.880617
  H      2.555129   -1.763345   -0.801592
  H      3.375896   -0.360048   -0.117283
  H      2.655935   -1.570209    0.941651

 Total Charge           Charge          ....    0
 Multiplicity           Mult            ....    1
 Number of Electrons    NEL             ....   58
 Basis Dimension        Dim             ....  274

ORBITAL ENERGIES
----------------

  NO   OCC          E(Eh)            E(eV)
   0   2.0000     -11.243076      -305.9397
   1   2.0000     -11.242650      -305.9281
   2   2.0000     -11.235371      -305.7300
   3   2.0000     -11.228223      -305.5355
   4   2.0000     -11.228097      -305.5320
   5   2.0000     -11.226968      -305.5013
   6   2.0000     -11.226843      -305.4979
   7   2.0000     -11.226293      -305.4830
   8   2.0000      -1.156777       -31.4775
   9   2.0000      -1.057200       -28.7679
  10   2.0000      -1.028970       -27.9997
  11   2.0000      -0.939975       -25.5780
  12   2.0000      -0.926762       -25.2185
  13   2.0000      -0.814399       -22.1609
  14   2.0000      -0.781195       -21.2574
  15   2.0000      -0.682338       -18.5674
  16   2.0000      -0.643217       -17.5028
  17   2.0000      -0.616770       -16.7832
  18   2.0000      -0.578877       -15.7521
  19   2.0000      -0.568684       -15.4747
  20   2.0000      -0.566498       -15.4152
  21   2.0000      -0.560012       -15.2387
  22   2.0000      -0.549807       -14.9610
  23   2.0000      -0.525002       -14.2860
  24   2.0000      -0.479546       -13.0491
  25   2.0000      -0.478497       -13.0206
  26   2.0000      -0.475300       -12.9336
  27   2.0000      -0.326572        -8.8865
  28   2.0000      -0.317023        -8.6266
  29   0.0000       0.035938         0.9779
  30   0.0000       0.040328         1.0974
  31   0.0000       0.041576         1.1313
  32   0.0000       0.054823         1.4918
  33   0.0000       0.056394         1.5346

MULLIKEN ATOMIC CHARGES
-----------------------
   0 C :   -0.066740
   1 C :    0.530972
   2 C :    0.678400
   3 C :    0.459326
   4 C :   -0.081604
   5 C :   -0.010742
   6 C :    0.453256
   7 C :    0.324820
   8 H :   -0.463584
   9 H :   -0.602246
  10 H :   -0.580930
  11 H :   -0.633309
  12 H :   -0.207504
  13 H :    0.107698
  14 H :    0.110886
  15 H :    0.063107
  16 H :   -0.191673
  17 H :    0.109868
Sum of atomic charges:   -0.0000000

LOEWDIN ATOMIC CHARGES
----------------------
   0 C :    0.009623
   1 C :    0.034113
   2 C :    0.032474
   3 C :    0.067715
   4 C :   -0.215783
   5 C :   -0.215536
   6 C :    0.173381
   7 C :    0.173290
   8 H :    0.000194
   9 H :    0.004229
  10 H :   -0.000258
  11 H :    0.007945
  12 H :   -0.017600
  13 H :   -0.009052
  14 H :   -0.008898
  15 H :   -0.010449
  16 H :   -0.017300
  17 H :   -0.008088

  Mayer bond orders larger than 0.100000
B(  0-C ,  1-C ) :   2.1060 B(  0-C ,  2-C ) :   1.5917 B(  0-C ,  3-C ) :   0.1764
B(  0-C ,  4-C ) :  -0.2790 B(  0-C ,  5-C ) :  -0.3344 B(  0-C ,  7-C ) :   0.4505
B(  0-C ,  8-H ) :   0.2186 B(  0-C ,  9-H ) :   0.2376 B(  0-C , 10-H ) :   0.2403
B(  1-C ,  2-C ) :   0.3379 B(  1-C ,  3-C ) :  -0.5089 B(  1-C ,  4-C ) :   1.2545
B(  1-C ,  6-C ) :  -0.5640 B(  1-C ,  8-H ) :   0.3037 B(  2-C ,  3-C ) :  -0.5693
B(  2-C ,  4-C ) :   0.1946 B(  2-C ,  5-C ) :   1.8931 B(  2-C ,  7-C ) :  -0.4399
B(  2-C ,  8-H ) :   0.2453 B(  2-C , 10-H ) :  -0.1566 B(  2-C , 16-H ) :  -0.1405
B(  3-C ,  4-C ) :   2.2161 B(  3-C ,  5-C ) :   1.2792 B(  3-C ,  6-C ) :  -0.3842
B(  3-C ,  7-C ) :  -0.6665 B(  3-C , 12-H ) :  -0.1666 B(  4-C ,  6-C ) :   1.5748
B(  4-C ,  8-H ) :  -0.1041 B(  4-C ,  9-H ) :   0.3743 B(  4-C , 11-H ) :   0.4608
B(  4-C , 12-H ) :   0.4846 B(  4-C , 13-H ) :   0.1322 B(  4-C , 14-H ) :   0.1320
B(  5-C ,  6-C ) :   0.1578 B(  5-C ,  7-C ) :   1.4446 B(  5-C , 10-H ) :   0.3699
B(  5-C , 11-H ) :   0.1758 B(  5-C , 15-H ) :   0.2428 B(  5-C , 16-H ) :   0.4576
B(  5-C , 17-H ) :   0.2174 B(  6-C ,  7-C ) :   0.1448 B(  6-C ,  9-H ) :   0.1633
B(  6-C , 12-H ) :   0.5171 B(  6-C , 13-H ) :   0.8686 B(  6-C , 14-H ) :   0.8696
B(  7-C , 10-H ) :   0.1018 B(  7-C , 11-H ) :   0.1149 B(  7-C , 15-H ) :   0.8502
B(  7-C , 16-H ) :   0.6062 B(  7-C , 17-H ) :   0.8913

MP2 TOTAL ENERGY:     -309.922556395 Eh
FINAL SINGLE POINT ENERGY      -309.922556395002

DIPOLE MOMENT
-------------
                                X             Y             Z
Electronic contribution:      0.00603       3.08827      -0.01107
Nuclear contribution   :     -0.01985      -3.23913       0.01505
                        -----------------------------------------
Total Dipole Moment    :     -0.01382      -0.15086       0.00398
                        -----------------------------------------
Magnitude (a.u.)       :      0.15154
Magnitude (Debye)      :      0.38518

Rotational constants in cm-1:     0.119814     0.058907     0.040075
Rotational constants in MHz :  3591.922440  1765.975691  1201.419058

                             ****ORCA TERMINATED NORMALLY****
TOTAL RUN TIME: 0 days 0 hours 1 minutes 14 seconds 414 msec
