                         Program Version 5.0.3 -  RELEASE  -
|  1> !ri-mp2 aug-cc-pvdz aug-cc-pvdz/c tightscf
|  2> %pal nprocs 16 end
|  3>
|  4> * xyz 0 1
|  5> C      0.284009   -0.759507    0.000000
|  6> C     -0.302823    1.638533    0.742121
|  7> C     -0.302823    1.638533   -0.742121
|  8> C     -0.688018    0.369102    0.000000
|  9> C     -0.302823   -2.152697    0.000000
| 10> O      1.484030   -0.570889    0.000000
| 11> H      0.655236    1.614399    1.240617
| 12> H     -1.093428    2.156153    1.265732
| 13> H     -1.093428    2.156153   -1.265732
| 14> H      0.655236    1.614399   -1.240617
| 15> H     -1.734635    0.099083    0.000000
| 16> H     -0.938808   -2.291274    0.877339
| 17> H     -0.938808   -2.291274   -0.877339
| 18> H      0.491252   -2.894317    0.000000
| 19> *
| 20>
| 21>                          ****END OF INPUT****

CARTESIAN COORDINATES (ANGSTROEM)
---------------------------------
  C      0.284009   -0.759507    0.000000
  C     -0.302823    1.638533    0.742121
  C     -0.302823    1.638533   -0.742121
  C     -0.688018    0.369102    0.000000
  C     -0.302823   -2.152697    0.000000
  O      1.484030   -0.570889    0.000000
  H      0.655236    1.614399    1.240617
  H     -1.093428    2.156153    1.265732
  H     -1.093428    2.156153   -1.265732
  H      0.655236    1.614399   -1.240617
  H     -1.734635    0.099083    0.000000
  H     -0.938808   -2.291274    0.877339
  H     -0.938808   -2.291274   -0.877339
  H      0.491252   -2.894317    0.000000

 Total Charge           Charge          ....    0
 Multiplicity           Mult            ....    1
 Number of Electrons    NEL             ....   46
 Basis Dimension        Dim             ....  210

ORBITAL ENERGIES
----------------

  NO   OCC          E(Eh)            E(eV)
   0   2.0000     -20.547387      -559.1228
   1   2.0000     -11.336364      -308.4782
   2   2.0000     -11.247272      -306.0538
   3   2.0000     -11.245354      -306.0016
   4   2.0000     -11.244722      -305.9844
   5   2.0000     -11.239623      -305.8457
   6   2.0000      -1.385728       -37.7076
   7   2.0000      -1.156565       -31.4717
   8   2.0000      -1.018457       -27.7136
   9   2.0000      -0.879462       -23.9314
  10   2.0000      -0.832644       -22.6574
  11   2.0000      -0.734516       -19.9872
  12   2.0000      -0.688681       -18.7400
  13   2.0000      -0.655475       -17.8364
  14   2.0000      -0.606781       -16.5114
  15   2.0000      -0.600472       -16.3397
  16   2.0000      -0.575635       -15.6638
  17   2.0000      -0.543598       -14.7921
  18   2.0000      -0.530499       -14.4356
  19   2.0000      -0.499629       -13.5956
  20   2.0000      -0.449136       -12.2216
  21   2.0000      -0.417049       -11.3485
  22   2.0000      -0.406103       -11.0506
  23   0.0000       0.032027         0.8715
  24   0.0000       0.041950         1.1415
  25   0.0000       0.045803         1.2464
  26   0.0000       0.051580         1.4036
  27   0.0000       0.064380         1.7519

MULLIKEN ATOMIC CHARGES
-----------------------
   0 C :   -0.209035
   1 C :    0.750767
   2 C :    0.750767
   3 C :    0.897042
   4 C :    0.374229
   5 O :   -0.817609
   6 H :   -0.316964
   7 H :   -0.348383
   8 H :   -0.348383
   9 H :   -0.316964
  10 H :   -0.487644
  11 H :    0.082103
  12 H :    0.082103
  13 H :   -0.092030
Sum of atomic charges:   -0.0000000

LOEWDIN ATOMIC CHARGES
----------------------
   0 C :   -0.296651
   1 C :    0.077594
   2 C :    0.077594
   3 C :   -0.111000
   4 C :    0.196959
   5 O :    0.040391
   6 H :    0.005911
   7 H :    0.001142
   8 H :    0.001142
   9 H :    0.005911
  10 H :    0.021814
  11 H :   -0.005815
  12 H :   -0.005815
  13 H :   -0.009175

  Mayer bond orders larger than 0.100000
B(  0-C ,  3-C ) :   0.8748 B(  0-C ,  4-C ) :   1.1324 B(  0-C ,  5-O ) :   1.4285
B(  0-C , 10-H ) :   0.2803 B(  0-C , 13-H ) :   0.1666 B(  1-C ,  2-C ) :   1.0993
B(  1-C ,  3-C ) :   0.8509 B(  1-C ,  6-H ) :   0.8004 B(  1-C ,  7-H ) :   0.7614
B(  2-C ,  3-C ) :   0.8509 B(  2-C ,  8-H ) :   0.7614 B(  2-C ,  9-H ) :   0.8004
B(  3-C , 10-H ) :   0.3791 B(  4-C , 11-H ) :   0.9477 B(  4-C , 12-H ) :   0.9477
B(  4-C , 13-H ) :   0.8166 B(  6-H ,  7-H ) :  -0.1516 B(  8-H ,  9-H ) :  -0.1516

MP2 TOTAL ENERGY:     -269.770368755 Eh
FINAL SINGLE POINT ENERGY      -269.770368754722

DIPOLE MOMENT
-------------
                                X             Y             Z
Electronic contribution:      2.79377      -0.16173      -0.00000
Nuclear contribution   :     -4.08139       0.15849      -0.00000
                        -----------------------------------------
Total Dipole Moment    :     -1.28761      -0.00324      -0.00000
                        -----------------------------------------
Magnitude (a.u.)       :      1.28762
Magnitude (Debye)      :      3.27287

Rotational constants in cm-1:     0.241054     0.087241     0.076301
Rotational constants in MHz :  7226.631877  2615.414379  2287.455152

                             ****ORCA TERMINATED NORMALLY****
TOTAL RUN TIME: 0 days 0 hours 0 minutes 57 seconds 944 msec
