                         Program Version 5.0.3 -  RELEASE  -
|  1> !ri-mp2 aug-cc-pvdz aug-cc-pvdz/c tightscf
|  2> %pal nprocs 16 end
|  3>
|  4> * xyz 0 1
|  5> C      1.860208   -1.388426    0.000000
|  6> N      1.300486   -0.046394    0.000000
|  7> C      0.000000    0.288733    0.000000
|  8> S     -0.535187    1.859700    0.000000
|  9> S     -1.092712   -1.125087    0.000000
| 10> H      1.555773   -1.946049    0.887371
| 11> H      1.555773   -1.946049   -0.887371
| 12> H      2.943735   -1.305923    0.000000
| 13> H      1.930390    0.739868    0.000000
| 14> H     -2.203937   -0.372747    0.000000
| 15> *
| 16>
| 17>                          ****END OF INPUT****

CARTESIAN COORDINATES (ANGSTROEM)
---------------------------------
  C      1.860208   -1.388426    0.000000
  N      1.300486   -0.046394    0.000000
  C      0.000000    0.288733    0.000000
  S     -0.535187    1.859700    0.000000
  S     -1.092712   -1.125087    0.000000
  H      1.555773   -1.946049    0.887371
  H      1.555773   -1.946049   -0.887371
  H      2.943735   -1.305923    0.000000
  H      1.930390    0.739868    0.000000
  H     -2.203937   -0.372747    0.000000

 Total Charge           Charge          ....    0
 Multiplicity           Mult            ....    1
 Number of Electrons    NEL             ....   56
 Basis Dimension        Dim             ....  168

ORBITAL ENERGIES
----------------

  NO   OCC          E(Eh)            E(eV)
   0   2.0000     -91.995511     -2503.3251
   1   2.0000     -91.907620     -2500.9335
   2   2.0000     -15.630889      -425.3381
   3   2.0000     -11.388209      -309.8889
   4   2.0000     -11.298933      -307.4596
   5   2.0000      -8.998226      -244.8542
   6   2.0000      -8.911262      -242.4878
   7   2.0000      -6.680208      -181.7777
   8   2.0000      -6.678781      -181.7389
   9   2.0000      -6.676791      -181.6847
  10   2.0000      -6.593703      -179.4238
  11   2.0000      -6.590640      -179.3404
  12   2.0000      -6.589768      -179.3167
  13   2.0000      -1.301383       -35.4124
  14   2.0000      -1.075363       -29.2621
  15   2.0000      -0.995426       -27.0869
  16   2.0000      -0.930328       -25.3155
  17   2.0000      -0.812169       -22.1002
  18   2.0000      -0.682498       -18.5717
  19   2.0000      -0.647792       -17.6273
  20   2.0000      -0.628783       -17.1101
  21   2.0000      -0.579958       -15.7815
  22   2.0000      -0.557359       -15.1665
  23   2.0000      -0.518950       -14.1214
  24   2.0000      -0.487981       -13.2786
  25   2.0000      -0.403100       -10.9689
  26   2.0000      -0.330867        -9.0033
  27   2.0000      -0.329457        -8.9650
  28   0.0000       0.026838         0.7303
  29   0.0000       0.044666         1.2154
  30   0.0000       0.051583         1.4037
  31   0.0000       0.055592         1.5127
  32   0.0000       0.066613         1.8126

MULLIKEN ATOMIC CHARGES
-----------------------
   0 C :    0.742106
   1 N :   -0.451178
   2 C :   -0.181607
   3 S :   -0.087605
   4 S :    0.179704
   5 H :   -0.039719
   6 H :   -0.039719
   7 H :   -0.225125
   8 H :   -0.075297
   9 H :    0.178439
Sum of atomic charges:   -0.0000000

LOEWDIN ATOMIC CHARGES
----------------------
   0 C :    0.138995
   1 N :   -0.078822
   2 C :   -1.032331
   3 S :    0.444003
   4 S :    0.784831
   5 H :   -0.019274
   6 H :   -0.019274
   7 H :   -0.011243
   8 H :   -0.004827
   9 H :   -0.202058

  Mayer bond orders larger than 0.100000
B(  0-C ,  1-N ) :   0.8062 B(  0-C ,  4-S ) :   0.1054 B(  0-C ,  5-H ) :   0.9417
B(  0-C ,  6-H ) :   0.9417 B(  0-C ,  7-H ) :   1.0146 B(  1-N ,  2-C ) :   1.2412
B(  1-N ,  8-H ) :   1.1784 B(  2-C ,  3-S ) :   1.7077 B(  2-C ,  4-S ) :   1.1801
B(  2-C ,  8-H ) :  -0.1345 B(  4-S ,  9-H ) :   0.9085

MP2 TOTAL ENERGY:     -928.923709878 Eh
FINAL SINGLE POINT ENERGY      -928.923709877612

DIPOLE MOMENT
-------------
                                X             Y             Z
Electronic contribution:     -4.69421       3.36732       0.00000
Nuclear contribution   :      5.72972      -4.76251       0.00000
                        -----------------------------------------
Total Dipole Moment    :      1.03551      -1.39519       0.00000
                        -----------------------------------------
Magnitude (a.u.)       :      1.73748
Magnitude (Debye)      :      4.41632

Rotational constants in cm-1:     0.139378     0.083302     0.052657
Rotational constants in MHz :  4178.442708  2497.320255  1578.605208

                             ****ORCA TERMINATED NORMALLY****
TOTAL RUN TIME: 0 days 0 hours 0 minutes 52 seconds 93 msec
