                         Program Version 5.0.3 -  RELEASE  -
|  1> !ri-mp2 aug-cc-pvdz aug-cc-pvdz/c tightscf
|  2> %pal nprocs 16 end
|  3>
|  4> * xyz 0 1
|  5> C     -0.018703    0.623324    0.000000
|  6> C     -0.018703   -1.537398    1.260653
|  7> C     -2.067621   -0.796408    0.000000
|  8> C     -0.018703   -1.537398   -1.260653
|  9> C      1.913511    1.985730    0.000000
| 10> C     -0.535531   -0.817672    0.000000
| 11> O     -0.704653    1.615360    0.000000
| 12> O      1.331529    0.672656    0.000000
| 13> H     -0.353319   -1.032473    2.168179
| 14> H     -0.406978   -2.556799    1.283172
| 15> H      1.068644   -1.583922    1.275217
| 16> H     -2.456671   -0.283818    0.878679
| 17> H     -2.447056   -1.819081    0.000000
| 18> H     -2.456671   -0.283818   -0.878679
| 19> H      1.068644   -1.583922   -1.275217
| 20> H     -0.406978   -2.556799   -1.283172
| 21> H     -0.353319   -1.032473   -2.168179
| 22> H      1.607640    2.539254    0.885978
| 23> H      1.607640    2.539254   -0.885978
| 24> H      2.987917    1.829400    0.000000
| 25> *
| 26>
| 27>                          ****END OF INPUT****

CARTESIAN COORDINATES (ANGSTROEM)
---------------------------------
  C     -0.018703    0.623324    0.000000
  C     -0.018703   -1.537398    1.260653
  C     -2.067621   -0.796408    0.000000
  C     -0.018703   -1.537398   -1.260653
  C      1.913511    1.985730    0.000000
  C     -0.535531   -0.817672    0.000000
  O     -0.704653    1.615360    0.000000
  O      1.331529    0.672656    0.000000
  H     -0.353319   -1.032473    2.168179
  H     -0.406978   -2.556799    1.283172
  H      1.068644   -1.583922    1.275217
  H     -2.456671   -0.283818    0.878679
  H     -2.447056   -1.819081    0.000000
  H     -2.456671   -0.283818   -0.878679
  H      1.068644   -1.583922   -1.275217
  H     -0.406978   -2.556799   -1.283172
  H     -0.353319   -1.032473   -2.168179
  H      1.607640    2.539254    0.885978
  H      1.607640    2.539254   -0.885978
  H      2.987917    1.829400    0.000000

 Total Charge           Charge          ....    0
 Multiplicity           Mult            ....    1
 Number of Electrons    NEL             ....   64
 Basis Dimension        Dim             ....  292

ORBITAL ENERGIES
----------------

  NO   OCC          E(Eh)            E(eV)
   0   2.0000     -20.608296      -560.7802
   1   2.0000     -20.551851      -559.2443
   2   2.0000     -11.379613      -309.6550
   3   2.0000     -11.291068      -307.2456
   4   2.0000     -11.258962      -306.3719
   5   2.0000     -11.228633      -305.5466
   6   2.0000     -11.228616      -305.5462
   7   2.0000     -11.218856      -305.2806
   8   2.0000      -1.460658       -39.7465
   9   2.0000      -1.359399       -36.9911
  10   2.0000      -1.112212       -30.2648
  11   2.0000      -0.976799       -26.5800
  12   2.0000      -0.943377       -25.6706
  13   2.0000      -0.935905       -25.4673
  14   2.0000      -0.838942       -22.8288
  15   2.0000      -0.753131       -20.4937
  16   2.0000      -0.679946       -18.5023
  17   2.0000      -0.676042       -18.3960
  18   2.0000      -0.669375       -18.2146
  19   2.0000      -0.611129       -16.6297
  20   2.0000      -0.605521       -16.4771
  21   2.0000      -0.592445       -16.1212
  22   2.0000      -0.557472       -15.1696
  23   2.0000      -0.551830       -15.0161
  24   2.0000      -0.533304       -14.5119
  25   2.0000      -0.529110       -14.3978
  26   2.0000      -0.518299       -14.1036
  27   2.0000      -0.510905       -13.9024
  28   2.0000      -0.473101       -12.8737
  29   2.0000      -0.471480       -12.8296
  30   2.0000      -0.458682       -12.4814
  31   2.0000      -0.431786       -11.7495
  32   0.0000       0.034684         0.9438
  33   0.0000       0.040985         1.1153
  34   0.0000       0.046710         1.2710
  35   0.0000       0.049054         1.3348
  36   0.0000       0.061386         1.6704

MULLIKEN ATOMIC CHARGES
-----------------------
   0 C :    0.951986
   1 C :    1.150071
   2 C :    1.272668
   3 C :    1.150071
   4 C :    0.875525
   5 C :   -3.088510
   6 O :   -0.723050
   7 O :   -0.867773
   8 H :   -0.044015
   9 H :   -0.033959
  10 H :   -0.027403
  11 H :   -0.031250
  12 H :   -0.020376
  13 H :   -0.031250
  14 H :   -0.027403
  15 H :   -0.033959
  16 H :   -0.044015
  17 H :   -0.078362
  18 H :   -0.078362
  19 H :   -0.270633
Sum of atomic charges:    0.0000000

LOEWDIN ATOMIC CHARGES
----------------------
   0 C :   -0.291407
   1 C :    0.188135
   2 C :    0.176987
   3 C :    0.188135
   4 C :    0.181291
   5 C :   -0.444858
   6 O :    0.063325
   7 O :    0.051848
   8 H :   -0.002923
   9 H :   -0.005361
  10 H :   -0.009718
  11 H :   -0.004034
  12 H :   -0.007450
  13 H :   -0.004034
  14 H :   -0.009718
  15 H :   -0.005361
  16 H :   -0.002923
  17 H :   -0.018261
  18 H :   -0.018261
  19 H :   -0.025412

  Mayer bond orders larger than 0.100000
B(  0-C ,  5-C ) :   0.3500 B(  0-C ,  6-O ) :   1.4702 B(  0-C ,  7-O ) :   0.8011
B(  1-C ,  2-C ) :  -0.1134 B(  1-C ,  3-C ) :  -0.1708 B(  1-C ,  5-C ) :   1.3801
B(  1-C ,  8-H ) :   0.7757 B(  1-C ,  9-H ) :   0.7232 B(  1-C , 10-H ) :   0.7690
B(  2-C ,  3-C ) :  -0.1134 B(  2-C ,  5-C ) :   1.2308 B(  2-C , 11-H ) :   0.7583
B(  2-C , 12-H ) :   0.7028 B(  2-C , 13-H ) :   0.7583 B(  3-C ,  5-C ) :   1.3801
B(  3-C , 14-H ) :   0.7690 B(  3-C , 15-H ) :   0.7232 B(  3-C , 16-H ) :   0.7757
B(  4-C ,  7-O ) :   0.6149 B(  4-C , 17-H ) :   0.9564 B(  4-C , 18-H ) :   0.9564
B(  4-C , 19-H ) :   1.0241 B(  5-C ,  7-O ) :  -0.2894 B(  5-C ,  8-H ) :   0.1253
B(  5-C ,  9-H ) :   0.2207 B(  5-C , 10-H ) :   0.1246 B(  5-C , 11-H ) :   0.1588
B(  5-C , 12-H ) :   0.2304 B(  5-C , 13-H ) :   0.1588 B(  5-C , 14-H ) :   0.1246
B(  5-C , 15-H ) :   0.2207 B(  5-C , 16-H ) :   0.1253 B(  8-H ,  9-H ) :  -0.1020
B(  8-H , 10-H ) :  -0.1039 B(  9-H , 10-H ) :  -0.1026 B( 11-H , 12-H ) :  -0.1080
B( 11-H , 13-H ) :  -0.1018 B( 12-H , 13-H ) :  -0.1080 B( 14-H , 15-H ) :  -0.1026
B( 14-H , 16-H ) :  -0.1039 B( 15-H , 16-H ) :  -0.1020

MP2 TOTAL ENERGY:     -385.262381522 Eh
FINAL SINGLE POINT ENERGY      -385.262381522420

DIPOLE MOMENT
-------------
                                X             Y             Z
Electronic contribution:      1.15649       5.46786       0.00000
Nuclear contribution   :     -0.54906      -5.99031       0.00000
                        -----------------------------------------
Total Dipole Moment    :      0.60743      -0.52244       0.00000
                        -----------------------------------------
Magnitude (a.u.)       :      0.80120
Magnitude (Debye)      :      2.03648

Rotational constants in cm-1:     0.105175     0.049830     0.043923
Rotational constants in MHz :  3153.062150  1493.867096  1316.767004

                             ****ORCA TERMINATED NORMALLY****
TOTAL RUN TIME: 0 days 0 hours 1 minutes 41 seconds 234 msec
