                         Program Version 5.0.3 -  RELEASE  -
|  1> !ri-mp2 aug-cc-pvdz aug-cc-pvdz/c tightscf
|  2> %pal nprocs 16 end
|  3>
|  4> * xyz 0 1
|  5> C     -0.048962    0.706625        0.000000
|  6> N     -0.048962   -0.757428        0.000000
|  7> H      0.945026    1.171177        0.000000
|  8> H     -0.587216    1.065175        0.877567
|  9> H     -0.587216    1.065175       -0.877567
| 10> H      0.432957   -1.119643        0.812861
| 11> H      0.432957   -1.119643       -0.812861
| 12> *
| 13>
| 14>                          ****END OF INPUT****

CARTESIAN COORDINATES (ANGSTROEM)
---------------------------------
  C     -0.048962    0.706625    0.000000
  N     -0.048962   -0.757428    0.000000
  H      0.945026    1.171177    0.000000
  H     -0.587216    1.065175    0.877567
  H     -0.587216    1.065175   -0.877567
  H      0.432957   -1.119643    0.812861
  H      0.432957   -1.119643   -0.812861

 Total Charge           Charge          ....    0
 Multiplicity           Mult            ....    1
 Number of Electrons    NEL             ....   18
 Basis Dimension        Dim             ....   91

ORBITAL ENERGIES
----------------

  NO   OCC          E(Eh)            E(eV)
   0   2.0000     -15.547727      -423.0752
   1   2.0000     -11.248961      -306.0998
   2   2.0000      -1.170375       -31.8475
   3   2.0000      -0.896943       -24.4071
   4   2.0000      -0.662384       -18.0244
   5   2.0000      -0.602195       -16.3866
   6   2.0000      -0.556927       -15.1548
   7   2.0000      -0.516811       -14.0632
   8   2.0000      -0.388580       -10.5738
   9   0.0000       0.035915         0.9773
  10   0.0000       0.051420         1.3992
  11   0.0000       0.053727         1.4620
  12   0.0000       0.061184         1.6649
  13   0.0000       0.083080         2.2607

MULLIKEN ATOMIC CHARGES
-----------------------
   0 C :    0.775085
   1 N :   -0.383882
   2 H :   -0.100042
   3 H :   -0.136734
   4 H :   -0.136734
   5 H :   -0.008846
   6 H :   -0.008846
Sum of atomic charges:    0.0000000

LOEWDIN ATOMIC CHARGES
----------------------
   0 C :    0.084373
   1 N :    0.137559
   2 H :   -0.033647
   3 H :   -0.030641
   4 H :   -0.030641
   5 H :   -0.063501
   6 H :   -0.063501

  Mayer bond orders larger than 0.100000
B(  0-C ,  1-N ) :   0.8405 B(  0-C ,  2-H ) :   0.9223 B(  0-C ,  3-H ) :   0.9930
B(  0-C ,  4-H ) :   0.9930 B(  1-N ,  5-H ) :   1.0657 B(  1-N ,  6-H ) :   1.0657

MP2 TOTAL ENERGY:      -95.573245596 Eh
FINAL SINGLE POINT ENERGY       -95.573245595546

DIPOLE MOMENT
-------------
                                X             Y             Z
Electronic contribution:     -0.17563      -0.99587      -0.00000
Nuclear contribution   :      0.69250       1.15137       0.00000
                        -----------------------------------------
Total Dipole Moment    :      0.51687       0.15549      -0.00000
                        -----------------------------------------
Magnitude (a.u.)       :      0.53975
Magnitude (Debye)      :      1.37193

Rotational constants in cm-1:     3.477185     0.758754     0.728547
Rotational constants in MHz : 104243.391778 22746.878696 21841.295162

                             ****ORCA TERMINATED NORMALLY****
TOTAL RUN TIME: 0 days 0 hours 0 minutes 33 seconds 54 msec
