                         Program Version 5.0.3 -  RELEASE  -
|  1> !ri-mp2 aug-cc-pvdz aug-cc-pvdz/c tightscf
|  2> %pal nprocs 16 end
|  3>
|  4> * xyz 0 1
|  5> C      0.000000    0.000000    0.529544
|  6> O      0.000000    1.174198   -0.247524
|  7> O      0.000000   -1.174198   -0.247524
|  8> H     -0.891011   -0.071326    1.155757
|  9> H      0.891011    0.071326    1.155757
| 10> H     -0.812903    1.199741   -0.764202
| 11> H      0.812903   -1.199741   -0.764202
| 12> *
| 13>
| 14>                          ****END OF INPUT****

CARTESIAN COORDINATES (ANGSTROEM)
---------------------------------
  C      0.000000    0.000000    0.529544
  O      0.000000    1.174198   -0.247524
  O      0.000000   -1.174198   -0.247524
  H     -0.891011   -0.071326    1.155757
  H      0.891011    0.071326    1.155757
  H     -0.812903    1.199741   -0.764202
  H      0.812903   -1.199741   -0.764202

 Total Charge           Charge          ....    0
 Multiplicity           Mult            ....    1
 Number of Electrons    NEL             ....   26
 Basis Dimension        Dim             ....  105

ORBITAL ENERGIES
----------------

  NO   OCC          E(Eh)            E(eV)
   0   2.0000     -20.580745      -560.0305
   1   2.0000     -20.580726      -560.0300
   2   2.0000     -11.342721      -308.6511
   3   2.0000      -1.415000       -38.5041
   4   2.0000      -1.341530       -36.5049
   5   2.0000      -0.918594       -24.9962
   6   2.0000      -0.753176       -20.4950
   7   2.0000      -0.660241       -17.9661
   8   2.0000      -0.644952       -17.5500
   9   2.0000      -0.617181       -16.7944
  10   2.0000      -0.502802       -13.6819
  11   2.0000      -0.498275       -13.5587
  12   2.0000      -0.468793       -12.7565
  13   0.0000       0.035869         0.9760
  14   0.0000       0.048386         1.3166
  15   0.0000       0.051963         1.4140
  16   0.0000       0.067457         1.8356
  17   0.0000       0.110995         3.0203

MULLIKEN ATOMIC CHARGES
-----------------------
   0 C :    1.347233
   1 O :   -0.620232
   2 O :   -0.620232
   3 H :   -0.175288
   4 H :   -0.175288
   5 H :    0.121903
   6 H :    0.121903
Sum of atomic charges:    0.0000000

LOEWDIN ATOMIC CHARGES
----------------------
   0 C :   -0.080223
   1 O :    0.104321
   2 O :    0.104321
   3 H :   -0.006647
   4 H :   -0.006647
   5 H :   -0.057563
   6 H :   -0.057563

  Mayer bond orders larger than 0.100000
B(  0-C ,  1-O ) :   0.6186 B(  0-C ,  2-O ) :   0.6186 B(  0-C ,  3-H ) :   0.9752
B(  0-C ,  4-H ) :   0.9752 B(  1-O ,  5-H ) :   1.0643 B(  2-O ,  6-H ) :   1.0643

MP2 TOTAL ENERGY:     -190.499609995 Eh
FINAL SINGLE POINT ENERGY      -190.499609995273

DIPOLE MOMENT
-------------
                                X             Y             Z
Electronic contribution:     -0.00000       0.00000      -0.79042
Nuclear contribution   :      0.00000       0.00000       0.78804
                        -----------------------------------------
Total Dipole Moment    :     -0.00000       0.00000      -0.00238
                        -----------------------------------------
Magnitude (a.u.)       :      0.00238
Magnitude (Debye)      :      0.00606

Rotational constants in cm-1:     1.399825     0.337411     0.299468
Rotational constants in MHz : 41965.703848 10115.338944  8977.830851

                             ****ORCA TERMINATED NORMALLY****
TOTAL RUN TIME: 0 days 0 hours 0 minutes 36 seconds 963 msec
