                         Program Version 5.0.3 -  RELEASE  -
|  1> !ri-mp2 aug-cc-pvdz aug-cc-pvdz/c tightscf
|  2> %pal nprocs 16 end
|  3>
|  4> * xyz 0 1
|  5> N      0.000000    0.723823    0.000000
|  6> N     -0.513023    1.731413    0.000000
|  7> N      0.675733   -0.298488    0.000000
|  8> C     -0.069885   -1.567760    0.000000
|  9> H      0.668896   -2.362474    0.000000
| 10> H     -0.694278   -1.664099    0.890793
| 11> H     -0.694278   -1.664099   -0.890793
| 12> *
| 13>
| 14>                          ****END OF INPUT****

CARTESIAN COORDINATES (ANGSTROEM)
---------------------------------
  N      0.000000    0.723823    0.000000
  N     -0.513023    1.731413    0.000000
  N      0.675733   -0.298488    0.000000
  C     -0.069885   -1.567760    0.000000
  H      0.668896   -2.362474    0.000000
  H     -0.694278   -1.664099    0.890793
  H     -0.694278   -1.664099   -0.890793

 Total Charge           Charge          ....    0
 Multiplicity           Mult            ....    1
 Number of Electrons    NEL             ....   30
 Basis Dimension        Dim             ....  119

ORBITAL ENERGIES
----------------

  NO   OCC          E(Eh)            E(eV)
   0   2.0000     -15.791615      -429.7117
   1   2.0000     -15.674521      -426.5254
   2   2.0000     -15.615658      -424.9237
   3   2.0000     -11.286796      -307.1293
   4   2.0000      -1.511501       -41.1300
   5   2.0000      -1.298318       -35.3290
   6   2.0000      -1.000316       -27.2200
   7   2.0000      -0.739199       -20.1146
   8   2.0000      -0.709713       -19.3123
   9   2.0000      -0.706019       -19.2118
  10   2.0000      -0.666692       -18.1416
  11   2.0000      -0.593721       -16.1560
  12   2.0000      -0.575802       -15.6684
  13   2.0000      -0.440595       -11.9892
  14   2.0000      -0.377624       -10.2757
  15   0.0000       0.033886         0.9221
  16   0.0000       0.054818         1.4917
  17   0.0000       0.055575         1.5123
  18   0.0000       0.076881         2.0920
  19   0.0000       0.107030         2.9124

MULLIKEN ATOMIC CHARGES
-----------------------
   0 N :    0.455311
   1 N :   -0.327662
   2 N :   -0.681033
   3 C :    0.784111
   4 H :   -0.158810
   5 H :   -0.035959
   6 H :   -0.035959
Sum of atomic charges:   -0.0000000

LOEWDIN ATOMIC CHARGES
----------------------
   0 N :   -0.302629
   1 N :    0.242477
   2 N :    0.007778
   3 C :    0.131470
   4 H :   -0.029258
   5 H :   -0.024919
   6 H :   -0.024919

  Mayer bond orders larger than 0.100000
B(  0-N ,  1-N ) :   1.7655 B(  0-N ,  2-N ) :   1.1755 B(  1-N ,  2-N ) :   0.2335
B(  2-N ,  3-C ) :   0.7184 B(  3-C ,  4-H ) :   0.9912 B(  3-C ,  5-H ) :   0.9469
B(  3-C ,  6-H ) :   0.9469

MP2 TOTAL ENERGY:     -203.568317140 Eh
FINAL SINGLE POINT ENERGY      -203.568317139500

DIPOLE MOMENT
-------------
                                X             Y             Z
Electronic contribution:      0.33790       4.85437       0.00000
Nuclear contribution   :     -0.70971      -5.60698       0.00000
                        -----------------------------------------
Total Dipole Moment    :     -0.37181      -0.75261       0.00000
                        -----------------------------------------
Magnitude (a.u.)       :      0.83944
Magnitude (Debye)      :      2.13369

Rotational constants in cm-1:     1.534572     0.178354     0.164781
Rotational constants in MHz : 46005.303092  5346.932212  4940.004015

                             ****ORCA TERMINATED NORMALLY****
TOTAL RUN TIME: 0 days 0 hours 0 minutes 40 seconds 248 msec
