                         Program Version 5.0.3 -  RELEASE  -
|  1> !ri-mp2 aug-cc-pvdz aug-cc-pvdz/c tightscf
|  2> %pal nprocs 16 end
|  3>
|  4> * xyz 0 1
|  5> C     -1.176124   -0.240930   -0.001430
|  6> N      0.026647    0.569467   -0.122671
|  7> N      1.244597   -0.148622    0.053689
|  8> H      1.130779   -0.914669    0.717137
|  9> H      1.508519   -0.549814   -0.837623
| 10> H     -1.242751   -0.927801   -0.846695
| 11> H     -1.212149   -0.834846    0.925321
| 12> H     -2.049950    0.411665   -0.026287
| 13> H      0.023585    1.315124    0.559605
| 14> *
| 15>
| 16>                          ****END OF INPUT****

CARTESIAN COORDINATES (ANGSTROEM)
---------------------------------
  C     -1.176124   -0.240930   -0.001430
  N      0.026647    0.569467   -0.122671
  N      1.244597   -0.148622    0.053689
  H      1.130779   -0.914669    0.717137
  H      1.508519   -0.549814   -0.837623
  H     -1.242751   -0.927801   -0.846695
  H     -1.212149   -0.834846    0.925321
  H     -2.049950    0.411665   -0.026287
  H      0.023585    1.315124    0.559605

 Total Charge           Charge          ....    0
 Multiplicity           Mult            ....    1
 Number of Electrons    NEL             ....   26
 Basis Dimension        Dim             ....  123

ORBITAL ENERGIES
----------------

  NO   OCC          E(Eh)            E(eV)
   0   2.0000     -15.578109      -423.9019
   1   2.0000     -15.575806      -423.8392
   2   2.0000     -11.254408      -306.2480
   3   2.0000      -1.272368       -34.6229
   4   2.0000      -1.050369       -28.5820
   5   2.0000      -0.890509       -24.2320
   6   2.0000      -0.682210       -18.5639
   7   2.0000      -0.646386       -17.5891
   8   2.0000      -0.623235       -16.9591
   9   2.0000      -0.567150       -15.4329
  10   2.0000      -0.529807       -14.4168
  11   2.0000      -0.408692       -11.1211
  12   2.0000      -0.384368       -10.4592
  13   0.0000       0.035264         0.9596
  14   0.0000       0.048318         1.3148
  15   0.0000       0.053677         1.4606
  16   0.0000       0.058061         1.5799
  17   0.0000       0.077064         2.0970

MULLIKEN ATOMIC CHARGES
-----------------------
   0 C :    0.822981
   1 N :   -0.394357
   2 N :   -0.143694
   3 H :    0.007786
   4 H :    0.072596
   5 H :   -0.136863
   6 H :   -0.093788
   7 H :   -0.181450
   8 H :    0.046788
Sum of atomic charges:   -0.0000000

LOEWDIN ATOMIC CHARGES
----------------------
   0 C :    0.113896
   1 N :   -0.041919
   2 N :    0.159815
   3 H :   -0.062708
   4 H :   -0.059227
   5 H :   -0.023961
   6 H :   -0.025712
   7 H :   -0.021856
   8 H :   -0.038328

  Mayer bond orders larger than 0.100000
B(  0-C ,  1-N ) :   0.8271 B(  0-C ,  5-H ) :   0.9761 B(  0-C ,  6-H ) :   0.9121
B(  0-C ,  7-H ) :   1.0014 B(  1-N ,  2-N ) :   0.9133 B(  1-N ,  8-H ) :   1.0475
B(  2-N ,  3-H ) :   1.0683 B(  2-N ,  4-H ) :   1.0127 B(  2-N ,  8-H ) :  -0.1072

MP2 TOTAL ENERGY:     -150.751939705 Eh
FINAL SINGLE POINT ENERGY      -150.751939705208

DIPOLE MOMENT
-------------
                                X             Y             Z
Electronic contribution:      1.50416       1.08145      -0.25954
Nuclear contribution   :     -1.94428      -1.58750       0.52044
                        -----------------------------------------
Total Dipole Moment    :     -0.44011      -0.50605       0.26090
                        -----------------------------------------
Magnitude (a.u.)       :      0.71962
Magnitude (Debye)      :      1.82913

Rotational constants in cm-1:     1.248982     0.321439     0.284346
Rotational constants in MHz : 37443.539027  9636.513005  8524.491498

                             ****ORCA TERMINATED NORMALLY****
TOTAL RUN TIME: 0 days 0 hours 0 minutes 41 seconds 888 msec
