                         Program Version 5.0.3 -  RELEASE  -
|  1> !ri-mp2 aug-cc-pvdz aug-cc-pvdz/c tightscf
|  2> %pal nprocs 16 end
|  3>
|  4> * xyz 0 1
|  5> C      0.056004    0.583317       0.000000
|  6> N      0.056004   -0.680483       0.000000
|  7> H     -0.843040    1.205928       0.000000
|  8> H      1.009028    1.110493       0.000000
|  9> H     -0.894042   -1.052940       0.000000
| 10> *
| 11>
| 12>                          ****END OF INPUT****

CARTESIAN COORDINATES (ANGSTROEM)
---------------------------------
  C      0.056004    0.583317    0.000000
  N      0.056004   -0.680483    0.000000
  H     -0.843040    1.205928    0.000000
  H      1.009028    1.110493    0.000000
  H     -0.894042   -1.052940    0.000000

 Total Charge           Charge          ....    0
 Multiplicity           Mult            ....    1
 Number of Electrons    NEL             ....   16
 Basis Dimension        Dim             ....   73

ORBITAL ENERGIES
----------------

  NO   OCC          E(Eh)            E(eV)
   0   2.0000     -15.574402      -423.8010
   1   2.0000     -11.293206      -307.3038
   2   2.0000      -1.215666       -33.0800
   3   2.0000      -0.845876       -23.0175
   4   2.0000      -0.687236       -18.7006
   5   2.0000      -0.606707       -16.5093
   6   2.0000      -0.452506       -12.3133
   7   2.0000      -0.429922       -11.6988
   8   0.0000       0.034518         0.9393
   9   0.0000       0.049873         1.3571
  10   0.0000       0.058148         1.5823
  11   0.0000       0.086405         2.3512
  12   0.0000       0.112553         3.0627

MULLIKEN ATOMIC CHARGES
-----------------------
   0 C :    0.641690
   1 N :   -0.398371
   2 H :   -0.116659
   3 H :   -0.171936
   4 H :    0.045276
Sum of atomic charges:   -0.0000000

LOEWDIN ATOMIC CHARGES
----------------------
   0 C :    0.074337
   1 N :    0.093747
   2 H :   -0.033192
   3 H :   -0.041969
   4 H :   -0.092922

  Mayer bond orders larger than 0.100000
B(  0-C ,  1-N ) :   1.8691 B(  0-C ,  2-H ) :   0.9003 B(  0-C ,  3-H ) :   1.0055
B(  1-N ,  4-H ) :   0.9807 B(  2-H ,  3-H ) :  -0.1246

MP2 TOTAL ENERGY:      -94.361847462 Eh
FINAL SINGLE POINT ENERGY       -94.361847462058

DIPOLE MOMENT
-------------
                                X             Y             Z
Electronic contribution:      0.18643      -0.63449      -0.00000
Nuclear contribution   :     -0.75296       1.30317       0.00000
                        -----------------------------------------
Total Dipole Moment    :     -0.56653       0.66867      -0.00000
                        -----------------------------------------
Magnitude (a.u.)       :      0.87640
Magnitude (Debye)      :      2.22764

Rotational constants in cm-1:     6.645702     1.168981     0.994115
Rotational constants in MHz : 199233.123545 35045.156770 29802.831227

                             ****ORCA TERMINATED NORMALLY****
TOTAL RUN TIME: 0 days 0 hours 0 minutes 43 seconds 461 msec
