                         Program Version 5.0.3 -  RELEASE  -
|  1> !ri-mp2 aug-cc-pvdz aug-cc-pvdz/c tightscf
|  2> %pal nprocs 16 end
|  3>
|  4> * xyz 0 1
|  5> C      0.000000    0.466246    0.000000
|  6> C     -0.565797    2.760319    0.000000
|  7> C     -0.633002   -0.915121    0.000000
|  8> O      1.170077    0.724321    0.000000
|  9> O     -0.987371    1.382600    0.000000
| 10> Cl     0.569257   -2.233268    0.000000
| 11> H      0.026696    2.973494    0.887304
| 12> H     -1.480710    3.343662    0.000000
| 13> H      0.026696    2.973494   -0.887304
| 14> H     -1.259449   -1.024561   -0.881342
| 15> H     -1.259449   -1.024561    0.881342
| 16> *
| 17>
| 18>                          ****END OF INPUT****

CARTESIAN COORDINATES (ANGSTROEM)
---------------------------------
  C      0.000000    0.466246    0.000000
  C     -0.565797    2.760319    0.000000
  C     -0.633002   -0.915121    0.000000
  O      1.170077    0.724321    0.000000
  O     -0.987371    1.382600    0.000000
  Cl     0.569257   -2.233268    0.000000
  H      0.026696    2.973494    0.887304
  H     -1.480710    3.343662    0.000000
  H      0.026696    2.973494   -0.887304
  H     -1.259449   -1.024561   -0.881342
  H     -1.259449   -1.024561    0.881342

 Total Charge           Charge          ....    0
 Multiplicity           Mult            ....    1
 Number of Electrons    NEL             ....   56
 Basis Dimension        Dim             ....  187

ORBITAL ENERGIES
----------------

  NO   OCC          E(Eh)            E(eV)
   0   2.0000    -104.834534     -2852.6927
   1   2.0000     -20.629228      -561.3498
   2   2.0000     -20.573403      -559.8308
   3   2.0000     -11.408933      -310.4529
   4   2.0000     -11.325274      -308.1764
   5   2.0000     -11.305867      -307.6483
   6   2.0000     -10.560395      -287.3630
   7   2.0000      -8.028154      -218.4572
   8   2.0000      -8.024735      -218.3641
   9   2.0000      -8.024724      -218.3639
  10   2.0000      -1.482435       -40.3391
  11   2.0000      -1.383820       -37.6557
  12   2.0000      -1.150128       -31.2966
  13   2.0000      -1.020132       -27.7592
  14   2.0000      -0.936240       -25.4764
  15   2.0000      -0.791176       -21.5290
  16   2.0000      -0.724281       -19.7087
  17   2.0000      -0.698689       -19.0123
  18   2.0000      -0.690210       -18.7816
  19   2.0000      -0.638754       -17.3814
  20   2.0000      -0.613039       -16.6816
  21   2.0000      -0.556975       -15.1561
  22   2.0000      -0.551421       -15.0049
  23   2.0000      -0.544955       -14.8290
  24   2.0000      -0.479042       -13.0354
  25   2.0000      -0.472339       -12.8530
  26   2.0000      -0.446441       -12.1483
  27   2.0000      -0.444664       -12.0999
  28   0.0000       0.030431         0.8281
  29   0.0000       0.044257         1.2043
  30   0.0000       0.049577         1.3491
  31   0.0000       0.055402         1.5076
  32   0.0000       0.067799         1.8449

MULLIKEN ATOMIC CHARGES
-----------------------
   0 C :    0.946388
   1 C :    0.835688
   2 C :   -0.260766
   3 O :   -0.636943
   4 O :   -0.813774
   5 Cl:   -0.012024
   6 H :   -0.055174
   7 H :   -0.239359
   8 H :   -0.055174
   9 H :    0.145570
  10 H :    0.145570
Sum of atomic charges:    0.0000000

LOEWDIN ATOMIC CHARGES
----------------------
   0 C :   -0.400929
   1 C :    0.189712
   2 C :   -0.276262
   3 O :    0.050321
   4 O :    0.041652
   5 Cl:    0.499975
   6 H :   -0.017567
   7 H :   -0.025046
   8 H :   -0.017567
   9 H :   -0.022145
  10 H :   -0.022145

  Mayer bond orders larger than 0.100000
B(  0-C ,  2-C ) :   0.9719 B(  0-C ,  3-O ) :   1.6262 B(  0-C ,  4-O ) :   0.7050
B(  0-C ,  5-Cl) :  -0.1492 B(  1-C ,  4-O ) :   0.5769 B(  1-C ,  6-H ) :   0.9688
B(  1-C ,  7-H ) :   1.0370 B(  1-C ,  8-H ) :   0.9688 B(  2-C ,  5-Cl) :   1.2466
B(  2-C ,  9-H ) :   0.9020 B(  2-C , 10-H ) :   0.9020

MP2 TOTAL ENERGY:     -726.748107931 Eh
FINAL SINGLE POINT ENERGY      -726.748107931114

DIPOLE MOMENT
-------------
                                X             Y             Z
Electronic contribution:      3.39030      -9.36678       0.00000
Nuclear contribution   :     -4.61080      10.14640       0.00000
                        -----------------------------------------
Total Dipole Moment    :     -1.22050       0.77962       0.00000
                        -----------------------------------------
Magnitude (a.u.)       :      1.44825
Magnitude (Debye)      :      3.68115

Rotational constants in cm-1:     0.329383     0.045787     0.040813
Rotational constants in MHz :  9874.644410  1372.661064  1223.536428

                             ****ORCA TERMINATED NORMALLY****
TOTAL RUN TIME: 0 days 0 hours 0 minutes 47 seconds 619 msec
