                         Program Version 5.0.3 -  RELEASE  -
|  1> !ri-mp2 aug-cc-pvdz aug-cc-pvdz/c tightscf
|  2> %pal nprocs 16 end
|  3>
|  4> * xyz 0 1
|  5> C      0.233750   -0.388334    1.091648
|  6> C      0.233750   -0.388334   -1.091648
|  7> C     -0.103047    0.613325    0.000000
|  8> C      0.233750   -1.499323    0.000000
|  9> C     -0.627950    1.827559    0.000000
| 10> H     -0.477778   -0.485850    1.911239
| 11> H     -0.477778   -0.485850   -1.911239
| 12> H      1.227026   -0.224070    1.515020
| 13> H      1.227026   -0.224070   -1.515020
| 14> H     -0.853925    2.345913    0.923515
| 15> H     -0.853925    2.345913   -0.923515
| 16> H      1.077726   -2.185964    0.000000
| 17> H     -0.689886   -2.075382    0.000000
| 18> *
| 19>
| 20>                          ****END OF INPUT****

CARTESIAN COORDINATES (ANGSTROEM)
---------------------------------
  C      0.233750   -0.388334    1.091648
  C      0.233750   -0.388334   -1.091648
  C     -0.103047    0.613325    0.000000
  C      0.233750   -1.499323    0.000000
  C     -0.627950    1.827559    0.000000
  H     -0.477778   -0.485850    1.911239
  H     -0.477778   -0.485850   -1.911239
  H      1.227026   -0.224070    1.515020
  H      1.227026   -0.224070   -1.515020
  H     -0.853925    2.345913    0.923515
  H     -0.853925    2.345913   -0.923515
  H      1.077726   -2.185964    0.000000
  H     -0.689886   -2.075382    0.000000

 Total Charge           Charge          ....    0
 Multiplicity           Mult            ....    1
 Number of Electrons    NEL             ....   38
 Basis Dimension        Dim             ....  187

ORBITAL ENERGIES
----------------

  NO   OCC          E(Eh)            E(eV)
   0   2.0000     -11.239731      -305.8486
   1   2.0000     -11.229861      -305.5800
   2   2.0000     -11.229615      -305.5734
   3   2.0000     -11.229076      -305.5587
   4   2.0000     -11.215359      -305.1854
   5   2.0000      -1.139073       -30.9958
   6   2.0000      -0.988785       -26.9062
   7   2.0000      -0.908658       -24.7258
   8   2.0000      -0.828570       -22.5465
   9   2.0000      -0.707365       -19.2484
  10   2.0000      -0.644194       -17.5294
  11   2.0000      -0.634754       -17.2725
  12   2.0000      -0.598588       -16.2884
  13   2.0000      -0.542330       -14.7576
  14   2.0000      -0.498088       -13.5537
  15   2.0000      -0.472960       -12.8699
  16   2.0000      -0.467901       -12.7322
  17   2.0000      -0.441773       -12.0213
  18   2.0000      -0.347101        -9.4451
  19   0.0000       0.038117         1.0372
  20   0.0000       0.045117         1.2277
  21   0.0000       0.048720         1.3257
  22   0.0000       0.049032         1.3342
  23   0.0000       0.065775         1.7898

MULLIKEN ATOMIC CHARGES
-----------------------
   0 C :    0.133474
   1 C :    0.133474
   2 C :   -0.237026
   3 C :    0.681822
   4 C :    0.969978
   5 H :   -0.212078
   6 H :   -0.212078
   7 H :   -0.075480
   8 H :   -0.075480
   9 H :   -0.332399
  10 H :   -0.332399
  11 H :   -0.253351
  12 H :   -0.188458
Sum of atomic charges:    0.0000000

LOEWDIN ATOMIC CHARGES
----------------------
   0 C :    0.042060
   1 C :    0.042060
   2 C :   -0.249398
   3 C :    0.027853
   4 C :    0.193639
   5 H :    0.005315
   6 H :    0.005315
   7 H :    0.010329
   8 H :    0.010329
   9 H :   -0.041875
  10 H :   -0.041875
  11 H :   -0.004856
  12 H :    0.001103

  Mayer bond orders larger than 0.100000
B(  0-C ,  2-C ) :   1.0584 B(  0-C ,  3-C ) :   1.1912 B(  0-C ,  5-H ) :   0.8287
B(  0-C ,  7-H ) :   0.7852 B(  1-C ,  2-C ) :   1.0584 B(  1-C ,  3-C ) :   1.1912
B(  1-C ,  6-H ) :   0.8287 B(  1-C ,  8-H ) :   0.7852 B(  2-C ,  3-C ) :  -0.1518
B(  2-C ,  4-C ) :   1.7449 B(  2-C ,  7-H ) :   0.1320 B(  2-C ,  8-H ) :   0.1320
B(  2-C ,  9-H ) :   0.2598 B(  2-C , 10-H ) :   0.2598 B(  3-C , 11-H ) :   0.7241
B(  3-C , 12-H ) :   0.7511 B(  4-C ,  9-H ) :   0.5493 B(  4-C , 10-H ) :   0.5493
B(  5-H ,  7-H ) :  -0.1316 B(  6-H ,  8-H ) :  -0.1316 B(  9-H , 10-H ) :  -0.1596
B( 11-H , 12-H ) :  -0.1456

MP2 TOTAL ENERGY:     -194.672078887 Eh
FINAL SINGLE POINT ENERGY      -194.672078887435

DIPOLE MOMENT
-------------
                                X             Y             Z
Electronic contribution:     -0.10581       0.79760       0.00000
Nuclear contribution   :      0.18699      -1.03653       0.00000
                        -----------------------------------------
Total Dipole Moment    :      0.08118      -0.23893       0.00000
                        -----------------------------------------
Magnitude (a.u.)       :      0.25235
Magnitude (Debye)      :      0.64142

Rotational constants in cm-1:     0.349076     0.153921     0.115539
Rotational constants in MHz : 10465.029066  4614.429823  3463.762590

                             ****ORCA TERMINATED NORMALLY****
TOTAL RUN TIME: 0 days 0 hours 0 minutes 53 seconds 740 msec
