                         Program Version 5.0.3 -  RELEASE  -
|  1> !ri-mp2 aug-cc-pvdz aug-cc-pvdz/c tightscf
|  2> %pal nprocs 16 end
|  3>
|  4> * xyz 0 1
|  5> C     -1.716415   -1.342580    0.000000
|  6> C      1.817500    0.896420    0.000000
|  7> C     -0.231871   -1.002452    0.000000
|  8> S      0.000000    0.813744    0.000000
|  9> H     -2.213283   -0.938659    0.882278
| 10> H     -2.213283   -0.938659   -0.882278
| 11> H     -1.855592   -2.424603    0.000000
| 12> H      2.231538    0.426391    0.891139
| 13> H      2.087879    1.950284    0.000000
| 14> H      2.231538    0.426391   -0.891139
| 15> H      0.257960   -1.414687   -0.883038
| 16> H      0.257960   -1.414687    0.883038
| 17> *
| 18>
| 19>                          ****END OF INPUT****

CARTESIAN COORDINATES (ANGSTROEM)
---------------------------------
  C     -1.716415   -1.342580    0.000000
  C      1.817500    0.896420    0.000000
  C     -0.231871   -1.002452    0.000000
  S      0.000000    0.813744    0.000000
  H     -2.213283   -0.938659    0.882278
  H     -2.213283   -0.938659   -0.882278
  H     -1.855592   -2.424603    0.000000
  H      2.231538    0.426391    0.891139
  H      2.087879    1.950284    0.000000
  H      2.231538    0.426391   -0.891139
  H      0.257960   -1.414687   -0.883038
  H      0.257960   -1.414687    0.883038

 Total Charge           Charge          ....    0
 Multiplicity           Mult            ....    1
 Number of Electrons    NEL             ....   42
 Basis Dimension        Dim             ....  168

ORBITAL ENERGIES
----------------

  NO   OCC          E(Eh)            E(eV)
   0   2.0000     -91.941544     -2501.8566
   1   2.0000     -11.261424      -306.4389
   2   2.0000     -11.256714      -306.3108
   3   2.0000     -11.229872      -305.5803
   4   2.0000      -8.943142      -243.3553
   5   2.0000      -6.625176      -180.2802
   6   2.0000      -6.623757      -180.2416
   7   2.0000      -6.621709      -180.1859
   8   2.0000      -1.076160       -29.2838
   9   2.0000      -0.998995       -27.1840
  10   2.0000      -0.878857       -23.9149
  11   2.0000      -0.791864       -21.5477
  12   2.0000      -0.628596       -17.1050
  13   2.0000      -0.596464       -16.2306
  14   2.0000      -0.583776       -15.8854
  15   2.0000      -0.579819       -15.7777
  16   2.0000      -0.528039       -14.3687
  17   2.0000      -0.505993       -13.7688
  18   2.0000      -0.472100       -12.8465
  19   2.0000      -0.425052       -11.5663
  20   2.0000      -0.333279        -9.0690
  21   0.0000       0.036519         0.9937
  22   0.0000       0.043011         1.1704
  23   0.0000       0.051794         1.4094
  24   0.0000       0.052548         1.4299
  25   0.0000       0.065990         1.7957

MULLIKEN ATOMIC CHARGES
-----------------------
   0 C :    0.380687
   1 C :    0.118870
   2 C :   -0.122922
   3 S :    0.304487
   4 H :   -0.059362
   5 H :   -0.059362
   6 H :   -0.051116
   7 H :   -0.078663
   8 H :   -0.104173
   9 H :   -0.078663
  10 H :   -0.124891
  11 H :   -0.124891
Sum of atomic charges:    0.0000000

LOEWDIN ATOMIC CHARGES
----------------------
   0 C :    0.063382
   1 C :   -0.144621
   2 C :   -0.336020
   3 S :    0.778930
   4 H :   -0.025734
   5 H :   -0.025734
   6 H :   -0.022924
   7 H :   -0.069902
   8 H :   -0.073560
   9 H :   -0.069902
  10 H :   -0.036957
  11 H :   -0.036957

  Mayer bond orders larger than 0.100000
B(  0-C ,  2-C ) :   1.2376 B(  0-C ,  4-H ) :   0.9571 B(  0-C ,  5-H ) :   0.9571
B(  0-C ,  6-H ) :   0.9095 B(  1-C ,  3-S ) :   1.0276 B(  1-C ,  7-H ) :   0.9933
B(  1-C ,  8-H ) :   1.0116 B(  1-C ,  9-H ) :   0.9933 B(  2-C ,  3-S ) :   1.1004
B(  2-C , 10-H ) :   0.9208 B(  2-C , 11-H ) :   0.9208

MP2 TOTAL ENERGY:     -516.404851848 Eh
FINAL SINGLE POINT ENERGY      -516.404851848007

DIPOLE MOMENT
-------------
                                X             Y             Z
Electronic contribution:     -0.37877       3.93519       0.00000
Nuclear contribution   :      0.81276      -4.50894       0.00000
                        -----------------------------------------
Total Dipole Moment    :      0.43399      -0.57375       0.00000
                        -----------------------------------------
Magnitude (a.u.)       :      0.71940
Magnitude (Debye)      :      1.82857

Rotational constants in cm-1:     0.534328     0.104162     0.091665
Rotational constants in MHz : 16018.754104  3122.693307  2748.036545

                             ****ORCA TERMINATED NORMALLY****
TOTAL RUN TIME: 0 days 0 hours 0 minutes 57 seconds 875 msec
