                         Program Version 5.0.3 -  RELEASE  -
|  1> !ri-mp2 aug-cc-pvdz aug-cc-pvdz/c tightscf
|  2> %pal nprocs 16 end
|  3>
|  4> * xyz 0 1
|  5> C      0.091342    3.082579    0.000000
|  6> C      0.094844    2.390597    1.206836
|  7> C      0.094844    2.390597   -1.206836
|  8> C      0.094844    1.001048    1.213029
|  9> C      0.094844    1.001048   -1.213029
| 10> C      0.088331    0.322160    0.000000
| 11> C     -1.655962   -1.917459    0.000000
| 12> O      0.656057   -1.929130   -1.266976
| 13> O      0.656057   -1.929130    1.266976
| 14> S      0.091079   -1.476746    0.000000
| 15> H      0.094921    4.164148    0.000000
| 16> H      0.106394    2.931653    2.142942
| 17> H      0.106394    2.931653   -2.142942
| 18> H      0.122551    0.445707    2.139560
| 19> H      0.122551    0.445707   -2.139560
| 20> H     -2.120878   -1.521537   -0.898564
| 21> H     -1.683749   -3.005188    0.000000
| 22> H     -2.120878   -1.521537    0.898564
| 23> *
| 24>
| 25>                          ****END OF INPUT****

CARTESIAN COORDINATES (ANGSTROEM)
---------------------------------
  C      0.091342    3.082579    0.000000
  C      0.094844    2.390597    1.206836
  C      0.094844    2.390597   -1.206836
  C      0.094844    1.001048    1.213029
  C      0.094844    1.001048   -1.213029
  C      0.088331    0.322160    0.000000
  C     -1.655962   -1.917459    0.000000
  O      0.656057   -1.929130   -1.266976
  O      0.656057   -1.929130    1.266976
  S      0.091079   -1.476746    0.000000
  H      0.094921    4.164148    0.000000
  H      0.106394    2.931653    2.142942
  H      0.106394    2.931653   -2.142942
  H      0.122551    0.445707    2.139560
  H      0.122551    0.445707   -2.139560
  H     -2.120878   -1.521537   -0.898564
  H     -1.683749   -3.005188    0.000000
  H     -2.120878   -1.521537    0.898564

 Total Charge           Charge          ....    0
 Multiplicity           Mult            ....    1
 Number of Electrons    NEL             ....   82
 Basis Dimension        Dim             ....  306

ORBITAL ENERGIES
----------------

  NO   OCC          E(Eh)            E(eV)
   0   2.0000     -92.200668     -2508.9077
   1   2.0000     -20.551591      -559.2372
   2   2.0000     -20.551573      -559.2367
   3   2.0000     -11.285931      -307.1058
   4   2.0000     -11.282954      -307.0248
   5   2.0000     -11.273438      -306.7658
   6   2.0000     -11.273362      -306.7638
   7   2.0000     -11.270632      -306.6895
   8   2.0000     -11.264922      -306.5341
   9   2.0000     -11.264785      -306.5304
  10   2.0000      -9.173026      -249.6107
  11   2.0000      -6.858432      -186.6274
  12   2.0000      -6.857111      -186.5915
  13   2.0000      -6.856688      -186.5800
  14   2.0000      -1.450179       -39.4614
  15   2.0000      -1.336774       -36.3755
  16   2.0000      -1.189264       -32.3615
  17   2.0000      -1.072164       -29.1751
  18   2.0000      -1.048597       -28.5338
  19   2.0000      -1.030287       -28.0355
  20   2.0000      -0.895985       -24.3810
  21   2.0000      -0.859504       -23.3883
  22   2.0000      -0.809424       -22.0255
  23   2.0000      -0.739003       -20.1093
  24   2.0000      -0.685726       -18.6595
  25   2.0000      -0.667356       -18.1597
  26   2.0000      -0.663999       -18.0683
  27   2.0000      -0.644245       -17.5308
  28   2.0000      -0.640302       -17.4235
  29   2.0000      -0.617962       -16.8156
  30   2.0000      -0.601882       -16.3780
  31   2.0000      -0.598843       -16.2953
  32   2.0000      -0.547302       -14.8928
  33   2.0000      -0.532072       -14.4784
  34   2.0000      -0.524049       -14.2601
  35   2.0000      -0.492820       -13.4103
  36   2.0000      -0.488007       -13.2794
  37   2.0000      -0.465004       -12.6534
  38   2.0000      -0.434303       -11.8180
  39   2.0000      -0.371801       -10.1172
  40   2.0000      -0.363399        -9.8886
  41   0.0000       0.027032         0.7356
  42   0.0000       0.036666         0.9977
  43   0.0000       0.037198         1.0122
  44   0.0000       0.050099         1.3633
  45   0.0000       0.056606         1.5403

MULLIKEN ATOMIC CHARGES
-----------------------
   0 C :    0.348432
   1 C :    0.658697
   2 C :    0.658697
   3 C :   -0.099406
   4 C :   -0.099406
   5 C :    0.840303
   6 C :   -0.063511
   7 O :   -1.245466
   8 O :   -1.245466
   9 S :    2.675403
  10 H :   -0.437157
  11 H :   -0.439015
  12 H :   -0.439015
  13 H :   -0.528104
  14 H :   -0.528104
  15 H :   -0.019912
  16 H :   -0.017058
  17 H :   -0.019912
Sum of atomic charges:    0.0000000

LOEWDIN ATOMIC CHARGES
----------------------
   0 C :    0.026109
   1 C :    0.021319
   2 C :    0.021319
   3 C :    0.016474
   4 C :    0.016474
   5 C :   -0.258601
   6 C :    0.089110
   7 O :   -0.394444
   8 O :   -0.394444
   9 S :    0.929901
  10 H :    0.006497
  11 H :    0.004280
  12 H :    0.004280
  13 H :    0.003260
  14 H :    0.003260
  15 H :   -0.032677
  16 H :   -0.029443
  17 H :   -0.032677

  Mayer bond orders larger than 0.100000
B(  0-C ,  1-C ) :   1.6713 B(  0-C ,  2-C ) :   1.6713 B(  0-C ,  3-C ) :   0.1558
B(  0-C ,  4-C ) :   0.1558 B(  0-C , 10-H ) :   0.3717 B(  0-C , 11-H ) :   0.1737
B(  0-C , 12-H ) :   0.1737 B(  1-C ,  2-C ) :  -0.1186 B(  1-C ,  3-C ) :   1.8782
B(  1-C ,  5-C ) :  -0.3045 B(  1-C , 10-H ) :   0.1845 B(  1-C , 11-H ) :   0.2196
B(  1-C , 12-H ) :  -0.1027 B(  1-C , 13-H ) :   0.1444 B(  2-C ,  4-C ) :   1.8782
B(  2-C ,  5-C ) :  -0.3045 B(  2-C , 10-H ) :   0.1845 B(  2-C , 11-H ) :  -0.1027
B(  2-C , 12-H ) :   0.2196 B(  2-C , 14-H ) :   0.1444 B(  3-C ,  4-C ) :  -0.1659
B(  3-C ,  5-C ) :   1.2922 B(  3-C ,  7-O ) :  -0.1016 B(  3-C ,  9-S ) :  -0.1845
B(  3-C , 11-H ) :   0.3644 B(  3-C , 13-H ) :   0.2082 B(  4-C ,  5-C ) :   1.2922
B(  4-C ,  8-O ) :  -0.1016 B(  4-C ,  9-S ) :  -0.1845 B(  4-C , 12-H ) :   0.3644
B(  4-C , 14-H ) :   0.2082 B(  5-C ,  6-C ) :  -0.1386 B(  5-C ,  7-O ) :   0.2092
B(  5-C ,  8-O ) :   0.2092 B(  5-C ,  9-S ) :   1.1592 B(  5-C , 13-H ) :   0.3448
B(  5-C , 14-H ) :   0.3448 B(  6-C ,  7-O ) :   0.1692 B(  6-C ,  8-O ) :   0.1692
B(  6-C ,  9-S ) :   1.0067 B(  6-C , 15-H ) :   0.9519 B(  6-C , 16-H ) :   0.9643
B(  6-C , 17-H ) :   0.9519 B(  7-O ,  8-O ) :   0.1214 B(  7-O ,  9-S ) :   0.5732
B(  8-O ,  9-S ) :   0.5732

MP2 TOTAL ENERGY:     -818.474361623 Eh
FINAL SINGLE POINT ENERGY      -818.474361622516

DIPOLE MOMENT
-------------
                                X             Y             Z
Electronic contribution:      3.71856      -3.16461      -0.00000
Nuclear contribution   :     -5.27950       4.78706       0.00000
                        -----------------------------------------
Total Dipole Moment    :     -1.56094       1.62244      -0.00000
                        -----------------------------------------
Magnitude (a.u.)       :      2.25141
Magnitude (Debye)      :      5.72264

Rotational constants in cm-1:     0.084039     0.027272     0.024043
Rotational constants in MHz :  2519.411417   817.595621   720.777186

                             ****ORCA TERMINATED NORMALLY****
TOTAL RUN TIME: 0 days 0 hours 1 minutes 47 seconds 318 msec
