                         Program Version 5.0.3 -  RELEASE  -
|  1> !ri-mp2 aug-cc-pvdz aug-cc-pvdz/c tightscf
|  2> %pal nprocs 16 end
|  3>
|  4> * xyz 0 1
|  5> C     -2.942068    0.313165   -0.088641
|  6> C      0.735707    0.108753   -0.508616
|  7> C     -0.654620   -0.311306    0.007121
|  8> O     -1.574078    0.542788   -0.481566
|  9> F     -0.678682   -0.369389    1.367117
| 10> F     -0.901211   -1.593523   -0.415518
| 11> Cl     1.144790    1.756836    0.037582
| 12> Cl     1.979103   -1.067794   -0.011846
| 13> H     -3.270321   -0.674881   -0.406191
| 14> H     -3.516616    1.078339   -0.599716
| 15> H     -3.051412    0.421676    0.988511
| 16> H      0.709733    0.121384   -1.591166
| 17> *
| 18>
| 19>                          ****END OF INPUT****

CARTESIAN COORDINATES (ANGSTROEM)
---------------------------------
  C     -2.942068    0.313165   -0.088641
  C      0.735707    0.108753   -0.508616
  C     -0.654620   -0.311306    0.007121
  O     -1.574078    0.542788   -0.481566
  F     -0.678682   -0.369389    1.367117
  F     -0.901211   -1.593523   -0.415518
  Cl     1.144790    1.756836    0.037582
  Cl     1.979103   -1.067794   -0.011846
  H     -3.270321   -0.674881   -0.406191
  H     -3.516616    1.078339   -0.599716
  H     -3.051412    0.421676    0.988511
  H      0.709733    0.121384   -1.591166

 Total Charge           Charge          ....    0
 Multiplicity           Mult            ....    1
 Number of Electrons    NEL             ....   82
 Basis Dimension        Dim             ....  228

ORBITAL ENERGIES
----------------

  NO   OCC          E(Eh)            E(eV)
   0   2.0000    -104.855992     -2853.2766
   1   2.0000    -104.855136     -2853.2533
   2   2.0000     -26.345539      -716.8986
   3   2.0000     -26.344285      -716.8644
   4   2.0000     -20.626977      -561.2886
   5   2.0000     -11.503319      -313.0212
   6   2.0000     -11.394674      -310.0648
   7   2.0000     -11.312197      -307.8205
   8   2.0000     -10.581976      -287.9502
   9   2.0000     -10.581204      -287.9292
  10   2.0000      -8.049718      -219.0440
  11   2.0000      -8.048942      -219.0229
  12   2.0000      -8.046156      -218.9470
  13   2.0000      -8.046078      -218.9449
  14   2.0000      -8.045386      -218.9261
  15   2.0000      -8.045305      -218.9239
  16   2.0000      -1.697922       -46.2028
  17   2.0000      -1.626344       -44.2551
  18   2.0000      -1.448590       -39.4181
  19   2.0000      -1.211231       -32.9593
  20   2.0000      -1.105400       -30.0795
  21   2.0000      -1.037901       -28.2427
  22   2.0000      -0.941707       -25.6252
  23   2.0000      -0.883279       -24.0352
  24   2.0000      -0.805089       -21.9076
  25   2.0000      -0.790251       -21.5038
  26   2.0000      -0.766104       -20.8467
  27   2.0000      -0.703134       -19.1332
  28   2.0000      -0.688458       -18.7339
  29   2.0000      -0.655941       -17.8491
  30   2.0000      -0.645406       -17.5624
  31   2.0000      -0.637828       -17.3562
  32   2.0000      -0.631947       -17.1962
  33   2.0000      -0.590659       -16.0727
  34   2.0000      -0.586400       -15.9568
  35   2.0000      -0.545433       -14.8420
  36   2.0000      -0.508225       -13.8295
  37   2.0000      -0.480610       -13.0781
  38   2.0000      -0.477407       -12.9909
  39   2.0000      -0.457634       -12.4529
  40   2.0000      -0.450783       -12.2664
  41   0.0000       0.032655         0.8886
  42   0.0000       0.046305         1.2600
  43   0.0000       0.055043         1.4978
  44   0.0000       0.058364         1.5882
  45   0.0000       0.080398         2.1878

MULLIKEN ATOMIC CHARGES
-----------------------
   0 C :    0.699679
   1 C :   -0.556501
   2 C :    2.187161
   3 O :   -0.884841
   4 F :   -0.648808
   5 F :   -0.665202
   6 Cl:   -0.022121
   7 Cl:    0.005176
   8 H :   -0.028044
   9 H :   -0.230093
  10 H :   -0.032738
  11 H :    0.176332
Sum of atomic charges:    0.0000000

LOEWDIN ATOMIC CHARGES
----------------------
   0 C :    0.200562
   1 C :   -0.791616
   2 C :   -0.507259
   3 O :    0.018810
   4 F :    0.060262
   5 F :    0.051380
   6 Cl:    0.534867
   7 Cl:    0.534022
   8 H :   -0.018865
   9 H :   -0.021711
  10 H :   -0.019053
  11 H :   -0.041399

  Mayer bond orders larger than 0.100000
B(  0-C ,  3-O ) :   0.6422 B(  0-C ,  8-H ) :   0.9718 B(  0-C ,  9-H ) :   1.0418
B(  0-C , 10-H ) :   0.9613 B(  1-C ,  2-C ) :   1.0473 B(  1-C ,  6-Cl) :   1.2364
B(  1-C ,  7-Cl) :   1.1703 B(  1-C , 11-H ) :   0.9049 B(  2-C ,  3-O ) :   0.6170
B(  2-C ,  4-F ) :   0.1607

MP2 TOTAL ENERGY:    -1310.050932606 Eh
FINAL SINGLE POINT ENERGY     -1310.050932606358

DIPOLE MOMENT
-------------
                                X             Y             Z
Electronic contribution:     10.29661      -1.56553       1.94582
Nuclear contribution   :    -11.26067       1.78105      -2.42044
                        -----------------------------------------
Total Dipole Moment    :     -0.96405       0.21552      -0.47462
                        -----------------------------------------
Magnitude (a.u.)       :      1.09595
Magnitude (Debye)      :      2.78569

Rotational constants in cm-1:     0.064997     0.037720     0.027785
Rotational constants in MHz :  1948.572381  1130.822555   832.979021

                             ****ORCA TERMINATED NORMALLY****
TOTAL RUN TIME: 0 days 0 hours 0 minutes 54 seconds 667 msec
