                         Program Version 5.0.3 -  RELEASE  -
|  1> !ri-mp2 aug-cc-pvdz aug-cc-pvdz/c tightscf
|  2> %pal nprocs 16 end
|  3>
|  4> * xyz 0 1
|  5> H      2.599637   -1.376904    0.000000
|  6> H      2.446132    0.154878    0.891870
|  7> H      2.446132    0.154878   -0.891870
|  8> C      2.130026   -0.397042    0.000000
|  9> O      0.728282   -0.616731    0.000000
| 10> H      0.230030    1.194926   -0.885833
| 11> H      0.230030    1.194926    0.885833
| 12> C      0.000000    0.588434    0.000000
| 13> N     -2.565567    0.100471    0.000000
| 14> C     -1.433235    0.293249    0.000000
| 15> *
| 16>
| 17>                          ****END OF INPUT****

CARTESIAN COORDINATES (ANGSTROEM)
---------------------------------
  H      2.599637   -1.376904    0.000000
  H      2.446132    0.154878    0.891870
  H      2.446132    0.154878   -0.891870
  C      2.130026   -0.397042    0.000000
  O      0.728282   -0.616731    0.000000
  H      0.230030    1.194926   -0.885833
  H      0.230030    1.194926    0.885833
  C      0.000000    0.588434    0.000000
  N     -2.565567    0.100471    0.000000
  C     -1.433235    0.293249    0.000000

 Total Charge           Charge          ....    0
 Multiplicity           Mult            ....    1
 Number of Electrons    NEL             ....   38
 Basis Dimension        Dim             ....  160

ORBITAL ENERGIES
----------------

  NO   OCC          E(Eh)            E(eV)
   0   2.0000     -20.604719      -560.6829
   1   2.0000     -15.588800      -424.1928
   2   2.0000     -11.350186      -308.8543
   3   2.0000     -11.305150      -307.6288
   4   2.0000     -11.287320      -307.1436
   5   2.0000      -1.417970       -38.5849
   6   2.0000      -1.231584       -33.5131
   7   2.0000      -1.039586       -28.2886
   8   2.0000      -0.928703       -25.2713
   9   2.0000      -0.741051       -20.1650
  10   2.0000      -0.707846       -19.2615
  11   2.0000      -0.689582       -18.7645
  12   2.0000      -0.606681       -16.5086
  13   2.0000      -0.603236       -16.4149
  14   2.0000      -0.557695       -15.1757
  15   2.0000      -0.523760       -14.2522
  16   2.0000      -0.481734       -13.1087
  17   2.0000      -0.476677       -12.9710
  18   2.0000      -0.452485       -12.3127
  19   0.0000       0.026554         0.7226
  20   0.0000       0.043380         1.1804
  21   0.0000       0.044755         1.2178
  22   0.0000       0.056628         1.5409
  23   0.0000       0.072904         1.9838

MULLIKEN ATOMIC CHARGES
-----------------------
   0 H :   -0.236674
   1 H :   -0.044686
   2 H :   -0.044686
   3 C :    0.771578
   4 O :   -0.861169
   5 H :   -0.027032
   6 H :   -0.027032
   7 C :    1.066694
   8 N :   -0.296089
   9 C :   -0.300903
Sum of atomic charges:   -0.0000000

LOEWDIN ATOMIC CHARGES
----------------------
   0 H :   -0.022693
   1 H :   -0.020366
   2 H :   -0.020366
   3 C :    0.142780
   4 O :   -0.016683
   5 H :    0.022294
   6 H :    0.022294
   7 C :   -0.058450
   8 N :    0.073515
   9 C :   -0.122326

  Mayer bond orders larger than 0.100000
B(  0-H ,  3-C ) :   1.0695 B(  1-H ,  3-C ) :   0.9465 B(  2-H ,  3-C ) :   0.9465
B(  3-C ,  4-O ) :   0.6814 B(  4-O ,  7-C ) :   0.7248 B(  5-H ,  7-C ) :   0.9008
B(  6-H ,  7-C ) :   0.9008 B(  7-C ,  9-C ) :   0.7213 B(  8-N ,  9-C ) :   2.7187

MP2 TOTAL ENERGY:     -246.601767420 Eh
FINAL SINGLE POINT ENERGY      -246.601767419717

DIPOLE MOMENT
-------------
                                X             Y             Z
Electronic contribution:     -6.06289      -0.58335      -0.00000
Nuclear contribution   :      7.98056       1.31889       0.00000
                        -----------------------------------------
Total Dipole Moment    :      1.91767       0.73554      -0.00000
                        -----------------------------------------
Magnitude (a.u.)       :      2.05390
Magnitude (Debye)      :      5.22059

Rotational constants in cm-1:     0.996231     0.082021     0.078016
Rotational constants in MHz : 29866.240300  2458.936483  2338.875178

                             ****ORCA TERMINATED NORMALLY****
TOTAL RUN TIME: 0 days 0 hours 0 minutes 37 seconds 97 msec
