                         Program Version 5.0.3 -  RELEASE  -
|  1> !ri-mp2 aug-cc-pvdz aug-cc-pvdz/c tightscf
|  2> %pal nprocs 16 end
|  3>
|  4> * xyz 0 1
|  5> C      0.046493    0.666056    0.000000
|  6> O      0.046493   -0.757300    0.000000
|  7> H     -0.438632    1.076138    0.890767
|  8> H     -0.438632    1.076138   -0.890767
|  9> H      1.088355    0.979641    0.000000
| 10> H     -0.861989   -1.069858    0.000000
| 11> *
| 12>
| 13>                          ****END OF INPUT****

CARTESIAN COORDINATES (ANGSTROEM)
---------------------------------
  C      0.046493    0.666056    0.000000
  O      0.046493   -0.757300    0.000000
  H     -0.438632    1.076138    0.890767
  H     -0.438632    1.076138   -0.890767
  H      1.088355    0.979641    0.000000
  H     -0.861989   -1.069858    0.000000

 Total Charge           Charge          ....    0
 Multiplicity           Mult            ....    1
 Number of Electrons    NEL             ....   18
 Basis Dimension        Dim             ....   82

ORBITAL ENERGIES
----------------

  NO   OCC          E(Eh)            E(eV)
   0   2.0000     -20.568299      -559.6919
   1   2.0000     -11.279906      -306.9419
   2   2.0000      -1.359518       -36.9944
   3   2.0000      -0.927520       -25.2391
   4   2.0000      -0.691183       -18.8080
   5   2.0000      -0.619108       -16.8468
   6   2.0000      -0.593392       -16.1470
   7   2.0000      -0.503354       -13.6970
   8   2.0000      -0.450591       -12.2612
   9   0.0000       0.034559         0.9404
  10   0.0000       0.051642         1.4052
  11   0.0000       0.058164         1.5827
  12   0.0000       0.065606         1.7852
  13   0.0000       0.115038         3.1304

MULLIKEN ATOMIC CHARGES
-----------------------
   0 C :    0.887394
   1 O :   -0.607505
   2 H :   -0.116090
   3 H :   -0.116090
   4 H :   -0.175337
   5 H :    0.127628
Sum of atomic charges:   -0.0000000

LOEWDIN ATOMIC CHARGES
----------------------
   0 C :    0.108129
   1 O :    0.074570
   2 H :   -0.036245
   3 H :   -0.036245
   4 H :   -0.037370
   5 H :   -0.072838

  Mayer bond orders larger than 0.100000
B(  0-C ,  1-O ) :   0.6304 B(  0-C ,  2-H ) :   0.9715 B(  0-C ,  3-H ) :   0.9715
B(  0-C ,  4-H ) :   1.0131 B(  1-O ,  5-H ) :   1.0468

MP2 TOTAL ENERGY:     -115.421619258 Eh
FINAL SINGLE POINT ENERGY      -115.421619257578

DIPOLE MOMENT
-------------
                                X             Y             Z
Electronic contribution:      0.11838      -1.73949       0.00000
Nuclear contribution   :     -0.68595       2.16294       0.00000
                        -----------------------------------------
Total Dipole Moment    :     -0.56756       0.42345       0.00000
                        -----------------------------------------
Magnitude (a.u.)       :      0.70812
Magnitude (Debye)      :      1.79991

Rotational constants in cm-1:     4.290976     0.823161     0.794852
Rotational constants in MHz : 128640.218084 24677.759640 23829.077485

                             ****ORCA TERMINATED NORMALLY****
TOTAL RUN TIME: 0 days 0 hours 0 minutes 34 seconds 61 msec
