                         Program Version 5.0.3 -  RELEASE  -
|  1> !ri-mp2 aug-cc-pvdz aug-cc-pvdz/c tightscf
|  2> %pal nprocs 16 end
|  3>
|  4> * xyz 0 1
|  5> S     1.487854   -0.652185    0.000095
|  6> S    -2.683866    0.052343   -0.000262
|  7> N     0.082020    0.281815    0.000072
|  8> C     2.714170    0.680388    0.000283
|  9> C    -1.107551    0.131432   -0.000082
| 10> H     3.680142    0.176343    0.000324
| 11> H     2.621166    1.288815   -0.895396
| 12> H     2.621025    1.288688    0.896033
| 13> *
| 14>
| 15>                          ****END OF INPUT****

CARTESIAN COORDINATES (ANGSTROEM)
---------------------------------
  S      1.487854   -0.652185    0.000095
  S     -2.683866    0.052343   -0.000262
  N      0.082020    0.281815    0.000072
  C      2.714170    0.680388    0.000283
  C     -1.107551    0.131432   -0.000082
  H      3.680142    0.176343    0.000324
  H      2.621166    1.288815   -0.895396
  H      2.621025    1.288688    0.896033

 Total Charge           Charge          ....    0
 Multiplicity           Mult            ....    1
 Number of Electrons    NEL             ....   54
 Basis Dimension        Dim             ....  150

ORBITAL ENERGIES
----------------

  NO   OCC          E(Eh)            E(eV)
   0   2.0000     -92.029770     -2504.2574
   1   2.0000     -91.961451     -2502.3983
   2   2.0000     -15.631631      -425.3583
   3   2.0000     -11.389782      -309.9317
   4   2.0000     -11.287147      -307.1389
   5   2.0000      -9.026283      -245.6176
   6   2.0000      -8.964636      -243.9401
   7   2.0000      -6.708726      -182.5537
   8   2.0000      -6.706195      -182.4848
   9   2.0000      -6.703852      -182.4211
  10   2.0000      -6.647238      -180.8805
  11   2.0000      -6.643632      -180.7824
  12   2.0000      -6.643067      -180.7670
  13   2.0000      -1.302360       -35.4390
  14   2.0000      -1.088325       -29.6148
  15   2.0000      -1.031209       -28.0606
  16   2.0000      -0.916238       -24.9321
  17   2.0000      -0.702086       -19.1047
  18   2.0000      -0.625647       -17.0247
  19   2.0000      -0.610669       -16.6171
  20   2.0000      -0.606487       -16.5034
  21   2.0000      -0.579990       -15.7823
  22   2.0000      -0.579844       -15.7784
  23   2.0000      -0.490248       -13.3403
  24   2.0000      -0.417739       -11.3673
  25   2.0000      -0.374010       -10.1773
  26   2.0000      -0.332539        -9.0488
  27   0.0000       0.029644         0.8067
  28   0.0000       0.050220         1.3665
  29   0.0000       0.054286         1.4772
  30   0.0000       0.060524         1.6469
  31   0.0000       0.069027         1.8783

MULLIKEN ATOMIC CHARGES
-----------------------
   0 S :    0.740625
   1 S :    0.223397
   2 N :   -0.522417
   3 C :    0.041058
   4 C :   -0.371925
   5 H :   -0.039191
   6 H :   -0.035771
   7 H :   -0.035776
Sum of atomic charges:   -0.0000000

LOEWDIN ATOMIC CHARGES
----------------------
   0 S :    0.840650
   1 S :    0.595972
   2 N :   -0.375631
   3 C :   -0.125820
   4 C :   -0.746657
   5 H :   -0.063566
   6 H :   -0.062474
   7 H :   -0.062474

  Mayer bond orders larger than 0.100000
B(  0-S ,  2-N ) :   0.5765 B(  0-S ,  3-C ) :   1.0908 B(  1-S ,  4-C ) :   1.8072
B(  2-N ,  4-C ) :   2.0441 B(  3-C ,  5-H ) :   0.9900 B(  3-C ,  6-H ) :   0.9994
B(  3-C ,  7-H ) :   0.9994

MP2 TOTAL ENERGY:     -927.702421242 Eh
FINAL SINGLE POINT ENERGY      -927.702421241517

DIPOLE MOMENT
-------------
                                X             Y             Z
Electronic contribution:     -7.24636      -2.43476      -0.00080
Nuclear contribution   :      8.63965       2.67491       0.00093
                        -----------------------------------------
Total Dipole Moment    :      1.39329       0.24015       0.00013
                        -----------------------------------------
Magnitude (a.u.)       :      1.41384
Magnitude (Debye)      :      3.59369

Rotational constants in cm-1:     0.664029     0.038867     0.036979
Rotational constants in MHz : 19907.094246  1165.216423  1108.595706

                             ****ORCA TERMINATED NORMALLY****
TOTAL RUN TIME: 0 days 0 hours 0 minutes 41 seconds 8 msec
