                         Program Version 5.0.3 -  RELEASE  -
|  1> !ri-mp2 aug-cc-pvdz aug-cc-pvdz/c tightscf
|  2> %pal nprocs 16 end
|  3>
|  4> * xyz 0 1
|  5> O      0.168175    0.731979   -0.169936
|  6> O     -0.875385    0.011600    0.633516
|  7> N      2.292619   -0.465281   -0.025231
|  8> C      1.271007    0.074684   -0.071494
|  9> C     -1.910219   -0.317169   -0.281016
| 10> H     -2.328484    0.577593   -0.741855
| 11> H     -1.568489   -1.027299   -1.034576
| 12> H     -2.658412   -0.787050    0.359468
| 13> *
| 14>
| 15>                          ****END OF INPUT****

CARTESIAN COORDINATES (ANGSTROEM)
---------------------------------
  O      0.168175    0.731979   -0.169936
  O     -0.875385    0.011600    0.633516
  N      2.292619   -0.465281   -0.025231
  C      1.271007    0.074684   -0.071494
  C     -1.910219   -0.317169   -0.281016
  H     -2.328484    0.577593   -0.741855
  H     -1.568489   -1.027299   -1.034576
  H     -2.658412   -0.787050    0.359468

 Total Charge           Charge          ....    0
 Multiplicity           Mult            ....    1
 Number of Electrons    NEL             ....   38
 Basis Dimension        Dim             ....  142

ORBITAL ENERGIES
----------------

  NO   OCC          E(Eh)            E(eV)
   0   2.0000     -20.721515      -563.8611
   1   2.0000     -20.710412      -563.5590
   2   2.0000     -15.591241      -424.2592
   3   2.0000     -11.351885      -308.9005
   4   2.0000     -11.330144      -308.3089
   5   2.0000      -1.556462       -42.3535
   6   2.0000      -1.351349       -36.7721
   7   2.0000      -1.224132       -33.3103
   8   2.0000      -0.971954       -26.4482
   9   2.0000      -0.826941       -22.5022
  10   2.0000      -0.734318       -19.9818
  11   2.0000      -0.722770       -19.6676
  12   2.0000      -0.661504       -18.0005
  13   2.0000      -0.620367       -16.8810
  14   2.0000      -0.586970       -15.9723
  15   2.0000      -0.571867       -15.5613
  16   2.0000      -0.524641       -14.2762
  17   2.0000      -0.467520       -12.7219
  18   2.0000      -0.451647       -12.2899
  19   0.0000       0.026353         0.7171
  20   0.0000       0.047386         1.2894
  21   0.0000       0.052134         1.4186
  22   0.0000       0.071376         1.9422
  23   0.0000       0.082290         2.2392

MULLIKEN ATOMIC CHARGES
-----------------------
   0 O :   -0.331473
   1 O :   -0.469932
   2 N :   -0.293518
   3 C :    0.464324
   4 C :    0.895793
   5 H :   -0.056449
   6 H :   -0.062390
   7 H :   -0.146356
Sum of atomic charges:    0.0000000

LOEWDIN ATOMIC CHARGES
----------------------
   0 O :    0.068298
   1 O :    0.059313
   2 N :    0.066159
   3 C :   -0.285809
   4 C :    0.144803
   5 H :   -0.019366
   6 H :   -0.017849
   7 H :   -0.015549

  Mayer bond orders larger than 0.100000
B(  0-O ,  1-O ) :   0.8173 B(  0-O ,  3-C ) :   1.0359 B(  0-O ,  4-C ) :  -0.1069
B(  1-O ,  4-C ) :   0.5788 B(  2-N ,  3-C ) :   2.6387 B(  4-C ,  5-H ) :   0.9866
B(  4-C ,  6-H ) :   0.9648 B(  4-C ,  7-H ) :   1.0060

MP2 TOTAL ENERGY:     -282.370396517 Eh
FINAL SINGLE POINT ENERGY      -282.370396516872

DIPOLE MOMENT
-------------
                                X             Y             Z
Electronic contribution:      4.44291       1.27875       1.00654
Nuclear contribution   :     -6.40199      -1.19946      -1.37730
                        -----------------------------------------
Total Dipole Moment    :     -1.95908       0.07929      -0.37075
                        -----------------------------------------
Magnitude (a.u.)       :      1.99543
Magnitude (Debye)      :      5.07198

Rotational constants in cm-1:     0.689625     0.097050     0.094171
Rotational constants in MHz : 20674.426213  2909.487087  2823.164641

                             ****ORCA TERMINATED NORMALLY****
TOTAL RUN TIME: 0 days 0 hours 0 minutes 36 seconds 582 msec
