                         Program Version 5.0.3 -  RELEASE  -
|  1> !ri-mp2 aug-cc-pvdz aug-cc-pvdz/c tightscf
|  2> %pal nprocs 16 end
|  3>
|  4> * xyz 0 1
|  5> C     -1.883880    0.052683    0.051156
|  6> H     -2.056506    0.749901   -0.773592
|  7> H     -2.696495   -0.669693    0.034127
|  8> H     -1.939587    0.605039    0.992852
|  9> H     -0.628998   -1.659843   -0.030177
| 10> N     -0.629825   -0.657566   -0.098325
| 11> C      0.625516   -0.112385   -0.011604
| 12> H     -0.085368    1.818229   -0.316218
| 13> H      1.594033    1.648111   -0.085107
| 14> N      0.672759    1.267776    0.047964
| 15> O      1.632821   -0.800625    0.036666
| 16> *
| 17>
| 18>                          ****END OF INPUT****

CARTESIAN COORDINATES (ANGSTROEM)
---------------------------------
  C     -1.883880    0.052683    0.051156
  H     -2.056506    0.749901   -0.773592
  H     -2.696495   -0.669693    0.034127
  H     -1.939587    0.605039    0.992852
  H     -0.628998   -1.659843   -0.030177
  N     -0.629825   -0.657566   -0.098325
  C      0.625516   -0.112385   -0.011604
  H     -0.085368    1.818229   -0.316218
  H      1.594033    1.648111   -0.085107
  N      0.672759    1.267776    0.047964
  O      1.632821   -0.800625    0.036666

 Total Charge           Charge          ....    0
 Multiplicity           Mult            ....    1
 Number of Electrons    NEL             ....   40
 Basis Dimension        Dim             ....  169

ORBITAL ENERGIES
----------------

  NO   OCC          E(Eh)            E(eV)
   0   2.0000     -20.513447      -558.1993
   1   2.0000     -15.588420      -424.1825
   2   2.0000     -15.588210      -424.1768
   3   2.0000     -11.382197      -309.7253
   4   2.0000     -11.285292      -307.0884
   5   2.0000      -1.389455       -37.8090
   6   2.0000      -1.243481       -33.8368
   7   2.0000      -1.190766       -32.4024
   8   2.0000      -0.963663       -26.2226
   9   2.0000      -0.820187       -22.3184
  10   2.0000      -0.741218       -20.1696
  11   2.0000      -0.682405       -18.5692
  12   2.0000      -0.647968       -17.6321
  13   2.0000      -0.638704       -17.3800
  14   2.0000      -0.593372       -16.1465
  15   2.0000      -0.567479       -15.4419
  16   2.0000      -0.562646       -15.3104
  17   2.0000      -0.436024       -11.8648
  18   2.0000      -0.421719       -11.4756
  19   2.0000      -0.392682       -10.6854
  20   0.0000       0.026787         0.7289
  21   0.0000       0.038883         1.0581
  22   0.0000       0.052755         1.4355
  23   0.0000       0.054643         1.4869
  24   0.0000       0.065921         1.7938

MULLIKEN ATOMIC CHARGES
-----------------------
   0 C :    0.809685
   1 H :   -0.093207
   2 H :   -0.242024
   3 H :   -0.058965
   4 H :   -0.127044
   5 N :   -0.398500
   6 C :    1.090793
   7 H :   -0.017554
   8 H :   -0.012429
   9 N :   -0.225955
  10 O :   -0.724798
Sum of atomic charges:    0.0000000

LOEWDIN ATOMIC CHARGES
----------------------
   0 C :    0.160022
   1 H :   -0.017814
   2 H :   -0.013337
   3 H :   -0.010490
   4 H :    0.006969
   5 N :    0.077826
   6 C :   -0.425647
   7 H :   -0.040691
   8 H :   -0.012607
   9 N :    0.277257
  10 O :   -0.001487

  Mayer bond orders larger than 0.100000
B(  0-C ,  1-H ) :   0.9615 B(  0-C ,  2-H ) :   1.0220 B(  0-C ,  3-H ) :   0.9264
B(  0-C ,  5-N ) :   0.7732 B(  4-H ,  5-N ) :   1.1633 B(  5-N ,  6-C ) :   1.0529
B(  6-C ,  9-N ) :   0.9647 B(  6-C , 10-O ) :   1.4912 B(  7-H ,  9-N ) :   1.0869
B(  8-H ,  9-N ) :   1.0777

MP2 TOTAL ENERGY:     -263.888770289 Eh
FINAL SINGLE POINT ENERGY      -263.888770289174

DIPOLE MOMENT
-------------
                                X             Y             Z
Electronic contribution:      4.28139      -1.60766      -0.05343
Nuclear contribution   :     -5.86816       2.51755      -0.18033
                        -----------------------------------------
Total Dipole Moment    :     -1.58678       0.90990      -0.23376
                        -----------------------------------------
Magnitude (a.u.)       :      1.84402
Magnitude (Debye)      :      4.68713

Rotational constants in cm-1:     0.330481     0.138424     0.099774
Rotational constants in MHz :  9907.559272  4149.861380  2991.157860

                             ****ORCA TERMINATED NORMALLY****
TOTAL RUN TIME: 0 days 0 hours 0 minutes 53 seconds 119 msec
