                         Program Version 5.0.3 -  RELEASE  -
|  1> !ri-mp2 aug-cc-pvdz aug-cc-pvdz/c tightscf
|  2> %pal nprocs 16 end
|  3>
|  4> * xyz 0 1
|  5> C      0.000000    0.105348    0.000000
|  6> C      2.229810   -1.101248    0.000000
|  7> C     -2.125328    1.140307    0.000000
|  8> C      0.712415   -1.227832    0.000000
|  9> O      0.529639    1.188224    0.000000
| 10> O     -1.340167   -0.063276    0.000000
| 11> H      2.578825   -0.559466    0.877868
| 12> H      2.691306   -2.088610    0.000000
| 13> H      2.578825   -0.559466   -0.877868
| 14> H     -3.160662    0.813935    0.000000
| 15> H     -1.911948    1.735162   -0.886287
| 16> H     -1.911948    1.735162    0.886287
| 17> H      0.359222   -1.787875    0.869073
| 18> H      0.359222   -1.787875   -0.869073
| 19> *
| 20>
| 21>                          ****END OF INPUT****

CARTESIAN COORDINATES (ANGSTROEM)
---------------------------------
  C      0.000000    0.105348    0.000000
  C      2.229810   -1.101248    0.000000
  C     -2.125328    1.140307    0.000000
  C      0.712415   -1.227832    0.000000
  O      0.529639    1.188224    0.000000
  O     -1.340167   -0.063276    0.000000
  H      2.578825   -0.559466    0.877868
  H      2.691306   -2.088610    0.000000
  H      2.578825   -0.559466   -0.877868
  H     -3.160662    0.813935    0.000000
  H     -1.911948    1.735162   -0.886287
  H     -1.911948    1.735162    0.886287
  H      0.359222   -1.787875    0.869073
  H      0.359222   -1.787875   -0.869073

 Total Charge           Charge          ....    0
 Multiplicity           Mult            ....    1
 Number of Electrons    NEL             ....   48
 Basis Dimension        Dim             ....  210

ORBITAL ENERGIES
----------------

  NO   OCC          E(Eh)            E(eV)
   0   2.0000     -20.609918      -560.8244
   1   2.0000     -20.554070      -559.3047
   2   2.0000     -11.384832      -309.7970
   3   2.0000     -11.291805      -307.2656
   4   2.0000     -11.250000      -306.1281
   5   2.0000     -11.226731      -305.4949
   6   2.0000      -1.461786       -39.7772
   7   2.0000      -1.361892       -37.0590
   8   2.0000      -1.065949       -29.0059
   9   2.0000      -0.975845       -26.5541
  10   2.0000      -0.879694       -23.9377
  11   2.0000      -0.768472       -20.9112
  12   2.0000      -0.700785       -19.0693
  13   2.0000      -0.677313       -18.4306
  14   2.0000      -0.670836       -18.2544
  15   2.0000      -0.619125       -16.8473
  16   2.0000      -0.601259       -16.3611
  17   2.0000      -0.541716       -14.7408
  18   2.0000      -0.537633       -14.6297
  19   2.0000      -0.523989       -14.2585
  20   2.0000      -0.517929       -14.0936
  21   2.0000      -0.495356       -13.4793
  22   2.0000      -0.461074       -12.5465
  23   2.0000      -0.445211       -12.1148
  24   0.0000       0.034317         0.9338
  25   0.0000       0.041478         1.1287
  26   0.0000       0.050315         1.3691
  27   0.0000       0.051871         1.4115
  28   0.0000       0.063249         1.7211

MULLIKEN ATOMIC CHARGES
-----------------------
   0 C :    0.777245
   1 C :    0.478668
   2 C :    0.846831
   3 C :    0.032570
   4 O :   -0.703465
   5 O :   -0.829970
   6 H :   -0.058115
   7 H :   -0.055959
   8 H :   -0.058115
   9 H :   -0.249155
  10 H :   -0.061888
  11 H :   -0.061888
  12 H :   -0.028379
  13 H :   -0.028379
Sum of atomic charges:   -0.0000000

LOEWDIN ATOMIC CHARGES
----------------------
   0 C :   -0.337113
   1 C :    0.143414
   2 C :    0.179019
   3 C :   -0.008786
   4 O :    0.049689
   5 O :    0.043099
   6 H :   -0.013814
   7 H :   -0.018930
   8 H :   -0.013814
   9 H :   -0.026989
  10 H :   -0.019549
  11 H :   -0.019549
  12 H :    0.021661
  13 H :    0.021661

  Mayer bond orders larger than 0.100000
B(  0-C ,  3-C ) :   1.0308 B(  0-C ,  4-O ) :   1.6477 B(  0-C ,  5-O ) :   0.6401
B(  1-C ,  3-C ) :   1.2043 B(  1-C ,  6-H ) :   0.9483 B(  1-C ,  7-H ) :   0.9021
B(  1-C ,  8-H ) :   0.9483 B(  2-C ,  5-O ) :   0.6045 B(  2-C ,  9-H ) :   1.0325
B(  2-C , 10-H ) :   0.9697 B(  2-C , 11-H ) :   0.9697 B(  3-C , 12-H ) :   0.8884
B(  3-C , 13-H ) :   0.8884

MP2 TOTAL ENERGY:     -306.879656431 Eh
FINAL SINGLE POINT ENERGY      -306.879656431058

DIPOLE MOMENT
-------------
                                X             Y             Z
Electronic contribution:     -2.07556       1.94875       0.00000
Nuclear contribution   :      1.60644      -2.53879       0.00000
                        -----------------------------------------
Total Dipole Moment    :     -0.46912      -0.59005       0.00000
                        -----------------------------------------
Magnitude (a.u.)       :      0.75381
Magnitude (Debye)      :      1.91603

Rotational constants in cm-1:     0.319299     0.071005     0.060015
Rotational constants in MHz :  9572.352740  2128.678736  1799.203763

                             ****ORCA TERMINATED NORMALLY****
TOTAL RUN TIME: 0 days 0 hours 0 minutes 45 seconds 257 msec
