                         Program Version 5.0.3 -  RELEASE  -
|  1> !ri-mp2 aug-cc-pvdz aug-cc-pvdz/c tightscf
|  2> %pal nprocs 16 end
|  3>
|  4> * xyz 0 1
|  5> O      0.113175    0.611906   -0.000481
|  6> O     -0.850519   -0.571912   -0.000730
|  7> C      1.313138    0.157342   -0.000011
|  8> C     -2.131835    0.020694    0.000616
|  9> C      2.457104   -0.211516    0.000417
| 10> H     -2.297771    0.619401   -0.896754
| 11> H     -2.296639    0.617800    0.899259
| 12> H     -2.808117   -0.835719    0.000264
| 13> H      3.470842   -0.520554    0.000796
| 14> *
| 15>
| 16>                          ****END OF INPUT****

CARTESIAN COORDINATES (ANGSTROEM)
---------------------------------
  O      0.113175    0.611906   -0.000481
  O     -0.850519   -0.571912   -0.000730
  C      1.313138    0.157342   -0.000011
  C     -2.131835    0.020694    0.000616
  C      2.457104   -0.211516    0.000417
  H     -2.297771    0.619401   -0.896754
  H     -2.296639    0.617800    0.899259
  H     -2.808117   -0.835719    0.000264
  H      3.470842   -0.520554    0.000796

 Total Charge           Charge          ....    0
 Multiplicity           Mult            ....    1
 Number of Electrons    NEL             ....   38
 Basis Dimension        Dim             ....  151

ORBITAL ENERGIES
----------------

  NO   OCC          E(Eh)            E(eV)
   0   2.0000     -20.685928      -562.8927
   1   2.0000     -20.676791      -562.6441
   2   2.0000     -11.307821      -307.7014
   3   2.0000     -11.304175      -307.6022
   4   2.0000     -11.237514      -305.7883
   5   2.0000      -1.512244       -41.1503
   6   2.0000      -1.322157       -35.9777
   7   2.0000      -1.020396       -27.7664
   8   2.0000      -0.943726       -25.6801
   9   2.0000      -0.788248       -21.4493
  10   2.0000      -0.703794       -19.1512
  11   2.0000      -0.703344       -19.1390
  12   2.0000      -0.687183       -18.6992
  13   2.0000      -0.612340       -16.6626
  14   2.0000      -0.611403       -16.6371
  15   2.0000      -0.553491       -15.0612
  16   2.0000      -0.491735       -13.3808
  17   2.0000      -0.392751       -10.6873
  18   2.0000      -0.373702       -10.1689
  19   0.0000       0.033506         0.9117
  20   0.0000       0.043096         1.1727
  21   0.0000       0.054729         1.4893
  22   0.0000       0.057513         1.5650
  23   0.0000       0.086098         2.3428

MULLIKEN ATOMIC CHARGES
-----------------------
   0 O :   -0.541693
   1 O :   -0.521627
   2 C :   -0.024516
   3 C :    0.908076
   4 C :    0.868064
   5 H :   -0.065762
   6 H :   -0.065790
   7 H :   -0.170590
   8 H :   -0.386163
Sum of atomic charges:   -0.0000000

LOEWDIN ATOMIC CHARGES
----------------------
   0 O :    0.054249
   1 O :    0.048383
   2 C :   -0.244803
   3 C :    0.121431
   4 C :    0.197435
   5 H :   -0.022570
   6 H :   -0.022567
   7 H :   -0.020553
   8 H :   -0.111007

  Mayer bond orders larger than 0.100000
B(  0-O ,  1-O ) :   0.9362 B(  0-O ,  2-C ) :   1.0414 B(  0-O ,  3-C ) :  -0.1089
B(  0-O ,  4-C ) :  -0.3142 B(  1-O ,  2-C ) :  -0.2428 B(  1-O ,  3-C ) :   0.5937
B(  1-O ,  4-C ) :   0.1288 B(  2-C ,  4-C ) :   2.8769 B(  2-C ,  8-H ) :   0.3503
B(  3-C ,  5-H ) :   0.9845 B(  3-C ,  6-H ) :   0.9845 B(  3-C ,  7-H ) :   1.0012
B(  4-C ,  8-H ) :   0.2719

MP2 TOTAL ENERGY:     -266.282115776 Eh
FINAL SINGLE POINT ENERGY      -266.282115775515

DIPOLE MOMENT
-------------
                                X             Y             Z
Electronic contribution:      3.16612       0.12245      -0.00270
Nuclear contribution   :     -3.90521      -0.11730       0.00351
                        -----------------------------------------
Total Dipole Moment    :     -0.73909       0.00515       0.00082
                        -----------------------------------------
Magnitude (a.u.)       :      0.73911
Magnitude (Debye)      :      1.87868

Rotational constants in cm-1:     1.094067     0.087909     0.082668
Rotational constants in MHz : 32799.312916  2635.437625  2478.325425

                             ****ORCA TERMINATED NORMALLY****
TOTAL RUN TIME: 0 days 0 hours 0 minutes 39 seconds 271 msec
