                         Program Version 5.0.3 -  RELEASE  -
|  1> !ri-mp2 aug-cc-pvdz aug-cc-pvdz/c tightscf
|  2> %pal nprocs 16 end
|  3>
|  4> * xyz 0 1
|  5> C      0.000000    0.000000    2.071388
|  6> C      0.000000    1.208808    1.386957
|  7> C      0.000000   -1.208808    1.386957
|  8> C      0.000000    0.000000   -0.713068
|  9> C      0.000000    1.191420   -0.000840
| 10> C      0.000000   -1.191420   -0.000840
| 11> Cl     0.000000    2.703797   -0.881717
| 12> Cl     0.000000   -2.703797   -0.881717
| 13> H      0.000000    0.000000    3.152761
| 14> H      0.000000    2.149253    1.916981
| 15> H      0.000000   -2.149253    1.916981
| 16> H      0.000000    0.000000   -1.791679
| 17> *
| 18>
| 19>                          ****END OF INPUT****

CARTESIAN COORDINATES (ANGSTROEM)
---------------------------------
  C      0.000000    0.000000    2.071388
  C      0.000000    1.208808    1.386957
  C      0.000000   -1.208808    1.386957
  C      0.000000    0.000000   -0.713068
  C      0.000000    1.191420   -0.000840
  C      0.000000   -1.191420   -0.000840
  Cl     0.000000    2.703797   -0.881717
  Cl     0.000000   -2.703797   -0.881717
  H      0.000000    0.000000    3.152761
  H      0.000000    2.149253    1.916981
  H      0.000000   -2.149253    1.916981
  H      0.000000    0.000000   -1.791679

 Total Charge           Charge          ....    0
 Multiplicity           Mult            ....    1
 Number of Electrons    NEL             ....   74
 Basis Dimension        Dim             ....  228

ORBITAL ENERGIES
----------------

  NO   OCC          E(Eh)            E(eV)
   0   2.0000    -104.849724     -2853.1060
   1   2.0000    -104.849724     -2853.1060
   2   2.0000     -11.325514      -308.1829
   3   2.0000     -11.325505      -308.1827
   4   2.0000     -11.272359      -306.7365
   5   2.0000     -11.271591      -306.7156
   6   2.0000     -11.267682      -306.6092
   7   2.0000     -11.267477      -306.6036
   8   2.0000     -10.575680      -287.7789
   9   2.0000     -10.575675      -287.7788
  10   2.0000      -8.043488      -218.8744
  11   2.0000      -8.043488      -218.8744
  12   2.0000      -8.040135      -218.7832
  13   2.0000      -8.040135      -218.7832
  14   2.0000      -8.040013      -218.7799
  15   2.0000      -8.040013      -218.7799
  16   2.0000      -1.220547       -33.2128
  17   2.0000      -1.165170       -31.7059
  18   2.0000      -1.114265       -30.3207
  19   2.0000      -1.033796       -28.1310
  20   2.0000      -1.008583       -27.4449
  21   2.0000      -0.859435       -23.3864
  22   2.0000      -0.828505       -22.5448
  23   2.0000      -0.723043       -19.6750
  24   2.0000      -0.678700       -18.4684
  25   2.0000      -0.650993       -17.7144
  26   2.0000      -0.611938       -16.6517
  27   2.0000      -0.603482       -16.4216
  28   2.0000      -0.571720       -15.5573
  29   2.0000      -0.537813       -14.6346
  30   2.0000      -0.530328       -14.4310
  31   2.0000      -0.512388       -13.9428
  32   2.0000      -0.470260       -12.7964
  33   2.0000      -0.463215       -12.6047
  34   2.0000      -0.462320       -12.5804
  35   2.0000      -0.360719        -9.8157
  36   2.0000      -0.347583        -9.4582
  37   0.0000       0.032179         0.8756
  38   0.0000       0.044899         1.2218
  39   0.0000       0.046920         1.2768
  40   0.0000       0.059826         1.6279
  41   0.0000       0.082851         2.2545

MULLIKEN ATOMIC CHARGES
-----------------------
   0 C :    0.909527
   1 C :    0.327986
   2 C :    0.327986
   3 C :    0.945699
   4 C :   -0.105159
   5 C :   -0.105159
   6 Cl:   -0.377677
   7 Cl:   -0.377677
   8 H :   -0.428107
   9 H :   -0.397219
  10 H :   -0.397219
  11 H :   -0.322981
Sum of atomic charges:   -0.0000000

LOEWDIN ATOMIC CHARGES
----------------------
   0 C :    0.014545
   1 C :   -0.012936
   2 C :   -0.012936
   3 C :   -0.040877
   4 C :   -0.546610
   5 C :   -0.546610
   6 Cl:    0.571457
   7 Cl:    0.571457
   8 H :    0.006809
   9 H :   -0.000460
  10 H :   -0.000460
  11 H :   -0.003376

  Mayer bond orders larger than 0.100000
B(  0-C ,  1-C ) :   1.4797 B(  0-C ,  2-C ) :   1.4797 B(  0-C ,  3-C ) :  -0.2758
B(  0-C ,  6-Cl) :   0.1223 B(  0-C ,  7-Cl) :   0.1223 B(  0-C ,  8-H ) :   0.2970
B(  1-C ,  2-C ) :   0.2169 B(  1-C ,  3-C ) :   0.4330 B(  1-C ,  4-C ) :   1.4749
B(  1-C ,  6-Cl) :  -0.2371 B(  1-C ,  8-H ) :   0.2783 B(  1-C ,  9-H ) :   0.3647
B(  2-C ,  3-C ) :   0.4330 B(  2-C ,  5-C ) :   1.4749 B(  2-C ,  7-Cl) :  -0.2371
B(  2-C ,  8-H ) :   0.2783 B(  2-C , 10-H ) :   0.3647 B(  3-C ,  4-C ) :   1.1798
B(  3-C ,  5-C ) :   1.1798 B(  3-C ,  6-Cl) :  -0.4045 B(  3-C ,  7-Cl) :  -0.4045
B(  3-C ,  8-H ) :   0.1328 B(  3-C , 11-H ) :   0.3710 B(  4-C ,  5-C ) :  -0.2356
B(  4-C ,  6-Cl) :   1.0804 B(  4-C ,  7-Cl) :   0.1018 B(  4-C ,  8-H ) :  -0.1292
B(  4-C ,  9-H ) :   0.2859 B(  4-C , 11-H ) :   0.1620 B(  5-C ,  6-Cl) :   0.1018
B(  5-C ,  7-Cl) :   1.0804 B(  5-C ,  8-H ) :  -0.1292 B(  5-C , 10-H ) :   0.2859
B(  5-C , 11-H ) :   0.1620

MP2 TOTAL ENERGY:    -1149.671661678 Eh
FINAL SINGLE POINT ENERGY     -1149.671661678058

DIPOLE MOMENT
-------------
                                X             Y             Z
Electronic contribution:      0.00000      -0.00000      -6.54059
Nuclear contribution   :      0.00000       0.00000       7.29650
                        -----------------------------------------
Total Dipole Moment    :      0.00000      -0.00000       0.75591
                        -----------------------------------------
Magnitude (a.u.)       :      0.75591
Magnitude (Debye)      :      1.92137

Rotational constants in cm-1:     0.094051     0.028243     0.021721
Rotational constants in MHz :  2819.574862   846.713009   651.168375

                             ****ORCA TERMINATED NORMALLY****
TOTAL RUN TIME: 0 days 0 hours 0 minutes 58 seconds 827 msec
