                         Program Version 5.0.3 -  RELEASE  -
|  1> !ri-mp2 aug-cc-pvdz aug-cc-pvdz/c tightscf
|  2> %pal nprocs 16 end
|  3> %maxcore 3800
|  4>
|  5> * xyz 0 1
|  6> C      1.247559   -0.078864    0.000000
|  7> S      0.450603   -1.735060    0.000000
|  8> C      0.228680    1.019883    0.000000
|  9> C      1.856507   -2.863468    0.000000
| 10> O     -0.258876   -1.906083    1.263753
| 11> O     -0.258876   -1.906083   -1.263753
| 12> C     -0.258876    1.531692    1.203024
| 13> C     -0.258876    1.531692   -1.203024
| 14> C     -1.209742    2.543679    1.202823
| 15> C     -1.209742    2.543679   -1.202823
| 16> C     -1.686443    3.052509    0.000000
| 17> H      1.873727   -0.060312    0.890609
| 18> H      1.873727   -0.060312   -0.890609
| 19> H      1.425456   -3.862087    0.000000
| 20> H      2.444385   -2.705370   -0.900271
| 21> H      2.444385   -2.705370    0.900271
| 22> H      0.101136    1.130017    2.140706
| 23> H      0.101136    1.130017   -2.140706
| 24> H     -1.579760    2.932792    2.141610
| 25> H     -1.579760    2.932792   -2.141610
| 26> H     -2.426453    3.841310    0.000000
| 27> *
| 28>
| 29>                          ****END OF INPUT****

CARTESIAN COORDINATES (ANGSTROEM)
---------------------------------
  C      1.247559   -0.078864    0.000000
  S      0.450603   -1.735060    0.000000
  C      0.228680    1.019883    0.000000
  C      1.856507   -2.863468    0.000000
  O     -0.258876   -1.906083    1.263753
  O     -0.258876   -1.906083   -1.263753
  C     -0.258876    1.531692    1.203024
  C     -0.258876    1.531692   -1.203024
  C     -1.209742    2.543679    1.202823
  C     -1.209742    2.543679   -1.202823
  C     -1.686443    3.052509    0.000000
  H      1.873727   -0.060312    0.890609
  H      1.873727   -0.060312   -0.890609
  H      1.425456   -3.862087    0.000000
  H      2.444385   -2.705370   -0.900271
  H      2.444385   -2.705370    0.900271
  H      0.101136    1.130017    2.140706
  H      0.101136    1.130017   -2.140706
  H     -1.579760    2.932792    2.141610
  H     -1.579760    2.932792   -2.141610
  H     -2.426453    3.841310    0.000000

 Total Charge           Charge          ....    0
 Multiplicity           Mult            ....    1
 Number of Electrons    NEL             ....   90
 Basis Dimension        Dim             ....  347

ORBITAL ENERGIES
----------------

  NO   OCC          E(Eh)            E(eV)
   0   2.0000     -92.194353     -2508.7359
   1   2.0000     -20.549305      -559.1750
   2   2.0000     -20.549287      -559.1745
   3   2.0000     -11.293016      -307.2986
   4   2.0000     -11.285914      -307.1053
   5   2.0000     -11.262198      -306.4600
   6   2.0000     -11.248919      -306.0986
   7   2.0000     -11.248863      -306.0971
   8   2.0000     -11.247571      -306.0620
   9   2.0000     -11.245332      -306.0010
  10   2.0000     -11.245006      -305.9922
  11   2.0000      -9.167473      -249.4596
  12   2.0000      -6.852684      -186.4710
  13   2.0000      -6.851296      -186.4332
  14   2.0000      -6.851115      -186.4283
  15   2.0000      -1.446514       -39.3616
  16   2.0000      -1.332776       -36.2667
  17   2.0000      -1.172679       -31.9102
  18   2.0000      -1.087729       -29.5986
  19   2.0000      -1.042796       -28.3759
  20   2.0000      -1.026774       -27.9399
  21   2.0000      -0.972863       -26.4730
  22   2.0000      -0.840305       -22.8659
  23   2.0000      -0.840227       -22.8637
  24   2.0000      -0.799682       -21.7605
  25   2.0000      -0.710150       -19.3242
  26   2.0000      -0.687000       -18.6942
  27   2.0000      -0.672697       -18.3050
  28   2.0000      -0.667045       -18.1512
  29   2.0000      -0.643966       -17.5232
  30   2.0000      -0.639113       -17.3911
  31   2.0000      -0.606248       -16.4969
  32   2.0000      -0.602376       -16.3915
  33   2.0000      -0.596737       -16.2380
  34   2.0000      -0.582421       -15.8485
  35   2.0000      -0.579246       -15.7621
  36   2.0000      -0.515850       -14.0370
  37   2.0000      -0.506952       -13.7949
  38   2.0000      -0.500986       -13.6325
  39   2.0000      -0.487829       -13.2745
  40   2.0000      -0.482514       -13.1299
  41   2.0000      -0.460818       -12.5395
  42   2.0000      -0.432226       -11.7615
  43   2.0000      -0.343225        -9.3396
  44   2.0000      -0.339141        -9.2285
  45   0.0000       0.027791         0.7562
  46   0.0000       0.036456         0.9920
  47   0.0000       0.041313         1.1242
  48   0.0000       0.045175         1.2293
  49   0.0000       0.050913         1.3854

MULLIKEN ATOMIC CHARGES
-----------------------
   0 C :   -0.237597
   1 S :    2.382894
   2 C :    1.440141
   3 C :    0.091850
   4 O :   -1.239715
   5 O :   -1.239715
   6 C :    0.379680
   7 C :    0.379680
   8 C :    0.246750
   9 C :    0.246750
  10 C :    0.544377
  11 H :   -0.249316
  12 H :   -0.249316
  13 H :    0.033300
  14 H :   -0.002257
  15 H :   -0.002257
  16 H :   -0.588671
  17 H :   -0.588671
  18 H :   -0.453854
  19 H :   -0.453854
  20 H :   -0.440200
Sum of atomic charges:    0.0000000

LOEWDIN ATOMIC CHARGES
----------------------
   0 C :   -0.047012
   1 S :    0.911594
   2 C :   -0.229551
   3 C :    0.086900
   4 O :   -0.401094
   5 O :   -0.401094
   6 C :    0.049920
   7 C :    0.049920
   8 C :    0.017333
   9 C :    0.017333
  10 C :    0.015755
  11 H :    0.000875
  12 H :    0.000875
  13 H :   -0.029628
  14 H :   -0.035209
  15 H :   -0.035209
  16 H :    0.011291
  17 H :    0.011291
  18 H :    0.001949
  19 H :    0.001949
  20 H :    0.001812

  Mayer bond orders larger than 0.100000
B(  0-C ,  1-S ) :   0.9974 B(  0-C ,  2-C ) :   1.2550 B(  0-C ,  4-O ) :   0.2228
B(  0-C ,  5-O ) :   0.2228 B(  0-C ,  6-C ) :  -0.3728 B(  0-C ,  7-C ) :  -0.3728
B(  0-C ,  8-C ) :   0.1673 B(  0-C ,  9-C ) :   0.1673 B(  0-C , 11-H ) :   0.9958
B(  0-C , 12-H ) :   0.9958 B(  1-S ,  2-C ) :  -0.1325 B(  1-S ,  3-C ) :   1.2001
B(  1-S ,  4-O ) :   0.6738 B(  1-S ,  5-O ) :   0.6738 B(  2-C ,  6-C ) :   1.8890
B(  2-C ,  7-C ) :   1.8890 B(  2-C ,  8-C ) :  -0.3920 B(  2-C ,  9-C ) :  -0.3920
B(  2-C , 10-C ) :   0.2822 B(  2-C , 11-H ) :  -0.1402 B(  2-C , 12-H ) :  -0.1402
B(  2-C , 16-H ) :   0.5032 B(  2-C , 17-H ) :   0.5032 B(  3-C , 13-H ) :   0.9321
B(  3-C , 14-H ) :   0.9361 B(  3-C , 15-H ) :   0.9361 B(  4-O ,  5-O ) :   0.1531
B(  6-C ,  7-C ) :  -0.8797 B(  6-C ,  8-C ) :   1.9319 B(  6-C , 16-H ) :  -0.1135
B(  6-C , 18-H ) :   0.3705 B(  7-C ,  9-C ) :   1.9319 B(  7-C , 17-H ) :  -0.1135
B(  7-C , 19-H ) :   0.3705 B(  8-C , 10-C ) :   1.7905 B(  8-C , 16-H ) :   0.2949
B(  8-C , 18-H ) :   0.2188 B(  8-C , 20-H ) :   0.2435 B(  9-C , 10-C ) :   1.7905
B(  9-C , 17-H ) :   0.2949 B(  9-C , 19-H ) :   0.2188 B(  9-C , 20-H ) :   0.2435
B( 10-C , 18-H ) :   0.1587 B( 10-C , 19-H ) :   0.1587 B( 10-C , 20-H ) :   0.2692

MP2 TOTAL ENERGY:     -857.666045340 Eh
FINAL SINGLE POINT ENERGY      -857.666045339841

DIPOLE MOMENT
-------------
                                X             Y             Z
Electronic contribution:     -2.85549      -1.95789       0.00000
Nuclear contribution   :      4.62311       2.54883       0.00000
                        -----------------------------------------
Total Dipole Moment    :      1.76762       0.59094       0.00000
                        -----------------------------------------
Magnitude (a.u.)       :      1.86378
Magnitude (Debye)      :      4.73736

Rotational constants in cm-1:     0.078914     0.019061     0.017643
Rotational constants in MHz :  2365.779656   571.436141   528.935352

                             ****ORCA TERMINATED NORMALLY****
TOTAL RUN TIME: 0 days 0 hours 2 minutes 18 seconds 637 msec
