                         Program Version 5.0.3 -  RELEASE  -
|  1> !ri-mp2 aug-cc-pvdz aug-cc-pvdz/c tightscf
|  2> %pal nprocs 16 end
|  3>
|  4> * xyz 0 1
|  5> C      0.017458    0.114976   -0.000014
|  6> C     -2.442157   -0.010060    0.000035
|  7> C      2.370388   -0.058037    0.000016
|  8> N     -1.126195   -0.614338   -0.000060
|  9> O      0.091274    1.325205   -0.000014
| 10> O      1.096157   -0.714172    0.000010
| 11> H     -2.316092    1.068892   -0.000449
| 12> H     -3.008671   -0.296928    0.887756
| 13> H     -3.009081   -0.297691   -0.887170
| 14> H      2.483823    0.563324    0.886629
| 15> H      2.483850    0.563286   -0.886620
| 16> H      3.107408   -0.855675    0.000044
| 17> H     -1.031457   -1.614379    0.000035
| 18> *
| 19>
| 20>                          ****END OF INPUT****

CARTESIAN COORDINATES (ANGSTROEM)
---------------------------------
  C      0.017458    0.114976   -0.000014
  C     -2.442157   -0.010060    0.000035
  C      2.370388   -0.058037    0.000016
  N     -1.126195   -0.614338   -0.000060
  O      0.091274    1.325205   -0.000014
  O      1.096157   -0.714172    0.000010
  H     -2.316092    1.068892   -0.000449
  H     -3.008671   -0.296928    0.887756
  H     -3.009081   -0.297691   -0.887170
  H      2.483823    0.563324    0.886629
  H      2.483850    0.563286   -0.886620
  H      3.107408   -0.855675    0.000044
  H     -1.031457   -1.614379    0.000035

 Total Charge           Charge          ....    0
 Multiplicity           Mult            ....    1
 Number of Electrons    NEL             ....   48
 Basis Dimension        Dim             ....  201

ORBITAL ENERGIES
----------------

  NO   OCC          E(Eh)            E(eV)
   0   2.0000     -20.606276      -560.7253
   1   2.0000     -20.532941      -558.7297
   2   2.0000     -15.592976      -424.3064
   3   2.0000     -11.406759      -310.3937
   4   2.0000     -11.288811      -307.1842
   5   2.0000     -11.268894      -306.6422
   6   2.0000      -1.461166       -39.7603
   7   2.0000      -1.354359       -36.8540
   8   2.0000      -1.238237       -33.6941
   9   2.0000      -0.992569       -27.0092
  10   2.0000      -0.924484       -25.1565
  11   2.0000      -0.795799       -21.6548
  12   2.0000      -0.749369       -20.3914
  13   2.0000      -0.679259       -18.4836
  14   2.0000      -0.675875       -18.3915
  15   2.0000      -0.627285       -17.0693
  16   2.0000      -0.613382       -16.6910
  17   2.0000      -0.589959       -16.0536
  18   2.0000      -0.549477       -14.9520
  19   2.0000      -0.548413       -14.9231
  20   2.0000      -0.529490       -14.4081
  21   2.0000      -0.461809       -12.5665
  22   2.0000      -0.453133       -12.3304
  23   2.0000      -0.397120       -10.8062
  24   0.0000       0.032492         0.8842
  25   0.0000       0.042219         1.1488
  26   0.0000       0.051915         1.4127
  27   0.0000       0.054555         1.4845
  28   0.0000       0.065493         1.7822

MULLIKEN ATOMIC CHARGES
-----------------------
   0 C :    1.179461
   1 C :    0.755244
   2 C :    0.799863
   3 N :   -0.399062
   4 O :   -0.650516
   5 O :   -0.834578
   6 H :   -0.161348
   7 H :   -0.098367
   8 H :   -0.098471
   9 H :   -0.061879
  10 H :   -0.061881
  11 H :   -0.250869
  12 H :   -0.117598
Sum of atomic charges:   -0.0000000

LOEWDIN ATOMIC CHARGES
----------------------
   0 C :   -0.402468
   1 C :    0.188278
   2 C :    0.174194
   3 N :    0.075554
   4 O :    0.030155
   5 O :    0.049501
   6 H :   -0.019693
   7 H :   -0.017257
   8 H :   -0.017261
   9 H :   -0.019389
  10 H :   -0.019389
  11 H :   -0.027563
  12 H :    0.005338

  Mayer bond orders larger than 0.100000
B(  0-C ,  1-C ) :  -0.1013 B(  0-C ,  3-N ) :   1.0254 B(  0-C ,  4-O ) :   1.6120
B(  0-C ,  5-O ) :   0.8392 B(  1-C ,  3-N ) :   0.8613 B(  1-C ,  6-H ) :   1.0095
B(  1-C ,  7-H ) :   0.9611 B(  1-C ,  8-H ) :   0.9612 B(  2-C ,  5-O ) :   0.6651
B(  2-C ,  9-H ) :   0.9589 B(  2-C , 10-H ) :   0.9589 B(  2-C , 11-H ) :   1.0280
B(  3-N ,  5-O ) :  -0.1565 B(  3-N , 12-H ) :   1.1151

MP2 TOTAL ENERGY:     -322.914644372 Eh
FINAL SINGLE POINT ENERGY      -322.914644371868

DIPOLE MOMENT
-------------
                                X             Y             Z
Electronic contribution:      1.10419      -0.09465      -0.00016
Nuclear contribution   :     -1.29322      -0.87335       0.00023
                        -----------------------------------------
Total Dipole Moment    :     -0.18903      -0.96800       0.00007
                        -----------------------------------------
Magnitude (a.u.)       :      0.98628
Magnitude (Debye)      :      2.50693

Rotational constants in cm-1:     0.335570     0.074489     0.062389
Rotational constants in MHz : 10060.137430  2233.115820  1870.376049

                             ****ORCA TERMINATED NORMALLY****
TOTAL RUN TIME: 0 days 0 hours 0 minutes 53 seconds 676 msec
