                         Program Version 5.0.3 -  RELEASE  -
|  1> !ri-mp2 aug-cc-pvdz aug-cc-pvdz/c tightscf
|  2> %pal nprocs 16 end
|  3>
|  4> * xyz 0 1
|  5> C     -0.671285   -0.386770    0.000000
|  6> C      0.000000    0.736156    0.000000
|  7> C      1.508464    0.811358    0.000000
|  8> O     -1.266323   -1.387836    0.000000
|  9> H     -0.595082    1.639797    0.000000
| 10> H      1.954606   -0.181706    0.000000
| 11> H      1.873994    1.340067    0.882008
| 12> H      1.873994    1.340067   -0.882008
| 13> *
| 14>
| 15>                          ****END OF INPUT****

CARTESIAN COORDINATES (ANGSTROEM)
---------------------------------
  C     -0.671285   -0.386770    0.000000
  C      0.000000    0.736156    0.000000
  C      1.508464    0.811358    0.000000
  O     -1.266323   -1.387836    0.000000
  H     -0.595082    1.639797    0.000000
  H      1.954606   -0.181706    0.000000
  H      1.873994    1.340067    0.882008
  H      1.873994    1.340067   -0.882008

 Total Charge           Charge          ....    0
 Multiplicity           Mult            ....    1
 Number of Electrons    NEL             ....   30
 Basis Dimension        Dim             ....  128

ORBITAL ENERGIES
----------------

  NO   OCC          E(Eh)            E(eV)
   0   2.0000     -20.629359      -561.3534
   1   2.0000     -11.380625      -309.6825
   2   2.0000     -11.252310      -306.1909
   3   2.0000     -11.247388      -306.0570
   4   2.0000      -1.468195       -39.9516
   5   2.0000      -1.085997       -29.5515
   6   2.0000      -0.935771       -25.4636
   7   2.0000      -0.744927       -20.2705
   8   2.0000      -0.683395       -18.5961
   9   2.0000      -0.638957       -17.3869
  10   2.0000      -0.619623       -16.8608
  11   2.0000      -0.577679       -15.7194
  12   2.0000      -0.556634       -15.1468
  13   2.0000      -0.531989       -14.4762
  14   2.0000      -0.346447        -9.4273
  15   0.0000       0.032162         0.8752
  16   0.0000       0.046596         1.2679
  17   0.0000       0.055592         1.5127
  18   0.0000       0.057405         1.5621
  19   0.0000       0.086931         2.3655

MULLIKEN ATOMIC CHARGES
-----------------------
   0 C :   -0.216866
   1 C :    0.860610
   2 C :    0.224085
   3 O :   -0.451514
   4 H :   -0.296442
   5 H :   -0.130266
   6 H :    0.005197
   7 H :    0.005197
Sum of atomic charges:    0.0000000

LOEWDIN ATOMIC CHARGES
----------------------
   0 C :   -0.104254
   1 C :   -0.049078
   2 C :    0.128670
   3 O :    0.098586
   4 H :   -0.014124
   5 H :   -0.019584
   6 H :   -0.020108
   7 H :   -0.020108

  Mayer bond orders larger than 0.100000
B(  0-C ,  1-C ) :   1.0786 B(  0-C ,  3-O ) :   2.1145 B(  1-C ,  2-C ) :   1.0794
B(  1-C ,  3-O ) :  -0.1782 B(  1-C ,  4-H ) :   0.9095 B(  2-C ,  4-H ) :  -0.1196
B(  2-C ,  5-H ) :   0.9538 B(  2-C ,  6-H ) :   0.9415 B(  2-C ,  7-H ) :   0.9415

MP2 TOTAL ENERGY:     -191.388140792 Eh
FINAL SINGLE POINT ENERGY      -191.388140792167

DIPOLE MOMENT
-------------
                                X             Y             Z
Electronic contribution:     -4.57734      -3.42266      -0.00000
Nuclear contribution   :      5.11279       4.13677       0.00000
                        -----------------------------------------
Total Dipole Moment    :      0.53546       0.71411      -0.00000
                        -----------------------------------------
Magnitude (a.u.)       :      0.89256
Magnitude (Debye)      :      2.26871

Rotational constants in cm-1:     1.318442     0.149613     0.137811
Rotational constants in MHz : 39525.888585  4485.293078  4131.476334

                             ****ORCA TERMINATED NORMALLY****
TOTAL RUN TIME: 0 days 0 hours 0 minutes 34 seconds 443 msec
