                         Program Version 5.0.3 -  RELEASE  -
|  1> !ri-mp2 aug-cc-pvdz aug-cc-pvdz/c tightscf
|  2> %pal nprocs 16 end
|  3>
|  4> * xyz 0 1
|  5> C     -2.888226    0.352672    0.043352
|  6> C      2.230326    1.007436    0.361276
|  7> C     -1.472280    0.450501   -0.510263
|  8> S      1.475203   -0.449173   -0.449721
|  9> S     -0.358677   -0.632636    0.485898
| 10> H     -3.263170   -0.670018   -0.003336
| 11> H     -2.934951    0.684419    1.080970
| 12> H     -3.559094    0.983985   -0.541222
| 13> H      1.664668    1.911244    0.149935
| 14> H      3.229499    1.100849   -0.064440
| 15> H      2.305148    0.847335    1.433383
| 16> H     -1.100520    1.472025   -0.456081
| 17> H     -1.424923    0.115456   -1.544229
| 18> *
| 19>
| 20>                          ****END OF INPUT****

CARTESIAN COORDINATES (ANGSTROEM)
---------------------------------
  C     -2.888226    0.352672    0.043352
  C      2.230326    1.007436    0.361276
  C     -1.472280    0.450501   -0.510263
  S      1.475203   -0.449173   -0.449721
  S     -0.358677   -0.632636    0.485898
  H     -3.263170   -0.670018   -0.003336
  H     -2.934951    0.684419    1.080970
  H     -3.559094    0.983985   -0.541222
  H      1.664668    1.911244    0.149935
  H      3.229499    1.100849   -0.064440
  H      2.305148    0.847335    1.433383
  H     -1.100520    1.472025   -0.456081
  H     -1.424923    0.115456   -1.544229

 Total Charge           Charge          ....    0
 Multiplicity           Mult            ....    1
 Number of Electrons    NEL             ....   58
 Basis Dimension        Dim             ....  195

ORBITAL ENERGIES
----------------

  NO   OCC          E(Eh)            E(eV)
   0   2.0000     -91.973730     -2502.7324
   1   2.0000     -91.970352     -2502.6405
   2   2.0000     -11.269321      -306.6538
   3   2.0000     -11.265118      -306.5394
   4   2.0000     -11.237595      -305.7905
   5   2.0000      -8.973569      -244.1832
   6   2.0000      -8.970441      -244.0981
   7   2.0000      -6.655488      -181.1050
   8   2.0000      -6.653640      -181.0547
   9   2.0000      -6.652340      -181.0194
  10   2.0000      -6.651605      -180.9994
  11   2.0000      -6.650456      -180.9681
  12   2.0000      -6.648477      -180.9143
  13   2.0000      -1.089533       -29.6477
  14   2.0000      -1.038334       -28.2545
  15   2.0000      -0.948011       -25.7967
  16   2.0000      -0.854752       -23.2590
  17   2.0000      -0.781236       -21.2585
  18   2.0000      -0.634103       -17.2548
  19   2.0000      -0.609090       -16.5742
  20   2.0000      -0.594897       -16.1880
  21   2.0000      -0.580704       -15.8018
  22   2.0000      -0.542569       -14.7641
  23   2.0000      -0.521994       -14.2042
  24   2.0000      -0.505857       -13.7651
  25   2.0000      -0.472028       -12.8445
  26   2.0000      -0.434169       -11.8143
  27   2.0000      -0.352348        -9.5879
  28   2.0000      -0.347278        -9.4499
  29   0.0000       0.035021         0.9530
  30   0.0000       0.041379         1.1260
  31   0.0000       0.050074         1.3626
  32   0.0000       0.053455         1.4546
  33   0.0000       0.064291         1.7494

MULLIKEN ATOMIC CHARGES
-----------------------
   0 C :    0.346117
   1 C :    0.074079
   2 C :   -0.099780
   3 S :    0.082657
   4 S :    0.081139
   5 H :   -0.060039
   6 H :   -0.058452
   7 H :   -0.062790
   8 H :   -0.069285
   9 H :   -0.069219
  10 H :   -0.022517
  11 H :   -0.085131
  12 H :   -0.056778
Sum of atomic charges:   -0.0000000

LOEWDIN ATOMIC CHARGES
----------------------
   0 C :    0.060087
   1 C :   -0.190246
   2 C :   -0.371210
   3 S :    0.427297
   4 S :    0.467750
   5 H :   -0.026031
   6 H :   -0.026415
   7 H :   -0.021203
   8 H :   -0.079643
   9 H :   -0.074978
  10 H :   -0.075509
  11 H :   -0.046359
  12 H :   -0.043539

  Mayer bond orders larger than 0.100000
B(  0-C ,  2-C ) :   1.2608 B(  0-C ,  5-H ) :   0.9593 B(  0-C ,  6-H ) :   0.9625
B(  0-C ,  7-H ) :   0.9232 B(  1-C ,  3-S ) :   1.0374 B(  1-C ,  8-H ) :   1.0011
B(  1-C ,  9-H ) :   0.9903 B(  1-C , 10-H ) :   0.9993 B(  2-C ,  3-S ) :  -0.1067
B(  2-C ,  4-S ) :   1.1310 B(  2-C , 11-H ) :   0.9290 B(  2-C , 12-H ) :   0.9475
B(  3-S ,  4-S ) :   1.1554 B(  4-S , 12-H ) :  -0.1087

MP2 TOTAL ENERGY:     -914.080945816 Eh
FINAL SINGLE POINT ENERGY      -914.080945816125

DIPOLE MOMENT
-------------
                                X             Y             Z
Electronic contribution:      4.92438      -5.60424      -0.13007
Nuclear contribution   :     -5.15143       6.52125       0.05422
                        -----------------------------------------
Total Dipole Moment    :     -0.22705       0.91701      -0.07585
                        -----------------------------------------
Magnitude (a.u.)       :      0.94774
Magnitude (Debye)      :      2.40897

Rotational constants in cm-1:     0.242208     0.049771     0.047006
Rotational constants in MHz :  7261.206508  1492.094161  1409.209997

                             ****ORCA TERMINATED NORMALLY****
TOTAL RUN TIME: 0 days 0 hours 1 minutes 1 seconds 528 msec
