                         Program Version 5.0.3 -  RELEASE  -
|  1> !ri-mp2 aug-cc-pvdz aug-cc-pvdz/c tightscf
|  2> %pal nprocs 16 end
|  3>
|  4> * xyz 0 1
|  5> O     2.016475   -1.532303    0.023208
|  6> O    -1.977891   -0.721593   -0.043326
|  7> O    -1.306736    1.428753    0.077244
|  8> N     0.673411   -1.516062    0.017123
|  9> N     2.549934   -0.243148    0.003763
| 10> N     1.568662    1.902573   -0.089651
| 11> C     0.322741   -0.259915   -0.006268
| 12> C     1.509470    0.550011   -0.017954
| 13> C    -1.061961    0.241317    0.012304
| 14> C    -3.352842   -0.290458   -0.016320
| 15> H     0.715764    2.400412    0.105126
| 16> H     2.442779    2.350901    0.120191
| 17> H    -3.562178    0.355303   -0.866446
| 18> H    -3.561230    0.246902    0.906438
| 19> H    -3.938417   -1.201652   -0.071525
| 20> *
| 21>
| 22>                          ****END OF INPUT****

CARTESIAN COORDINATES (ANGSTROEM)
---------------------------------
  O      2.016475   -1.532303    0.023208
  O     -1.977891   -0.721593   -0.043326
  O     -1.306736    1.428753    0.077244
  N      0.673411   -1.516062    0.017123
  N      2.549934   -0.243148    0.003763
  N      1.568662    1.902573   -0.089651
  C      0.322741   -0.259915   -0.006268
  C      1.509470    0.550011   -0.017954
  C     -1.061961    0.241317    0.012304
  C     -3.352842   -0.290458   -0.016320
  H      0.715764    2.400412    0.105126
  H      2.442779    2.350901    0.120191
  H     -3.562178    0.355303   -0.866446
  H     -3.561230    0.246902    0.906438
  H     -3.938417   -1.201652   -0.071525

 Total Charge           Charge          ....    0
 Multiplicity           Mult            ....    1
 Number of Electrons    NEL             ....   74
 Basis Dimension        Dim             ....  275

ORBITAL ENERGIES
----------------

  NO   OCC          E(Eh)            E(eV)
   0   2.0000     -20.694726      -563.1321
   1   2.0000     -20.641166      -561.6747
   2   2.0000     -20.590763      -560.3031
   3   2.0000     -15.695153      -427.0868
   4   2.0000     -15.638201      -425.5371
   5   2.0000     -15.603820      -424.6015
   6   2.0000     -11.431395      -311.0641
   7   2.0000     -11.351646      -308.8940
   8   2.0000     -11.316576      -307.9397
   9   2.0000     -11.313238      -307.8489
  10   2.0000      -1.555998       -42.3409
  11   2.0000      -1.498117       -40.7658
  12   2.0000      -1.397634       -38.0316
  13   2.0000      -1.281766       -34.8786
  14   2.0000      -1.219824       -33.1931
  15   2.0000      -1.149375       -31.2761
  16   2.0000      -1.016158       -27.6511
  17   2.0000      -0.923843       -25.1391
  18   2.0000      -0.862203       -23.4617
  19   2.0000      -0.817286       -22.2395
  20   2.0000      -0.766276       -20.8514
  21   2.0000      -0.730096       -19.8669
  22   2.0000      -0.708998       -19.2928
  23   2.0000      -0.708013       -19.2660
  24   2.0000      -0.695809       -18.9339
  25   2.0000      -0.687602       -18.7106
  26   2.0000      -0.636267       -17.3137
  27   2.0000      -0.602715       -16.4007
  28   2.0000      -0.584151       -15.8956
  29   2.0000      -0.554718       -15.0947
  30   2.0000      -0.541682       -14.7399
  31   2.0000      -0.531938       -14.4748
  32   2.0000      -0.493594       -13.4314
  33   2.0000      -0.493034       -13.4161
  34   2.0000      -0.489710       -13.3257
  35   2.0000      -0.439027       -11.9465
  36   2.0000      -0.376728       -10.2513
  37   0.0000       0.029912         0.8140
  38   0.0000       0.036737         0.9997
  39   0.0000       0.053844         1.4652
  40   0.0000       0.054524         1.4837
  41   0.0000       0.061311         1.6684

MULLIKEN ATOMIC CHARGES
-----------------------
   0 O :   -0.794203
   1 O :   -0.897760
   2 O :   -0.743366
   3 N :   -0.450552
   4 N :   -0.303205
   5 N :   -0.265960
   6 C :    1.174031
   7 C :    0.620870
   8 C :    1.206128
   9 C :    0.791320
  10 H :    0.044270
  11 H :   -0.047734
  12 H :   -0.047647
  13 H :   -0.048000
  14 H :   -0.238194
Sum of atomic charges:    0.0000000

LOEWDIN ATOMIC CHARGES
----------------------
   0 O :    0.007987
   1 O :    0.069918
   2 O :    0.068252
   3 N :    0.119400
   4 N :    0.074742
   5 N :    0.284604
   6 C :   -0.138857
   7 C :   -0.282322
   8 C :   -0.303768
   9 C :    0.201721
  10 H :   -0.042206
  11 H :   -0.007489
  12 H :   -0.015486
  13 H :   -0.015459
  14 H :   -0.021035

  Mayer bond orders larger than 0.100000
B(  0-O ,  3-N ) :   0.9557 B(  0-O ,  4-N ) :   0.7066 B(  0-O ,  6-C ) :  -0.1608
B(  0-O ,  7-C ) :  -0.1246 B(  1-O ,  7-C ) :   0.1175 B(  1-O ,  8-C ) :   0.5144
B(  1-O ,  9-C ) :   0.6718 B(  2-O ,  8-C ) :   1.3650 B(  3-N ,  6-C ) :   1.1449
B(  3-N ,  8-C ) :  -0.1031 B(  4-N ,  7-C ) :   1.2447 B(  5-N ,  7-C ) :   0.9501
B(  5-N , 10-H ) :   1.0417 B(  5-N , 11-H ) :   1.1636 B(  6-C ,  7-C ) :   0.6647
B(  6-C ,  8-C ) :   0.6691 B(  7-C ,  8-C ) :   0.2491 B(  9-C , 12-H ) :   0.9669
B(  9-C , 13-H ) :   0.9662 B(  9-C , 14-H ) :   1.0055

MP2 TOTAL ENERGY:     -543.950457487 Eh
FINAL SINGLE POINT ENERGY      -543.950457487265

DIPOLE MOMENT
-------------
                                X             Y             Z
Electronic contribution:      6.47512      -3.09366      -0.00540
Nuclear contribution   :     -7.66759       4.02038       0.18868
                        -----------------------------------------
Total Dipole Moment    :     -1.19246       0.92672       0.18328
                        -----------------------------------------
Magnitude (a.u.)       :      1.52130
Magnitude (Debye)      :      3.86684

Rotational constants in cm-1:     0.092153     0.032828     0.024336
Rotational constants in MHz :  2762.663802   984.158851   729.580597

                             ****ORCA TERMINATED NORMALLY****
TOTAL RUN TIME: 0 days 0 hours 1 minutes 38 seconds 780 msec
