                         Program Version 5.0.3 -  RELEASE  -
|  1> !ri-mp2 aug-cc-pvdz aug-cc-pvdz/c tightscf
|  2> %pal nprocs 16 end
|  3>
|  4> * xyz 0 1
|  5> C     -0.122869    0.390343   -0.000727
|  6> N      1.132778   -0.147911   -0.053004
|  7> N     -1.171312   -0.329822    0.010738
|  8> H     -0.118022    1.483848   -0.004688
|  9> H      1.919698    0.417616    0.206986
| 10> H      1.214009   -1.140910    0.095135
| 11> H     -2.008734    0.241521    0.002787
| 12> *
| 13>
| 14>                          ****END OF INPUT****

CARTESIAN COORDINATES (ANGSTROEM)
---------------------------------
  C     -0.122869    0.390343   -0.000727
  N      1.132778   -0.147911   -0.053004
  N     -1.171312   -0.329822    0.010738
  H     -0.118022    1.483848   -0.004688
  H      1.919698    0.417616    0.206986
  H      1.214009   -1.140910    0.095135
  H     -2.008734    0.241521    0.002787

 Total Charge           Charge          ....    0
 Multiplicity           Mult            ....    1
 Number of Electrons    NEL             ....   24
 Basis Dimension        Dim             ....  105

ORBITAL ENERGIES
----------------

  NO   OCC          E(Eh)            E(eV)
   0   2.0000     -15.583594      -424.0512
   1   2.0000     -15.533414      -422.6857
   2   2.0000     -11.322985      -308.1141
   3   2.0000      -1.260538       -34.3010
   4   2.0000      -1.144681       -31.1484
   5   2.0000      -0.828256       -22.5380
   6   2.0000      -0.743144       -20.2220
   7   2.0000      -0.635068       -17.2811
   8   2.0000      -0.623685       -16.9713
   9   2.0000      -0.527134       -14.3441
  10   2.0000      -0.421019       -11.4565
  11   2.0000      -0.366684        -9.9780
  12   0.0000       0.030871         0.8400
  13   0.0000       0.044391         1.2079
  14   0.0000       0.054855         1.4927
  15   0.0000       0.074323         2.0224
  16   0.0000       0.099633         2.7112

MULLIKEN ATOMIC CHARGES
-----------------------
   0 C :    1.016122
   1 N :   -0.304884
   2 N :   -0.539230
   3 H :   -0.165002
   4 H :   -0.004008
   5 H :   -0.032751
   6 H :    0.029753
Sum of atomic charges:   -0.0000000

LOEWDIN ATOMIC CHARGES
----------------------
   0 C :   -0.181804
   1 N :    0.217583
   2 N :    0.111571
   3 H :    0.015435
   4 H :   -0.034060
   5 H :   -0.021346
   6 H :   -0.107379

  Mayer bond orders larger than 0.100000
B(  0-C ,  1-N ) :   0.9221 B(  0-C ,  2-N ) :   1.7531 B(  0-C ,  3-H ) :   0.8702
B(  1-N ,  4-H ) :   1.0958 B(  1-N ,  5-H ) :   1.1381 B(  2-N ,  6-H ) :   1.0057

MP2 TOTAL ENERGY:     -149.602909870 Eh
FINAL SINGLE POINT ENERGY      -149.602909869678

DIPOLE MOMENT
-------------
                                X             Y             Z
Electronic contribution:     -0.23272      -0.20701      -0.06131
Nuclear contribution   :      1.02996       1.02233       0.30690
                        -----------------------------------------
Total Dipole Moment    :      0.79723       0.81532       0.24559
                        -----------------------------------------
Magnitude (a.u.)       :      1.16647
Magnitude (Debye)      :      2.96493

Rotational constants in cm-1:     2.262087     0.360517     0.311943
Rotational constants in MHz : 67815.660741 10808.039101  9351.812258

                             ****ORCA TERMINATED NORMALLY****
TOTAL RUN TIME: 0 days 0 hours 0 minutes 47 seconds 172 msec
