                         Program Version 5.0.3 -  RELEASE  -
|  1> !ri-mp2 aug-cc-pvdz aug-cc-pvdz/c tightscf
|  2> %pal nprocs 16 end
|  3>
|  4> * xyz 0 1
|  5> O     -0.793144    1.368201   -0.000236
|  6> C     -0.564751    0.180694   -0.000163
|  7> C      0.769320   -0.452538   -0.000259
|  8> C      1.881122    0.280508    0.000126
|  9> C      3.269891   -0.259619    0.000137
| 10> O     -1.538842   -0.759642    0.000060
| 11> C     -2.885236   -0.262814    0.000226
| 12> H      0.797736   -1.534345   -0.001112
| 13> H      1.768232    1.360075    0.000946
| 14> H      3.819852    0.096612    0.875095
| 15> H      3.287143   -1.348669   -0.000445
| 16> H      3.820235    0.097410   -0.874284
| 17> H     -3.068501    0.342864    0.886099
| 18> H     -3.068919    0.342320   -0.885935
| 19> H     -3.521975   -1.142120    0.000642
| 20> *
| 21>
| 22>                          ****END OF INPUT****

CARTESIAN COORDINATES (ANGSTROEM)
---------------------------------
  O     -0.793144    1.368201   -0.000236
  C     -0.564751    0.180694   -0.000163
  C      0.769320   -0.452538   -0.000259
  C      1.881122    0.280508    0.000126
  C      3.269891   -0.259619    0.000137
  O     -1.538842   -0.759642    0.000060
  C     -2.885236   -0.262814    0.000226
  H      0.797736   -1.534345   -0.001112
  H      1.768232    1.360075    0.000946
  H      3.819852    0.096612    0.875095
  H      3.287143   -1.348669   -0.000445
  H      3.820235    0.097410   -0.874284
  H     -3.068501    0.342864    0.886099
  H     -3.068919    0.342320   -0.885935
  H     -3.521975   -1.142120    0.000642

 Total Charge           Charge          ....    0
 Multiplicity           Mult            ....    1
 Number of Electrons    NEL             ....   54
 Basis Dimension        Dim             ....  233

ORBITAL ENERGIES
----------------

  NO   OCC          E(Eh)            E(eV)
   0   2.0000     -20.607570      -560.7605
   1   2.0000     -20.545663      -559.0759
   2   2.0000     -11.383983      -309.7739
   3   2.0000     -11.288285      -307.1698
   4   2.0000     -11.268503      -306.6315
   5   2.0000     -11.245198      -305.9974
   6   2.0000     -11.241991      -305.9101
   7   2.0000      -1.456679       -39.6382
   8   2.0000      -1.355430       -36.8831
   9   2.0000      -1.100765       -29.9533
  10   2.0000      -1.001771       -27.2596
  11   2.0000      -0.947479       -25.7822
  12   2.0000      -0.819751       -22.3066
  13   2.0000      -0.751803       -20.4576
  14   2.0000      -0.713635       -19.4190
  15   2.0000      -0.672629       -18.3032
  16   2.0000      -0.664822       -18.0907
  17   2.0000      -0.607595       -16.5335
  18   2.0000      -0.597461       -16.2577
  19   2.0000      -0.583933       -15.8896
  20   2.0000      -0.551070       -14.9954
  21   2.0000      -0.548293       -14.9198
  22   2.0000      -0.525699       -14.3050
  23   2.0000      -0.518886       -14.1196
  24   2.0000      -0.457922       -12.4607
  25   2.0000      -0.445475       -12.1220
  26   2.0000      -0.377182       -10.2636
  27   0.0000       0.033650         0.9157
  28   0.0000       0.040219         1.0944
  29   0.0000       0.048178         1.3110
  30   0.0000       0.055229         1.5028
  31   0.0000       0.061477         1.6729

MULLIKEN ATOMIC CHARGES
-----------------------
   0 O :   -0.766120
   1 C :    0.442942
   2 C :    1.214116
   3 C :    0.032503
   4 C :    0.401451
   5 O :   -0.825469
   6 C :    0.826848
   7 H :   -0.558110
   8 H :   -0.444499
   9 H :    0.092434
  10 H :   -0.127097
  11 H :    0.092379
  12 H :   -0.059918
  13 H :   -0.059906
  14 H :   -0.261555
Sum of atomic charges:   -0.0000000

LOEWDIN ATOMIC CHARGES
----------------------
   0 O :    0.038269
   1 C :   -0.356250
   2 C :    0.036056
   3 C :    0.001177
   4 C :    0.151295
   5 O :    0.041355
   6 C :    0.175962
   7 H :   -0.001741
   8 H :    0.013752
   9 H :   -0.009771
  10 H :   -0.013916
  11 H :   -0.009764
  12 H :   -0.019623
  13 H :   -0.019615
  14 H :   -0.027185

  Mayer bond orders larger than 0.100000
B(  0-O ,  1-C ) :   1.5156 B(  1-C ,  2-C ) :   0.6972 B(  1-C ,  5-O ) :   0.5725
B(  1-C ,  7-H ) :   0.3967 B(  1-C ,  8-H ) :   0.1188 B(  2-C ,  3-C ) :   2.0704
B(  2-C ,  4-C ) :  -0.1581 B(  2-C , 10-H ) :  -0.1212 B(  3-C ,  4-C ) :   1.3044
B(  3-C ,  7-H ) :   0.2877 B(  3-C ,  8-H ) :   0.6772 B(  3-C , 10-H ) :   0.1390
B(  4-C ,  7-H ) :  -0.1479 B(  4-C ,  8-H ) :  -0.1158 B(  4-C ,  9-H ) :   0.8878
B(  4-C , 10-H ) :   0.9067 B(  4-C , 11-H ) :   0.8878 B(  5-O ,  6-C ) :   0.5867
B(  6-C , 12-H ) :   0.9922 B(  6-C , 13-H ) :   0.9923 B(  6-C , 14-H ) :   1.0045

MP2 TOTAL ENERGY:     -344.853434563 Eh
FINAL SINGLE POINT ENERGY      -344.853434563446

DIPOLE MOMENT
-------------
                                X             Y             Z
Electronic contribution:     -3.39946       1.15593      -0.00084
Nuclear contribution   :      3.84631      -1.79931       0.00102
                        -----------------------------------------
Total Dipole Moment    :      0.44685      -0.64338       0.00017
                        -----------------------------------------
Magnitude (a.u.)       :      0.78333
Magnitude (Debye)      :      1.99107

Rotational constants in cm-1:     0.304551     0.041279     0.036849
Rotational constants in MHz :  9130.208382  1237.524976  1104.698963

                             ****ORCA TERMINATED NORMALLY****
TOTAL RUN TIME: 0 days 0 hours 0 minutes 50 seconds 367 msec
