                         Program Version 5.0.3 -  RELEASE  -
|  1> !ri-mp2 aug-cc-pvdz aug-cc-pvdz/c tightscf
|  2> %pal nprocs 16 end
|  3>
|  4> * xyz 0 1
|  5> C      2.288662    0.176351    0.057230
|  6> C      1.130294   -0.527360   -0.632556
|  7> C     -0.786688    1.583975   -0.306161
|  8> S     -0.501180   -0.154526    0.071483
|  9> O     -0.417269   -0.287283    1.523670
| 10> O     -1.483277   -0.935076   -0.675425
| 11> H      2.280785   -0.024085    1.126808
| 12> H      3.231448   -0.185743   -0.353456
| 13> H      2.258771    1.255472   -0.093143
| 14> H      1.185809   -1.610963   -0.523095
| 15> H      1.058079   -0.300708   -1.695857
| 16> H     -0.772893    1.722266   -1.384003
| 17> H     -1.774988    1.803771    0.091152
| 18> H     -0.037380    2.193478    0.190821
| 19> *
| 20>
| 21>                          ****END OF INPUT****

CARTESIAN COORDINATES (ANGSTROEM)
---------------------------------
  C      2.288662    0.176351    0.057230
  C      1.130294   -0.527360   -0.632556
  C     -0.786688    1.583975   -0.306161
  S     -0.501180   -0.154526    0.071483
  O     -0.417269   -0.287283    1.523670
  O     -1.483277   -0.935076   -0.675425
  H      2.280785   -0.024085    1.126808
  H      3.231448   -0.185743   -0.353456
  H      2.258771    1.255472   -0.093143
  H      1.185809   -1.610963   -0.523095
  H      1.058079   -0.300708   -1.695857
  H     -0.772893    1.722266   -1.384003
  H     -1.774988    1.803771    0.091152
  H     -0.037380    2.193478    0.190821

 Total Charge           Charge          ....    0
 Multiplicity           Mult            ....    1
 Number of Electrons    NEL             ....   58
 Basis Dimension        Dim             ....  214

ORBITAL ENERGIES
----------------

  NO   OCC          E(Eh)            E(eV)
   0   2.0000     -92.193924     -2508.7242
   1   2.0000     -20.549252      -559.1736
   2   2.0000     -20.548669      -559.1577
   3   2.0000     -11.289127      -307.1928
   4   2.0000     -11.284838      -307.0761
   5   2.0000     -11.256170      -306.2960
   6   2.0000      -9.167242      -249.4533
   7   2.0000      -6.852494      -186.4658
   8   2.0000      -6.851101      -186.4279
   9   2.0000      -6.850887      -186.4221
  10   2.0000      -1.446648       -39.3653
  11   2.0000      -1.332588       -36.2616
  12   2.0000      -1.093997       -29.7692
  13   2.0000      -1.033265       -28.1166
  14   2.0000      -0.921206       -25.0673
  15   2.0000      -0.806120       -21.9356
  16   2.0000      -0.689305       -18.7569
  17   2.0000      -0.680140       -18.5075
  18   2.0000      -0.654803       -17.8181
  19   2.0000      -0.637869       -17.3573
  20   2.0000      -0.603465       -16.4211
  21   2.0000      -0.596624       -16.2350
  22   2.0000      -0.581570       -15.8253
  23   2.0000      -0.551867       -15.0171
  24   2.0000      -0.532802       -14.4983
  25   2.0000      -0.487959       -13.2780
  26   2.0000      -0.483491       -13.1565
  27   2.0000      -0.460971       -12.5436
  28   2.0000      -0.426417       -11.6034
  29   0.0000       0.026389         0.7181
  30   0.0000       0.038901         1.0585
  31   0.0000       0.044777         1.2184
  32   0.0000       0.051490         1.4011
  33   0.0000       0.063462         1.7269

MULLIKEN ATOMIC CHARGES
-----------------------
   0 C :    0.378146
   1 C :   -0.184707
   2 C :    0.012727
   3 S :    2.432546
   4 O :   -1.225798
   5 O :   -1.201763
   6 H :   -0.020840
   7 H :   -0.049284
   8 H :   -0.100970
   9 H :    0.003206
  10 H :   -0.076672
  11 H :   -0.011145
  12 H :    0.031253
  13 H :    0.013301
Sum of atomic charges:   -0.0000000

LOEWDIN ATOMIC CHARGES
----------------------
   0 C :    0.114598
   1 C :   -0.117580
   2 C :    0.085277
   3 S :    0.897096
   4 O :   -0.405985
   5 O :   -0.409548
   6 H :   -0.015176
   7 H :   -0.014234
   8 H :   -0.025298
   9 H :   -0.000046
  10 H :   -0.006520
  11 H :   -0.033418
  12 H :   -0.029247
  13 H :   -0.039918

  Mayer bond orders larger than 0.100000
B(  0-C ,  1-C ) :   1.2180 B(  0-C ,  6-H ) :   0.9431 B(  0-C ,  7-H ) :   0.9093
B(  0-C ,  8-H ) :   0.9749 B(  1-C ,  3-S ) :   1.0284 B(  1-C ,  4-O ) :   0.1209
B(  1-C ,  5-O ) :   0.1031 B(  1-C ,  9-H ) :   0.8487 B(  1-C , 10-H ) :   0.9282
B(  2-C ,  3-S ) :   1.1289 B(  2-C , 11-H ) :   0.9535 B(  2-C , 12-H ) :   0.9218
B(  2-C , 13-H ) :   0.9261 B(  3-S ,  4-O ) :   0.6856 B(  3-S ,  5-O ) :   0.6321
B(  4-O ,  5-O ) :   0.1259

MP2 TOTAL ENERGY:     -666.484772848 Eh
FINAL SINGLE POINT ENERGY      -666.484772848138

DIPOLE MOMENT
-------------
                                X             Y             Z
Electronic contribution:     -6.04636      -3.57071       1.69681
Nuclear contribution   :      7.46815       4.87358      -2.64841
                        -----------------------------------------
Total Dipole Moment    :      1.42179       1.30288      -0.95160
                        -----------------------------------------
Magnitude (a.u.)       :      2.15046
Magnitude (Debye)      :      5.46605

Rotational constants in cm-1:     0.138131     0.078156     0.075366
Rotational constants in MHz :  4141.072994  2343.058360  2259.428298

                             ****ORCA TERMINATED NORMALLY****
TOTAL RUN TIME: 0 days 0 hours 0 minutes 42 seconds 420 msec
