                         Program Version 5.0.3 -  RELEASE  -
|  1> !ri-mp2 aug-cc-pvdz aug-cc-pvdz/c tightscf
|  2> %pal nprocs 16 end
|  3> %maxcore 3800
|  4>
|  5> * xyz 0 1
|  6> C     -1.286273    0.390991    0.000000
|  7> C      1.112125    0.088865    0.000000
|  8> C     -1.467836   -0.981974    0.000000
|  9> C      0.942643   -1.286930    0.000000
| 10> C      0.000000    0.932795    0.000000
| 11> C     -0.346334   -1.799458    0.000000
| 12> C      0.128280    2.421778    0.000000
| 13> C      1.617644    4.250574    0.000000
| 14> N     -0.530904   -3.266994    0.000000
| 15> O     -0.811383    3.179716    0.000000
| 16> O     -1.675584   -3.692985    0.000000
| 17> O      0.472906   -3.963304    0.000000
| 18> O      1.410358    2.826665    0.000000
| 19> H     -2.134031    1.060043    0.000000
| 20> H      2.105499    0.509823    0.000000
| 21> H     -2.451989   -1.422851    0.000000
| 22> H      1.785123   -1.960132    0.000000
| 23> H      2.694123    4.387094    0.000000
| 24> H      1.172868    4.697195    0.886917
| 25> H      1.172868    4.697195   -0.886917
| 26> *
| 27>
| 28>                          ****END OF INPUT****

CARTESIAN COORDINATES (ANGSTROEM)
---------------------------------
  C     -1.286273    0.390991    0.000000
  C      1.112125    0.088865    0.000000
  C     -1.467836   -0.981974    0.000000
  C      0.942643   -1.286930    0.000000
  C      0.000000    0.932795    0.000000
  C     -0.346334   -1.799458    0.000000
  C      0.128280    2.421778    0.000000
  C      1.617644    4.250574    0.000000
  N     -0.530904   -3.266994    0.000000
  O     -0.811383    3.179716    0.000000
  O     -1.675584   -3.692985    0.000000
  O      0.472906   -3.963304    0.000000
  O      1.410358    2.826665    0.000000
  H     -2.134031    1.060043    0.000000
  H      2.105499    0.509823    0.000000
  H     -2.451989   -1.422851    0.000000
  H      1.785123   -1.960132    0.000000
  H      2.694123    4.387094    0.000000
  H      1.172868    4.697195    0.886917
  H      1.172868    4.697195   -0.886917

 Total Charge           Charge          ....    0
 Multiplicity           Mult            ....    1
 Number of Electrons    NEL             ....   94
 Basis Dimension        Dim             ....  362

ORBITAL ENERGIES
----------------

  NO   OCC          E(Eh)            E(eV)
   0   2.0000     -20.633176      -561.4573
   1   2.0000     -20.621735      -561.1459
   2   2.0000     -20.621509      -561.1398
   3   2.0000     -20.575860      -559.8976
   4   2.0000     -15.870550      -431.8596
   5   2.0000     -11.413471      -310.5763
   6   2.0000     -11.330423      -308.3165
   7   2.0000     -11.308719      -307.7259
   8   2.0000     -11.292548      -307.2859
   9   2.0000     -11.287342      -307.1442
  10   2.0000     -11.286467      -307.1204
  11   2.0000     -11.283947      -307.0518
  12   2.0000     -11.281098      -306.9743
  13   2.0000      -1.622497       -44.1504
  14   2.0000      -1.486402       -40.4471
  15   2.0000      -1.415418       -38.5155
  16   2.0000      -1.384947       -37.6863
  17   2.0000      -1.216527       -33.1034
  18   2.0000      -1.117105       -30.3980
  19   2.0000      -1.067027       -29.0353
  20   2.0000      -1.016265       -27.6540
  21   2.0000      -0.967138       -26.3172
  22   2.0000      -0.880095       -23.9486
  23   2.0000      -0.861795       -23.4506
  24   2.0000      -0.803509       -21.8646
  25   2.0000      -0.793156       -21.5829
  26   2.0000      -0.755546       -20.5595
  27   2.0000      -0.740096       -20.1390
  28   2.0000      -0.729504       -19.8508
  29   2.0000      -0.702292       -19.1103
  30   2.0000      -0.690500       -18.7895
  31   2.0000      -0.665168       -18.1001
  32   2.0000      -0.661865       -18.0103
  33   2.0000      -0.637357       -17.3434
  34   2.0000      -0.630994       -17.1702
  35   2.0000      -0.583815       -15.8864
  36   2.0000      -0.581223       -15.8159
  37   2.0000      -0.551072       -14.9954
  38   2.0000      -0.538519       -14.6539
  39   2.0000      -0.535990       -14.5850
  40   2.0000      -0.504506       -13.7283
  41   2.0000      -0.503073       -13.6893
  42   2.0000      -0.482181       -13.1208
  43   2.0000      -0.475091       -12.9279
  44   2.0000      -0.463361       -12.6087
  45   2.0000      -0.388918       -10.5830
  46   2.0000      -0.377230       -10.2650
  47   0.0000       0.015799         0.4299
  48   0.0000       0.027335         0.7438
  49   0.0000       0.038405         1.0451
  50   0.0000       0.040106         1.0913
  51   0.0000       0.054819         1.4917

MULLIKEN ATOMIC CHARGES
-----------------------
   0 C :    0.099070
   1 C :    0.452294
   2 C :    0.602137
   3 C :    0.395023
   4 C :    1.550852
   5 C :    1.012789
   6 C :    0.404507
   7 C :    0.821450
   8 N :    0.443792
   9 O :   -0.723690
  10 O :   -0.785069
  11 O :   -0.787055
  12 O :   -0.893180
  13 H :   -0.663812
  14 H :   -0.608883
  15 H :   -0.476473
  16 H :   -0.492127
  17 H :   -0.272675
  18 H :   -0.039475
  19 H :   -0.039475
Sum of atomic charges:    0.0000000

LOEWDIN ATOMIC CHARGES
----------------------
   0 C :    0.090753
   1 C :    0.085897
   2 C :    0.089618
   3 C :    0.086656
   4 C :   -0.106504
   5 C :   -0.101917
   6 C :   -0.303161
   7 C :    0.192242
   8 N :   -0.330738
   9 O :    0.064304
  10 O :    0.095099
  11 O :    0.093764
  12 O :    0.055102
  13 H :    0.016717
  14 H :    0.009133
  15 H :    0.009463
  16 H :    0.008693
  17 H :   -0.023467
  18 H :   -0.015828
  19 H :   -0.015828

  Mayer bond orders larger than 0.100000
B(  0-C ,  1-C ) :  -1.1321 B(  0-C ,  2-C ) :   2.6719 B(  0-C ,  3-C ) :   0.1246
B(  0-C ,  4-C ) :   1.5682 B(  0-C ,  5-C ) :   0.1383 B(  0-C ,  6-C ) :  -0.8562
B(  0-C , 13-H ) :  -0.3948 B(  0-C , 15-H ) :   0.3446 B(  1-C ,  3-C ) :   2.2521
B(  1-C ,  4-C ) :   2.1823 B(  1-C ,  6-C ) :  -0.4916 B(  1-C , 13-H ) :   0.1243
B(  1-C , 14-H ) :  -0.1138 B(  1-C , 16-H ) :   0.2843 B(  2-C ,  4-C ) :  -1.0051
B(  2-C ,  5-C ) :   1.1657 B(  2-C ,  6-C ) :   0.3241 B(  2-C ,  8-N ) :  -0.1264
B(  2-C , 13-H ) :   0.2790 B(  3-C ,  4-C ) :  -0.7179 B(  3-C ,  5-C ) :   1.2064
B(  3-C ,  6-C ) :   0.3385 B(  3-C ,  8-N ) :  -0.1308 B(  3-C , 14-H ) :   0.4526
B(  4-C ,  5-C ) :   0.3379 B(  4-C ,  6-C ) :   0.4654 B(  4-C ,  9-O ) :  -0.1217
B(  4-C , 12-O ) :   0.1417 B(  4-C , 13-H ) :   0.7664 B(  4-C , 14-H ) :   0.3564
B(  5-C ,  8-N ) :   0.4135 B(  5-C , 10-O ) :  -0.2423 B(  5-C , 11-O ) :  -0.2303
B(  5-C , 13-H ) :  -0.2551 B(  5-C , 14-H ) :  -0.1251 B(  5-C , 15-H ) :   0.4609
B(  5-C , 16-H ) :   0.5060 B(  6-C ,  9-O ) :   1.5758 B(  6-C , 12-O ) :   0.5584
B(  7-C , 12-O ) :   0.6063 B(  7-C , 17-H ) :   0.9857 B(  7-C , 18-H ) :   0.9925
B(  7-C , 19-H ) :   0.9925 B(  8-N , 10-O ) :   1.1449 B(  8-N , 11-O ) :   1.1365
B( 10-O , 11-O ) :   0.1997

MP2 TOTAL ENERGY:     -662.950297833 Eh
FINAL SINGLE POINT ENERGY      -662.950297832763

DIPOLE MOMENT
-------------
                                X             Y             Z
Electronic contribution:     -3.26471     -10.01059      -0.00000
Nuclear contribution   :      4.22163      11.61987       0.00000
                        -----------------------------------------
Total Dipole Moment    :      0.95692       1.60928      -0.00000
                        -----------------------------------------
Magnitude (a.u.)       :      1.87229
Magnitude (Debye)      :      4.75899

Rotational constants in cm-1:     0.091572     0.012078     0.010692
Rotational constants in MHz :  2745.268352   362.082112   320.534210

                             ****ORCA TERMINATED NORMALLY****
TOTAL RUN TIME: 0 days 0 hours 2 minutes 44 seconds 932 msec
