                         Program Version 5.0.3 -  RELEASE  -
|  1> !ri-mp2 aug-cc-pvdz aug-cc-pvdz/c tightscf
|  2> %pal nprocs 16 end
|  3> %maxcore 3800
|  4>
|  5> * xyz 0 1
|  6> C      1.488939    1.017839    0.000000
|  7> C     -3.766271   -2.671937    0.000000
|  8> C      3.138511    2.711319    0.000000
|  9> C      0.000000    0.760101    0.000000
| 10> C     -2.256886   -2.436231    0.000000
| 11> C     -0.365395   -0.720041    0.000000
| 12> C     -1.876026   -0.955711    0.000000
| 13> O      2.352499    0.176679    0.000000
| 14> O      1.749338    2.343823    0.000000
| 15> H     -4.235468   -2.228565    0.880789
| 16> H     -4.235468   -2.228565   -0.880789
| 17> H     -4.003230   -3.736674    0.000000
| 18> H      3.153724    3.796785    0.000000
| 19> H      3.636516    2.322018   -0.886207
| 20> H      3.636516    2.322018    0.886207
| 21> H     -0.422849    1.270771   -0.869472
| 22> H     -0.422849    1.270771    0.869472
| 23> H     -1.811861   -2.921057   -0.873831
| 24> H     -1.811861   -2.921057    0.873831
| 25> H      0.084585   -1.201251    0.871034
| 26> H      0.084585   -1.201251   -0.871034
| 27> H     -2.322130   -0.469995   -0.874710
| 28> H     -2.322130   -0.469995    0.874710
| 29> *
| 30>
| 31>                          ****END OF INPUT****

CARTESIAN COORDINATES (ANGSTROEM)
---------------------------------
  C      1.488939    1.017839    0.000000
  C     -3.766271   -2.671937    0.000000
  C      3.138511    2.711319    0.000000
  C      0.000000    0.760101    0.000000
  C     -2.256886   -2.436231    0.000000
  C     -0.365395   -0.720041    0.000000
  C     -1.876026   -0.955711    0.000000
  O      2.352499    0.176679    0.000000
  O      1.749338    2.343823    0.000000
  H     -4.235468   -2.228565    0.880789
  H     -4.235468   -2.228565   -0.880789
  H     -4.003230   -3.736674    0.000000
  H      3.153724    3.796785    0.000000
  H      3.636516    2.322018   -0.886207
  H      3.636516    2.322018    0.886207
  H     -0.422849    1.270771   -0.869472
  H     -0.422849    1.270771    0.869472
  H     -1.811861   -2.921057   -0.873831
  H     -1.811861   -2.921057    0.873831
  H      0.084585   -1.201251    0.871034
  H      0.084585   -1.201251   -0.871034
  H     -2.322130   -0.469995   -0.874710
  H     -2.322130   -0.469995    0.874710

 Total Charge           Charge          ....    0
 Multiplicity           Mult            ....    1
 Number of Electrons    NEL             ....   72
 Basis Dimension        Dim             ....  333

ORBITAL ENERGIES
----------------

  NO   OCC          E(Eh)            E(eV)
   0   2.0000     -20.608962      -560.7984
   1   2.0000     -20.553065      -559.2773
   2   2.0000     -11.384132      -309.7780
   3   2.0000     -11.290993      -307.2435
   4   2.0000     -11.246388      -306.0298
   5   2.0000     -11.227302      -305.5104
   6   2.0000     -11.225554      -305.4629
   7   2.0000     -11.224056      -305.4221
   8   2.0000     -11.218661      -305.2753
   9   2.0000      -1.460715       -39.7481
  10   2.0000      -1.360777       -37.0286
  11   2.0000      -1.094917       -29.7942
  12   2.0000      -1.044464       -28.4213
  13   2.0000      -0.983758       -26.7694
  14   2.0000      -0.931964       -25.3600
  15   2.0000      -0.844589       -22.9824
  16   2.0000      -0.794315       -21.6144
  17   2.0000      -0.766844       -20.8669
  18   2.0000      -0.696519       -18.9532
  19   2.0000      -0.678726       -18.4691
  20   2.0000      -0.670797       -18.2533
  21   2.0000      -0.649358       -17.6699
  22   2.0000      -0.607265       -16.5245
  23   2.0000      -0.598493       -16.2858
  24   2.0000      -0.572005       -15.5650
  25   2.0000      -0.559055       -15.2127
  26   2.0000      -0.554899       -15.0996
  27   2.0000      -0.527170       -14.3450
  28   2.0000      -0.519114       -14.1258
  29   2.0000      -0.507546       -13.8110
  30   2.0000      -0.482765       -13.1367
  31   2.0000      -0.470099       -12.7920
  32   2.0000      -0.465459       -12.6658
  33   2.0000      -0.464540       -12.6408
  34   2.0000      -0.458432       -12.4746
  35   2.0000      -0.440906       -11.9977
  36   0.0000       0.035209         0.9581
  37   0.0000       0.038865         1.0576
  38   0.0000       0.046038         1.2528
  39   0.0000       0.046275         1.2592
  40   0.0000       0.053331         1.4512

MULLIKEN ATOMIC CHARGES
-----------------------
   0 C :    0.839816
   1 C :    0.552068
   2 C :    0.877270
   3 C :    0.214135
   4 C :    0.499880
   5 C :    0.417067
   6 C :    0.209269
   7 O :   -0.703827
   8 O :   -0.839726
   9 H :   -0.096106
  10 H :   -0.096106
  11 H :   -0.077773
  12 H :   -0.272392
  13 H :   -0.063422
  14 H :   -0.063422
  15 H :   -0.081939
  16 H :   -0.081939
  17 H :   -0.176050
  18 H :   -0.176050
  19 H :   -0.220367
  20 H :   -0.220367
  21 H :   -0.220009
  22 H :   -0.220009
Sum of atomic charges:    0.0000000

LOEWDIN ATOMIC CHARGES
----------------------
   0 C :   -0.328446
   1 C :    0.131114
   2 C :    0.178465
   3 C :    0.031709
   4 C :   -0.071033
   5 C :   -0.023986
   6 C :   -0.040883
   7 O :    0.051857
   8 O :    0.044022
   9 H :   -0.020274
  10 H :   -0.020274
  11 H :   -0.021656
  12 H :   -0.026912
  13 H :   -0.019611
  14 H :   -0.019611
  15 H :    0.027785
  16 H :    0.027785
  17 H :    0.012128
  18 H :    0.012128
  19 H :    0.021653
  20 H :    0.021653
  21 H :    0.016192
  22 H :    0.016192

  Mayer bond orders larger than 0.100000
B(  0-C ,  3-C ) :   0.9704 B(  0-C ,  7-O ) :   1.6684 B(  0-C ,  8-O ) :   0.6547
B(  1-C ,  4-C ) :   1.1571 B(  1-C ,  9-H ) :   0.9086 B(  1-C , 10-H ) :   0.9086
B(  1-C , 11-H ) :   0.9218 B(  2-C ,  8-O ) :   0.5814 B(  2-C , 12-H ) :   0.9877
B(  2-C , 13-H ) :   0.9869 B(  2-C , 14-H ) :   0.9869 B(  3-C ,  5-C ) :   1.2194
B(  3-C ,  6-C ) :  -0.1113 B(  3-C , 15-H ) :   0.9563 B(  3-C , 16-H ) :   0.9563
B(  4-C ,  5-C ) :  -0.1172 B(  4-C ,  6-C ) :   1.2394 B(  4-C , 17-H ) :   0.7246
B(  4-C , 18-H ) :   0.7246 B(  5-C ,  6-C ) :   1.3340 B(  5-C , 19-H ) :   0.8150
B(  5-C , 20-H ) :   0.8150 B(  6-C , 17-H ) :   0.1010 B(  6-C , 18-H ) :   0.1010
B(  6-C , 21-H ) :   0.7514 B(  6-C , 22-H ) :   0.7514

MP2 TOTAL ENERGY:     -424.442415273 Eh
FINAL SINGLE POINT ENERGY      -424.442415272646

DIPOLE MOMENT
-------------
                                X             Y             Z
Electronic contribution:     10.93230       7.16093       0.00000
Nuclear contribution   :    -11.34981      -6.60211       0.00000
                        -----------------------------------------
Total Dipole Moment    :     -0.41751       0.55882       0.00000
                        -----------------------------------------
Magnitude (a.u.)       :      0.69757
Magnitude (Debye)      :      1.77308

Rotational constants in cm-1:     0.234824     0.015995     0.015226
Rotational constants in MHz :  7039.839904   479.529826   456.477392

                             ****ORCA TERMINATED NORMALLY****
TOTAL RUN TIME: 0 days 0 hours 1 minutes 52 seconds 909 msec
