                         Program Version 5.0.3 -  RELEASE  -
|  1> !ri-mp2 aug-cc-pvdz aug-cc-pvdz/c tightscf
|  2> %pal nprocs 16 end
|  3>
|  4> * xyz 0 1
|  5> N     -1.672206    0.735432    0.281233
|  6> H     -2.635471    0.448331    0.316740
|  7> H     -1.408035    1.582616    0.748896
|  8> C      1.669363   -0.902956    0.274192
|  9> H      1.491299   -1.339113    1.259311
| 10> H      1.537891   -1.708491   -0.448267
| 11> H      2.695543   -0.542835    0.230507
| 12> C      1.067908    1.453999   -0.283116
| 13> H      0.354906    2.225169   -0.540582
| 14> H      2.112388    1.736805   -0.297815
| 15> C     -0.747453   -0.216273   -0.042278
| 16> O     -1.070845   -1.348227   -0.361502
| 17> C      0.697462    0.204449   -0.006366
| 18> *
| 19>
| 20>                          ****END OF INPUT****

CARTESIAN COORDINATES (ANGSTROEM)
---------------------------------
  N     -1.672206    0.735432    0.281233
  H     -2.635471    0.448331    0.316740
  H     -1.408035    1.582616    0.748896
  C      1.669363   -0.902956    0.274192
  H      1.491299   -1.339113    1.259311
  H      1.537891   -1.708491   -0.448267
  H      2.695543   -0.542835    0.230507
  C      1.067908    1.453999   -0.283116
  H      0.354906    2.225169   -0.540582
  H      2.112388    1.736805   -0.297815
  C     -0.747453   -0.216273   -0.042278
  O     -1.070845   -1.348227   -0.361502
  C      0.697462    0.204449   -0.006366

 Total Charge           Charge          ....    0
 Multiplicity           Mult            ....    1
 Number of Electrons    NEL             ....   46
 Basis Dimension        Dim             ....  201

ORBITAL ENERGIES
----------------

  NO   OCC          E(Eh)            E(eV)
   0   2.0000     -20.533436      -558.7432
   1   2.0000     -15.593216      -424.3130
   2   2.0000     -11.364295      -309.2382
   3   2.0000     -11.264157      -306.5133
   4   2.0000     -11.251143      -306.1592
   5   2.0000     -11.231110      -305.6140
   6   2.0000      -1.389271       -37.8040
   7   2.0000      -1.216476       -33.1020
   8   2.0000      -1.096279       -29.8313
   9   2.0000      -0.949148       -25.8276
  10   2.0000      -0.866368       -23.5751
  11   2.0000      -0.762711       -20.7544
  12   2.0000      -0.717982       -19.5373
  13   2.0000      -0.671348       -18.2683
  14   2.0000      -0.629533       -17.1305
  15   2.0000      -0.602653       -16.3990
  16   2.0000      -0.585314       -15.9272
  17   2.0000      -0.552293       -15.0287
  18   2.0000      -0.536157       -14.5896
  19   2.0000      -0.527503       -14.3541
  20   2.0000      -0.431213       -11.7339
  21   2.0000      -0.414539       -11.2802
  22   2.0000      -0.379213       -10.3189
  23   0.0000       0.029226         0.7953
  24   0.0000       0.040251         1.0953
  25   0.0000       0.047212         1.2847
  26   0.0000       0.057138         1.5548
  27   0.0000       0.062034         1.6880

MULLIKEN ATOMIC CHARGES
-----------------------
   0 N :   -0.218841
   1 H :   -0.009952
   2 H :   -0.018935
   3 C :    0.232326
   4 H :    0.078016
   5 H :    0.078548
   6 H :   -0.127084
   7 C :    1.050940
   8 H :   -0.407793
   9 H :   -0.381673
  10 C :    0.646094
  11 O :   -0.828964
  12 C :   -0.092682
Sum of atomic charges:   -0.0000000

LOEWDIN ATOMIC CHARGES
----------------------
   0 N :    0.272943
   1 H :   -0.006955
   2 H :   -0.026692
   3 C :    0.169576
   4 H :   -0.003320
   5 H :   -0.005741
   6 H :   -0.014306
   7 C :    0.222871
   8 H :   -0.036591
   9 H :   -0.030102
  10 C :   -0.341210
  11 O :    0.024268
  12 C :   -0.224741

  Mayer bond orders larger than 0.100000
B(  0-N ,  1-H ) :   1.0788 B(  0-N ,  2-H ) :   1.0857 B(  0-N , 10-C ) :   0.9605
B(  3-C ,  4-H ) :   0.8345 B(  3-C ,  5-H ) :   0.8519 B(  3-C ,  6-H ) :   0.8407
B(  3-C , 10-C ) :  -0.1083 B(  3-C , 12-C ) :   1.4154 B(  4-H , 12-C ) :   0.1049
B(  5-H , 12-C ) :   0.1241 B(  6-H , 12-C ) :   0.1574 B(  7-C ,  8-H ) :   0.5825
B(  7-C ,  9-H ) :   0.5870 B(  7-C , 10-C ) :  -0.1318 B(  7-C , 12-C ) :   1.7837
B(  8-H ,  9-H ) :  -0.1710 B(  8-H , 12-C ) :   0.2525 B(  9-H , 12-C ) :   0.1338
B( 10-C , 11-O ) :   1.3098 B( 10-C , 12-C ) :   0.7010

MP2 TOTAL ENERGY:     -285.830183759 Eh
FINAL SINGLE POINT ENERGY      -285.830183758654

DIPOLE MOMENT
-------------
                                X             Y             Z
Electronic contribution:     -3.92253      -1.05462      -0.70702
Nuclear contribution   :      4.18408       2.42157       1.28384
                        -----------------------------------------
Total Dipole Moment    :      0.26155       1.36696       0.57683
                        -----------------------------------------
Magnitude (a.u.)       :      1.50655
Magnitude (Debye)      :      3.82936

Rotational constants in cm-1:     0.175280     0.111638     0.072886
Rotational constants in MHz :  5254.771624  3346.824446  2185.063911

                             ****ORCA TERMINATED NORMALLY****
TOTAL RUN TIME: 0 days 0 hours 0 minutes 53 seconds 803 msec
