                         Program Version 5.0.3 -  RELEASE  -
|  1> !ri-mp2 aug-cc-pvdz aug-cc-pvdz/c tightscf
|  2> %pal nprocs 16 end
|  3>
|  4> * xyz 0 1
|  5> C      0.000000    0.000000    1.764506
|  6> C      0.000000    1.210426    1.080320
|  7> C      0.000000   -1.210426    1.080320
|  8> C      0.000000    0.000000   -1.026563
|  9> C      0.000000    1.180185   -0.303243
| 10> C      0.000000   -1.180185   -0.303243
| 11> F      0.000000    2.345713   -0.982604
| 12> F      0.000000   -2.345713   -0.982604
| 13> H      0.000000    0.000000    2.845406
| 14> H      0.000000    2.158300    1.597384
| 15> H      0.000000   -2.158300    1.597384
| 16> H      0.000000    0.000000   -2.105879
| 17> *
| 18>
| 19>                          ****END OF INPUT****

CARTESIAN COORDINATES (ANGSTROEM)
---------------------------------
  C      0.000000    0.000000    1.764506
  C      0.000000    1.210426    1.080320
  C      0.000000   -1.210426    1.080320
  C      0.000000    0.000000   -1.026563
  C      0.000000    1.180185   -0.303243
  C      0.000000   -1.180185   -0.303243
  F      0.000000    2.345713   -0.982604
  F      0.000000   -2.345713   -0.982604
  H      0.000000    0.000000    2.845406
  H      0.000000    2.158300    1.597384
  H      0.000000   -2.158300    1.597384
  H      0.000000    0.000000   -2.105879

 Total Charge           Charge          ....    0
 Multiplicity           Mult            ....    1
 Number of Electrons    NEL             ....   58
 Basis Dimension        Dim             ....  220

ORBITAL ENERGIES
----------------

  NO   OCC          E(Eh)            E(eV)
   0   2.0000     -26.333506      -716.5711
   1   2.0000     -26.333506      -716.5711
   2   2.0000     -11.353572      -308.9464
   3   2.0000     -11.353565      -308.9462
   4   2.0000     -11.273135      -306.7576
   5   2.0000     -11.262202      -306.4601
   6   2.0000     -11.257724      -306.3382
   7   2.0000     -11.257661      -306.3365
   8   2.0000      -1.642848       -44.7042
   9   2.0000      -1.642211       -44.6868
  10   2.0000      -1.186078       -32.2748
  11   2.0000      -1.052190       -28.6316
  12   2.0000      -1.042183       -28.3593
  13   2.0000      -0.879359       -23.9286
  14   2.0000      -0.869619       -23.6635
  15   2.0000      -0.779314       -21.2062
  16   2.0000      -0.745253       -20.2794
  17   2.0000      -0.707884       -19.2625
  18   2.0000      -0.706768       -19.2321
  19   2.0000      -0.699884       -19.0448
  20   2.0000      -0.689242       -18.7552
  21   2.0000      -0.672587       -18.3020
  22   2.0000      -0.626908       -17.0590
  23   2.0000      -0.592829       -16.1317
  24   2.0000      -0.559245       -15.2178
  25   2.0000      -0.537050       -14.6139
  26   2.0000      -0.519546       -14.1376
  27   2.0000      -0.363596        -9.8939
  28   2.0000      -0.352709        -9.5977
  29   0.0000       0.032638         0.8881
  30   0.0000       0.043341         1.1794
  31   0.0000       0.043722         1.1897
  32   0.0000       0.058081         1.5805
  33   0.0000       0.089459         2.4343

MULLIKEN ATOMIC CHARGES
-----------------------
   0 C :    0.792700
   1 C :    0.174571
   2 C :    0.174571
   3 C :    0.036843
   4 C :    0.986977
   5 C :    0.986977
   6 F :   -0.807037
   7 F :   -0.807037
   8 H :   -0.429349
   9 H :   -0.391283
  10 H :   -0.391283
  11 H :   -0.326653
Sum of atomic charges:   -0.0000000

LOEWDIN ATOMIC CHARGES
----------------------
   0 C :    0.021282
   1 C :    0.046695
   2 C :    0.046695
   3 C :    0.091038
   4 C :   -0.189222
   5 C :   -0.189222
   6 F :    0.064744
   7 F :    0.064744
   8 H :    0.006874
   9 H :    0.008621
  10 H :    0.008621
  11 H :    0.019130

  Mayer bond orders larger than 0.100000
B(  0-C ,  1-C ) :   1.6617 B(  0-C ,  2-C ) :   1.6617 B(  0-C ,  4-C ) :  -0.1176
B(  0-C ,  5-C ) :  -0.1176 B(  0-C ,  8-H ) :   0.4036 B(  1-C ,  2-C ) :   0.2854
B(  1-C ,  3-C ) :   0.2833 B(  1-C ,  4-C ) :   1.5299 B(  1-C ,  6-F ) :   0.2440
B(  1-C ,  8-H ) :   0.1960 B(  1-C ,  9-H ) :   0.4800 B(  2-C ,  3-C ) :   0.2833
B(  2-C ,  5-C ) :   1.5299 B(  2-C ,  7-F ) :   0.2440 B(  2-C ,  8-H ) :   0.1960
B(  2-C , 10-H ) :   0.4800 B(  3-C ,  4-C ) :   1.6017 B(  3-C ,  5-C ) :   1.6017
B(  3-C ,  6-F ) :   0.3054 B(  3-C ,  7-F ) :   0.3054 B(  3-C , 11-H ) :   0.5050
B(  4-C ,  5-C ) :  -0.1943 B(  4-C ,  6-F ) :  -0.3691 B(  4-C ,  9-H ) :   0.2075
B(  5-C ,  7-F ) :  -0.3691 B(  5-C , 10-H ) :   0.2075

MP2 TOTAL ENERGY:     -429.654846191 Eh
FINAL SINGLE POINT ENERGY      -429.654846191373

DIPOLE MOMENT
-------------
                                X             Y             Z
Electronic contribution:      0.00000      -0.00000      -4.89445
Nuclear contribution   :      0.00000       0.00000       5.60911
                        -----------------------------------------
Total Dipole Moment    :      0.00000      -0.00000       0.71466
                        -----------------------------------------
Magnitude (a.u.)       :      0.71466
Magnitude (Debye)      :      1.81653

Rotational constants in cm-1:     0.125372     0.058714     0.039987
Rotational constants in MHz :  3758.569905  1760.209952  1198.792546

                             ****ORCA TERMINATED NORMALLY****
TOTAL RUN TIME: 0 days 0 hours 0 minutes 46 seconds 247 msec
