                         Program Version 5.0.3 -  RELEASE  -
|  1> !ri-mp2 aug-cc-pvdz aug-cc-pvdz/c tightscf
|  2> %pal nprocs 16 end
|  3> %maxcore 3800
|  4>
|  5> * xyz 0 1
|  6> N      1.383360   -1.709403   -0.280672
|  7> C      0.902676   -0.326707   -0.137165
|  8> C      2.097848    0.644277   -0.084187
|  9> O      1.986464    1.809740    0.191438
| 10> O      3.270321    0.085065   -0.408810
| 11> H      3.067922   -0.861838   -0.574079
| 12> C     -0.045437   -0.081707    1.039348
| 13> C     -1.394296   -0.791390    0.929264
| 14> S     -2.401897   -0.377571   -0.542342
| 15> C     -2.782880    1.376943   -0.230855
| 16> H      0.370857   -0.069835   -1.056761
| 17> H      0.441708   -0.411029    1.964287
| 18> H     -0.185549    0.993103    1.140986
| 19> H     -1.266805   -1.872991    0.865831
| 20> H     -1.989980   -0.594509    1.821028
| 21> H     -3.454759    1.689893   -1.027050
| 22> H     -3.289548    1.495435    0.725679
| 23> H     -1.889992    1.996927   -0.261114
| 24> H      1.404146   -2.198452    0.605725
| 25> H      0.817076   -2.246682   -0.921820
| 26> *
| 27>
| 28>                          ****END OF INPUT****

CARTESIAN COORDINATES (ANGSTROEM)
---------------------------------
  N      1.383360   -1.709403   -0.280672
  C      0.902676   -0.326707   -0.137165
  C      2.097848    0.644277   -0.084187
  O      1.986464    1.809740    0.191438
  O      3.270321    0.085065   -0.408810
  H      3.067922   -0.861838   -0.574079
  C     -0.045437   -0.081707    1.039348
  C     -1.394296   -0.791390    0.929264
  S     -2.401897   -0.377571   -0.542342
  C     -2.782880    1.376943   -0.230855
  H      0.370857   -0.069835   -1.056761
  H      0.441708   -0.411029    1.964287
  H     -0.185549    0.993103    1.140986
  H     -1.266805   -1.872991    0.865831
  H     -1.989980   -0.594509    1.821028
  H     -3.454759    1.689893   -1.027050
  H     -3.289548    1.495435    0.725679
  H     -1.889992    1.996927   -0.261114
  H      1.404146   -2.198452    0.605725
  H      0.817076   -2.246682   -0.921820

 Total Charge           Charge          ....    0
 Multiplicity           Mult            ....    1
 Number of Electrons    NEL             ....   80
 Basis Dimension        Dim             ....  310

ORBITAL ENERGIES
----------------

  NO   OCC          E(Eh)            E(eV)
   0   2.0000     -91.957978     -2502.3038
   1   2.0000     -20.604768      -560.6842
   2   2.0000     -20.546178      -559.0899
   3   2.0000     -15.592554      -424.2950
   4   2.0000     -11.383522      -309.7614
   5   2.0000     -11.296797      -307.4015
   6   2.0000     -11.279129      -306.9207
   7   2.0000     -11.266466      -306.5761
   8   2.0000     -11.254531      -306.2514
   9   2.0000      -8.959271      -243.7942
  10   2.0000      -6.641344      -180.7201
  11   2.0000      -6.639843      -180.6793
  12   2.0000      -6.637956      -180.6280
  13   2.0000      -1.455440       -39.6045
  14   2.0000      -1.359968       -37.0066
  15   2.0000      -1.226559       -33.3764
  16   2.0000      -1.098052       -29.8795
  17   2.0000      -1.029211       -28.0063
  18   2.0000      -0.965987       -26.2859
  19   2.0000      -0.885705       -24.1013
  20   2.0000      -0.812446       -22.1078
  21   2.0000      -0.790994       -21.5240
  22   2.0000      -0.743118       -20.2213
  23   2.0000      -0.700159       -19.0523
  24   2.0000      -0.668895       -18.2016
  25   2.0000      -0.637999       -17.3608
  26   2.0000      -0.625975       -17.0336
  27   2.0000      -0.617821       -16.8118
  28   2.0000      -0.608486       -16.5578
  29   2.0000      -0.589535       -16.0421
  30   2.0000      -0.582568       -15.8525
  31   2.0000      -0.548718       -14.9314
  32   2.0000      -0.531963       -14.4754
  33   2.0000      -0.528160       -14.3720
  34   2.0000      -0.486831       -13.2473
  35   2.0000      -0.468196       -12.7403
  36   2.0000      -0.465383       -12.6637
  37   2.0000      -0.434987       -11.8366
  38   2.0000      -0.417273       -11.3546
  39   2.0000      -0.350108        -9.5269
  40   0.0000       0.025577         0.6960
  41   0.0000       0.037012         1.0072
  42   0.0000       0.040662         1.1065
  43   0.0000       0.049739         1.3535
  44   0.0000       0.056022         1.5244

MULLIKEN ATOMIC CHARGES
-----------------------
   0 N :   -0.583692
   1 C :   -0.266067
   2 C :    1.358951
   3 O :   -0.770226
   4 O :   -0.709649
   5 H :    0.286511
   6 C :    0.494260
   7 C :    0.359068
   8 S :    0.362575
   9 C :    0.141231
  10 H :    0.066140
  11 H :   -0.095298
  12 H :   -0.261668
  13 H :   -0.158732
  14 H :   -0.049716
  15 H :   -0.113062
  16 H :   -0.100893
  17 H :   -0.098093
  18 H :    0.068583
  19 H :    0.069778
Sum of atomic charges:    0.0000000

LOEWDIN ATOMIC CHARGES
----------------------
   0 N :    0.223176
   1 C :   -0.174124
   2 C :   -0.311373
   3 O :    0.045161
   4 O :    0.214397
   5 H :   -0.093417
   6 C :   -0.051069
   7 C :   -0.276717
   8 S :    0.812460
   9 C :   -0.124828
  10 H :    0.026745
  11 H :    0.026663
  12 H :    0.004002
  13 H :   -0.037594
  14 H :   -0.027135
  15 H :   -0.069220
  16 H :   -0.063533
  17 H :   -0.068594
  18 H :   -0.025856
  19 H :   -0.029142

  Mayer bond orders larger than 0.100000
B(  0-N ,  1-C ) :   0.6044 B(  0-N , 18-H ) :   1.0950 B(  0-N , 19-H ) :   1.0603
B(  1-C ,  2-C ) :   1.0251 B(  1-C ,  3-O ) :   0.1009 B(  1-C ,  4-O ) :   0.2101
B(  1-C ,  6-C ) :   1.0350 B(  1-C ,  8-S ) :   0.1226 B(  1-C , 10-H ) :   0.9111
B(  1-C , 12-H ) :   0.1503 B(  2-C ,  3-O ) :   1.4347 B(  2-C ,  4-O ) :   0.3879
B(  4-O ,  5-H ) :   0.9301 B(  6-C ,  7-C ) :   1.2060 B(  6-C ,  8-S ) :  -0.1246
B(  6-C , 11-H ) :   0.8379 B(  6-C , 12-H ) :   0.7443 B(  6-C , 14-H ) :   0.1433
B(  7-C ,  8-S ) :   1.0163 B(  7-C , 13-H ) :   0.7900 B(  7-C , 14-H ) :   0.8886
B(  8-S ,  9-C ) :   1.0141 B(  9-C , 15-H ) :   0.9867 B(  9-C , 16-H ) :   1.0129
B(  9-C , 17-H ) :   0.9995 B( 11-H , 12-H ) :  -0.1059 B( 13-H , 14-H ) :  -0.1068

MP2 TOTAL ENERGY:     -798.972669378 Eh
FINAL SINGLE POINT ENERGY      -798.972669378031

DIPOLE MOMENT
-------------
                                X             Y             Z
Electronic contribution:      4.78015       0.60961      -2.88148
Nuclear contribution   :     -5.85023      -2.06274       3.31729
                        -----------------------------------------
Total Dipole Moment    :     -1.07008      -1.45313       0.43581
                        -----------------------------------------
Magnitude (a.u.)       :      1.85650
Magnitude (Debye)      :      4.71884

Rotational constants in cm-1:     0.080085     0.023355     0.020332
Rotational constants in MHz :  2400.884606   700.166264   609.539398

                             ****ORCA TERMINATED NORMALLY****
TOTAL RUN TIME: 0 days 0 hours 1 minutes 45 seconds 333 msec
