                         Program Version 5.0.3 -  RELEASE  -
|  1> !ri-mp2 aug-cc-pvdz aug-cc-pvdz/c tightscf
|  2> %pal nprocs 16 end
|  3>
|  4> * xyz 0 1
|  5> C      0.048051    1.161675    0.000000
|  6> S      0.048051   -0.668872    0.000000
|  7> H     -0.431921    1.553804    0.892468
|  8> H     -0.431921    1.553804   -0.892468
|  9> H      1.092879    1.462961    0.000000
| 10> H     -1.286160   -0.838674    0.000000
| 11> *
| 12>
| 13>                          ****END OF INPUT****

CARTESIAN COORDINATES (ANGSTROEM)
---------------------------------
  C      0.048051    1.161675    0.000000
  S      0.048051   -0.668872    0.000000
  H     -0.431921    1.553804    0.892468
  H     -0.431921    1.553804   -0.892468
  H      1.092879    1.462961    0.000000
  H     -1.286160   -0.838674    0.000000

 Total Charge           Charge          ....    0
 Multiplicity           Mult            ....    1
 Number of Electrons    NEL             ....   26
 Basis Dimension        Dim             ....   86

ORBITAL ENERGIES
----------------

  NO   OCC          E(Eh)            E(eV)
   0   2.0000     -91.956613     -2502.2666
   1   2.0000     -11.266840      -306.5863
   2   2.0000      -8.958137      -243.7633
   3   2.0000      -6.640259      -180.6906
   4   2.0000      -6.638879      -180.6531
   5   2.0000      -6.636711      -180.5941
   6   2.0000      -1.036898       -28.2154
   7   2.0000      -0.869486       -23.6599
   8   2.0000      -0.607589       -16.5333
   9   2.0000      -0.592379       -16.1194
  10   2.0000      -0.527485       -14.3536
  11   2.0000      -0.458361       -12.4726
  12   2.0000      -0.357236        -9.7209
  13   0.0000       0.034979         0.9518
  14   0.0000       0.049709         1.3527
  15   0.0000       0.058419         1.5897
  16   0.0000       0.062728         1.7069
  17   0.0000       0.102918         2.8005

MULLIKEN ATOMIC CHARGES
-----------------------
   0 C :    0.020176
   1 S :    0.098133
   2 H :   -0.072782
   3 H :   -0.072782
   4 H :   -0.080346
   5 H :    0.107602
Sum of atomic charges:   -0.0000000

LOEWDIN ATOMIC CHARGES
----------------------
   0 C :   -0.173061
   1 S :    0.644231
   2 H :   -0.075711
   3 H :   -0.075711
   4 H :   -0.078198
   5 H :   -0.241551

  Mayer bond orders larger than 0.100000
B(  0-C ,  1-S ) :   1.0975 B(  0-C ,  2-H ) :   0.9955 B(  0-C ,  3-H ) :   0.9955
B(  0-C ,  4-H ) :   1.0237 B(  1-S ,  5-H ) :   0.9641

MP2 TOTAL ENERGY:     -438.032207088 Eh
FINAL SINGLE POINT ENERGY      -438.032207087720

DIPOLE MOMENT
-------------
                                X             Y             Z
Electronic contribution:      0.76232      -3.20437       0.00000
Nuclear contribution   :     -1.07460       3.80924       0.00000
                        -----------------------------------------
Total Dipole Moment    :     -0.31228       0.60487       0.00000
                        -----------------------------------------
Magnitude (a.u.)       :      0.68072
Magnitude (Debye)      :      1.73026

Rotational constants in cm-1:     3.440951     0.425321     0.407951
Rotational constants in MHz : 103157.116820 12750.809537 12230.060615

                             ****ORCA TERMINATED NORMALLY****
TOTAL RUN TIME: 0 days 0 hours 0 minutes 46 seconds 781 msec
