                         Program Version 5.0.3 -  RELEASE  -
|  1> !ri-mp2 aug-cc-pvdz aug-cc-pvdz/c tightscf
|  2> %pal nprocs 16 end
|  3>
|  4> * xyz 0 1
|  5> C     -0.309415   -2.118342    0.000000
|  6> C      0.000000    0.358652    0.000000
|  7> C      0.510898    2.662545    0.000000
|  8> C      0.648261   -1.022919    0.000000
|  9> N     -1.032584   -3.010339    0.000000
| 10> O     -1.177335    0.583267    0.000000
| 11> O      0.963844    1.293027    0.000000
| 12> H      1.413063    3.264948    0.000000
| 13> H     -0.085786    2.861008    0.887616
| 14> H     -0.085786    2.861008   -0.887616
| 15> H      1.298037   -1.102284    0.873564
| 16> H      1.298037   -1.102284   -0.873564
| 17> *
| 18>
| 19>                          ****END OF INPUT****

CARTESIAN COORDINATES (ANGSTROEM)
---------------------------------
  C     -0.309415   -2.118342    0.000000
  C      0.000000    0.358652    0.000000
  C      0.510898    2.662545    0.000000
  C      0.648261   -1.022919    0.000000
  N     -1.032584   -3.010339    0.000000
  O     -1.177335    0.583267    0.000000
  O      0.963844    1.293027    0.000000
  H      1.413063    3.264948    0.000000
  H     -0.085786    2.861008    0.887616
  H     -0.085786    2.861008   -0.887616
  H      1.298037   -1.102284    0.873564
  H      1.298037   -1.102284   -0.873564

 Total Charge           Charge          ....    0
 Multiplicity           Mult            ....    1
 Number of Electrons    NEL             ....   52
 Basis Dimension        Dim             ....  206

ORBITAL ENERGIES
----------------

  NO   OCC          E(Eh)            E(eV)
   0   2.0000     -20.639678      -561.6342
   1   2.0000     -20.584946      -560.1449
   2   2.0000     -15.589289      -424.2061
   3   2.0000     -11.423077      -310.8377
   4   2.0000     -11.317931      -307.9766
   5   2.0000     -11.313441      -307.8544
   6   2.0000     -11.291892      -307.2680
   7   2.0000      -1.494081       -40.6560
   8   2.0000      -1.395595       -37.9761
   9   2.0000      -1.235180       -33.6110
  10   2.0000      -1.094579       -29.7850
  11   2.0000      -0.989956       -26.9381
  12   2.0000      -0.819165       -22.2906
  13   2.0000      -0.744541       -20.2600
  14   2.0000      -0.727423       -19.7942
  15   2.0000      -0.708725       -19.2854
  16   2.0000      -0.675854       -18.3909
  17   2.0000      -0.647765       -17.6266
  18   2.0000      -0.615830       -16.7576
  19   2.0000      -0.562806       -15.3147
  20   2.0000      -0.562010       -15.2931
  21   2.0000      -0.554980       -15.1018
  22   2.0000      -0.489170       -13.3110
  23   2.0000      -0.488874       -13.3029
  24   2.0000      -0.469917       -12.7871
  25   2.0000      -0.466029       -12.6813
  26   0.0000       0.025336         0.6894
  27   0.0000       0.038855         1.0573
  28   0.0000       0.044685         1.2159
  29   0.0000       0.051826         1.4103
  30   0.0000       0.064164         1.7460

MULLIKEN ATOMIC CHARGES
-----------------------
   0 C :    0.076775
   1 C :    0.870639
   2 C :    0.838355
   3 C :    0.148169
   4 N :   -0.355403
   5 O :   -0.663635
   6 O :   -0.812503
   7 H :   -0.242327
   8 H :   -0.048216
   9 H :   -0.048216
  10 H :    0.118181
  11 H :    0.118181
Sum of atomic charges:   -0.0000000

LOEWDIN ATOMIC CHARGES
----------------------
   0 C :   -0.132623
   1 C :   -0.334571
   2 C :    0.196648
   3 C :    0.036547
   4 N :    0.086686
   5 O :    0.077140
   6 O :    0.050952
   7 H :   -0.023626
   8 H :   -0.016070
   9 H :   -0.016070
  10 H :    0.037493
  11 H :    0.037493

  Mayer bond orders larger than 0.100000
B(  0-C ,  3-C ) :   0.7860 B(  0-C ,  4-N ) :   2.7135 B(  1-C ,  3-C ) :   0.9791
B(  1-C ,  5-O ) :   1.6672 B(  1-C ,  6-O ) :   0.7244 B(  2-C ,  6-O ) :   0.5958
B(  2-C ,  7-H ) :   1.0293 B(  2-C ,  8-H ) :   0.9691 B(  2-C ,  9-H ) :   0.9691
B(  3-C , 10-H ) :   0.9383 B(  3-C , 11-H ) :   0.9383

MP2 TOTAL ENERGY:     -359.700423960 Eh
FINAL SINGLE POINT ENERGY      -359.700423959598

DIPOLE MOMENT
-------------
                                X             Y             Z
Electronic contribution:     -2.04249      -5.19134       0.00000
Nuclear contribution   :      3.77292       6.69631       0.00000
                        -----------------------------------------
Total Dipole Moment    :      1.73043       1.50497       0.00000
                        -----------------------------------------
Magnitude (a.u.)       :      2.29332
Magnitude (Debye)      :      5.82917

Rotational constants in cm-1:     0.317898     0.046654     0.041307
Rotational constants in MHz :  9530.352229  1398.664634  1238.356893

                             ****ORCA TERMINATED NORMALLY****
TOTAL RUN TIME: 0 days 0 hours 0 minutes 58 seconds 527 msec
