                         Program Version 5.0.3 -  RELEASE  -
|  1> !ri-mp2 aug-cc-pvdz aug-cc-pvdz/c tightscf
|  2> %pal nprocs 16 end
|  3>
|  4> * xyz 0 1
|  5> C     -1.162065   -0.316600    0.000000
|  6> C      3.891987    0.293233    0.000000
|  7> C     -3.521231   -0.471592    0.000000
|  8> C      0.000000    0.649193    0.000000
|  9> C      2.521478    0.967777    0.000000
| 10> C      1.364398   -0.031139    0.000000
| 11> O     -1.082593   -1.519471    0.000000
| 12> O     -2.339681    0.346164    0.000000
| 13> H      4.019803   -0.339306    0.880577
| 14> H      4.019803   -0.339306   -0.880577
| 15> H      4.697325    1.028826    0.000000
| 16> H     -3.548612   -1.103036    0.886262
| 17> H     -3.548612   -1.103036   -0.886262
| 18> H     -4.356547    0.221758    0.000000
| 19> H     -0.114752    1.302305   -0.869458
| 20> H     -0.114752    1.302305    0.869458
| 21> H      2.437814    1.621046    0.874090
| 22> H      2.437814    1.621046   -0.874090
| 23> H      1.440757   -0.685686    0.871083
| 24> H      1.440757   -0.685686   -0.871083
| 25> *
| 26>
| 27>                          ****END OF INPUT****

CARTESIAN COORDINATES (ANGSTROEM)
---------------------------------
  C     -1.162065   -0.316600    0.000000
  C      3.891987    0.293233    0.000000
  C     -3.521231   -0.471592    0.000000
  C      0.000000    0.649193    0.000000
  C      2.521478    0.967777    0.000000
  C      1.364398   -0.031139    0.000000
  O     -1.082593   -1.519471    0.000000
  O     -2.339681    0.346164    0.000000
  H      4.019803   -0.339306    0.880577
  H      4.019803   -0.339306   -0.880577
  H      4.697325    1.028826    0.000000
  H     -3.548612   -1.103036    0.886262
  H     -3.548612   -1.103036   -0.886262
  H     -4.356547    0.221758    0.000000
  H     -0.114752    1.302305   -0.869458
  H     -0.114752    1.302305    0.869458
  H      2.437814    1.621046    0.874090
  H      2.437814    1.621046   -0.874090
  H      1.440757   -0.685686    0.871083
  H      1.440757   -0.685686   -0.871083

 Total Charge           Charge          ....    0
 Multiplicity           Mult            ....    1
 Number of Electrons    NEL             ....   64
 Basis Dimension        Dim             ....  292

ORBITAL ENERGIES
----------------

  NO   OCC          E(Eh)            E(eV)
   0   2.0000     -20.609082      -560.8016
   1   2.0000     -20.553223      -559.2816
   2   2.0000     -11.384316      -309.7830
   3   2.0000     -11.291110      -307.2467
   4   2.0000     -11.246569      -306.0347
   5   2.0000     -11.228359      -305.5392
   6   2.0000     -11.227385      -305.5127
   7   2.0000     -11.219888      -305.3087
   8   2.0000      -1.460858       -39.7520
   9   2.0000      -1.360950       -37.0333
  10   2.0000      -1.090608       -29.6770
  11   2.0000      -1.024165       -27.8690
  12   2.0000      -0.965822       -26.2814
  13   2.0000      -0.886975       -24.1358
  14   2.0000      -0.803940       -21.8763
  15   2.0000      -0.767280       -20.8787
  16   2.0000      -0.696363       -18.9490
  17   2.0000      -0.678597       -18.4656
  18   2.0000      -0.671427       -18.2704
  19   2.0000      -0.643715       -17.5164
  20   2.0000      -0.596924       -16.2431
  21   2.0000      -0.590061       -16.0564
  22   2.0000      -0.578255       -15.7351
  23   2.0000      -0.538312       -14.6482
  24   2.0000      -0.536696       -14.6042
  25   2.0000      -0.525526       -14.3003
  26   2.0000      -0.498983       -13.5780
  27   2.0000      -0.480050       -13.0628
  28   2.0000      -0.475155       -12.9296
  29   2.0000      -0.469899       -12.7866
  30   2.0000      -0.458843       -12.4857
  31   2.0000      -0.442743       -12.0477
  32   0.0000       0.035109         0.9554
  33   0.0000       0.039335         1.0704
  34   0.0000       0.047605         1.2954
  35   0.0000       0.048472         1.3190
  36   0.0000       0.055364         1.5065

MULLIKEN ATOMIC CHARGES
-----------------------
   0 C :    0.846149
   1 C :    0.540660
   2 C :    0.865016
   3 C :    0.144998
   4 C :    0.396471
   5 C :    0.312984
   6 O :   -0.705814
   7 O :   -0.839570
   8 H :   -0.080580
   9 H :   -0.080580
  10 H :   -0.070348
  11 H :   -0.061556
  12 H :   -0.061556
  13 H :   -0.267779
  14 H :   -0.073462
  15 H :   -0.073462
  16 H :   -0.187093
  17 H :   -0.187093
  18 H :   -0.208693
  19 H :   -0.208693
Sum of atomic charges:    0.0000000

LOEWDIN ATOMIC CHARGES
----------------------
   0 C :   -0.328769
   1 C :    0.133319
   2 C :    0.178556
   3 C :    0.030258
   4 C :   -0.072228
   5 C :   -0.031128
   6 O :    0.051784
   7 O :    0.043957
   8 H :   -0.018785
   9 H :   -0.018785
  10 H :   -0.021459
  11 H :   -0.019593
  12 H :   -0.019593
  13 H :   -0.026921
  14 H :    0.027624
  15 H :    0.027624
  16 H :    0.010953
  17 H :    0.010953
  18 H :    0.021116
  19 H :    0.021116

  Mayer bond orders larger than 0.100000
B(  0-C ,  3-C ) :   1.0245 B(  0-C ,  6-O ) :   1.6688 B(  0-C ,  7-O ) :   0.6314
B(  1-C ,  4-C ) :   1.1789 B(  1-C ,  8-H ) :   0.9164 B(  1-C ,  9-H ) :   0.9164
B(  1-C , 10-H ) :   0.9073 B(  2-C ,  7-O ) :   0.5869 B(  2-C , 11-H ) :   0.9853
B(  2-C , 12-H ) :   0.9853 B(  2-C , 13-H ) :   0.9981 B(  3-C ,  4-C ) :  -0.1148
B(  3-C ,  5-C ) :   1.1737 B(  3-C , 14-H ) :   0.9511 B(  3-C , 15-H ) :   0.9511
B(  4-C ,  5-C ) :   1.2438 B(  4-C , 16-H ) :   0.7506 B(  4-C , 17-H ) :   0.7506
B(  5-C , 18-H ) :   0.8371 B(  5-C , 19-H ) :   0.8371

MP2 TOTAL ENERGY:     -385.254693667 Eh
FINAL SINGLE POINT ENERGY      -385.254693667313

DIPOLE MOMENT
-------------
                                X             Y             Z
Electronic contribution:     -9.22796      -2.20680       0.00000
Nuclear contribution   :      9.06116       2.92083       0.00000
                        -----------------------------------------
Total Dipole Moment    :     -0.16681       0.71403       0.00000
                        -----------------------------------------
Magnitude (a.u.)       :      0.73325
Magnitude (Debye)      :      1.86378

Rotational constants in cm-1:     0.253606     0.024449     0.022765
Rotational constants in MHz :  7602.923228   732.957149   682.486139

                             ****ORCA TERMINATED NORMALLY****
TOTAL RUN TIME: 0 days 0 hours 1 minutes 18 seconds 431 msec
