                         Program Version 5.0.3 -  RELEASE  -
|  1> !ri-mp2 aug-cc-pvdz aug-cc-pvdz/c tightscf
|  2> %pal nprocs 16 end
|  3>
|  4> * xyz 0 1
|  5> C      0.157346    2.550685    0.000000
|  6> C      0.000000    1.065125    0.000000
|  7> C      1.254968    0.250008    0.000000
|  8> C     -1.184685    0.435491    0.000000
|  9> O      2.350763    0.783788    0.000000
| 10> C      1.133424   -1.225777    0.000000
| 11> C     -1.308516   -1.034538    0.000000
| 12> C     -0.057139   -1.827836    0.000000
| 13> O     -2.399405   -1.581506    0.000000
| 14> H     -0.810637    3.047202    0.000000
| 15> H      0.726761    2.875723    0.872072
| 16> H      0.726761    2.875723   -0.872072
| 17> H     -2.120792    0.980088    0.000000
| 18> H      2.067297   -1.772322    0.000000
| 19> H     -0.172634   -2.903622    0.000000
| 20> *
| 21>
| 22>                          ****END OF INPUT****

CARTESIAN COORDINATES (ANGSTROEM)
---------------------------------
  C      0.157346    2.550685    0.000000
  C      0.000000    1.065125    0.000000
  C      1.254968    0.250008    0.000000
  C     -1.184685    0.435491    0.000000
  O      2.350763    0.783788    0.000000
  C      1.133424   -1.225777    0.000000
  C     -1.308516   -1.034538    0.000000
  C     -0.057139   -1.827836    0.000000
  O     -2.399405   -1.581506    0.000000
  H     -0.810637    3.047202    0.000000
  H      0.726761    2.875723    0.872072
  H      0.726761    2.875723   -0.872072
  H     -2.120792    0.980088    0.000000
  H      2.067297   -1.772322    0.000000
  H     -0.172634   -2.903622    0.000000

 Total Charge           Charge          ....    0
 Multiplicity           Mult            ....    1
 Number of Electrons    NEL             ....   64
 Basis Dimension        Dim             ....  261

ORBITAL ENERGIES
----------------

  NO   OCC          E(Eh)            E(eV)
   0   2.0000     -20.589450      -560.2674
   1   2.0000     -20.583222      -560.0980
   2   2.0000     -11.366942      -309.3102
   3   2.0000     -11.362720      -309.1953
   4   2.0000     -11.292498      -307.2845
   5   2.0000     -11.285563      -307.0958
   6   2.0000     -11.283862      -307.0495
   7   2.0000     -11.274370      -306.7912
   8   2.0000     -11.250488      -306.1413
   9   2.0000      -1.419854       -38.6362
  10   2.0000      -1.411950       -38.4211
  11   2.0000      -1.165045       -31.7025
  12   2.0000      -1.095246       -29.8032
  13   2.0000      -0.993439       -27.0329
  14   2.0000      -0.944873       -25.7113
  15   2.0000      -0.856898       -23.3174
  16   2.0000      -0.815434       -22.1891
  17   2.0000      -0.723169       -19.6784
  18   2.0000      -0.707099       -19.2411
  19   2.0000      -0.679610       -18.4931
  20   2.0000      -0.631718       -17.1899
  21   2.0000      -0.619251       -16.8507
  22   2.0000      -0.613926       -16.7058
  23   2.0000      -0.600804       -16.3487
  24   2.0000      -0.575943       -15.6722
  25   2.0000      -0.570021       -15.5111
  26   2.0000      -0.557200       -15.1622
  27   2.0000      -0.549121       -14.9423
  28   2.0000      -0.460502       -12.5309
  29   2.0000      -0.436920       -11.8892
  30   2.0000      -0.413479       -11.2513
  31   2.0000      -0.394984       -10.7481
  32   0.0000       0.006681         0.1818
  33   0.0000       0.031881         0.8675
  34   0.0000       0.035957         0.9784
  35   0.0000       0.046947         1.2775
  36   0.0000       0.056557         1.5390

MULLIKEN ATOMIC CHARGES
-----------------------
   0 C :    0.317463
   1 C :    0.156413
   2 C :   -0.035608
   3 C :    1.083018
   4 O :   -0.926320
   5 C :    0.816653
   6 C :    0.053730
   7 C :    0.694336
   8 O :   -0.845033
   9 H :   -0.136189
  10 H :    0.094463
  11 H :    0.094463
  12 H :   -0.505042
  13 H :   -0.458430
  14 H :   -0.403915
Sum of atomic charges:   -0.0000000

LOEWDIN ATOMIC CHARGES
----------------------
   0 C :    0.185921
   1 C :   -0.152689
   2 C :   -0.235516
   3 C :    0.116265
   4 O :    0.072779
   5 C :    0.092509
   6 C :   -0.278013
   7 C :    0.093660
   8 O :    0.058643
   9 H :   -0.008537
  10 H :    0.001950
  11 H :    0.001950
  12 H :    0.018511
  13 H :    0.015891
  14 H :    0.016677

  Mayer bond orders larger than 0.100000
B(  0-C ,  1-C ) :   1.5085 B(  0-C ,  2-C ) :  -0.2229 B(  0-C ,  3-C ) :  -0.2331
B(  0-C ,  5-C ) :   0.2200 B(  0-C ,  6-C ) :   0.3265 B(  0-C ,  9-H ) :   0.7426
B(  0-C , 10-H ) :   0.7911 B(  0-C , 11-H ) :   0.7911 B(  1-C ,  2-C ) :   0.9246
B(  1-C ,  3-C ) :   2.3056 B(  1-C ,  5-C ) :  -0.1614 B(  1-C ,  7-C ) :   0.1695
B(  1-C ,  8-O ) :   0.1153 B(  1-C ,  9-H ) :   0.3319 B(  1-C , 10-H ) :   0.2077
B(  1-C , 11-H ) :   0.2077 B(  1-C , 12-H ) :   0.3943 B(  2-C ,  3-C ) :  -0.4952
B(  2-C ,  4-O ) :   1.3649 B(  2-C ,  5-C ) :   1.1888 B(  2-C , 13-H ) :   0.3817
B(  3-C ,  6-C ) :   0.5632 B(  3-C ,  8-O ) :  -0.1618 B(  3-C ,  9-H ) :  -0.1620
B(  3-C , 12-H ) :   0.1372 B(  4-O ,  5-C ) :  -0.1181 B(  5-C ,  7-C ) :   2.1724
B(  5-C , 13-H ) :   0.2116 B(  5-C , 14-H ) :   0.2054 B(  6-C ,  7-C ) :   1.1073
B(  6-C ,  8-O ) :   1.4038 B(  6-C , 14-H ) :   0.1088 B(  7-C , 13-H ) :   0.1946
B(  7-C , 14-H ) :   0.4023

MP2 TOTAL ENERGY:     -419.644255546 Eh
FINAL SINGLE POINT ENERGY      -419.644255546390

DIPOLE MOMENT
-------------
                                X             Y             Z
Electronic contribution:     -0.24711      -4.73422       0.00000
Nuclear contribution   :      0.40943       5.00993       0.00000
                        -----------------------------------------
Total Dipole Moment    :      0.16232       0.27571       0.00000
                        -----------------------------------------
Magnitude (a.u.)       :      0.31994
Magnitude (Debye)      :      0.81322

Rotational constants in cm-1:     0.099009     0.048143     0.032584
Rotational constants in MHz :  2968.226898  1443.299808   976.857523

                             ****ORCA TERMINATED NORMALLY****
TOTAL RUN TIME: 0 days 0 hours 1 minutes 33 seconds 23 msec
