                         Program Version 5.0.3 -  RELEASE  -
|  1> !ri-mp2 aug-cc-pvdz aug-cc-pvdz/c tightscf
|  2> %pal nprocs 16 end
|  3>
|  4> * xyz 0 1
|  5> C      0.042677    0.344157    0.000000
|  6> C     -0.973754   -1.889957    0.743851
|  7> C     -0.973754   -1.889957   -0.743851
|  8> C      0.111176   -1.135227    0.000000
|  9> C      1.324994    2.327509    0.000000
| 10> O     -0.973754    0.998522    0.000000
| 11> O      1.277432    0.891383    0.000000
| 12> H     -1.716618   -1.286124    1.243595
| 13> H     -0.669468   -2.784850    1.266689
| 14> H     -0.669468   -2.784850   -1.266689
| 15> H     -1.716618   -1.286124   -1.243595
| 16> H      1.106406   -1.551725    0.000000
| 17> H      2.379774    2.584262    0.000000
| 18> H      0.834268    2.725508    0.886305
| 19> H      0.834268    2.725508   -0.886305
| 20> *
| 21>
| 22>                          ****END OF INPUT****

CARTESIAN COORDINATES (ANGSTROEM)
---------------------------------
  C      0.042677    0.344157    0.000000
  C     -0.973754   -1.889957    0.743851
  C     -0.973754   -1.889957   -0.743851
  C      0.111176   -1.135227    0.000000
  C      1.324994    2.327509    0.000000
  O     -0.973754    0.998522    0.000000
  O      1.277432    0.891383    0.000000
  H     -1.716618   -1.286124    1.243595
  H     -0.669468   -2.784850    1.266689
  H     -0.669468   -2.784850   -1.266689
  H     -1.716618   -1.286124   -1.243595
  H      1.106406   -1.551725    0.000000
  H      2.379774    2.584262    0.000000
  H      0.834268    2.725508    0.886305
  H      0.834268    2.725508   -0.886305

 Total Charge           Charge          ....    0
 Multiplicity           Mult            ....    1
 Number of Electrons    NEL             ....   54
 Basis Dimension        Dim             ....  233

ORBITAL ENERGIES
----------------

  NO   OCC          E(Eh)            E(eV)
   0   2.0000     -20.610421      -560.8381
   1   2.0000     -20.548214      -559.1453
   2   2.0000     -11.385454      -309.8139
   3   2.0000     -11.290534      -307.2311
   4   2.0000     -11.252764      -306.2033
   5   2.0000     -11.247430      -306.0581
   6   2.0000     -11.246738      -306.0393
   7   2.0000      -1.460027       -39.7293
   8   2.0000      -1.358877       -36.9769
   9   2.0000      -1.161673       -31.6107
  10   2.0000      -0.991056       -26.9680
  11   2.0000      -0.879472       -23.9317
  12   2.0000      -0.835778       -22.7427
  13   2.0000      -0.762911       -20.7599
  14   2.0000      -0.722738       -19.6667
  15   2.0000      -0.677965       -18.4484
  16   2.0000      -0.666936       -18.1482
  17   2.0000      -0.650817       -17.7096
  18   2.0000      -0.606279       -16.4977
  19   2.0000      -0.560636       -15.2557
  20   2.0000      -0.556441       -15.1415
  21   2.0000      -0.526636       -14.3305
  22   2.0000      -0.524288       -14.2666
  23   2.0000      -0.460472       -12.5301
  24   2.0000      -0.453437       -12.3386
  25   2.0000      -0.438395       -11.9293
  26   2.0000      -0.425186       -11.5699
  27   0.0000       0.034492         0.9386
  28   0.0000       0.041033         1.1166
  29   0.0000       0.048710         1.3255
  30   0.0000       0.050500         1.3742
  31   0.0000       0.064744         1.7618

MULLIKEN ATOMIC CHARGES
-----------------------
   0 C :    0.485910
   1 C :    0.770029
   2 C :    0.770029
   3 C :    0.954145
   4 C :    0.842862
   5 O :   -0.745818
   6 O :   -0.820425
   7 H :   -0.342442
   8 H :   -0.351800
   9 H :   -0.351800
  10 H :   -0.342442
  11 H :   -0.492923
  12 H :   -0.243760
  13 H :   -0.065782
  14 H :   -0.065782
Sum of atomic charges:    0.0000000

LOEWDIN ATOMIC CHARGES
----------------------
   0 C :   -0.323056
   1 C :    0.082139
   2 C :    0.082139
   3 C :   -0.097071
   4 C :    0.180098
   5 O :    0.047264
   6 O :    0.051857
   7 H :    0.005993
   8 H :    0.002099
   9 H :    0.002099
  10 H :    0.005993
  11 H :    0.025494
  12 H :   -0.026725
  13 H :   -0.019162
  14 H :   -0.019162

  Mayer bond orders larger than 0.100000
B(  0-C ,  1-C ) :   0.1286 B(  0-C ,  2-C ) :   0.1286 B(  0-C ,  3-C ) :   0.5050
B(  0-C ,  5-O ) :   1.4522 B(  0-C ,  6-O ) :   0.5699 B(  0-C ,  7-H ) :   0.1389
B(  0-C ,  8-H ) :   0.1010 B(  0-C ,  9-H ) :   0.1010 B(  0-C , 10-H ) :   0.1389
B(  0-C , 11-H ) :   0.2877 B(  1-C ,  2-C ) :   1.1074 B(  1-C ,  3-C ) :   0.7632
B(  1-C ,  7-H ) :   0.8252 B(  1-C ,  8-H ) :   0.7753 B(  2-C ,  3-C ) :   0.7632
B(  2-C ,  9-H ) :   0.7753 B(  2-C , 10-H ) :   0.8252 B(  3-C ,  7-H ) :  -0.1438
B(  3-C , 10-H ) :  -0.1438 B(  3-C , 11-H ) :   0.3863 B(  4-C ,  6-O ) :   0.5699
B(  4-C , 12-H ) :   1.0264 B(  4-C , 13-H ) :   0.9786 B(  4-C , 14-H ) :   0.9786
B(  7-H ,  8-H ) :  -0.1499 B(  9-H , 10-H ) :  -0.1499

MP2 TOTAL ENERGY:     -344.845943006 Eh
FINAL SINGLE POINT ENERGY      -344.845943006120

DIPOLE MOMENT
-------------
                                X             Y             Z
Electronic contribution:      0.21835       1.26291       0.00000
Nuclear contribution   :      0.39236      -1.64973       0.00000
                        -----------------------------------------
Total Dipole Moment    :      0.61071      -0.38682       0.00000
                        -----------------------------------------
Magnitude (a.u.)       :      0.72291
Magnitude (Debye)      :      1.83748

Rotational constants in cm-1:     0.242266     0.053877     0.049579
Rotational constants in MHz :  7262.940520  1615.202984  1486.336825

                             ****ORCA TERMINATED NORMALLY****
TOTAL RUN TIME: 0 days 0 hours 1 minutes 2 seconds 389 msec
