                         Program Version 5.0.3 -  RELEASE  -
|  1> !ri-mp2 aug-cc-pvdz aug-cc-pvdz/c tightscf
|  2> %pal nprocs 16 end
|  3>
|  4> * xyz 0 1
|  5> C      0.000000    0.000000        0.000000
|  6> H      0.628317    0.628317        0.628317
|  7> H     -0.628317   -0.628317        0.628317
|  8> H     -0.628317    0.628317       -0.628317
|  9> H      0.628317   -0.628317       -0.628317
| 10> *
| 11>
| 12>                          ****END OF INPUT****

CARTESIAN COORDINATES (ANGSTROEM)
---------------------------------
  C      0.000000    0.000000    0.000000
  H      0.628317    0.628317    0.628317
  H     -0.628317   -0.628317    0.628317
  H     -0.628317    0.628317   -0.628317
  H      0.628317   -0.628317   -0.628317

 Total Charge           Charge          ....    0
 Multiplicity           Mult            ....    1
 Number of Electrons    NEL             ....   10
 Basis Dimension        Dim             ....   59

ORBITAL ENERGIES
----------------

  NO   OCC          E(Eh)            E(eV)
   0   2.0000     -11.215004      -305.1758
   1   2.0000      -0.944037       -25.6885
   2   2.0000      -0.544125       -14.8064
   3   2.0000      -0.544125       -14.8064
   4   2.0000      -0.544125       -14.8064
   5   0.0000       0.036992         1.0066
   6   0.0000       0.063691         1.7331
   7   0.0000       0.063691         1.7331
   8   0.0000       0.063691         1.7331
   9   0.0000       0.146222         3.9789

MULLIKEN ATOMIC CHARGES
-----------------------
   0 C :    0.577829
   1 H :   -0.144457
   2 H :   -0.144457
   3 H :   -0.144457
   4 H :   -0.144457
Sum of atomic charges:   -0.0000000

LOEWDIN ATOMIC CHARGES
----------------------
   0 C :    0.265222
   1 H :   -0.066306
   2 H :   -0.066306
   3 H :   -0.066306
   4 H :   -0.066306

  Mayer bond orders larger than 0.100000
B(  0-C ,  1-H ) :   0.9794 B(  0-C ,  2-H ) :   0.9794 B(  0-C ,  3-H ) :   0.9794
B(  0-C ,  4-H ) :   0.9794

MP2 TOTAL ENERGY:      -40.367430515 Eh
FINAL SINGLE POINT ENERGY       -40.367430515078

DIPOLE MOMENT
-------------
                                X             Y             Z
Electronic contribution:      0.00000       0.00000       0.00000
Nuclear contribution   :      0.00000       0.00000       0.00000
                        -----------------------------------------
Total Dipole Moment    :      0.00000       0.00000       0.00000
                        -----------------------------------------
Magnitude (a.u.)       :      0.00000
Magnitude (Debye)      :      0.00000

Rotational constants in cm-1:     5.295278     5.295278     5.295278
Rotational constants in MHz : 158748.439259 158748.439259 158748.439259

                             ****ORCA TERMINATED NORMALLY****
TOTAL RUN TIME: 0 days 0 hours 0 minutes 33 seconds 95 msec
