                         Program Version 5.0.3 -  RELEASE  -
|  1> !ri-mp2 aug-cc-pvdz aug-cc-pvdz/c tightscf
|  2> %pal nprocs 16 end
|  3>
|  4> * xyz 0 1
|  5> C      2.017694   -0.664820        0.000000
|  6> C      1.387653    0.571113        0.000000
|  7> C      1.276764   -1.840590        0.000000
|  8> C     -0.768595   -0.561020        0.000000
|  9> C      0.000000    0.590564        0.000000
| 10> C     -0.116519   -1.789441        0.000000
| 11> N     -0.695089    1.896684        0.000000
| 12> O     -0.004530    2.904797        0.000000
| 13> O     -1.916677    1.890568        0.000000
| 14> O     -0.896581   -2.906357        0.000000
| 15> H      3.097332   -0.716014        0.000000
| 16> H      1.940706    1.495858        0.000000
| 17> H      1.780940   -2.799344        0.000000
| 18> H     -1.845347   -0.507182        0.000000
| 19> H     -0.347696   -3.696993        0.000000
| 20> *
| 21>
| 22>                          ****END OF INPUT****

CARTESIAN COORDINATES (ANGSTROEM)
---------------------------------
  C      2.017694   -0.664820    0.000000
  C      1.387653    0.571113    0.000000
  C      1.276764   -1.840590    0.000000
  C     -0.768595   -0.561020    0.000000
  C      0.000000    0.590564    0.000000
  C     -0.116519   -1.789441    0.000000
  N     -0.695089    1.896684    0.000000
  O     -0.004530    2.904797    0.000000
  O     -1.916677    1.890568    0.000000
  O     -0.896581   -2.906357    0.000000
  H      3.097332   -0.716014    0.000000
  H      1.940706    1.495858    0.000000
  H      1.780940   -2.799344    0.000000
  H     -1.845347   -0.507182    0.000000
  H     -0.347696   -3.696993    0.000000

 Total Charge           Charge          ....    0
 Multiplicity           Mult            ....    1
 Number of Electrons    NEL             ....   72
 Basis Dimension        Dim             ....  275

ORBITAL ENERGIES
----------------

  NO   OCC          E(Eh)            E(eV)
   0   2.0000     -20.625567      -561.2502
   1   2.0000     -20.614574      -560.9511
   2   2.0000     -20.614383      -560.9459
   3   2.0000     -15.863496      -431.6677
   4   2.0000     -11.340941      -308.6027
   5   2.0000     -11.322730      -308.1071
   6   2.0000     -11.278539      -306.9046
   7   2.0000     -11.276841      -306.8584
   8   2.0000     -11.274401      -306.7920
   9   2.0000     -11.272595      -306.7429
  10   2.0000      -1.615311       -43.9548
  11   2.0000      -1.437136       -39.1065
  12   2.0000      -1.408045       -38.3148
  13   2.0000      -1.202786       -32.7295
  14   2.0000      -1.096589       -29.8397
  15   2.0000      -1.051755       -28.6197
  16   2.0000      -0.969965       -26.3941
  17   2.0000      -0.867803       -23.6141
  18   2.0000      -0.853751       -23.2317
  19   2.0000      -0.796308       -21.6686
  20   2.0000      -0.735707       -20.0196
  21   2.0000      -0.722427       -19.6582
  22   2.0000      -0.720211       -19.5979
  23   2.0000      -0.712402       -19.3855
  24   2.0000      -0.680759       -18.5244
  25   2.0000      -0.638211       -17.3666
  26   2.0000      -0.618301       -16.8248
  27   2.0000      -0.602786       -16.4026
  28   2.0000      -0.569137       -15.4870
  29   2.0000      -0.542145       -14.7525
  30   2.0000      -0.519269       -14.1300
  31   2.0000      -0.497585       -13.5400
  32   2.0000      -0.495620       -13.4865
  33   2.0000      -0.456696       -12.4273
  34   2.0000      -0.382907       -10.4194
  35   2.0000      -0.348027        -9.4703
  36   0.0000       0.021297         0.5795
  37   0.0000       0.034143         0.9291
  38   0.0000       0.034824         0.9476
  39   0.0000       0.046482         1.2648
  40   0.0000       0.058445         1.5904

MULLIKEN ATOMIC CHARGES
-----------------------
   0 C :    0.486127
   1 C :    0.163708
   2 C :    0.316807
   3 C :    0.202688
   4 C :    1.596684
   5 C :    1.012393
   6 N :    0.460221
   7 O :   -0.817154
   8 O :   -0.803678
   9 O :   -0.920464
  10 H :   -0.427060
  11 H :   -0.451670
  12 H :   -0.577135
  13 H :   -0.430797
  14 H :    0.189329
Sum of atomic charges:   -0.0000000

LOEWDIN ATOMIC CHARGES
----------------------
   0 C :    0.029094
   1 C :    0.065321
   2 C :    0.064799
   3 C :    0.118437
   4 C :   -0.112021
   5 C :   -0.212019
   6 N :   -0.330196
   7 O :    0.090948
   8 O :    0.092793
   9 O :    0.193244
  10 H :    0.008744
  11 H :    0.002971
  12 H :    0.008116
  13 H :    0.014003
  14 H :   -0.034233

  Mayer bond orders larger than 0.100000
B(  0-C ,  1-C ) :   2.0133 B(  0-C ,  2-C ) :   1.8044 B(  0-C ,  4-C ) :  -0.2175
B(  0-C ,  5-C ) :  -0.3183 B(  0-C , 10-H ) :   0.2583 B(  0-C , 11-H ) :   0.1982
B(  0-C , 12-H ) :   0.1608 B(  1-C ,  2-C ) :   0.4739 B(  1-C ,  3-C ) :   0.3229
B(  1-C ,  4-C ) :   1.1614 B(  1-C ,  5-C ) :  -0.1218 B(  1-C , 10-H ) :   0.3420
B(  1-C , 11-H ) :   0.3211 B(  2-C ,  3-C ) :   0.1734 B(  2-C ,  4-C ) :   0.1059
B(  2-C ,  5-C ) :   1.4627 B(  2-C ,  9-O ) :   0.1667 B(  2-C , 10-H ) :   0.1983
B(  3-C ,  4-C ) :   1.4354 B(  3-C ,  5-C ) :   1.9095 B(  3-C ,  9-O ) :   0.1609
B(  3-C , 13-H ) :   0.3175 B(  4-C ,  5-C ) :  -0.1910 B(  4-C ,  6-N ) :   0.1852
B(  4-C , 11-H ) :   0.2130 B(  5-C ,  9-O ) :  -0.1739 B(  5-C , 10-H ) :  -0.1041
B(  5-C , 12-H ) :   0.4415 B(  5-C , 13-H ) :   0.3270 B(  5-C , 14-H ) :  -0.1133
B(  6-N ,  7-O ) :   1.0595 B(  6-N ,  8-O ) :   1.0716 B(  7-O ,  8-O ) :   0.2262
B(  9-O , 14-H ) :   1.0475

MP2 TOTAL ENERGY:     -510.686405608 Eh
FINAL SINGLE POINT ENERGY      -510.686405608474

DIPOLE MOMENT
-------------
                                X             Y             Z
Electronic contribution:     -3.03819       3.99381      -0.00000
Nuclear contribution   :      4.44948      -6.00993       0.00000
                        -----------------------------------------
Total Dipole Moment    :      1.41129      -2.01612      -0.00000
                        -----------------------------------------
Magnitude (a.u.)       :      2.46099
Magnitude (Debye)      :      6.25533

Rotational constants in cm-1:     0.091467     0.032955     0.024227
Rotational constants in MHz :  2742.098430   987.979507   726.295027

                             ****ORCA TERMINATED NORMALLY****
TOTAL RUN TIME: 0 days 0 hours 1 minutes 31 seconds 72 msec
