                         Program Version 5.0.3 -  RELEASE  -
|  1> !ri-mp2 aug-cc-pvdz aug-cc-pvdz/c tightscf
|  2> %pal nprocs 16 end
|  3>
|  4> * xyz 0 1
|  5> C      1.436557    1.185794    0.000000
|  6> C     -1.314175   -1.253686    0.000000
|  7> C      0.000000    0.706828    0.000000
|  8> O     -0.011621   -0.711204    0.000000
|  9> H      1.471309    2.276007    0.000000
| 10> H      1.962303    0.823929    0.883530
| 11> H      1.962303    0.823929   -0.883530
| 12> H     -1.877412   -0.946607    0.889974
| 13> H     -1.215654   -2.337382    0.000000
| 14> H     -1.877412   -0.946607   -0.889974
| 15> H     -0.533380    1.081375   -0.884588
| 16> H     -0.533380    1.081375    0.884588
| 17> *
| 18>
| 19>                          ****END OF INPUT****

CARTESIAN COORDINATES (ANGSTROEM)
---------------------------------
  C      1.436557    1.185794    0.000000
  C     -1.314175   -1.253686    0.000000
  C      0.000000    0.706828    0.000000
  O     -0.011621   -0.711204    0.000000
  H      1.471309    2.276007    0.000000
  H      1.962303    0.823929    0.883530
  H      1.962303    0.823929   -0.883530
  H     -1.877412   -0.946607    0.889974
  H     -1.215654   -2.337382    0.000000
  H     -1.877412   -0.946607   -0.889974
  H     -0.533380    1.081375   -0.884588
  H     -0.533380    1.081375    0.884588

 Total Charge           Charge          ....    0
 Multiplicity           Mult            ....    1
 Number of Electrons    NEL             ....   34
 Basis Dimension        Dim             ....  164

ORBITAL ENERGIES
----------------

  NO   OCC          E(Eh)            E(eV)
   0   2.0000     -20.561700      -559.5123
   1   2.0000     -11.278939      -306.9155
   2   2.0000     -11.275098      -306.8110
   3   2.0000     -11.219256      -305.2915
   4   2.0000      -1.373255       -37.3682
   5   2.0000      -1.025749       -27.9121
   6   2.0000      -0.915222       -24.9045
   7   2.0000      -0.830644       -22.6030
   8   2.0000      -0.666786       -18.1442
   9   2.0000      -0.652398       -17.7526
  10   2.0000      -0.624458       -16.9924
  11   2.0000      -0.581344       -15.8192
  12   2.0000      -0.534674       -14.5492
  13   2.0000      -0.506975       -13.7955
  14   2.0000      -0.501517       -13.6470
  15   2.0000      -0.473632       -12.8882
  16   2.0000      -0.418779       -11.3955
  17   0.0000       0.037222         1.0129
  18   0.0000       0.046460         1.2642
  19   0.0000       0.051954         1.4137
  20   0.0000       0.052150         1.4191
  21   0.0000       0.068248         1.8571

MULLIKEN ATOMIC CHARGES
-----------------------
   0 C :    0.227799
   1 C :    0.774136
   2 C :    0.695749
   3 O :   -0.883021
   4 H :   -0.038098
   5 H :   -0.046712
   6 H :   -0.046712
   7 H :   -0.064621
   8 H :   -0.260518
   9 H :   -0.064621
  10 H :   -0.146692
  11 H :   -0.146692
Sum of atomic charges:   -0.0000000

LOEWDIN ATOMIC CHARGES
----------------------
   0 C :    0.133748
   1 C :    0.116712
   2 C :   -0.095308
   3 O :   -0.031555
   4 H :   -0.018389
   5 H :   -0.017198
   6 H :   -0.017198
   7 H :   -0.025121
   8 H :   -0.029546
   9 H :   -0.025121
  10 H :    0.004488
  11 H :    0.004488

  Mayer bond orders larger than 0.100000
B(  0-C ,  2-C ) :   1.2856 B(  0-C ,  4-H ) :   0.9119 B(  0-C ,  5-H ) :   0.9520
B(  0-C ,  6-H ) :   0.9520 B(  1-C ,  3-O ) :   0.7405 B(  1-C ,  7-H ) :   0.9435
B(  1-C ,  8-H ) :   1.0628 B(  1-C ,  9-H ) :   0.9435 B(  2-C ,  3-O ) :   0.6362
B(  2-C , 10-H ) :   0.8824 B(  2-C , 11-H ) :   0.8824

MP2 TOTAL ENERGY:     -193.782964158 Eh
FINAL SINGLE POINT ENERGY      -193.782964158081

DIPOLE MOMENT
-------------
                                X             Y             Z
Electronic contribution:      0.25529      -1.63619       0.00000
Nuclear contribution   :     -0.68163       1.96018       0.00000
                        -----------------------------------------
Total Dipole Moment    :     -0.42634       0.32400       0.00000
                        -----------------------------------------
Magnitude (a.u.)       :      0.53548
Magnitude (Debye)      :      1.36108

Rotational constants in cm-1:     0.948344     0.137697     0.128974
Rotational constants in MHz : 28430.638960  4128.057989  3866.557217

                             ****ORCA TERMINATED NORMALLY****
TOTAL RUN TIME: 0 days 0 hours 0 minutes 38 seconds 513 msec
