                         Program Version 5.0.3 -  RELEASE  -
|  1> !ri-mp2 aug-cc-pvdz aug-cc-pvdz/c tightscf
|  2> %pal nprocs 16 end
|  3>
|  4> * xyz 0 1
|  5> S     -0.076909    1.429668   -0.296124
|  6> S     -2.320711   -0.430992    0.003087
|  7> N      0.165442   -1.221447    0.348448
|  8> N      2.533503   -1.512399   -0.373747
|  9> C     -0.698146   -0.166640    0.047913
| 10> C      1.601582    1.576805    0.424261
| 11> C      1.436783   -1.360875   -0.047466
| 12> H      2.364171    1.136291   -0.207540
| 13> H      1.754503    2.651749    0.498792
| 14> H      1.630211    1.146821    1.421550
| 15> H     -0.320892   -2.072484    0.604643
| 16> *
| 17>
| 18>                          ****END OF INPUT****

CARTESIAN COORDINATES (ANGSTROEM)
---------------------------------
  S     -0.076909    1.429668   -0.296124
  S     -2.320711   -0.430992    0.003087
  N      0.165442   -1.221447    0.348448
  N      2.533503   -1.512399   -0.373747
  C     -0.698146   -0.166640    0.047913
  C      1.601582    1.576805    0.424261
  C      1.436783   -1.360875   -0.047466
  H      2.364171    1.136291   -0.207540
  H      1.754503    2.651749    0.498792
  H      1.630211    1.146821    1.421550
  H     -0.320892   -2.072484    0.604643

 Total Charge           Charge          ....    0
 Multiplicity           Mult            ....    1
 Number of Electrons    NEL             ....   68
 Basis Dimension        Dim             ....  205

ORBITAL ENERGIES
----------------

  NO   OCC          E(Eh)            E(eV)
   0   2.0000     -92.010682     -2503.7379
   1   2.0000     -91.946578     -2501.9936
   2   2.0000     -15.688876      -426.9160
   3   2.0000     -15.609031      -424.7433
   4   2.0000     -11.420041      -310.7551
   5   2.0000     -11.349157      -308.8263
   6   2.0000     -11.294152      -307.3295
   7   2.0000      -9.012391      -245.2396
   8   2.0000      -8.950018      -243.5424
   9   2.0000      -6.694361      -182.1628
  10   2.0000      -6.692294      -182.1066
  11   2.0000      -6.690671      -182.0624
  12   2.0000      -6.632134      -180.4695
  13   2.0000      -6.629584      -180.4001
  14   2.0000      -6.628203      -180.3626
  15   2.0000      -1.356791       -36.9202
  16   2.0000      -1.243476       -33.8367
  17   2.0000      -1.118706       -30.4415
  18   2.0000      -1.043540       -28.3962
  19   2.0000      -0.924229       -25.1496
  20   2.0000      -0.870862       -23.6973
  21   2.0000      -0.813531       -22.1373
  22   2.0000      -0.663240       -18.0477
  23   2.0000      -0.644769       -17.5451
  24   2.0000      -0.625101       -17.0099
  25   2.0000      -0.606761       -16.5108
  26   2.0000      -0.591265       -16.0891
  27   2.0000      -0.539301       -14.6751
  28   2.0000      -0.507835       -13.8189
  29   2.0000      -0.498900       -13.5758
  30   2.0000      -0.477536       -12.9944
  31   2.0000      -0.417987       -11.3740
  32   2.0000      -0.368229       -10.0200
  33   2.0000      -0.352281        -9.5860
  34   0.0000       0.028879         0.7858
  35   0.0000       0.035568         0.9678
  36   0.0000       0.042822         1.1652
  37   0.0000       0.053895         1.4666
  38   0.0000       0.063698         1.7333

MULLIKEN ATOMIC CHARGES
-----------------------
   0 S :    0.628020
   1 S :    0.045787
   2 N :   -0.313979
   3 N :   -0.274627
   4 C :    0.027697
   5 C :    0.086219
   6 C :   -0.065052
   7 H :    0.023512
   8 H :   -0.133921
   9 H :   -0.062395
  10 H :    0.038738
Sum of atomic charges:   -0.0000000

LOEWDIN ATOMIC CHARGES
----------------------
   0 S :    0.883245
   1 S :    0.542097
   2 N :   -0.025006
   3 N :    0.111720
   4 C :   -1.015002
   5 C :   -0.093279
   6 C :   -0.227274
   7 H :   -0.074911
   8 H :   -0.062839
   9 H :   -0.051729
  10 H :    0.012977

  Mayer bond orders larger than 0.100000
B(  0-S ,  4-C ) :   1.0147 B(  0-S ,  5-C ) :   1.0298 B(  1-S ,  4-C ) :   1.9263
B(  2-N ,  4-C ) :   0.7564 B(  2-N ,  6-C ) :   1.2070 B(  2-N , 10-H ) :   1.0989
B(  3-N ,  6-C ) :   2.6979 B(  4-C ,  6-C ) :  -0.1145 B(  4-C , 10-H ) :  -0.1299
B(  5-C ,  7-H ) :   0.9682 B(  5-C ,  8-H ) :   1.0134 B(  5-C ,  9-H ) :   1.0113

MP2 TOTAL ENERGY:    -1020.916474180 Eh
FINAL SINGLE POINT ENERGY     -1020.916474180308

DIPOLE MOMENT
-------------
                                X             Y             Z
Electronic contribution:     -4.92535      -2.39548      -1.56037
Nuclear contribution   :      5.33041       2.71989       2.24733
                        -----------------------------------------
Total Dipole Moment    :      0.40506       0.32441       0.68696
                        -----------------------------------------
Magnitude (a.u.)       :      0.86094
Magnitude (Debye)      :      2.18834

Rotational constants in cm-1:     0.083659     0.048456     0.032002
Rotational constants in MHz :  2508.044266  1452.686550   959.381262

                             ****ORCA TERMINATED NORMALLY****
TOTAL RUN TIME: 0 days 0 hours 0 minutes 53 seconds 240 msec
