                         Program Version 5.0.3 -  RELEASE  -
|  1> !ri-mp2 aug-cc-pvdz aug-cc-pvdz/c tightscf
|  2> %pal nprocs 16 end
|  3>
|  4> * xyz 0 1
|  5> S     -1.379699   -0.462768        0.000000
|  6> S      1.542184    0.101951        0.000000
|  7> C      0.000000    0.604111        0.000000
|  8> H     -0.264368    1.658591        0.000000
|  9> H     -2.335387    0.489817        0.000000
| 10> *
| 11>
| 12>                          ****END OF INPUT****

CARTESIAN COORDINATES (ANGSTROEM)
---------------------------------
  S     -1.379699   -0.462768    0.000000
  S      1.542184    0.101951    0.000000
  C      0.000000    0.604111    0.000000
  H     -0.264368    1.658591    0.000000
  H     -2.335387    0.489817    0.000000

 Total Charge           Charge          ....    0
 Multiplicity           Mult            ....    1
 Number of Electrons    NEL             ....   40
 Basis Dimension        Dim             ....   95

ORBITAL ENERGIES
----------------

  NO   OCC          E(Eh)            E(eV)
   0   2.0000     -92.008179     -2503.6698
   1   2.0000     -91.951182     -2502.1189
   2   2.0000     -11.364254      -309.2371
   3   2.0000      -9.010534      -245.1891
   4   2.0000      -8.954253      -243.6576
   5   2.0000      -6.692284      -182.1063
   6   2.0000      -6.690877      -182.0680
   7   2.0000      -6.688985      -182.0165
   8   2.0000      -6.636080      -180.5769
   9   2.0000      -6.634268      -180.5276
  10   2.0000      -6.632169      -180.4705
  11   2.0000      -1.121053       -30.5054
  12   2.0000      -0.984656       -26.7939
  13   2.0000      -0.786087       -21.3905
  14   2.0000      -0.658421       -17.9166
  15   2.0000      -0.541667       -14.7395
  16   2.0000      -0.511270       -13.9124
  17   2.0000      -0.485137       -13.2012
  18   2.0000      -0.362577        -9.8662
  19   2.0000      -0.352104        -9.5812
  20   0.0000       0.028966         0.7882
  21   0.0000       0.038799         1.0558
  22   0.0000       0.050892         1.3848
  23   0.0000       0.076432         2.0798
  24   0.0000       0.093872         2.5544

MULLIKEN ATOMIC CHARGES
-----------------------
   0 S :    0.310985
   1 S :    0.133105
   2 C :   -0.282956
   3 H :   -0.293035
   4 H :    0.131901
Sum of atomic charges:   -0.0000000

LOEWDIN ATOMIC CHARGES
----------------------
   0 S :    0.739873
   1 S :    0.504175
   2 C :   -0.925357
   3 H :   -0.111099
   4 H :   -0.207592

  Mayer bond orders larger than 0.100000
B(  0-S ,  2-C ) :   1.0916 B(  0-S ,  4-H ) :   0.9481 B(  1-S ,  2-C ) :   1.7191
B(  2-C ,  3-H ) :   1.1173

MP2 TOTAL ENERGY:     -834.499672486 Eh
FINAL SINGLE POINT ENERGY      -834.499672486360

DIPOLE MOMENT
-------------
                                X             Y             Z
Electronic contribution:      1.38707      -1.46681      -0.00000
Nuclear contribution   :     -2.50397       2.07597       0.00000
                        -----------------------------------------
Total Dipole Moment    :     -1.11690       0.60916      -0.00000
                        -----------------------------------------
Magnitude (a.u.)       :      1.27222
Magnitude (Debye)      :      3.23373

Rotational constants in cm-1:     1.653029     0.114600     0.107170
Rotational constants in MHz : 49556.554151  3435.610901  3212.871893

                             ****ORCA TERMINATED NORMALLY****
TOTAL RUN TIME: 0 days 0 hours 0 minutes 54 seconds 210 msec
