                         Program Version 5.0.3 -  RELEASE  -
|  1> !ri-mp2 aug-cc-pvdz aug-cc-pvdz/c tightscf
|  2> %pal nprocs 16 end
|  3>
|  4> * xyz 0 1
|  5> C      0.932507   -0.092918    0.000000
|  6> C     -1.369372    0.416095    0.000000
|  7> O      0.725872   -1.275132    0.000000
|  8> O      0.000000    0.866990    0.000000
|  9> H      1.926421    0.370591    0.000000
| 10> H     -1.972732    1.317760    0.000000
| 11> H     -1.569738   -0.181136    0.887236
| 12> H     -1.569738   -0.181136   -0.887236
| 13> *
| 14>
| 15>                          ****END OF INPUT****

CARTESIAN COORDINATES (ANGSTROEM)
---------------------------------
  C      0.932507   -0.092918    0.000000
  C     -1.369372    0.416095    0.000000
  O      0.725872   -1.275132    0.000000
  O      0.000000    0.866990    0.000000
  H      1.926421    0.370591    0.000000
  H     -1.972732    1.317760    0.000000
  H     -1.569738   -0.181136    0.887236
  H     -1.569738   -0.181136   -0.887236

 Total Charge           Charge          ....    0
 Multiplicity           Mult            ....    1
 Number of Electrons    NEL             ....   32
 Basis Dimension        Dim             ....  128

ORBITAL ENERGIES
----------------

  NO   OCC          E(Eh)            E(eV)
   0   2.0000     -20.624054      -561.2090
   1   2.0000     -20.568836      -559.7065
   2   2.0000     -11.395461      -310.0863
   3   2.0000     -11.300883      -307.5127
   4   2.0000      -1.473194       -40.0876
   5   2.0000      -1.376336       -37.4520
   6   2.0000      -0.993792       -27.0425
   7   2.0000      -0.822557       -22.3829
   8   2.0000      -0.740417       -20.1478
   9   2.0000      -0.683878       -18.6093
  10   2.0000      -0.676138       -18.3987
  11   2.0000      -0.598259       -16.2794
  12   2.0000      -0.557039       -15.1578
  13   2.0000      -0.538622       -14.6567
  14   2.0000      -0.470485       -12.8025
  15   2.0000      -0.465128       -12.6568
  16   0.0000       0.034659         0.9431
  17   0.0000       0.045372         1.2346
  18   0.0000       0.057726         1.5708
  19   0.0000       0.060525         1.6470
  20   0.0000       0.099443         2.7060

MULLIKEN ATOMIC CHARGES
-----------------------
   0 C :    0.958417
   1 C :    0.829559
   2 O :   -0.579059
   3 O :   -0.721418
   4 H :   -0.127155
   5 H :   -0.215879
   6 H :   -0.072233
   7 H :   -0.072233
Sum of atomic charges:   -0.0000000

LOEWDIN ATOMIC CHARGES
----------------------
   0 C :   -0.154715
   1 C :    0.178549
   2 O :    0.017125
   3 O :    0.012627
   4 H :    0.014170
   5 H :   -0.027269
   6 H :   -0.020243
   7 H :   -0.020243

  Mayer bond orders larger than 0.100000
B(  0-C ,  2-O ) :   1.6949 B(  0-C ,  3-O ) :   0.9131 B(  0-C ,  4-H ) :   1.0013
B(  1-C ,  3-O ) :   0.5781 B(  1-C ,  5-H ) :   1.0394 B(  1-C ,  6-H ) :   0.9722
B(  1-C ,  7-H ) :   0.9722

MP2 TOTAL ENERGY:     -228.494805603 Eh
FINAL SINGLE POINT ENERGY      -228.494805602651

DIPOLE MOMENT
-------------
                                X             Y             Z
Electronic contribution:      2.84106      -0.58007       0.00000
Nuclear contribution   :     -3.17679       1.32066       0.00000
                        -----------------------------------------
Total Dipole Moment    :     -0.33573       0.74059       0.00000
                        -----------------------------------------
Magnitude (a.u.)       :      0.81314
Magnitude (Debye)      :      2.06683

Rotational constants in cm-1:     0.676045     0.227039     0.175579
Rotational constants in MHz : 20267.310411  6806.468342  5263.731474

                             ****ORCA TERMINATED NORMALLY****
TOTAL RUN TIME: 0 days 0 hours 0 minutes 42 seconds 568 msec
