                         Program Version 5.0.3 -  RELEASE  -
|  1> !ri-mp2 aug-cc-pvdz aug-cc-pvdz/c tightscf
|  2> %pal nprocs 16 end
|  3> %maxcore 3800
|  4>
|  5> * xyz 0 1
|  6> C     -3.009194    0.132720    0.000067
|  7> C      5.949220   -0.256907    0.000078
|  8> C     -5.358960   -0.130980   -0.000089
|  9> C     -1.695422   -0.613559    0.000091
| 10> C      4.637910    0.526987   -0.000135
| 11> C     -0.471203    0.295500   -0.000112
| 12> C      3.398027   -0.367925    0.000074
| 13> C      0.841821   -0.487584    0.000072
| 14> C      2.080878    0.408235   -0.000139
| 15> O     -3.143099    1.330753    0.000219
| 16> O     -4.051638   -0.727268   -0.000120
| 17> H      6.025429   -0.898227   -0.880487
| 18> H      6.025395   -0.897805    0.880953
| 19> H      6.812866    0.409515   -0.000065
| 20> H     -6.058778   -0.960891   -0.000238
| 21> H     -5.497418    0.485846   -0.886256
| 22> H     -5.497491    0.485592    0.886244
| 23> H     -1.693478   -1.276884   -0.869154
| 24> H     -1.693380   -1.276583    0.869569
| 25> H      4.606452    1.184753    0.873644
| 26> H      4.606474    1.184314   -0.874245
| 27> H     -0.510948    0.953181    0.870826
| 28> H     -0.510932    0.952783   -0.871354
| 29> H      3.430023   -1.026718   -0.874390
| 30> H      3.430000   -1.026275    0.874873
| 31> H      0.873319   -1.146380   -0.874384
| 32> H      0.873315   -1.145960    0.874844
| 33> H      2.049304    1.066245   -0.874663
| 34> H      2.049281    1.066686    0.874053
| 35> *
| 36>
| 37>                          ****END OF INPUT****

CARTESIAN COORDINATES (ANGSTROEM)
---------------------------------
  C     -3.009194    0.132720    0.000067
  C      5.949220   -0.256907    0.000078
  C     -5.358960   -0.130980   -0.000089
  C     -1.695422   -0.613559    0.000091
  C      4.637910    0.526987   -0.000135
  C     -0.471203    0.295500   -0.000112
  C      3.398027   -0.367925    0.000074
  C      0.841821   -0.487584    0.000072
  C      2.080878    0.408235   -0.000139
  O     -3.143099    1.330753    0.000219
  O     -4.051638   -0.727268   -0.000120
  H      6.025429   -0.898227   -0.880487
  H      6.025395   -0.897805    0.880953
  H      6.812866    0.409515   -0.000065
  H     -6.058778   -0.960891   -0.000238
  H     -5.497418    0.485846   -0.886256
  H     -5.497491    0.485592    0.886244
  H     -1.693478   -1.276884   -0.869154
  H     -1.693380   -1.276583    0.869569
  H      4.606452    1.184753    0.873644
  H      4.606474    1.184314   -0.874245
  H     -0.510948    0.953181    0.870826
  H     -0.510932    0.952783   -0.871354
  H      3.430023   -1.026718   -0.874390
  H      3.430000   -1.026275    0.874873
  H      0.873319   -1.146380   -0.874384
  H      0.873315   -1.145960    0.874844
  H      2.049304    1.066245   -0.874663
  H      2.049281    1.066686    0.874053

 Total Charge           Charge          ....    0
 Multiplicity           Mult            ....    1
 Number of Electrons    NEL             ....   88
 Basis Dimension        Dim             ....  415

ORBITAL ENERGIES
----------------

  NO   OCC          E(Eh)            E(eV)
   0   2.0000     -20.608770      -560.7931
   1   2.0000     -20.552922      -559.2734
   2   2.0000     -11.383956      -309.7732
   3   2.0000     -11.290873      -307.2403
   4   2.0000     -11.246119      -306.0225
   5   2.0000     -11.227053      -305.5036
   6   2.0000     -11.225222      -305.4538
   7   2.0000     -11.221781      -305.3602
   8   2.0000     -11.221402      -305.3499
   9   2.0000     -11.220229      -305.3179
  10   2.0000     -11.216802      -305.2247
  11   2.0000      -1.460513       -39.7426
  12   2.0000      -1.360616       -37.0242
  13   2.0000      -1.098886       -29.9022
  14   2.0000      -1.068402       -29.0727
  15   2.0000      -1.020231       -27.7619
  16   2.0000      -0.974570       -26.5194
  17   2.0000      -0.927121       -25.2283
  18   2.0000      -0.856463       -23.3056
  19   2.0000      -0.801027       -21.7971
  20   2.0000      -0.788772       -21.4636
  21   2.0000      -0.766204       -20.8495
  22   2.0000      -0.696164       -18.9436
  23   2.0000      -0.678718       -18.4689
  24   2.0000      -0.670731       -18.2515
  25   2.0000      -0.655547       -17.8383
  26   2.0000      -0.628264       -17.0959
  27   2.0000      -0.597043       -16.2464
  28   2.0000      -0.589055       -16.0290
  29   2.0000      -0.583704       -15.8834
  30   2.0000      -0.566369       -15.4117
  31   2.0000      -0.547921       -14.9097
  32   2.0000      -0.531359       -14.4590
  33   2.0000      -0.519861       -14.1461
  34   2.0000      -0.518372       -14.1056
  35   2.0000      -0.517191       -14.0735
  36   2.0000      -0.487533       -13.2664
  37   2.0000      -0.480663       -13.0795
  38   2.0000      -0.468189       -12.7401
  39   2.0000      -0.460653       -12.5350
  40   2.0000      -0.460033       -12.5181
  41   2.0000      -0.458160       -12.4672
  42   2.0000      -0.451487       -12.2856
  43   2.0000      -0.435610       -11.8536
  44   0.0000       0.035277         0.9599
  45   0.0000       0.036976         1.0062
  46   0.0000       0.043701         1.1892
  47   0.0000       0.044710         1.2166
  48   0.0000       0.048191         1.3114

MULLIKEN ATOMIC CHARGES
-----------------------
   0 C :    0.901531
   1 C :    0.573246
   2 C :    0.897832
   3 C :    0.311849
   4 C :    0.515467
   5 C :    0.403766
   6 C :    0.273558
   7 C :    0.412793
   8 C :    0.365366
   9 O :   -0.711850
  10 O :   -0.852949
  11 H :   -0.092216
  12 H :   -0.092214
  13 H :   -0.077973
  14 H :   -0.277487
  15 H :   -0.063916
  16 H :   -0.063898
  17 H :   -0.091100
  18 H :   -0.091008
  19 H :   -0.190098
  20 H :   -0.190099
  21 H :   -0.239072
  22 H :   -0.239114
  23 H :   -0.236808
  24 H :   -0.236822
  25 H :   -0.230354
  26 H :   -0.230314
  27 H :   -0.224054
  28 H :   -0.224061
Sum of atomic charges:   -0.0000000

LOEWDIN ATOMIC CHARGES
----------------------
   0 C :   -0.328381
   1 C :    0.130083
   2 C :    0.178379
   3 C :    0.031976
   4 C :   -0.072715
   5 C :   -0.022157
   6 C :   -0.041984
   7 C :   -0.032434
   8 C :   -0.032821
   9 O :    0.051835
  10 O :    0.043983
  11 H :   -0.020463
  12 H :   -0.020463
  13 H :   -0.022221
  14 H :   -0.026907
  15 H :   -0.019613
  16 H :   -0.019612
  17 H :    0.027794
  18 H :    0.027800
  19 H :    0.010985
  20 H :    0.010984
  21 H :    0.021882
  22 H :    0.021887
  23 H :    0.016076
  24 H :    0.016076
  25 H :    0.016986
  26 H :    0.016985
  27 H :    0.018031
  28 H :    0.018032

  Mayer bond orders larger than 0.100000
B(  0-C ,  3-C ) :   0.9509 B(  0-C ,  9-O ) :   1.6178 B(  0-C , 10-O ) :   0.6230
B(  1-C ,  4-C ) :   1.1908 B(  1-C , 11-H ) :   0.9033 B(  1-C , 12-H ) :   0.9033
B(  1-C , 13-H ) :   0.9151 B(  2-C , 10-O ) :   0.5675 B(  2-C , 14-H ) :   0.9751
B(  2-C , 15-H ) :   0.9886 B(  2-C , 16-H ) :   0.9886 B(  3-C ,  5-C ) :   1.2675
B(  3-C ,  7-C ) :  -0.1345 B(  3-C ,  9-O ) :  -0.1059 B(  3-C , 17-H ) :   0.9507
B(  3-C , 18-H ) :   0.9507 B(  3-C , 21-H ) :  -0.1336 B(  3-C , 22-H ) :  -0.1336
B(  4-C ,  6-C ) :   1.2624 B(  4-C ,  8-C ) :  -0.1555 B(  4-C , 19-H ) :   0.7029
B(  4-C , 20-H ) :   0.7029 B(  5-C ,  7-C ) :   1.3791 B(  5-C ,  8-C ) :  -0.1579
B(  5-C , 10-O ) :   0.1066 B(  5-C , 21-H ) :   0.7357 B(  5-C , 22-H ) :   0.7357
B(  6-C ,  8-C ) :   1.3027 B(  6-C , 23-H ) :   0.7071 B(  6-C , 24-H ) :   0.7071
B(  7-C ,  8-C ) :   1.5143 B(  7-C , 25-H ) :   0.7044 B(  7-C , 26-H ) :   0.7046
B(  8-C , 27-H ) :   0.7007 B(  8-C , 28-H ) :   0.7007

MP2 TOTAL ENERGY:     -502.817808818 Eh
FINAL SINGLE POINT ENERGY      -502.817808818080

DIPOLE MOMENT
-------------
                                X             Y             Z
Electronic contribution:    -20.08158       1.24585       0.00016
Nuclear contribution   :     20.05919      -1.93980      -0.00024
                        -----------------------------------------
Total Dipole Moment    :     -0.02239      -0.69395      -0.00008
                        -----------------------------------------
Magnitude (a.u.)       :      0.69431
Magnitude (Debye)      :      1.76479

Rotational constants in cm-1:     0.200807     0.008008     0.007789
Rotational constants in MHz :  6020.030529   240.080918   233.511893

                             ****ORCA TERMINATED NORMALLY****
TOTAL RUN TIME: 0 days 0 hours 2 minutes 51 seconds 231 msec
