                         Program Version 5.0.3 -  RELEASE  -
|  1> !ri-mp2 aug-cc-pvdz aug-cc-pvdz/c tightscf
|  2> %pal nprocs 16 end
|  3>
|  4> * xyz 0 1
|  5> C     -2.236697    0.080677   -0.129130
|  6> H     -2.322637   -0.067127   -1.206237
|  7> H     -3.133658   -0.332836    0.333139
|  8> H     -2.233285    1.152436    0.067774
|  9> C     -1.000479   -0.609481    0.429352
| 10> H     -1.046983   -1.689171    0.288441
| 11> H     -0.841528   -0.414738    1.490353
| 12> C      0.730937    1.540292    0.218013
| 13> H     -0.093206    2.158259   -0.133594
| 14> S      0.566260   -0.160011   -0.432652
| 15> O      1.651899   -0.967089    0.229435
| 16> H      1.671903    1.924648   -0.167830
| 17> H      0.761473    1.496490    1.305499
| 18> *
| 19>
| 20>                          ****END OF INPUT****

CARTESIAN COORDINATES (ANGSTROEM)
---------------------------------
  C     -2.236697    0.080677   -0.129130
  H     -2.322637   -0.067127   -1.206237
  H     -3.133658   -0.332836    0.333139
  H     -2.233285    1.152436    0.067774
  C     -1.000479   -0.609481    0.429352
  H     -1.046983   -1.689171    0.288441
  H     -0.841528   -0.414738    1.490353
  C      0.730937    1.540292    0.218013
  H     -0.093206    2.158259   -0.133594
  S      0.566260   -0.160011   -0.432652
  O      1.651899   -0.967089    0.229435
  H      1.671903    1.924648   -0.167830
  H      0.761473    1.496490    1.305499

 Total Charge           Charge          ....    0
 Multiplicity           Mult            ....    1
 Number of Electrons    NEL             ....   50
 Basis Dimension        Dim             ....  191

ORBITAL ENERGIES
----------------

  NO   OCC          E(Eh)            E(eV)
   0   2.0000     -92.072652     -2505.4242
   1   2.0000     -20.509352      -558.0878
   2   2.0000     -11.274150      -306.7852
   3   2.0000     -11.269359      -306.6549
   4   2.0000     -11.251953      -306.1812
   5   2.0000      -9.061336      -246.5715
   6   2.0000      -6.743644      -183.5039
   7   2.0000      -6.742872      -183.4829
   8   2.0000      -6.740874      -183.4285
   9   2.0000      -1.330646       -36.2087
  10   2.0000      -1.084112       -29.5002
  11   2.0000      -1.011777       -27.5319
  12   2.0000      -0.904760       -24.6198
  13   2.0000      -0.805413       -21.9164
  14   2.0000      -0.655960       -17.8496
  15   2.0000      -0.636567       -17.3219
  16   2.0000      -0.614210       -16.7135
  17   2.0000      -0.590827       -16.0772
  18   2.0000      -0.573788       -15.6136
  19   2.0000      -0.557085       -15.1591
  20   2.0000      -0.530794       -14.4436
  21   2.0000      -0.516910       -14.0658
  22   2.0000      -0.506950       -13.7948
  23   2.0000      -0.406760       -11.0685
  24   2.0000      -0.360935        -9.8215
  25   0.0000       0.030041         0.8175
  26   0.0000       0.040518         1.1025
  27   0.0000       0.045959         1.2506
  28   0.0000       0.051746         1.4081
  29   0.0000       0.064938         1.7671

MULLIKEN ATOMIC CHARGES
-----------------------
   0 C :    0.359516
   1 H :   -0.041987
   2 H :   -0.051322
   3 H :   -0.118119
   4 C :   -0.052238
   5 H :   -0.057270
   6 H :   -0.075342
   7 C :    0.113234
   8 H :   -0.026127
   9 S :    1.201911
  10 O :   -1.168662
  11 H :   -0.037636
  12 H :   -0.045957
Sum of atomic charges:   -0.0000000

LOEWDIN ATOMIC CHARGES
----------------------
   0 C :    0.090022
   1 H :   -0.019773
   2 H :   -0.017424
   3 H :   -0.032643
   4 C :   -0.209342
   5 H :   -0.022379
   6 H :   -0.020332
   7 C :   -0.015337
   8 H :   -0.061595
   9 S :    0.982647
  10 O :   -0.571642
  11 H :   -0.055141
  12 H :   -0.047061

  Mayer bond orders larger than 0.100000
B(  0-C ,  1-H ) :   0.9476 B(  0-C ,  2-H ) :   0.9056 B(  0-C ,  3-H ) :   0.9881
B(  0-C ,  4-C ) :   1.2363 B(  4-C ,  5-H ) :   0.8883 B(  4-C ,  6-H ) :   0.9308
B(  4-C ,  9-S ) :   0.9648 B(  7-C ,  8-H ) :   0.9512 B(  7-C ,  9-S ) :   1.0749
B(  7-C , 11-H ) :   0.9727 B(  7-C , 12-H ) :   0.9757 B(  9-S , 10-O ) :   0.8120

MP2 TOTAL ENERGY:     -591.427436974 Eh
FINAL SINGLE POINT ENERGY      -591.427436973873

DIPOLE MOMENT
-------------
                                X             Y             Z
Electronic contribution:      5.79314      -3.15904      -2.05762
Nuclear contribution   :     -7.36645       4.29764       2.03234
                        -----------------------------------------
Total Dipole Moment    :     -1.57331       1.13859      -0.02528
                        -----------------------------------------
Magnitude (a.u.)       :      1.94225
Magnitude (Debye)      :      4.93681

Rotational constants in cm-1:     0.213235     0.097347     0.076167
Rotational constants in MHz :  6392.621191  2918.403974  2283.420899

                             ****ORCA TERMINATED NORMALLY****
TOTAL RUN TIME: 0 days 0 hours 0 minutes 54 seconds 545 msec
