                         Program Version 5.0.3 -  RELEASE  -
|  1> !ri-mp2 aug-cc-pvdz aug-cc-pvdz/c tightscf
|  2> %pal nprocs 16 end
|  3>
|  4> * xyz 0 1
|  5> O      0.000000    0.802908    0.000000
|  6> Cl    -0.811552   -0.704077    0.000000
|  7> C      1.415082    0.620626    0.000000
|  8> H      1.809715    1.636753    0.000000
|  9> H      1.748086    0.092767    0.894890
| 10> H      1.748086    0.092767   -0.894890
| 11> *
| 12>
| 13>                          ****END OF INPUT****

CARTESIAN COORDINATES (ANGSTROEM)
---------------------------------
  O      0.000000    0.802908    0.000000
  Cl    -0.811552   -0.704077    0.000000
  C      1.415082    0.620626    0.000000
  H      1.809715    1.636753    0.000000
  H      1.748086    0.092767    0.894890
  H      1.748086    0.092767   -0.894890

 Total Charge           Charge          ....    0
 Multiplicity           Mult            ....    1
 Number of Electrons    NEL             ....   34
 Basis Dimension        Dim             ....  100

ORBITAL ENERGIES
----------------

  NO   OCC          E(Eh)            E(eV)
   0   2.0000    -104.882496     -2853.9978
   1   2.0000     -20.646360      -561.8160
   2   2.0000     -11.304182      -307.6024
   3   2.0000     -10.603224      -288.5284
   4   2.0000      -8.071262      -219.6302
   5   2.0000      -8.066767      -219.5079
   6   2.0000      -8.066543      -219.5018
   7   2.0000      -1.410731       -38.3879
   8   2.0000      -1.076286       -29.2872
   9   2.0000      -0.926791       -25.2193
  10   2.0000      -0.669650       -18.2221
  11   2.0000      -0.660335       -17.9686
  12   2.0000      -0.648367       -17.6430
  13   2.0000      -0.530928       -14.4473
  14   2.0000      -0.523504       -14.2453
  15   2.0000      -0.460243       -12.5238
  16   2.0000      -0.432190       -11.7605
  17   0.0000       0.035344         0.9618
  18   0.0000       0.056372         1.5340
  19   0.0000       0.058640         1.5957
  20   0.0000       0.072557         1.9744
  21   0.0000       0.083141         2.2624

MULLIKEN ATOMIC CHARGES
-----------------------
   0 O :   -0.851614
   1 Cl:    0.323472
   2 C :    0.814674
   3 H :   -0.163134
   4 H :   -0.061699
   5 H :   -0.061699
Sum of atomic charges:    0.0000000

LOEWDIN ATOMIC CHARGES
----------------------
   0 O :   -0.340375
   1 Cl:    0.405641
   2 C :    0.041893
   3 H :   -0.030845
   4 H :   -0.038157
   5 H :   -0.038157

  Mayer bond orders larger than 0.100000
B(  0-O ,  1-Cl) :   0.7334 B(  0-O ,  2-C ) :   0.6635 B(  2-C ,  3-H ) :   1.0095
B(  2-C ,  4-H ) :   0.9724 B(  2-C ,  5-H ) :   0.9724

MP2 TOTAL ENERGY:     -574.416301047 Eh
FINAL SINGLE POINT ENERGY      -574.416301047341

DIPOLE MOMENT
-------------
                                X             Y             Z
Electronic contribution:     -5.43136      -2.76658       0.00000
Nuclear contribution   :      6.21088       2.72970       0.00000
                        -----------------------------------------
Total Dipole Moment    :      0.77952      -0.03688       0.00000
                        -----------------------------------------
Magnitude (a.u.)       :      0.78039
Magnitude (Debye)      :      1.98360

Rotational constants in cm-1:     1.424311     0.203722     0.184529
Rotational constants in MHz : 42699.764873  6107.440117  5532.046947

                             ****ORCA TERMINATED NORMALLY****
TOTAL RUN TIME: 0 days 0 hours 0 minutes 33 seconds 252 msec
