                         Program Version 5.0.3 -  RELEASE  -
|  1> !ri-mp2 aug-cc-pvdz aug-cc-pvdz/c tightscf
|  2> %pal nprocs 16 end
|  3>
|  4> * xyz 0 1
|  5> C      0.000000    0.495796    0.000000
|  6> C     -1.126166    1.493825    0.000000
|  7> C      0.518397   -1.810474    0.000000
|  8> O      1.175144    0.763556    0.000000
|  9> O     -0.472599   -0.769316    0.000000
| 10> H     -1.754646    1.346302    0.878098
| 11> H     -1.754646    1.346302   -0.878098
| 12> H     -0.719073    2.499833    0.000000
| 13> H      1.146150   -1.739249   -0.886325
| 14> H     -0.037679   -2.742743    0.000000
| 15> H      1.146150   -1.739249    0.886325
| 16> *
| 17>
| 18>                          ****END OF INPUT****

CARTESIAN COORDINATES (ANGSTROEM)
---------------------------------
  C      0.000000    0.495796    0.000000
  C     -1.126166    1.493825    0.000000
  C      0.518397   -1.810474    0.000000
  O      1.175144    0.763556    0.000000
  O     -0.472599   -0.769316    0.000000
  H     -1.754646    1.346302    0.878098
  H     -1.754646    1.346302   -0.878098
  H     -0.719073    2.499833    0.000000
  H      1.146150   -1.739249   -0.886325
  H     -0.037679   -2.742743    0.000000
  H      1.146150   -1.739249    0.886325

 Total Charge           Charge          ....    0
 Multiplicity           Mult            ....    1
 Number of Electrons    NEL             ....   40
 Basis Dimension        Dim             ....  169

ORBITAL ENERGIES
----------------

  NO   OCC          E(Eh)            E(eV)
   0   2.0000     -20.611800      -560.8756
   1   2.0000     -20.555161      -559.3344
   2   2.0000     -11.389227      -309.9166
   3   2.0000     -11.292837      -307.2937
   4   2.0000     -11.247934      -306.0718
   5   2.0000      -1.463427       -39.8219
   6   2.0000      -1.363205       -37.0947
   7   2.0000      -1.036065       -28.1928
   8   2.0000      -0.950384       -25.8613
   9   2.0000      -0.779117       -21.2009
  10   2.0000      -0.695468       -18.9247
  11   2.0000      -0.677405       -18.4331
  12   2.0000      -0.675626       -18.3847
  13   2.0000      -0.593599       -16.1526
  14   2.0000      -0.592207       -16.1148
  15   2.0000      -0.559583       -15.2270
  16   2.0000      -0.528487       -14.3809
  17   2.0000      -0.523345       -14.2410
  18   2.0000      -0.462471       -12.5845
  19   2.0000      -0.449015       -12.2183
  20   0.0000       0.034304         0.9335
  21   0.0000       0.044198         1.2027
  22   0.0000       0.054196         1.4747
  23   0.0000       0.056707         1.5431
  24   0.0000       0.067706         1.8424

MULLIKEN ATOMIC CHARGES
-----------------------
   0 C :    0.745878
   1 C :    0.273671
   2 C :    0.858731
   3 O :   -0.702353
   4 O :   -0.844066
   5 H :    0.029003
   6 H :    0.029003
   7 H :   -0.023030
   8 H :   -0.063579
   9 H :   -0.239679
  10 H :   -0.063579
Sum of atomic charges:   -0.0000000

LOEWDIN ATOMIC CHARGES
----------------------
   0 C :   -0.373578
   1 C :    0.205475
   2 C :    0.177948
   3 O :    0.039994
   4 O :    0.037703
   5 H :   -0.006469
   6 H :   -0.006469
   7 H :   -0.007821
   8 H :   -0.019833
   9 H :   -0.027118
  10 H :   -0.019833

  Mayer bond orders larger than 0.100000
B(  0-C ,  1-C ) :   1.0604 B(  0-C ,  3-O ) :   1.5267 B(  0-C ,  4-O ) :   0.7203
B(  0-C ,  7-H ) :   0.1400 B(  1-C ,  5-H ) :   0.9621 B(  1-C ,  6-H ) :   0.9621
B(  1-C ,  7-H ) :   0.8382 B(  2-C ,  4-O ) :   0.5792 B(  2-C ,  8-H ) :   0.9627
B(  2-C ,  9-H ) :   1.0439 B(  2-C , 10-H ) :   0.9627

MP2 TOTAL ENERGY:     -267.691952462 Eh
FINAL SINGLE POINT ENERGY      -267.691952462157

DIPOLE MOMENT
-------------
                                X             Y             Z
Electronic contribution:      1.26438       0.67063       0.00000
Nuclear contribution   :     -1.99033      -1.04339       0.00000
                        -----------------------------------------
Total Dipole Moment    :     -0.72594      -0.37276       0.00000
                        -----------------------------------------
Magnitude (a.u.)       :      0.81605
Magnitude (Debye)      :      2.07425

Rotational constants in cm-1:     0.341883     0.138217     0.102170
Rotational constants in MHz : 10249.404004  4143.653742  3062.969866

                             ****ORCA TERMINATED NORMALLY****
TOTAL RUN TIME: 0 days 0 hours 0 minutes 55 seconds 953 msec
