                         Program Version 5.0.3 -  RELEASE  -
|  1> !ri-mp2 aug-cc-pvdz aug-cc-pvdz/c tightscf
|  2> %pal nprocs 16 end
|  3>
|  4> * xyz 0 1
|  5> C     -0.187905    0.651224    0.062869
|  6> C      0.516351    1.963676    0.319752
|  7> C     -2.243533   -0.480238   -0.361032
|  8> C      0.408532   -1.679218    0.623345
|  9> C      2.013376   -0.300958   -0.547808
| 10> N     -1.463119    0.665717    0.054242
| 11> N      0.620090   -0.477546   -0.174016
| 12> H     -0.225648    2.696922    0.619317
| 13> H      1.012868    2.331307   -0.580297
| 14> H      1.278208    1.872960    1.096432
| 15> H     -3.133483   -0.114305   -0.874912
| 16> H     -2.599264   -1.057251    0.498552
| 17> H     -1.707657   -1.161888   -1.031043
| 18> H      1.084452   -1.699902    1.489156
| 19> H      0.600243   -2.572869    0.025300
| 20> H     -0.607803   -1.727617    0.994091
| 21> H      2.367240   -1.220180   -1.017111
| 22> H      2.668083   -0.091653    0.309584
| 23> H      2.123038    0.500365   -1.273403
| 24> *
| 25>
| 26>                          ****END OF INPUT****

CARTESIAN COORDINATES (ANGSTROEM)
---------------------------------
  C     -0.187905    0.651224    0.062869
  C      0.516351    1.963676    0.319752
  C     -2.243533   -0.480238   -0.361032
  C      0.408532   -1.679218    0.623345
  C      2.013376   -0.300958   -0.547808
  N     -1.463119    0.665717    0.054242
  N      0.620090   -0.477546   -0.174016
  H     -0.225648    2.696922    0.619317
  H      1.012868    2.331307   -0.580297
  H      1.278208    1.872960    1.096432
  H     -3.133483   -0.114305   -0.874912
  H     -2.599264   -1.057251    0.498552
  H     -1.707657   -1.161888   -1.031043
  H      1.084452   -1.699902    1.489156
  H      0.600243   -2.572869    0.025300
  H     -0.607803   -1.727617    0.994091
  H      2.367240   -1.220180   -1.017111
  H      2.668083   -0.091653    0.309584
  H      2.123038    0.500365   -1.273403

 Total Charge           Charge          ....    0
 Multiplicity           Mult            ....    1
 Number of Electrons    NEL             ....   56
 Basis Dimension        Dim             ....  269

ORBITAL ENERGIES
----------------

  NO   OCC          E(Eh)            E(eV)
   0   2.0000     -15.572792      -423.7572
   1   2.0000     -15.530875      -422.6166
   2   2.0000     -11.308664      -307.7244
   3   2.0000     -11.264026      -306.5097
   4   2.0000     -11.262332      -306.4636
   5   2.0000     -11.236968      -305.7734
   6   2.0000     -11.226003      -305.4751
   7   2.0000      -1.272909       -34.6376
   8   2.0000      -1.177819       -32.0501
   9   2.0000      -1.010870       -27.5072
  10   2.0000      -0.964127       -26.2352
  11   2.0000      -0.914722       -24.8908
  12   2.0000      -0.886861       -24.1327
  13   2.0000      -0.724963       -19.7272
  14   2.0000      -0.658884       -17.9291
  15   2.0000      -0.653112       -17.7721
  16   2.0000      -0.639573       -17.4037
  17   2.0000      -0.586211       -15.9516
  18   2.0000      -0.573052       -15.5935
  19   2.0000      -0.569907       -15.5079
  20   2.0000      -0.553401       -15.0588
  21   2.0000      -0.550284       -14.9740
  22   2.0000      -0.537780       -14.6337
  23   2.0000      -0.529626       -14.4119
  24   2.0000      -0.508887       -13.8475
  25   2.0000      -0.422864       -11.5067
  26   2.0000      -0.384362       -10.4590
  27   2.0000      -0.333311        -9.0698
  28   0.0000       0.033177         0.9028
  29   0.0000       0.043236         1.1765
  30   0.0000       0.045382         1.2349
  31   0.0000       0.048331         1.3152
  32   0.0000       0.063075         1.7163

MULLIKEN ATOMIC CHARGES
-----------------------
   0 C :    0.152291
   1 C :    0.493867
   2 C :    0.692613
   3 C :    0.778772
   4 C :    0.923183
   5 N :   -0.807759
   6 N :   -0.805975
   7 H :   -0.168526
   8 H :    0.095011
   9 H :    0.064049
  10 H :   -0.290410
  11 H :   -0.055531
  12 H :   -0.043257
  13 H :   -0.014330
  14 H :   -0.118092
  15 H :   -0.391672
  16 H :   -0.214758
  17 H :   -0.078803
  18 H :   -0.210672
Sum of atomic charges:    0.0000000

LOEWDIN ATOMIC CHARGES
----------------------
   0 C :   -0.273846
   1 C :    0.188626
   2 C :    0.085559
   3 C :    0.169443
   4 C :    0.153039
   5 N :    0.016411
   6 N :   -0.145796
   7 H :   -0.013004
   8 H :   -0.013724
   9 H :   -0.009367
  10 H :   -0.029655
  11 H :   -0.025966
  12 H :   -0.022297
  13 H :   -0.004678
  14 H :   -0.006843
  15 H :   -0.035181
  16 H :   -0.009524
  17 H :   -0.007100
  18 H :   -0.016096

  Mayer bond orders larger than 0.100000
B(  0-C ,  1-C ) :   1.0882 B(  0-C ,  2-C ) :  -0.1989 B(  0-C ,  5-N ) :   1.7517
B(  0-C ,  6-N ) :   0.9666 B(  0-C ,  7-H ) :   0.1112 B(  0-C , 18-H ) :   0.1297
B(  1-C ,  7-H ) :   0.9602 B(  1-C ,  8-H ) :   0.8638 B(  1-C ,  9-H ) :   0.8339
B(  2-C ,  5-N ) :   0.8450 B(  2-C , 10-H ) :   1.0650 B(  2-C , 11-H ) :   0.9138
B(  2-C , 12-H ) :   0.9245 B(  3-C ,  6-N ) :   0.9061 B(  3-C , 13-H ) :   0.8827
B(  3-C , 14-H ) :   0.9318 B(  3-C , 15-H ) :   1.0931 B(  4-C ,  6-N ) :   0.9235
B(  4-C , 16-H ) :   0.9783 B(  4-C , 17-H ) :   0.8289 B(  4-C , 18-H ) :   0.9715
B(  6-N , 17-H ) :   0.1325 B( 10-H , 12-H ) :  -0.1069 B( 13-H , 14-H ) :  -0.1049
B( 13-H , 15-H ) :  -0.1040 B( 16-H , 17-H ) :  -0.1067 B( 16-H , 18-H ) :  -0.1249

MP2 TOTAL ENERGY:     -306.316423116 Eh
FINAL SINGLE POINT ENERGY      -306.316423115872

DIPOLE MOMENT
-------------
                                X             Y             Z
Electronic contribution:     -2.03293       1.83011      -0.25435
Nuclear contribution   :      2.99806      -2.35513       0.26771
                        -----------------------------------------
Total Dipole Moment    :      0.96513      -0.52502       0.01335
                        -----------------------------------------
Magnitude (a.u.)       :      1.09878
Magnitude (Debye)      :      2.79287

Rotational constants in cm-1:     0.110230     0.078878     0.052122
Rotational constants in MHz :  3304.615563  2364.714579  1562.564508

                             ****ORCA TERMINATED NORMALLY****
TOTAL RUN TIME: 0 days 0 hours 1 minutes 6 seconds 260 msec
