                         Program Version 5.0.3 -  RELEASE  -
|  1> !ri-mp2 aug-cc-pvdz aug-cc-pvdz/c tightscf
|  2> %pal nprocs 16 end
|  3>
|  4> * xyz 0 1
|  5> C      0.000000    0.000000    0.096002
|  6> C      0.000000    2.447119    0.009890
|  7> C      0.000000   -2.447119    0.009890
|  8> N      0.094200    1.156237   -0.651588
|  9> N     -0.094200   -1.156237   -0.651588
| 10> O      0.000000    0.000000    1.316825
| 11> H     -1.012864    2.672349    0.355132
| 12> H      0.320580    3.222188   -0.683998
| 13> H      0.658299    2.453848    0.874307
| 14> H      1.012864   -2.672349    0.355132
| 15> H     -0.320580   -3.222188   -0.683998
| 16> H     -0.658299   -2.453848    0.874307
| 17> H     -0.241505    1.113406   -1.598970
| 18> H      0.241505   -1.113406   -1.598970
| 19> *
| 20>
| 21>                          ****END OF INPUT****

CARTESIAN COORDINATES (ANGSTROEM)
---------------------------------
  C      0.000000    0.000000    0.096002
  C      0.000000    2.447119    0.009890
  C      0.000000   -2.447119    0.009890
  N      0.094200    1.156237   -0.651588
  N     -0.094200   -1.156237   -0.651588
  O      0.000000    0.000000    1.316825
  H     -1.012864    2.672349    0.355132
  H      0.320580    3.222188   -0.683998
  H      0.658299    2.453848    0.874307
  H      1.012864   -2.672349    0.355132
  H     -0.320580   -3.222188   -0.683998
  H     -0.658299   -2.453848    0.874307
  H     -0.241505    1.113406   -1.598970
  H      0.241505   -1.113406   -1.598970

 Total Charge           Charge          ....    0
 Multiplicity           Mult            ....    1
 Number of Electrons    NEL             ....   48
 Basis Dimension        Dim             ....  210

ORBITAL ENERGIES
----------------

  NO   OCC          E(Eh)            E(eV)
   0   2.0000     -20.517069      -558.2978
   1   2.0000     -15.584766      -424.0830
   2   2.0000     -15.584739      -424.0823
   3   2.0000     -11.376458      -309.5692
   4   2.0000     -11.261435      -306.4392
   5   2.0000     -11.261433      -306.4392
   6   2.0000      -1.390961       -37.8500
   7   2.0000      -1.241394       -33.7800
   8   2.0000      -1.204154       -32.7667
   9   2.0000      -0.971286       -26.4300
  10   2.0000      -0.907611       -24.6974
  11   2.0000      -0.791012       -21.5245
  12   2.0000      -0.752790       -20.4845
  13   2.0000      -0.663097       -18.0438
  14   2.0000      -0.639346       -17.3975
  15   2.0000      -0.614431       -16.7195
  16   2.0000      -0.594501       -16.1772
  17   2.0000      -0.581836       -15.8326
  18   2.0000      -0.543278       -14.7833
  19   2.0000      -0.542089       -14.7510
  20   2.0000      -0.531290       -14.4571
  21   2.0000      -0.438154       -11.9228
  22   2.0000      -0.400507       -10.8984
  23   2.0000      -0.386070       -10.5055
  24   0.0000       0.027369         0.7447
  25   0.0000       0.040205         1.0940
  26   0.0000       0.049358         1.3431
  27   0.0000       0.055409         1.5078
  28   0.0000       0.063303         1.7226

MULLIKEN ATOMIC CHARGES
-----------------------
   0 C :    1.060792
   1 C :    0.779471
   2 C :    0.779471
   3 N :   -0.453178
   4 N :   -0.453178
   5 O :   -0.714285
   6 H :   -0.067869
   7 H :   -0.193326
   8 H :   -0.105920
   9 H :   -0.067869
  10 H :   -0.193326
  11 H :   -0.105920
  12 H :   -0.132432
  13 H :   -0.132432
Sum of atomic charges:    0.0000000

LOEWDIN ATOMIC CHARGES
----------------------
   0 C :   -0.394667
   1 C :    0.166908
   2 C :    0.166908
   3 N :    0.071550
   4 N :    0.071550
   5 O :    0.023752
   6 H :   -0.012391
   7 H :   -0.019454
   8 H :   -0.015573
   9 H :   -0.012391
  10 H :   -0.019454
  11 H :   -0.015573
  12 H :   -0.005582
  13 H :   -0.005582

  Mayer bond orders larger than 0.100000
B(  0-C ,  3-N ) :   0.9792 B(  0-C ,  4-N ) :   0.9792 B(  0-C ,  5-O ) :   1.5371
B(  1-C ,  3-N ) :   0.8543 B(  1-C ,  6-H ) :   0.8764 B(  1-C ,  7-H ) :   1.0108
B(  1-C ,  8-H ) :   0.9690 B(  2-C ,  4-N ) :   0.8543 B(  2-C ,  9-H ) :   0.8764
B(  2-C , 10-H ) :   1.0108 B(  2-C , 11-H ) :   0.9690 B(  3-N , 12-H ) :   1.1256
B(  4-N , 13-H ) :   1.1256

MP2 TOTAL ENERGY:     -303.066750297 Eh
FINAL SINGLE POINT ENERGY      -303.066750297049

DIPOLE MOMENT
-------------
                                X             Y             Z
Electronic contribution:      0.00000      -0.00000       0.56472
Nuclear contribution   :      0.00000       0.00000      -2.14237
                        -----------------------------------------
Total Dipole Moment    :      0.00000      -0.00000      -1.57765
                        -----------------------------------------
Magnitude (a.u.)       :      1.57765
Magnitude (Debye)      :      4.01007

Rotational constants in cm-1:     0.330003     0.071800     0.060446
Rotational constants in MHz :  9893.232964  2152.507947  1812.113694

                             ****ORCA TERMINATED NORMALLY****
TOTAL RUN TIME: 0 days 0 hours 0 minutes 32 seconds 530 msec
