                         Program Version 5.0.3 -  RELEASE  -
|  1> !ri-mp2 aug-cc-pvdz aug-cc-pvdz/c tightscf
|  2> %pal nprocs 16 end
|  3> %maxcore 3800
|  4>
|  5> * xyz 0 1
|  6> C     -0.455055    0.007781    5.014090
|  7> C     -0.455055    0.007781   -5.014090
|  8> C      0.435676   -0.020717    3.773122
|  9> C      0.435676   -0.020717   -3.773122
| 10> C     -0.355461    0.027942    2.465843
| 11> C     -0.355461    0.027942   -2.465843
| 12> C      0.527885   -0.001819    1.223683
| 13> C      0.527885   -0.001819   -1.223683
| 14> N     -0.261779    0.067908    0.000000
| 15> H      0.135970   -0.027454    5.930256
| 16> H     -1.060071    0.916136    5.043881
| 17> H     -1.138956   -0.843381    5.027731
| 18> H      0.135970   -0.027454   -5.930256
| 19> H     -1.138956   -0.843381   -5.027731
| 20> H     -1.060071    0.916136   -5.043881
| 21> H      1.130138    0.824101    3.804951
| 22> H      1.054579   -0.922676    3.790225
| 23> H      1.054579   -0.922676   -3.790225
| 24> H      1.130138    0.824101   -3.804951
| 25> H     -1.049164   -0.820022    2.434262
| 26> H     -0.971786    0.930230    2.437138
| 27> H     -0.971786    0.930230   -2.437138
| 28> H     -1.049164   -0.820022   -2.434262
| 29> H      1.201869    0.860165    1.235204
| 30> H      1.172318   -0.897454    1.253831
| 31> H      1.172318   -0.897454   -1.253831
| 32> H      1.201869    0.860165   -1.235204
| 33> H     -0.953883   -0.672892    0.000000
| 34> *
| 35>
| 36>                          ****END OF INPUT****

CARTESIAN COORDINATES (ANGSTROEM)
---------------------------------
  C     -0.455055    0.007781    5.014090
  C     -0.455055    0.007781   -5.014090
  C      0.435676   -0.020717    3.773122
  C      0.435676   -0.020717   -3.773122
  C     -0.355461    0.027942    2.465843
  C     -0.355461    0.027942   -2.465843
  C      0.527885   -0.001819    1.223683
  C      0.527885   -0.001819   -1.223683
  N     -0.261779    0.067908    0.000000
  H      0.135970   -0.027454    5.930256
  H     -1.060071    0.916136    5.043881
  H     -1.138956   -0.843381    5.027731
  H      0.135970   -0.027454   -5.930256
  H     -1.138956   -0.843381   -5.027731
  H     -1.060071    0.916136   -5.043881
  H      1.130138    0.824101    3.804951
  H      1.054579   -0.922676    3.790225
  H      1.054579   -0.922676   -3.790225
  H      1.130138    0.824101   -3.804951
  H     -1.049164   -0.820022    2.434262
  H     -0.971786    0.930230    2.437138
  H     -0.971786    0.930230   -2.437138
  H     -1.049164   -0.820022   -2.434262
  H      1.201869    0.860165    1.235204
  H      1.172318   -0.897454    1.253831
  H      1.172318   -0.897454   -1.253831
  H      1.201869    0.860165   -1.235204
  H     -0.953883   -0.672892    0.000000

 Total Charge           Charge          ....    0
 Multiplicity           Mult            ....    1
 Number of Electrons    NEL             ....   74
 Basis Dimension        Dim             ....  378

ORBITAL ENERGIES
----------------

  NO   OCC          E(Eh)            E(eV)
   0   2.0000     -15.542168      -422.9239
   1   2.0000     -11.246099      -306.0219
   2   2.0000     -11.246081      -306.0214
   3   2.0000     -11.222471      -305.3790
   4   2.0000     -11.222471      -305.3789
   5   2.0000     -11.218470      -305.2701
   6   2.0000     -11.218468      -305.2700
   7   2.0000     -11.216748      -305.2232
   8   2.0000     -11.216748      -305.2232
   9   2.0000      -1.203707       -32.7545
  10   2.0000      -1.074701       -29.2441
  11   2.0000      -1.056355       -28.7449
  12   2.0000      -0.985570       -26.8187
  13   2.0000      -0.940603       -25.5951
  14   2.0000      -0.856973       -23.3194
  15   2.0000      -0.826844       -22.4996
  16   2.0000      -0.798717       -21.7342
  17   2.0000      -0.784525       -21.3480
  18   2.0000      -0.667082       -18.1522
  19   2.0000      -0.638271       -17.3683
  20   2.0000      -0.619871       -16.8675
  21   2.0000      -0.609635       -16.5890
  22   2.0000      -0.596762       -16.2387
  23   2.0000      -0.567935       -15.4543
  24   2.0000      -0.564857       -15.3705
  25   2.0000      -0.561827       -15.2881
  26   2.0000      -0.523843       -14.2545
  27   2.0000      -0.521607       -14.1936
  28   2.0000      -0.503121       -13.6906
  29   2.0000      -0.489629       -13.3235
  30   2.0000      -0.482676       -13.1343
  31   2.0000      -0.469918       -12.7871
  32   2.0000      -0.467828       -12.7303
  33   2.0000      -0.464337       -12.6353
  34   2.0000      -0.459239       -12.4965
  35   2.0000      -0.442608       -12.0440
  36   2.0000      -0.361375        -9.8335
  37   0.0000       0.037425         1.0184
  38   0.0000       0.038428         1.0457
  39   0.0000       0.042573         1.1585
  40   0.0000       0.045808         1.2465
  41   0.0000       0.050654         1.3784

MULLIKEN ATOMIC CHARGES
-----------------------
   0 C :    0.463860
   1 C :    0.463860
   2 C :    0.484782
   3 C :    0.484782
   4 C :    0.280038
   5 C :    0.280038
   6 C :    0.575574
   7 C :    0.575574
   8 N :   -0.689419
   9 H :   -0.071745
  10 H :   -0.083340
  11 H :   -0.092973
  12 H :   -0.071745
  13 H :   -0.092973
  14 H :   -0.083340
  15 H :   -0.172397
  16 H :   -0.174214
  17 H :   -0.174214
  18 H :   -0.172397
  19 H :   -0.211788
  20 H :   -0.167451
  21 H :   -0.167451
  22 H :   -0.211788
  23 H :   -0.282235
  24 H :   -0.218693
  25 H :   -0.218693
  26 H :   -0.282235
  27 H :    0.030585
Sum of atomic charges:    0.0000000

LOEWDIN ATOMIC CHARGES
----------------------
   0 C :    0.130249
   1 C :    0.130249
   2 C :   -0.072191
   3 C :   -0.072191
   4 C :   -0.034029
   5 C :   -0.034029
   6 C :   -0.053600
   7 C :   -0.053600
   8 N :    0.035093
   9 H :   -0.022258
  10 H :   -0.019755
  11 H :   -0.020554
  12 H :   -0.022258
  13 H :   -0.020554
  14 H :   -0.019755
  15 H :    0.011048
  16 H :    0.009802
  17 H :    0.009802
  18 H :    0.011048
  19 H :    0.014835
  20 H :    0.019456
  21 H :    0.019456
  22 H :    0.014835
  23 H :    0.015915
  24 H :    0.015031
  25 H :    0.015031
  26 H :    0.015915
  27 H :   -0.022989

  Mayer bond orders larger than 0.100000
B(  0-C ,  2-C ) :   1.2241 B(  0-C ,  9-H ) :   0.9302 B(  0-C , 10-H ) :   0.9190
B(  0-C , 11-H ) :   0.9100 B(  1-C ,  3-C ) :   1.2241 B(  1-C , 12-H ) :   0.9302
B(  1-C , 13-H ) :   0.9100 B(  1-C , 14-H ) :   0.9190 B(  2-C ,  4-C ) :   1.2378
B(  2-C ,  6-C ) :  -0.1855 B(  2-C , 15-H ) :   0.7208 B(  2-C , 16-H ) :   0.7364
B(  3-C ,  5-C ) :   1.2378 B(  3-C ,  7-C ) :  -0.1855 B(  3-C , 17-H ) :   0.7364
B(  3-C , 18-H ) :   0.7208 B(  4-C ,  6-C ) :   1.2284 B(  4-C , 15-H ) :   0.1090
B(  4-C , 19-H ) :   0.7680 B(  4-C , 20-H ) :   0.7848 B(  5-C ,  7-C ) :   1.2284
B(  5-C , 18-H ) :   0.1090 B(  5-C , 21-H ) :   0.7848 B(  5-C , 22-H ) :   0.7680
B(  6-C ,  7-C ) :   0.2268 B(  6-C ,  8-N ) :   1.0465 B(  6-C , 23-H ) :   0.7442
B(  6-C , 24-H ) :   0.7126 B(  6-C , 25-H ) :   0.1147 B(  6-C , 26-H ) :   0.1335
B(  7-C ,  8-N ) :   1.0465 B(  7-C , 23-H ) :   0.1335 B(  7-C , 24-H ) :   0.1147
B(  7-C , 25-H ) :   0.7126 B(  7-C , 26-H ) :   0.7442 B(  8-N , 24-H ) :   0.1152
B(  8-N , 25-H ) :   0.1152 B(  8-N , 27-H ) :   1.0234

MP2 TOTAL ENERGY:     -369.878994125 Eh
FINAL SINGLE POINT ENERGY      -369.878994125452

DIPOLE MOMENT
-------------
                                X             Y             Z
Electronic contribution:      0.16859       0.34958      -0.00000
Nuclear contribution   :     -0.00605      -0.68087      -0.00000
                        -----------------------------------------
Total Dipole Moment    :      0.16254      -0.33130      -0.00000
                        -----------------------------------------
Magnitude (a.u.)       :      0.36902
Magnitude (Debye)      :      0.93798

Rotational constants in cm-1:     0.314169     0.012021     0.011788
Rotational constants in MHz :  9418.546700   360.369182   353.385177

                             ****ORCA TERMINATED NORMALLY****
TOTAL RUN TIME: 0 days 0 hours 1 minutes 51 seconds 58 msec
