                         Program Version 5.0.3 -  RELEASE  -
|  1> !ri-mp2 aug-cc-pvdz aug-cc-pvdz/c tightscf
|  2> %pal nprocs 16 end
|  3> %maxcore 3800
|  4>
|  5> * xyz 0 1
|  6> C      2.934750    0.367685    0.004894
|  7> C      2.687481   -1.021705    0.002229
|  8> C      1.883651    1.248979    0.004210
|  9> C      1.403115   -1.502176   -0.001292
| 10> C     -0.563413    1.664514   -0.000104
| 11> C     -1.844909    1.189940   -0.005795
| 12> C     -1.040095   -1.082969   -0.003076
| 13> C      0.547644    0.786363    0.000560
| 14> C      0.294326   -0.618925   -0.002537
| 15> C     -2.104204   -0.206518   -0.005473
| 16> N     -3.423722   -0.650874   -0.067870
| 17> H      3.952870    0.732442    0.007200
| 18> H      3.520954   -1.711733    0.002509
| 19> H      2.064878    2.316734    0.006029
| 20> H      1.220915   -2.569562   -0.003920
| 21> H     -0.385911    2.732646    0.001922
| 22> H     -2.680007    1.879584   -0.016198
| 23> H     -1.221281   -2.151525   -0.006138
| 24> H     -4.116285   -0.020662    0.301917
| 25> H     -3.580151   -1.602931    0.220075
| 26> *
| 27>
| 28>                          ****END OF INPUT****

CARTESIAN COORDINATES (ANGSTROEM)
---------------------------------
  C      2.934750    0.367685    0.004894
  C      2.687481   -1.021705    0.002229
  C      1.883651    1.248979    0.004210
  C      1.403115   -1.502176   -0.001292
  C     -0.563413    1.664514   -0.000104
  C     -1.844909    1.189940   -0.005795
  C     -1.040095   -1.082969   -0.003076
  C      0.547644    0.786363    0.000560
  C      0.294326   -0.618925   -0.002537
  C     -2.104204   -0.206518   -0.005473
  N     -3.423722   -0.650874   -0.067870
  H      3.952870    0.732442    0.007200
  H      3.520954   -1.711733    0.002509
  H      2.064878    2.316734    0.006029
  H      1.220915   -2.569562   -0.003920
  H     -0.385911    2.732646    0.001922
  H     -2.680007    1.879584   -0.016198
  H     -1.221281   -2.151525   -0.006138
  H     -4.116285   -0.020662    0.301917
  H     -3.580151   -1.602931    0.220075

 Total Charge           Charge          ....    0
 Multiplicity           Mult            ....    1
 Number of Electrons    NEL             ....   76
 Basis Dimension        Dim             ....  334

ORBITAL ENERGIES
----------------

  NO   OCC          E(Eh)            E(eV)
   0   2.0000     -15.576175      -423.8493
   1   2.0000     -11.286684      -307.1263
   2   2.0000     -11.246739      -306.0393
   3   2.0000     -11.246077      -306.0213
   4   2.0000     -11.238835      -305.8243
   5   2.0000     -11.237768      -305.7952
   6   2.0000     -11.237158      -305.7786
   7   2.0000     -11.236489      -305.7604
   8   2.0000     -11.232638      -305.6556
   9   2.0000     -11.230942      -305.6095
  10   2.0000     -11.224158      -305.4249
  11   2.0000      -1.231438       -33.5091
  12   2.0000      -1.167390       -31.7663
  13   2.0000      -1.096425       -29.8353
  14   2.0000      -1.047387       -28.5009
  15   2.0000      -0.999585       -27.2001
  16   2.0000      -0.973826       -26.4992
  17   2.0000      -0.856799       -23.3147
  18   2.0000      -0.831734       -22.6326
  19   2.0000      -0.812949       -22.1215
  20   2.0000      -0.717481       -19.5237
  21   2.0000      -0.708317       -19.2743
  22   2.0000      -0.694066       -18.8865
  23   2.0000      -0.655242       -17.8300
  24   2.0000      -0.624606       -16.9964
  25   2.0000      -0.609860       -16.5951
  26   2.0000      -0.586811       -15.9679
  27   2.0000      -0.576717       -15.6933
  28   2.0000      -0.573471       -15.6049
  29   2.0000      -0.545263       -14.8374
  30   2.0000      -0.525356       -14.2957
  31   2.0000      -0.497927       -13.5493
  32   2.0000      -0.490424       -13.3451
  33   2.0000      -0.473158       -12.8753
  34   2.0000      -0.415955       -11.3187
  35   2.0000      -0.377290       -10.2666
  36   2.0000      -0.304836        -8.2950
  37   2.0000      -0.272148        -7.4055
  38   0.0000       0.030975         0.8429
  39   0.0000       0.038166         1.0385
  40   0.0000       0.038825         1.0565
  41   0.0000       0.050484         1.3737
  42   0.0000       0.051538         1.4024

MULLIKEN ATOMIC CHARGES
-----------------------
   0 C :    0.132240
   1 C :   -0.010990
   2 C :    0.541745
   3 C :    0.549498
   4 C :    0.644573
   5 C :    0.433464
   6 C :    0.993522
   7 C :    0.679960
   8 C :    0.924046
   9 C :   -0.350893
  10 N :   -0.371445
  11 H :   -0.488035
  12 H :   -0.490317
  13 H :   -0.589922
  14 H :   -0.595364
  15 H :   -0.649580
  16 H :   -0.608486
  17 H :   -0.657511
  18 H :   -0.052912
  19 H :   -0.033593
Sum of atomic charges:    0.0000000

LOEWDIN ATOMIC CHARGES
----------------------
   0 C :    0.004067
   1 C :    0.009655
   2 C :    0.047580
   3 C :    0.047853
   4 C :    0.057041
   5 C :    0.057933
   6 C :    0.083842
   7 C :   -0.143152
   8 C :   -0.139508
   9 C :   -0.233027
  10 N :    0.242425
  11 H :   -0.004301
  12 H :   -0.000009
  13 H :    0.006917
  14 H :    0.004044
  15 H :    0.010907
  16 H :    0.003016
  17 H :    0.005390
  18 H :   -0.032381
  19 H :   -0.028292

  Mayer bond orders larger than 0.100000
B(  0-C ,  1-C ) :   1.9791 B(  0-C ,  2-C ) :   1.5607 B(  0-C ,  3-C ) :   0.1662
B(  0-C ,  4-C ) :   0.5283 B(  0-C ,  5-C ) :   0.4511 B(  0-C ,  6-C ) :  -0.2546
B(  0-C ,  7-C ) :  -0.4655 B(  0-C ,  8-C ) :  -0.4522 B(  0-C ,  9-C ) :   0.3112
B(  0-C , 12-H ) :   0.1135 B(  0-C , 13-H ) :   0.3096 B(  0-C , 14-H ) :  -0.1006
B(  1-C ,  2-C ) :   0.1954 B(  1-C ,  3-C ) :   1.5495 B(  1-C ,  4-C ) :  -0.1137
B(  1-C ,  5-C ) :   0.3717 B(  1-C ,  6-C ) :   0.5640 B(  1-C ,  7-C ) :  -0.1629
B(  1-C ,  8-C ) :  -0.9238 B(  1-C ,  9-C ) :   0.2624 B(  1-C , 11-H ) :   0.1386
B(  1-C , 13-H ) :  -0.1217 B(  1-C , 14-H ) :   0.3766 B(  2-C ,  3-C ) :   0.5701
B(  2-C ,  4-C ) :  -1.8535 B(  2-C ,  5-C ) :   0.5094 B(  2-C ,  6-C ) :   0.4982
B(  2-C ,  7-C ) :   1.7327 B(  2-C ,  8-C ) :  -1.6333 B(  2-C ,  9-C ) :  -0.2575
B(  2-C , 11-H ) :   0.4768 B(  2-C , 13-H ) :  -0.4465 B(  2-C , 15-H ) :  -0.1777
B(  3-C ,  6-C ) :  -1.9168 B(  3-C ,  7-C ) :  -1.6553 B(  3-C ,  8-C ) :   1.7013
B(  3-C ,  9-C ) :   0.3786 B(  3-C , 12-H ) :   0.4947 B(  3-C , 14-H ) :  -0.4945
B(  3-C , 17-H ) :  -0.1859 B(  4-C ,  5-C ) :   1.9798 B(  4-C ,  6-C ) :   0.2827
B(  4-C ,  7-C ) :   2.0548 B(  4-C ,  8-C ) :  -1.6648 B(  4-C ,  9-C ) :   0.1493
B(  4-C , 13-H ) :  -0.1903 B(  4-C , 15-H ) :  -0.9459 B(  4-C , 16-H ) :   0.4736
B(  5-C ,  6-C ) :   0.3480 B(  5-C ,  7-C ) :  -1.2242 B(  5-C ,  8-C ) :  -0.2474
B(  5-C ,  9-C ) :   1.6211 B(  5-C , 10-N ) :  -0.1147 B(  5-C , 15-H ) :   0.4618
B(  5-C , 16-H ) :  -0.5392 B(  6-C ,  7-C ) :  -1.9546 B(  6-C ,  8-C ) :   2.3825
B(  6-C ,  9-C ) :   0.4718 B(  6-C , 14-H ) :  -0.1308 B(  6-C , 15-H ) :   0.1584
B(  6-C , 17-H ) :  -0.7863 B(  7-C ,  8-C ) :   3.9414 B(  7-C ,  9-C ) :   0.2650
B(  7-C , 11-H ) :   0.2390 B(  7-C , 12-H ) :  -0.1053 B(  7-C , 13-H ) :   1.0211
B(  7-C , 15-H ) :   1.3674 B(  8-C ,  9-C ) :  -0.4774 B(  8-C , 11-H ) :  -0.1513
B(  8-C , 12-H ) :   0.1906 B(  8-C , 14-H ) :   0.9387 B(  8-C , 17-H ) :   1.1263
B(  9-C , 10-N ) :   0.7487 B(  9-C , 15-H ) :  -0.3147 B(  9-C , 16-H ) :   0.8101
B(  9-C , 17-H ) :   0.5196 B(  9-C , 19-H ) :  -0.1310 B( 10-N , 18-H ) :   1.1153
B( 10-N , 19-H ) :   1.0867

MP2 TOTAL ENERGY:     -439.959183573 Eh
FINAL SINGLE POINT ENERGY      -439.959183572563

DIPOLE MOMENT
-------------
                                X             Y             Z
Electronic contribution:      0.69830       0.37799      -0.14312
Nuclear contribution   :     -1.24016      -0.39756       0.51137
                        -----------------------------------------
Total Dipole Moment    :     -0.54186      -0.01957       0.36825
                        -----------------------------------------
Magnitude (a.u.)       :      0.65544
Magnitude (Debye)      :      1.66599

Rotational constants in cm-1:     0.095269     0.027667     0.021452
Rotational constants in MHz :  2856.082446   829.447786   643.101097

                             ****ORCA TERMINATED NORMALLY****
TOTAL RUN TIME: 0 days 0 hours 2 minutes 43 seconds 470 msec
