                         Program Version 5.0.3 -  RELEASE  -
|  1> !ri-mp2 aug-cc-pvdz aug-cc-pvdz/c tightscf
|  2> %pal nprocs 16 end
|  3>
|  4> * xyz 0 1
|  5> C     -1.505345    0.854261    0.000000
|  6> C      2.618558   -2.127663    0.000000
|  7> C      0.000000    0.771586    0.000000
|  8> C      2.068350   -0.702640    0.000000
|  9> C      0.540531   -0.653982    0.000000
| 10> O     -2.272406   -0.073756    0.000000
| 11> O     -1.931154    2.143966    0.000000
| 12> H      3.709158   -2.132876    0.000000
| 13> H      2.283560   -2.679277    0.880542
| 14> H      2.283560   -2.679277   -0.880542
| 15> H      0.357515    1.331075   -0.869047
| 16> H      0.357515    1.331075    0.869047
| 17> H      2.448656   -0.165278   -0.874152
| 18> H      2.448656   -0.165278    0.874152
| 19> H      0.153343   -1.186524   -0.871351
| 20> H      0.153343   -1.186524    0.871351
| 21> H     -2.899395    2.121831    0.000000
| 22> *
| 23>
| 24>                          ****END OF INPUT****

CARTESIAN COORDINATES (ANGSTROEM)
---------------------------------
  C     -1.505345    0.854261    0.000000
  C      2.618558   -2.127663    0.000000
  C      0.000000    0.771586    0.000000
  C      2.068350   -0.702640    0.000000
  C      0.540531   -0.653982    0.000000
  O     -2.272406   -0.073756    0.000000
  O     -1.931154    2.143966    0.000000
  H      3.709158   -2.132876    0.000000
  H      2.283560   -2.679277    0.880542
  H      2.283560   -2.679277   -0.880542
  H      0.357515    1.331075   -0.869047
  H      0.357515    1.331075    0.869047
  H      2.448656   -0.165278   -0.874152
  H      2.448656   -0.165278    0.874152
  H      0.153343   -1.186524   -0.871351
  H      0.153343   -1.186524    0.871351
  H     -2.899395    2.121831    0.000000

 Total Charge           Charge          ....    0
 Multiplicity           Mult            ....    1
 Number of Electrons    NEL             ....   56
 Basis Dimension        Dim             ....  251

ORBITAL ENERGIES
----------------

  NO   OCC          E(Eh)            E(eV)
   0   2.0000     -20.619736      -561.0916
   1   2.0000     -20.560668      -559.4842
   2   2.0000     -11.394207      -310.0521
   3   2.0000     -11.252428      -306.1941
   4   2.0000     -11.231747      -305.6314
   5   2.0000     -11.230987      -305.6107
   6   2.0000     -11.222087      -305.3685
   7   2.0000      -1.467755       -39.9396
   8   2.0000      -1.365651       -37.1613
   9   2.0000      -1.094169       -29.7739
  10   2.0000      -1.020729       -27.7755
  11   2.0000      -0.914129       -24.8747
  12   2.0000      -0.820910       -22.3381
  13   2.0000      -0.787737       -21.4354
  14   2.0000      -0.704955       -19.1828
  15   2.0000      -0.684674       -18.6309
  16   2.0000      -0.668277       -18.1847
  17   2.0000      -0.626682       -17.0529
  18   2.0000      -0.593207       -16.1420
  19   2.0000      -0.587134       -15.9767
  20   2.0000      -0.571981       -15.5644
  21   2.0000      -0.538510       -14.6536
  22   2.0000      -0.507683       -13.8148
  23   2.0000      -0.484748       -13.1907
  24   2.0000      -0.483872       -13.1668
  25   2.0000      -0.478721       -13.0266
  26   2.0000      -0.471181       -12.8215
  27   2.0000      -0.449602       -12.2343
  28   0.0000       0.034633         0.9424
  29   0.0000       0.039887         1.0854
  30   0.0000       0.047406         1.2900
  31   0.0000       0.048565         1.3215
  32   0.0000       0.056711         1.5432

MULLIKEN ATOMIC CHARGES
-----------------------
   0 C :    1.013090
   1 C :    0.514572
   2 C :    0.117609
   3 C :    0.380604
   4 C :    0.280031
   5 O :   -0.725215
   6 O :   -0.733557
   7 H :   -0.065970
   8 H :   -0.080360
   9 H :   -0.080360
  10 H :   -0.032794
  11 H :   -0.032794
  12 H :   -0.185990
  13 H :   -0.185990
  14 H :   -0.204510
  15 H :   -0.204510
  16 H :    0.226143
Sum of atomic charges:    0.0000000

LOEWDIN ATOMIC CHARGES
----------------------
   0 C :   -0.334787
   1 C :    0.134087
   2 C :    0.026530
   3 C :   -0.071900
   4 C :   -0.031247
   5 O :    0.042061
   6 O :    0.193129
   7 H :   -0.021129
   8 H :   -0.018527
   9 H :   -0.018527
  10 H :    0.028459
  11 H :    0.028459
  12 H :    0.011183
  13 H :    0.011183
  14 H :    0.021371
  15 H :    0.021371
  16 H :   -0.021718

  Mayer bond orders larger than 0.100000
B(  0-C ,  2-C ) :   0.9684 B(  0-C ,  5-O ) :   1.5107 B(  0-C ,  6-O ) :   0.3952
B(  1-C ,  3-C ) :   1.1946 B(  1-C ,  7-H ) :   0.9068 B(  1-C ,  8-H ) :   0.9222
B(  1-C ,  9-H ) :   0.9222 B(  2-C ,  3-C ) :  -0.1290 B(  2-C ,  4-C ) :   1.1928
B(  2-C ,  6-O ) :   0.1079 B(  2-C , 10-H ) :   0.9119 B(  2-C , 11-H ) :   0.9119
B(  3-C ,  4-C ) :   1.2195 B(  3-C , 12-H ) :   0.7685 B(  3-C , 13-H ) :   0.7685
B(  4-C , 14-H ) :   0.8352 B(  4-C , 15-H ) :   0.8352 B(  6-O , 16-H ) :   1.0024

MP2 TOTAL ENERGY:     -346.086163546 Eh
FINAL SINGLE POINT ENERGY      -346.086163545806

DIPOLE MOMENT
-------------
                                X             Y             Z
Electronic contribution:    -11.00655       6.00249      -0.00000
Nuclear contribution   :     11.56380      -5.53846       0.00000
                        -----------------------------------------
Total Dipole Moment    :      0.55725       0.46403      -0.00000
                        -----------------------------------------
Magnitude (a.u.)       :      0.72516
Magnitude (Debye)      :      1.84320

Rotational constants in cm-1:     0.267057     0.034777     0.031478
Rotational constants in MHz :  8006.176225  1042.593307   943.676572

                             ****ORCA TERMINATED NORMALLY****
TOTAL RUN TIME: 0 days 0 hours 1 minutes 22 seconds 984 msec
