                         Program Version 5.0.3 -  RELEASE  -
|  1> !ri-mp2 aug-cc-pvdz aug-cc-pvdz/c tightscf
|  2> %pal nprocs 16 end
|  3> %maxcore 3800
|  4>
|  5> * xyz 0 1
|  6> C    -1.066927    0.993447    0.503517
|  7> C    -1.369945   -1.059353   -0.651102
|  8> C    -3.086115   -0.027909    0.398756
|  9> C    -0.518719   -0.048949   -0.236276
| 10> C     3.264554   -0.589277    0.915395
| 11> N    -2.356726    1.004528    0.828796
| 12> N    -2.664799   -1.059267   -0.329369
| 13> N     1.810425   -0.382266    0.877742
| 14> O     1.609131    1.384777   -0.978583
| 15> S     1.227894   -0.030720   -0.731013
| 16> H    -0.454317    1.827531    0.822442
| 17> H    -1.012893   -1.886063   -1.256520
| 18> H    -4.135818   -0.021604    0.667155
| 19> H     3.754433    0.313715    0.557523
| 20> H     3.609015   -1.442093    0.321297
| 21> H     3.556910   -0.741479    1.953119
| 22> H     1.303932   -1.185425    1.237919
| 23> *
| 24>
| 25>                          ****END OF INPUT****

CARTESIAN COORDINATES (ANGSTROEM)
---------------------------------
  C     -1.066927    0.993447    0.503517
  C     -1.369945   -1.059353   -0.651102
  C     -3.086115   -0.027909    0.398756
  C     -0.518719   -0.048949   -0.236276
  C      3.264554   -0.589277    0.915395
  N     -2.356726    1.004528    0.828796
  N     -2.664799   -1.059267   -0.329369
  N      1.810425   -0.382266    0.877742
  O      1.609131    1.384777   -0.978583
  S      1.227894   -0.030720   -0.731013
  H     -0.454317    1.827531    0.822442
  H     -1.012893   -1.886063   -1.256520
  H     -4.135818   -0.021604    0.667155
  H      3.754433    0.313715    0.557523
  H      3.609015   -1.442093    0.321297
  H      3.556910   -0.741479    1.953119
  H      1.303932   -1.185425    1.237919

 Total Charge           Charge          ....    0
 Multiplicity           Mult            ....    1
 Number of Electrons    NEL             ....   82
 Basis Dimension        Dim             ....  297

ORBITAL ENERGIES
----------------

  NO   OCC          E(Eh)            E(eV)
   0   2.0000     -92.125980     -2506.8754
   1   2.0000     -20.539038      -558.8956
   2   2.0000     -15.608535      -424.7298
   3   2.0000     -15.600578      -424.5133
   4   2.0000     -15.599469      -424.4831
   5   2.0000     -11.341695      -308.6232
   6   2.0000     -11.330911      -308.3298
   7   2.0000     -11.326299      -308.2043
   8   2.0000     -11.288218      -307.1680
   9   2.0000     -11.277984      -306.8895
  10   2.0000      -9.109844      -247.8915
  11   2.0000      -6.792181      -184.8247
  12   2.0000      -6.791538      -184.8071
  13   2.0000      -6.789167      -184.7426
  14   2.0000      -1.377622       -37.4870
  15   2.0000      -1.337659       -36.3995
  16   2.0000      -1.225270       -33.3413
  17   2.0000      -1.219877       -33.1946
  18   2.0000      -1.110783       -30.2259
  19   2.0000      -0.976686       -26.5770
  20   2.0000      -0.922272       -25.0963
  21   2.0000      -0.913085       -24.8463
  22   2.0000      -0.855058       -23.2673
  23   2.0000      -0.756983       -20.5986
  24   2.0000      -0.732643       -19.9362
  25   2.0000      -0.707714       -19.2579
  26   2.0000      -0.643283       -17.5046
  27   2.0000      -0.640110       -17.4183
  28   2.0000      -0.618860       -16.8400
  29   2.0000      -0.609329       -16.5807
  30   2.0000      -0.601404       -16.3650
  31   2.0000      -0.588986       -16.0271
  32   2.0000      -0.568167       -15.4606
  33   2.0000      -0.554115       -15.0782
  34   2.0000      -0.509293       -13.8586
  35   2.0000      -0.453713       -12.3462
  36   2.0000      -0.443719       -12.0742
  37   2.0000      -0.437471       -11.9042
  38   2.0000      -0.431943       -11.7538
  39   2.0000      -0.404211       -10.9991
  40   2.0000      -0.374556       -10.1922
  41   0.0000       0.027118         0.7379
  42   0.0000       0.038912         1.0588
  43   0.0000       0.041268         1.1230
  44   0.0000       0.050148         1.3646
  45   0.0000       0.054829         1.4920

MULLIKEN ATOMIC CHARGES
-----------------------
   0 C :    0.387812
   1 C :    0.909793
   2 C :    0.676801
   3 C :    0.228523
   4 C :    0.770265
   5 N :   -0.744551
   6 N :   -0.814213
   7 N :   -0.805183
   8 O :   -1.148350
   9 S :    1.739454
  10 H :   -0.331638
  11 H :   -0.309249
  12 H :   -0.198556
  13 H :   -0.124921
  14 H :   -0.067517
  15 H :   -0.192740
  16 H :    0.024271
Sum of atomic charges:    0.0000000

LOEWDIN ATOMIC CHARGES
----------------------
   0 C :   -0.005543
   1 C :   -0.038408
   2 C :   -0.052902
   3 C :   -0.335298
   4 C :    0.080140
   5 N :    0.048059
   6 N :    0.039107
   7 N :   -0.189121
   8 O :   -0.521829
   9 S :    1.079822
  10 H :    0.019204
  11 H :    0.008847
  12 H :    0.007688
  13 H :   -0.026039
  14 H :   -0.027566
  15 H :   -0.021824
  16 H :   -0.064336

  Mayer bond orders larger than 0.100000
B(  0-C ,  2-C ) :  -0.1693 B(  0-C ,  3-C ) :   1.2094 B(  0-C ,  5-N ) :   1.1019
B(  0-C , 10-H ) :   0.8273 B(  1-C ,  2-C ) :  -0.1987 B(  1-C ,  3-C ) :   1.2590
B(  1-C ,  6-N ) :   0.9939 B(  1-C ,  9-S ) :  -0.1666 B(  1-C , 11-H ) :   0.6372
B(  2-C ,  3-C ) :   0.1713 B(  2-C ,  5-N ) :   1.3070 B(  2-C ,  6-N ) :   1.3649
B(  2-C , 12-H ) :   1.0454 B(  3-C ,  5-N ) :   0.1232 B(  3-C ,  6-N ) :   0.1264
B(  3-C ,  8-O ) :   0.1169 B(  3-C ,  9-S ) :   1.0443 B(  3-C , 11-H ) :   0.1547
B(  4-C ,  7-N ) :   0.9044 B(  4-C , 13-H ) :   0.9901 B(  4-C , 14-H ) :   0.8782
B(  4-C , 15-H ) :   1.0251 B(  7-N ,  8-O ) :   0.1375 B(  7-N ,  9-S ) :   0.7862
B(  7-N , 16-H ) :   1.1343 B(  8-O ,  9-S ) :   0.7728

MP2 TOTAL ENERGY:     -830.666348708 Eh
FINAL SINGLE POINT ENERGY      -830.666348708452

DIPOLE MOMENT
-------------
                                X             Y             Z
Electronic contribution:     -6.15025       1.55738      -3.66912
Nuclear contribution   :      6.45620      -3.05201       4.23055
                        -----------------------------------------
Total Dipole Moment    :      0.30594      -1.49462       0.56143
                        -----------------------------------------
Magnitude (a.u.)       :      1.62564
Magnitude (Debye)      :      4.13205

Rotational constants in cm-1:     0.090381     0.022828     0.022234
Rotational constants in MHz :  2709.545894   684.370255   666.559081

                             ****ORCA TERMINATED NORMALLY****
TOTAL RUN TIME: 0 days 0 hours 1 minutes 26 seconds 433 msec
