                         Program Version 5.0.3 -  RELEASE  -
|  1> !ri-mp2 aug-cc-pvdz aug-cc-pvdz/c tightscf
|  2> %pal nprocs 16 end
|  3> %maxcore 3800
|  4>
|  5> * xyz 0 1
|  6> C      4.970457   -0.129620    0.573340
|  7> C      3.980470   -0.194879   -0.308575
|  8> C     -3.651956   -0.553136    0.088042
|  9> C      2.695911    0.573157   -0.232484
| 10> C     -2.411683    0.337221    0.003428
| 11> C      1.456682   -0.330273   -0.147562
| 12> C     -1.096612   -0.441957   -0.031602
| 13> C      0.142340    0.449970   -0.118069
| 14> C     -4.960299    0.234816    0.126740
| 15> H      5.870978   -0.718575    0.461701
| 16> H      4.915733    0.519817    1.439288
| 17> H      4.082499   -0.862497   -1.160575
| 18> H     -3.662992   -1.236357   -0.766511
| 19> H     -3.581017   -1.184624    0.978831
| 20> H      2.603275    1.205727   -1.122753
| 21> H      2.721293    1.246627    0.628130
| 22> H     -2.482102    0.968002   -0.889247
| 23> H     -2.402836    1.023095    0.857279
| 24> H      1.452629   -1.017103   -0.999926
| 25> H      1.532776   -0.955399    0.746703
| 26> H     -1.106759   -1.128904   -0.884359
| 27> H     -1.026517   -1.070974    0.862031
| 28> H      0.074720    1.076852   -1.013503
| 29> H      0.150888    1.138809    0.733091
| 30> H     -5.824377   -0.428184    0.188857
| 31> H     -5.077618    0.848983   -0.768541
| 32> H     -4.992428    0.902909    0.989943
| 33> *
| 34>
| 35>                          ****END OF INPUT****

CARTESIAN COORDINATES (ANGSTROEM)
---------------------------------
  C      4.970457   -0.129620    0.573340
  C      3.980470   -0.194879   -0.308575
  C     -3.651956   -0.553136    0.088042
  C      2.695911    0.573157   -0.232484
  C     -2.411683    0.337221    0.003428
  C      1.456682   -0.330273   -0.147562
  C     -1.096612   -0.441957   -0.031602
  C      0.142340    0.449970   -0.118069
  C     -4.960299    0.234816    0.126740
  H      5.870978   -0.718575    0.461701
  H      4.915733    0.519817    1.439288
  H      4.082499   -0.862497   -1.160575
  H     -3.662992   -1.236357   -0.766511
  H     -3.581017   -1.184624    0.978831
  H      2.603275    1.205727   -1.122753
  H      2.721293    1.246627    0.628130
  H     -2.482102    0.968002   -0.889247
  H     -2.402836    1.023095    0.857279
  H      1.452629   -1.017103   -0.999926
  H      1.532776   -0.955399    0.746703
  H     -1.106759   -1.128904   -0.884359
  H     -1.026517   -1.070974    0.862031
  H      0.074720    1.076852   -1.013503
  H      0.150888    1.138809    0.733091
  H     -5.824377   -0.428184    0.188857
  H     -5.077618    0.848983   -0.768541
  H     -4.992428    0.902909    0.989943

 Total Charge           Charge          ....    0
 Multiplicity           Mult            ....    1
 Number of Electrons    NEL             ....   72
 Basis Dimension        Dim             ....  369

ORBITAL ENERGIES
----------------

  NO   OCC          E(Eh)            E(eV)
   0   2.0000     -11.235931      -305.7452
   1   2.0000     -11.228032      -305.5303
   2   2.0000     -11.223451      -305.4056
   3   2.0000     -11.223003      -305.3934
   4   2.0000     -11.221068      -305.3408
   5   2.0000     -11.220985      -305.3385
   6   2.0000     -11.219716      -305.3040
   7   2.0000     -11.218864      -305.2808
   8   2.0000     -11.216222      -305.2089
   9   2.0000      -1.098683       -29.8967
  10   2.0000      -1.075225       -29.2584
  11   2.0000      -1.035480       -28.1768
  12   2.0000      -0.981988       -26.7212
  13   2.0000      -0.916961       -24.9518
  14   2.0000      -0.845771       -23.0146
  15   2.0000      -0.793655       -21.5965
  16   2.0000      -0.787182       -21.4203
  17   2.0000      -0.754522       -20.5316
  18   2.0000      -0.658825       -17.9275
  19   2.0000      -0.639775       -17.4092
  20   2.0000      -0.614580       -16.7236
  21   2.0000      -0.596347       -16.2274
  22   2.0000      -0.586369       -15.9559
  23   2.0000      -0.567106       -15.4317
  24   2.0000      -0.561846       -15.2886
  25   2.0000      -0.533687       -14.5224
  26   2.0000      -0.518225       -14.1016
  27   2.0000      -0.513027       -13.9602
  28   2.0000      -0.487606       -13.2684
  29   2.0000      -0.482624       -13.1329
  30   2.0000      -0.474129       -12.9017
  31   2.0000      -0.463525       -12.6132
  32   2.0000      -0.458152       -12.4669
  33   2.0000      -0.457931       -12.4609
  34   2.0000      -0.437978       -11.9180
  35   2.0000      -0.356994        -9.7143
  36   0.0000       0.037350         1.0163
  37   0.0000       0.038539         1.0487
  38   0.0000       0.042792         1.1644
  39   0.0000       0.044116         1.2004
  40   0.0000       0.050406         1.3716

MULLIKEN ATOMIC CHARGES
-----------------------
   0 C :    0.510246
   1 C :    0.974816
   2 C :    0.475727
   3 C :    0.581612
   4 C :    0.242655
   5 C :    0.038892
   6 C :    0.212416
   7 C :    0.285614
   8 C :    0.576659
   9 H :   -0.311752
  10 H :   -0.322942
  11 H :   -0.509094
  12 H :   -0.188476
  13 H :   -0.187865
  14 H :   -0.090128
  15 H :   -0.240202
  16 H :   -0.235111
  17 H :   -0.223838
  18 H :   -0.218679
  19 H :   -0.189368
  20 H :   -0.236754
  21 H :   -0.225275
  22 H :   -0.211955
  23 H :   -0.240825
  24 H :   -0.078575
  25 H :   -0.092393
  26 H :   -0.095405
Sum of atomic charges:    0.0000000

LOEWDIN ATOMIC CHARGES
----------------------
   0 C :    0.157110
   1 C :   -0.067952
   2 C :   -0.073287
   3 C :   -0.038784
   4 C :   -0.042281
   5 C :   -0.033199
   6 C :   -0.034735
   7 C :   -0.034896
   8 C :    0.129881
   9 H :   -0.046373
  10 H :   -0.040697
  11 H :   -0.000501
  12 H :    0.010655
  13 H :    0.010737
  14 H :    0.017449
  15 H :    0.015656
  16 H :    0.016101
  17 H :    0.016073
  18 H :    0.015918
  19 H :    0.018279
  20 H :    0.016796
  21 H :    0.017117
  22 H :    0.016937
  23 H :    0.017389
  24 H :   -0.022431
  25 H :   -0.020489
  26 H :   -0.020477

  Mayer bond orders larger than 0.100000
B(  0-C ,  1-C ) :   1.8631 B(  0-C ,  9-H ) :   0.6837 B(  0-C , 10-H ) :   0.8509
B(  1-C ,  3-C ) :   1.2513 B(  1-C ,  5-C ) :  -0.1274 B(  1-C ,  9-H ) :   0.2112
B(  1-C , 11-H ) :   0.3988 B(  1-C , 15-H ) :  -0.1052 B(  2-C ,  4-C ) :   1.2390
B(  2-C ,  6-C ) :  -0.1513 B(  2-C ,  8-C ) :   1.1884 B(  2-C , 12-H ) :   0.7132
B(  2-C , 13-H ) :   0.7140 B(  3-C ,  5-C ) :   1.2300 B(  3-C ,  7-C ) :  -0.1940
B(  3-C , 14-H ) :   0.7468 B(  3-C , 15-H ) :   0.6581 B(  3-C , 18-H ) :  -0.1289
B(  3-C , 19-H ) :  -0.1620 B(  4-C ,  6-C ) :   1.3268 B(  4-C , 16-H ) :   0.7231
B(  4-C , 17-H ) :   0.7258 B(  5-C ,  7-C ) :   1.3709 B(  5-C , 11-H ) :   0.1056
B(  5-C , 15-H ) :   0.2498 B(  5-C , 18-H ) :   0.7230 B(  5-C , 19-H ) :   0.8269
B(  6-C ,  7-C ) :   1.4989 B(  6-C , 20-H ) :   0.7541 B(  6-C , 21-H ) :   0.7433
B(  7-C , 22-H ) :   0.7569 B(  7-C , 23-H ) :   0.7173 B(  8-C , 24-H ) :   0.9127
B(  8-C , 25-H ) :   0.9039 B(  8-C , 26-H ) :   0.9042 B(  9-H , 10-H ) :  -0.1978

MP2 TOTAL ENERGY:     -352.644972193 Eh
FINAL SINGLE POINT ENERGY      -352.644972192538

DIPOLE MOMENT
-------------
                                X             Y             Z
Electronic contribution:      7.05034      -0.34847      -0.35387
Nuclear contribution   :     -7.23204       0.35155       0.30039
                        -----------------------------------------
Total Dipole Moment    :     -0.18170       0.00308      -0.05348
                        -----------------------------------------
Magnitude (a.u.)       :      0.18943
Magnitude (Debye)      :      0.48150

Rotational constants in cm-1:     0.302485     0.012201     0.012083
Rotational constants in MHz :  9068.281737   365.775592   362.244573

                             ****ORCA TERMINATED NORMALLY****
TOTAL RUN TIME: 0 days 0 hours 1 minutes 56 seconds 798 msec
