                         Program Version 5.0.3 -  RELEASE  -
|  1> !ri-mp2 aug-cc-pvdz aug-cc-pvdz/c tightscf
|  2> %pal nprocs 16 end
|  3>
|  4> * xyz 0 1
|  5> N      0.000000    0.712570   -0.000004
|  6> C      1.187127    0.077814   -0.000007
|  7> C     -1.187127    0.077815   -0.000007
|  8> C      2.251031   -0.475403    0.000008
|  9> C     -2.251031   -0.475403    0.000009
| 10> H      0.000000    1.720650    0.000024
| 11> H      3.189310   -0.968793   -0.000008
| 12> H     -3.189310   -0.968793   -0.000007
| 13> *
| 14>
| 15>                          ****END OF INPUT****

CARTESIAN COORDINATES (ANGSTROEM)
---------------------------------
  N      0.000000    0.712570   -0.000004
  C      1.187127    0.077814   -0.000007
  C     -1.187127    0.077815   -0.000007
  C      2.251031   -0.475403    0.000008
  C     -2.251031   -0.475403    0.000009
  H      0.000000    1.720650    0.000024
  H      3.189310   -0.968793   -0.000008
  H     -3.189310   -0.968793   -0.000007

 Total Charge           Charge          ....    0
 Multiplicity           Mult            ....    1
 Number of Electrons    NEL             ....   34
 Basis Dimension        Dim             ....  142

ORBITAL ENERGIES
----------------

  NO   OCC          E(Eh)            E(eV)
   0   2.0000     -15.648984      -425.8305
   1   2.0000     -11.289664      -307.2074
   2   2.0000     -11.289648      -307.2069
   3   2.0000     -11.239442      -305.8408
   4   2.0000     -11.239441      -305.8407
   5   2.0000      -1.300096       -35.3774
   6   2.0000      -1.048459       -28.5300
   7   2.0000      -1.009704       -27.4754
   8   2.0000      -0.831048       -22.6140
   9   2.0000      -0.784763       -21.3545
  10   2.0000      -0.707234       -19.2448
  11   2.0000      -0.700067       -19.0498
  12   2.0000      -0.592365       -16.1191
  13   2.0000      -0.420956       -11.4548
  14   2.0000      -0.419052       -11.4030
  15   2.0000      -0.406908       -11.0725
  16   2.0000      -0.333941        -9.0870
  17   0.0000       0.031083         0.8458
  18   0.0000       0.039129         1.0647
  19   0.0000       0.045380         1.2348
  20   0.0000       0.100112         2.7242
  21   0.0000       0.108933         2.9642

MULLIKEN ATOMIC CHARGES
-----------------------
   0 N :   -0.377420
   1 C :   -0.494534
   2 C :   -0.494534
   3 C :    1.067167
   4 C :    1.067166
   5 H :   -0.018173
   6 H :   -0.374837
   7 H :   -0.374836
Sum of atomic charges:    0.0000000

LOEWDIN ATOMIC CHARGES
----------------------
   0 N :    0.024170
   1 C :   -0.141071
   2 C :   -0.141072
   3 C :    0.221116
   4 C :    0.221116
   5 H :    0.027286
   6 H :   -0.105773
   7 H :   -0.105773

  Mayer bond orders larger than 0.100000
B(  0-N ,  1-C ) :   1.2964 B(  0-N ,  2-C ) :   1.2964 B(  0-N ,  3-C ) :  -0.1827
B(  0-N ,  4-C ) :  -0.1827 B(  0-N ,  5-H ) :   1.0107 B(  1-C ,  2-C ) :  -0.1105
B(  1-C ,  3-C ) :   2.9507 B(  1-C ,  6-H ) :   0.4636 B(  2-C ,  4-C ) :   2.9507
B(  2-C ,  7-H ) :   0.4636 B(  3-C ,  4-C ) :   0.2060 B(  3-C ,  6-H ) :   0.1100
B(  4-C ,  7-H ) :   0.1100

MP2 TOTAL ENERGY:     -208.208644781 Eh
FINAL SINGLE POINT ENERGY      -208.208644781436

DIPOLE MOMENT
-------------
                                X             Y             Z
Electronic contribution:      0.00000       0.61544      -0.00001
Nuclear contribution   :      0.00000      -0.20876       0.00001
                        -----------------------------------------
Total Dipole Moment    :      0.00000       0.40667      -0.00000
                        -----------------------------------------
Magnitude (a.u.)       :      0.40667
Magnitude (Debye)      :      1.03368

Rotational constants in cm-1:     0.959864     0.095737     0.087054
Rotational constants in MHz : 28776.007155  2870.129096  2609.824301

                             ****ORCA TERMINATED NORMALLY****
TOTAL RUN TIME: 0 days 0 hours 0 minutes 22 seconds 758 msec
