                         Program Version 5.0.3 -  RELEASE  -
|  1> !ri-mp2 aug-cc-pvdz aug-cc-pvdz/c tightscf
|  2> %pal nprocs 16 end
|  3>
|  4> * xyz 0 1
|  5> F     -1.941746   -0.828965   -0.048656
|  6> F     -1.207342    1.234561    0.002398
|  7> N     -0.837230   -0.049645   -0.459202
|  8> C      0.253975   -0.468738    0.449582
|  9> C      1.490150    0.334470    0.186438
| 10> C      2.628245   -0.194799   -0.239489
| 11> H      0.410259   -1.522526    0.224676
| 12> H     -0.096603   -0.362385    1.478991
| 13> H      1.421730    1.396780    0.385841
| 14> H      2.723117   -1.253412   -0.447875
| 15> H      3.509677    0.413089   -0.390093
| 16> *
| 17>
| 18>                          ****END OF INPUT****

CARTESIAN COORDINATES (ANGSTROEM)
---------------------------------
  F     -1.941746   -0.828965   -0.048656
  F     -1.207342    1.234561    0.002398
  N     -0.837230   -0.049645   -0.459202
  C      0.253975   -0.468738    0.449582
  C      1.490150    0.334470    0.186438
  C      2.628245   -0.194799   -0.239489
  H      0.410259   -1.522526    0.224676
  H     -0.096603   -0.362385    1.478991
  H      1.421730    1.396780    0.385841
  H      2.723117   -1.253412   -0.447875
  H      3.509677    0.413089   -0.390093

 Total Charge           Charge          ....    0
 Multiplicity           Mult            ....    1
 Number of Electrons    NEL             ....   48
 Basis Dimension        Dim             ....  183

ORBITAL ENERGIES
----------------

  NO   OCC          E(Eh)            E(eV)
   0   2.0000     -26.345372      -716.8940
   1   2.0000     -26.345286      -716.8917
   2   2.0000     -15.780893      -429.4199
   3   2.0000     -11.303293      -307.5782
   4   2.0000     -11.265026      -306.5369
   5   2.0000     -11.258189      -306.3509
   6   2.0000      -1.680750       -45.7355
   7   2.0000      -1.597885       -43.4807
   8   2.0000      -1.183784       -32.2124
   9   2.0000      -1.070355       -29.1258
  10   2.0000      -0.934324       -25.4242
  11   2.0000      -0.805786       -21.9265
  12   2.0000      -0.761457       -20.7203
  13   2.0000      -0.754866       -20.5409
  14   2.0000      -0.738893       -20.1063
  15   2.0000      -0.676409       -18.4060
  16   2.0000      -0.663104       -18.0440
  17   2.0000      -0.636345       -17.3158
  18   2.0000      -0.630839       -17.1660
  19   2.0000      -0.613087       -16.6830
  20   2.0000      -0.560859       -15.2618
  21   2.0000      -0.523346       -14.2410
  22   2.0000      -0.485279       -13.2051
  23   2.0000      -0.396824       -10.7981
  24   0.0000       0.033350         0.9075
  25   0.0000       0.044293         1.2053
  26   0.0000       0.047061         1.2806
  27   0.0000       0.063122         1.7176
  28   0.0000       0.069337         1.8868

MULLIKEN ATOMIC CHARGES
-----------------------
   0 F :   -0.544359
   1 F :   -0.533060
   2 N :    0.352866
   3 C :    0.789759
   4 C :    0.647914
   5 C :    0.395268
   6 H :   -0.184654
   7 H :   -0.016160
   8 H :   -0.377440
   9 H :   -0.265693
  10 H :   -0.264442
Sum of atomic charges:    0.0000000

LOEWDIN ATOMIC CHARGES
----------------------
   0 F :   -0.005691
   1 F :   -0.006031
   2 N :   -0.030371
   3 C :   -0.049275
   4 C :   -0.059431
   5 C :    0.183107
   6 H :    0.017702
   7 H :    0.021130
   8 H :   -0.003406
   9 H :   -0.033013
  10 H :   -0.034721

  Mayer bond orders larger than 0.100000
B(  0-F ,  2-N ) :   0.5834 B(  1-F ,  2-N ) :   0.5997 B(  2-N ,  3-C ) :   0.7837
B(  3-C ,  4-C ) :   1.0429 B(  3-C ,  6-H ) :   0.8707 B(  3-C ,  7-H ) :   0.8916
B(  3-C ,  8-H ) :  -0.1203 B(  4-C ,  5-C ) :   1.9052 B(  4-C ,  8-H ) :   0.8020
B(  4-C , 10-H ) :   0.1135 B(  5-C ,  9-H ) :   0.9450 B(  5-C , 10-H ) :   0.7965
B(  9-H , 10-H ) :  -0.1781

MP2 TOTAL ENERGY:     -370.723513423 Eh
FINAL SINGLE POINT ENERGY      -370.723513422779

DIPOLE MOMENT
-------------
                                X             Y             Z
Electronic contribution:     -9.58696       1.33026      -0.90272
Nuclear contribution   :     10.72487      -1.67490       1.25380
                        -----------------------------------------
Total Dipole Moment    :      1.13791      -0.34464       0.35108
                        -----------------------------------------
Magnitude (a.u.)       :      1.23971
Magnitude (Debye)      :      3.15108

Rotational constants in cm-1:     0.272346     0.067527     0.057530
Rotational constants in MHz :  8164.721990  2024.419994  1724.716649

                             ****ORCA TERMINATED NORMALLY****
TOTAL RUN TIME: 0 days 0 hours 0 minutes 29 seconds 435 msec
