                         Program Version 5.0.3 -  RELEASE  -
|  1> !ri-mp2 aug-cc-pvdz aug-cc-pvdz/c tightscf
|  2> %pal nprocs 16 end
|  3>
|  4> * xyz 0 1
|  5> C      0.000000    0.000000   -2.509568
|  6> C      0.000000    1.206952   -1.817042
|  7> C      0.000000   -1.206952   -1.817042
|  8> C      0.000000    1.215022   -0.429244
|  9> C      0.000000   -1.215022   -0.429244
| 10> C      0.000000    0.000000    0.241376
| 11> N      0.000000    0.000000    1.718131
| 12> O      0.000000    1.082390    2.285939
| 13> O      0.000000   -1.082390    2.285939
| 14> H      0.000000    0.000000   -3.590995
| 15> H      0.000000    2.143267   -2.357131
| 16> H      0.000000   -2.143267   -2.357131
| 17> H      0.000000    2.134833    0.133951
| 18> H      0.000000   -2.134833    0.133951
| 19> *
| 20>
| 21>                          ****END OF INPUT****

CARTESIAN COORDINATES (ANGSTROEM)
---------------------------------
  C      0.000000    0.000000   -2.509568
  C      0.000000    1.206952   -1.817042
  C      0.000000   -1.206952   -1.817042
  C      0.000000    1.215022   -0.429244
  C      0.000000   -1.215022   -0.429244
  C      0.000000    0.000000    0.241376
  N      0.000000    0.000000    1.718131
  O      0.000000    1.082390    2.285939
  O      0.000000   -1.082390    2.285939
  H      0.000000    0.000000   -3.590995
  H      0.000000    2.143267   -2.357131
  H      0.000000   -2.143267   -2.357131
  H      0.000000    2.134833    0.133951
  H      0.000000   -2.134833    0.133951

 Total Charge           Charge          ....    0
 Multiplicity           Mult            ....    1
 Number of Electrons    NEL             ....   64
 Basis Dimension        Dim             ....  252

ORBITAL ENERGIES
----------------

  NO   OCC          E(Eh)            E(eV)
   0   2.0000     -20.613489      -560.9215
   1   2.0000     -20.613435      -560.9201
   2   2.0000     -15.862821      -431.6493
   3   2.0000     -11.316882      -307.9480
   4   2.0000     -11.281170      -306.9762
   5   2.0000     -11.281132      -306.9752
   6   2.0000     -11.278698      -306.9090
   7   2.0000     -11.271190      -306.7047
   8   2.0000     -11.271083      -306.7018
   9   2.0000      -1.614258       -43.9262
  10   2.0000      -1.406996       -38.2863
  11   2.0000      -1.204945       -32.7882
  12   2.0000      -1.096898       -29.8481
  13   2.0000      -1.057344       -28.7718
  14   2.0000      -0.964349       -26.2413
  15   2.0000      -0.868999       -23.6467
  16   2.0000      -0.833582       -22.6829
  17   2.0000      -0.784970       -21.3601
  18   2.0000      -0.731703       -19.9106
  19   2.0000      -0.721723       -19.6391
  20   2.0000      -0.711188       -19.3524
  21   2.0000      -0.659428       -17.9439
  22   2.0000      -0.652820       -17.7641
  23   2.0000      -0.627027       -17.0623
  24   2.0000      -0.556996       -15.1566
  25   2.0000      -0.538978       -14.6663
  26   2.0000      -0.532339       -14.4857
  27   2.0000      -0.496537       -13.5115
  28   2.0000      -0.495165       -13.4741
  29   2.0000      -0.456712       -12.4278
  30   2.0000      -0.378800       -10.3077
  31   2.0000      -0.370261       -10.0753
  32   0.0000       0.026668         0.7257
  33   0.0000       0.035463         0.9650
  34   0.0000       0.036064         0.9814
  35   0.0000       0.044145         1.2013
  36   0.0000       0.059994         1.6325

MULLIKEN ATOMIC CHARGES
-----------------------
   0 C :    0.391702
   1 C :    0.539778
   2 C :    0.539778
   3 C :    0.147756
   4 C :    0.147756
   5 C :    1.590826
   6 N :    0.449427
   7 O :   -0.808367
   8 O :   -0.808367
   9 H :   -0.437139
  10 H :   -0.429149
  11 H :   -0.429149
  12 H :   -0.447426
  13 H :   -0.447426
Sum of atomic charges:   -0.0000000

LOEWDIN ATOMIC CHARGES
----------------------
   0 C :    0.032495
   1 C :    0.028458
   2 C :    0.028458
   3 C :    0.074781
   4 C :    0.074781
   5 C :   -0.114432
   6 N :   -0.334331
   7 O :    0.088307
   8 O :    0.088307
   9 H :    0.008157
  10 H :    0.005590
  11 H :    0.005590
  12 H :    0.006919
  13 H :    0.006919

  Mayer bond orders larger than 0.100000
B(  0-C ,  1-C ) :   1.7046 B(  0-C ,  2-C ) :   1.7046 B(  0-C ,  3-C ) :   0.1892
B(  0-C ,  4-C ) :   0.1892 B(  0-C ,  9-H ) :   0.3758 B(  0-C , 10-H ) :   0.1405
B(  0-C , 11-H ) :   0.1405 B(  1-C ,  2-C ) :  -0.1746 B(  1-C ,  3-C ) :   2.0753
B(  1-C ,  4-C ) :   0.1496 B(  1-C ,  5-C ) :  -0.1986 B(  1-C ,  9-H ) :   0.1795
B(  1-C , 10-H ) :   0.2894 B(  1-C , 12-H ) :   0.1655 B(  2-C ,  3-C ) :   0.1496
B(  2-C ,  4-C ) :   2.0753 B(  2-C ,  5-C ) :  -0.1986 B(  2-C ,  9-H ) :   0.1795
B(  2-C , 11-H ) :   0.2894 B(  2-C , 13-H ) :   0.1655 B(  3-C ,  4-C ) :   0.1519
B(  3-C ,  5-C ) :   1.1765 B(  3-C , 10-H ) :   0.3513 B(  3-C , 12-H ) :   0.3438
B(  4-C ,  5-C ) :   1.1765 B(  4-C , 11-H ) :   0.3513 B(  4-C , 13-H ) :   0.3438
B(  5-C ,  6-N ) :   0.2071 B(  5-C , 12-H ) :   0.2625 B(  5-C , 13-H ) :   0.2625
B(  6-N ,  7-O ) :   1.0874 B(  6-N ,  8-O ) :   1.0874 B(  7-O ,  8-O ) :   0.2155

MP2 TOTAL ENERGY:     -435.615978940 Eh
FINAL SINGLE POINT ENERGY      -435.615978940175

DIPOLE MOMENT
-------------
                                X             Y             Z
Electronic contribution:     -0.00000       0.00000       5.73302
Nuclear contribution   :      0.00000       0.00000      -7.76688
                        -----------------------------------------
Total Dipole Moment    :     -0.00000       0.00000      -2.03386
                        -----------------------------------------
Magnitude (a.u.)       :      2.03386
Magnitude (Debye)      :      5.16966

Rotational constants in cm-1:     0.133375     0.042964     0.032496
Rotational constants in MHz :  3998.468292  1288.035290   974.210683

                             ****ORCA TERMINATED NORMALLY****
TOTAL RUN TIME: 0 days 0 hours 1 minutes 35 seconds 667 msec
