                         Program Version 5.0.3 -  RELEASE  -
|  1> !ri-mp2 aug-cc-pvdz aug-cc-pvdz/c tightscf
|  2> %pal nprocs 16 end
|  3>
|  4> * xyz 0 1
|  5> C     0.000000     0.000000    1.353978
|  6> C     0.000000     1.120429    0.272438
|  7> C     0.000000    -1.120429    0.272438
|  8> C     1.240122     0.664758   -0.520057
|  9> C     1.240122    -0.664758   -0.520057
| 10> C    -1.240122     0.664758   -0.520057
| 11> C    -1.240122    -0.664758   -0.520057
| 12> H    -0.896605     0.000000    1.972745
| 13> H     0.896605     0.000000    1.972745
| 14> H     0.000000     2.152954    0.608976
| 15> H     0.000000    -2.152954    0.608976
| 16> H     1.927551     1.330663   -1.018798
| 17> H     1.927551    -1.330663   -1.018798
| 18> H    -1.927551     1.330663   -1.018798
| 19> H    -1.927551    -1.330663   -1.018798
| 20> *
| 21>
| 22>                          ****END OF INPUT****

CARTESIAN COORDINATES (ANGSTROEM)
---------------------------------
  C      0.000000    0.000000    1.353978
  C      0.000000    1.120429    0.272438
  C      0.000000   -1.120429    0.272438
  C      1.240122    0.664758   -0.520057
  C      1.240122   -0.664758   -0.520057
  C     -1.240122    0.664758   -0.520057
  C     -1.240122   -0.664758   -0.520057
  H     -0.896605    0.000000    1.972745
  H      0.896605    0.000000    1.972745
  H      0.000000    2.152954    0.608976
  H      0.000000   -2.152954    0.608976
  H      1.927551    1.330663   -1.018798
  H      1.927551   -1.330663   -1.018798
  H     -1.927551    1.330663   -1.018798
  H     -1.927551   -1.330663   -1.018798

 Total Charge           Charge          ....    0
 Multiplicity           Mult            ....    1
 Number of Electrons    NEL             ....   50
 Basis Dimension        Dim             ....  233

ORBITAL ENERGIES
----------------

  NO   OCC          E(Eh)            E(eV)
   0   2.0000     -11.240903      -305.8805
   1   2.0000     -11.240900      -305.8804
   2   2.0000     -11.229552      -305.5716
   3   2.0000     -11.226942      -305.5006
   4   2.0000     -11.226910      -305.4997
   5   2.0000     -11.225195      -305.4531
   6   2.0000     -11.225178      -305.4526
   7   2.0000      -1.186962       -32.2989
   8   2.0000      -1.019034       -27.7293
   9   2.0000      -0.959029       -26.0965
  10   2.0000      -0.945422       -25.7263
  11   2.0000      -0.774356       -21.0713
  12   2.0000      -0.761063       -20.7096
  13   2.0000      -0.703495       -19.1431
  14   2.0000      -0.688262       -18.7286
  15   2.0000      -0.649906       -17.6848
  16   2.0000      -0.579463       -15.7680
  17   2.0000      -0.528824       -14.3900
  18   2.0000      -0.521190       -14.1823
  19   2.0000      -0.513359       -13.9692
  20   2.0000      -0.489957       -13.3324
  21   2.0000      -0.459937       -12.5155
  22   2.0000      -0.459246       -12.4967
  23   2.0000      -0.360582        -9.8119
  24   2.0000      -0.319268        -8.6877
  25   0.0000       0.035254         0.9593
  26   0.0000       0.040808         1.1104
  27   0.0000       0.045062         1.2262
  28   0.0000       0.047452         1.2912
  29   0.0000       0.060059         1.6343

MULLIKEN ATOMIC CHARGES
-----------------------
   0 C :    0.731093
   1 C :    0.204837
   2 C :    0.204837
   3 C :    0.426692
   4 C :    0.426692
   5 C :    0.426692
   6 C :    0.426692
   7 H :   -0.284257
   8 H :   -0.284257
   9 H :   -0.423925
  10 H :   -0.423925
  11 H :   -0.357793
  12 H :   -0.357793
  13 H :   -0.357793
  14 H :   -0.357793
Sum of atomic charges:   -0.0000000

LOEWDIN ATOMIC CHARGES
----------------------
   0 C :    0.043654
   1 C :   -0.129667
   2 C :   -0.129667
   3 C :    0.044068
   4 C :    0.044068
   5 C :    0.044068
   6 C :    0.044068
   7 H :    0.012221
   8 H :    0.012221
   9 H :    0.024193
  10 H :    0.024193
  11 H :   -0.008354
  12 H :   -0.008354
  13 H :   -0.008354
  14 H :   -0.008354

  Mayer bond orders larger than 0.100000
B(  0-C ,  1-C ) :   0.8550 B(  0-C ,  2-C ) :   0.8550 B(  0-C ,  7-H ) :   0.8190
B(  0-C ,  8-H ) :   0.8190 B(  1-C ,  3-C ) :   0.9996 B(  1-C ,  5-C ) :   0.9996
B(  1-C ,  9-H ) :   0.1517 B(  2-C ,  4-C ) :   0.9996 B(  2-C ,  6-C ) :   0.9996
B(  2-C , 10-H ) :   0.1517 B(  3-C ,  4-C ) :   2.2967 B(  3-C ,  5-C ) :   0.2301
B(  3-C ,  9-H ) :   0.2633 B(  3-C , 11-H ) :   0.5315 B(  3-C , 12-H ) :   0.2094
B(  4-C ,  6-C ) :   0.2301 B(  4-C , 10-H ) :   0.2633 B(  4-C , 11-H ) :   0.2094
B(  4-C , 12-H ) :   0.5315 B(  5-C ,  6-C ) :   2.2967 B(  5-C ,  9-H ) :   0.2633
B(  5-C , 13-H ) :   0.5315 B(  5-C , 14-H ) :   0.2094 B(  6-C , 10-H ) :   0.2633
B(  6-C , 13-H ) :   0.2094 B(  6-C , 14-H ) :   0.5315 B(  7-H ,  8-H ) :  -0.2381

MP2 TOTAL ENERGY:     -270.656815842 Eh
FINAL SINGLE POINT ENERGY      -270.656815841552

DIPOLE MOMENT
-------------
                                X             Y             Z
Electronic contribution:      0.00000      -0.00000      -1.08965
Nuclear contribution   :      0.00000       0.00000       1.10907
                        -----------------------------------------
Total Dipole Moment    :      0.00000      -0.00000       0.01941
                        -----------------------------------------
Magnitude (a.u.)       :      0.01941
Magnitude (Debye)      :      0.04935

Rotational constants in cm-1:     0.143551     0.120369     0.106452
Rotational constants in MHz :  4303.562731  3608.559784  3191.346092

                             ****ORCA TERMINATED NORMALLY****
TOTAL RUN TIME: 0 days 0 hours 1 minutes 6 seconds 317 msec
