                         Program Version 5.0.3 -  RELEASE  -
|  1> !ri-mp2 aug-cc-pvdz aug-cc-pvdz/c tightscf
|  2> %pal nprocs 16 end
|  3>
|  4> * xyz 0 1
|  5> C     -1.389634    0.299814   -0.198766
|  6> C      1.952053   -0.334792   -0.368307
|  7> N     -0.126016    0.752446    0.062428
|  8> N      0.873407   -0.070871    0.575294
|  9> O     -1.831251   -0.798313    0.032910
| 10> H     -1.989676    1.107143   -0.659469
| 11> H      2.420897    0.574948   -0.769208
| 12> H      1.565322   -0.922739   -1.199271
| 13> H      2.715072   -0.922090    0.141351
| 14> H      0.119098    1.672856   -0.284035
| 15> H      1.213038    0.315233    1.445736
| 16> *
| 17>
| 18>                          ****END OF INPUT****

CARTESIAN COORDINATES (ANGSTROEM)
---------------------------------
  C     -1.389634    0.299814   -0.198766
  C      1.952053   -0.334792   -0.368307
  N     -0.126016    0.752446    0.062428
  N      0.873407   -0.070871    0.575294
  O     -1.831251   -0.798313    0.032910
  H     -1.989676    1.107143   -0.659469
  H      2.420897    0.574948   -0.769208
  H      1.565322   -0.922739   -1.199271
  H      2.715072   -0.922090    0.141351
  H      0.119098    1.672856   -0.284035
  H      1.213038    0.315233    1.445736

 Total Charge           Charge          ....    0
 Multiplicity           Mult            ....    1
 Number of Electrons    NEL             ....   40
 Basis Dimension        Dim             ....  169

ORBITAL ENERGIES
----------------

  NO   OCC          E(Eh)            E(eV)
   0   2.0000     -20.535232      -558.7921
   1   2.0000     -15.625253      -425.1847
   2   2.0000     -15.604755      -424.6270
   3   2.0000     -11.359135      -309.0978
   4   2.0000     -11.268090      -306.6203
   5   2.0000      -1.393383       -37.9159
   6   2.0000      -1.313400       -35.7394
   7   2.0000      -1.118507       -30.4361
   8   2.0000      -0.928704       -25.2713
   9   2.0000      -0.818175       -22.2637
  10   2.0000      -0.759794       -20.6750
  11   2.0000      -0.689405       -18.7597
  12   2.0000      -0.652105       -17.7447
  13   2.0000      -0.613399       -16.6914
  14   2.0000      -0.592472       -16.1220
  15   2.0000      -0.553067       -15.0497
  16   2.0000      -0.548250       -14.9187
  17   2.0000      -0.429272       -11.6811
  18   2.0000      -0.412138       -11.2148
  19   2.0000      -0.404744       -11.0136
  20   0.0000       0.025530         0.6947
  21   0.0000       0.040711         1.1078
  22   0.0000       0.048025         1.3068
  23   0.0000       0.052955         1.4410
  24   0.0000       0.069794         1.8992

MULLIKEN ATOMIC CHARGES
-----------------------
   0 C :    1.044679
   1 C :    0.851797
   2 N :   -0.212272
   3 N :   -0.441613
   4 O :   -0.655313
   5 H :   -0.121589
   6 H :   -0.089944
   7 H :   -0.146949
   8 H :   -0.162957
   9 H :   -0.088011
  10 H :    0.022172
Sum of atomic charges:    0.0000000

LOEWDIN ATOMIC CHARGES
----------------------
   0 C :   -0.154957
   1 C :    0.145613
   2 N :    0.021937
   3 N :    0.030580
   4 O :    0.005034
   5 H :    0.019223
   6 H :   -0.023290
   7 H :   -0.015868
   8 H :   -0.016928
   9 H :    0.005527
  10 H :   -0.016870

  Mayer bond orders larger than 0.100000
B(  0-C ,  2-N ) :   1.0167 B(  0-C ,  4-O ) :   1.6326 B(  0-C ,  5-H ) :   0.8918
B(  1-C ,  3-N ) :   0.8313 B(  1-C ,  6-H ) :   0.9185 B(  1-C ,  7-H ) :   0.9806
B(  1-C ,  8-H ) :   0.9888 B(  2-N ,  3-N ) :   1.1100 B(  2-N ,  9-H ) :   1.1257
B(  3-N , 10-H ) :   1.0712

MP2 TOTAL ENERGY:     -263.822447893 Eh
FINAL SINGLE POINT ENERGY      -263.822447893093

DIPOLE MOMENT
-------------
                                X             Y             Z
Electronic contribution:     -4.79213      -0.28426       1.06708
Nuclear contribution   :      6.10376       1.84227      -1.33917
                        -----------------------------------------
Total Dipole Moment    :      1.31164       1.55801      -0.27209
                        -----------------------------------------
Magnitude (a.u.)       :      2.05470
Magnitude (Debye)      :      5.22264

Rotational constants in cm-1:     0.441999     0.101591     0.093072
Rotational constants in MHz : 13250.799287  3045.609840  2790.239884

                             ****ORCA TERMINATED NORMALLY****
TOTAL RUN TIME: 0 days 0 hours 0 minutes 23 seconds 355 msec
