                         Program Version 5.0.3 -  RELEASE  -
|  1> !ri-mp2 aug-cc-pvdz aug-cc-pvdz/c tightscf
|  2> %pal nprocs 16 end
|  3>
|  4> * xyz 0 1
|  5> C     -1.603643    0.174878   -0.000006
|  6> C     -2.767397   -0.780438    0.000006
|  7> C      3.283501    0.155432    0.000008
|  8> C      1.963727   -0.615105   -0.000005
|  9> C      0.769150    0.317432   -0.000001
| 10> O     -1.688090    1.377808   -0.000001
| 11> O     -0.429939   -0.489876   -0.000012
| 12> H     -2.721291   -1.424419    0.878141
| 13> H     -2.721158   -1.424638   -0.877958
| 14> H     -3.696732   -0.219858   -0.000125
| 15> H      3.372308    0.793346    0.881230
| 16> H      4.132141   -0.528255    0.000005
| 17> H      3.372315    0.793363   -0.881202
| 18> H      1.908444   -1.264592    0.876224
| 19> H      1.908451   -1.264576   -0.876246
| 20> H      0.758862    0.961481    0.880478
| 21> H      0.758869    0.961496   -0.880469
| 22> *
| 23>
| 24>                          ****END OF INPUT****

CARTESIAN COORDINATES (ANGSTROEM)
---------------------------------
  C     -1.603643    0.174878   -0.000006
  C     -2.767397   -0.780438    0.000006
  C      3.283501    0.155432    0.000008
  C      1.963727   -0.615105   -0.000005
  C      0.769150    0.317432   -0.000001
  O     -1.688090    1.377808   -0.000001
  O     -0.429939   -0.489876   -0.000012
  H     -2.721291   -1.424419    0.878141
  H     -2.721158   -1.424638   -0.877958
  H     -3.696732   -0.219858   -0.000125
  H      3.372308    0.793346    0.881230
  H      4.132141   -0.528255    0.000005
  H      3.372315    0.793363   -0.881202
  H      1.908444   -1.264592    0.876224
  H      1.908451   -1.264576   -0.876246
  H      0.758862    0.961481    0.880478
  H      0.758869    0.961496   -0.880469

 Total Charge           Charge          ....    0
 Multiplicity           Mult            ....    1
 Number of Electrons    NEL             ....   56
 Basis Dimension        Dim             ....  251

ORBITAL ENERGIES
----------------

  NO   OCC          E(Eh)            E(eV)
   0   2.0000     -20.606900      -560.7423
   1   2.0000     -20.551757      -559.2417
   2   2.0000     -11.386406      -309.8398
   3   2.0000     -11.291024      -307.2444
   4   2.0000     -11.245639      -306.0094
   5   2.0000     -11.234902      -305.7172
   6   2.0000     -11.229208      -305.5623
   7   2.0000      -1.459337       -39.7106
   8   2.0000      -1.359886       -37.0044
   9   2.0000      -1.076421       -29.2909
  10   2.0000      -1.018813       -27.7233
  11   2.0000      -0.935803       -25.4645
  12   2.0000      -0.823237       -22.4014
  13   2.0000      -0.779794       -21.2193
  14   2.0000      -0.688175       -18.7262
  15   2.0000      -0.685878       -18.6637
  16   2.0000      -0.668139       -18.1810
  17   2.0000      -0.623363       -16.9626
  18   2.0000      -0.592125       -16.1126
  19   2.0000      -0.575203       -15.6521
  20   2.0000      -0.571963       -15.5639
  21   2.0000      -0.534847       -14.5539
  22   2.0000      -0.522245       -14.2110
  23   2.0000      -0.515658       -14.0318
  24   2.0000      -0.489277       -13.3139
  25   2.0000      -0.485439       -13.2095
  26   2.0000      -0.455957       -12.4072
  27   2.0000      -0.444097       -12.0845
  28   0.0000       0.034382         0.9356
  29   0.0000       0.039660         1.0792
  30   0.0000       0.047467         1.2916
  31   0.0000       0.049359         1.3431
  32   0.0000       0.059785         1.6268

MULLIKEN ATOMIC CHARGES
-----------------------
   0 C :    0.601303
   1 C :    0.274083
   2 C :    0.443170
   3 C :    0.208645
   4 C :    0.861291
   5 O :   -0.703904
   6 O :   -0.831700
   7 H :    0.027333
   8 H :    0.027298
   9 H :   -0.028524
  10 H :   -0.069566
  11 H :   -0.079511
  12 H :   -0.069563
  13 H :   -0.141061
  14 H :   -0.141061
  15 H :   -0.189115
  16 H :   -0.189119
Sum of atomic charges:    0.0000000

LOEWDIN ATOMIC CHARGES
----------------------
   0 C :   -0.369472
   1 C :    0.206174
   2 C :    0.138039
   3 C :   -0.065888
   4 C :   -0.000200
   5 O :    0.040852
   6 O :    0.069289
   7 H :   -0.006564
   8 H :   -0.006568
   9 H :   -0.008220
  10 H :   -0.018443
  11 H :   -0.019733
  12 H :   -0.018443
  13 H :    0.014334
  14 H :    0.014333
  15 H :    0.015256
  16 H :    0.015255

  Mayer bond orders larger than 0.100000
B(  0-C ,  1-C ) :   1.0396 B(  0-C ,  5-O ) :   1.5325 B(  0-C ,  6-O ) :   0.8482
B(  0-C ,  9-H ) :   0.1097 B(  1-C ,  7-H ) :   0.9441 B(  1-C ,  8-H ) :   0.9441
B(  1-C ,  9-H ) :   0.8787 B(  2-C ,  3-C ) :   1.1518 B(  2-C , 10-H ) :   0.9410
B(  2-C , 11-H ) :   0.9103 B(  2-C , 12-H ) :   0.9410 B(  3-C ,  4-C ) :   1.2373
B(  3-C , 13-H ) :   0.7860 B(  3-C , 14-H ) :   0.7860 B(  4-C ,  6-O ) :   0.4582
B(  4-C , 13-H ) :   0.1087 B(  4-C , 14-H ) :   0.1087 B(  4-C , 15-H ) :   0.8531
B(  4-C , 16-H ) :   0.8531

MP2 TOTAL ENERGY:     -346.070717752 Eh
FINAL SINGLE POINT ENERGY      -346.070717751914

DIPOLE MOMENT
-------------
                                X             Y             Z
Electronic contribution:     -6.86969       1.84950      -0.00007
Nuclear contribution   :      7.24827      -2.68010       0.00008
                        -----------------------------------------
Total Dipole Moment    :      0.37858      -0.83060       0.00001
                        -----------------------------------------
Magnitude (a.u.)       :      0.91280
Magnitude (Debye)      :      2.32016

Rotational constants in cm-1:     0.260529     0.038522     0.034413
Rotational constants in MHz :  7810.462712  1154.851605  1031.684345

                             ****ORCA TERMINATED NORMALLY****
TOTAL RUN TIME: 0 days 0 hours 1 minutes 12 seconds 919 msec
