                         Program Version 5.0.3 -  RELEASE  -
|  1> !ri-mp2 aug-cc-pvdz aug-cc-pvdz/c tightscf
|  2> %pal nprocs 16 end
|  3>
|  4> * xyz 0 1
|  5> C     -2.176225   -0.108634    0.025106
|  6> C      1.750470   -0.864926    0.195527
|  7> N     -0.860662   -0.714324    0.273353
|  8> O      0.496434    1.481896    0.368384
|  9> S      0.435590    0.228882   -0.434302
| 10> H     -2.186081    0.887800    0.460796
| 11> H     -2.927918   -0.708978    0.535442
| 12> H     -2.441606   -0.034928   -1.035315
| 13> H      1.646109   -0.917873    1.276493
| 14> H      2.694683   -0.403665   -0.084828
| 15> H      1.666868   -1.848965   -0.264591
| 16> H     -0.813806   -1.649042   -0.123504
| 17> *
| 18>
| 19>                          ****END OF INPUT****

CARTESIAN COORDINATES (ANGSTROEM)
---------------------------------
  C     -2.176225   -0.108634    0.025106
  C      1.750470   -0.864926    0.195527
  N     -0.860662   -0.714324    0.273353
  O      0.496434    1.481896    0.368384
  S      0.435590    0.228882   -0.434302
  H     -2.186081    0.887800    0.460796
  H     -2.927918   -0.708978    0.535442
  H     -2.441606   -0.034928   -1.035315
  H      1.646109   -0.917873    1.276493
  H      2.694683   -0.403665   -0.084828
  H      1.666868   -1.848965   -0.264591
  H     -0.813806   -1.649042   -0.123504

 Total Charge           Charge          ....    0
 Multiplicity           Mult            ....    1
 Number of Electrons    NEL             ....   50
 Basis Dimension        Dim             ....  182

ORBITAL ENERGIES
----------------

  NO   OCC          E(Eh)            E(eV)
   0   2.0000     -92.102992     -2506.2498
   1   2.0000     -20.522629      -558.4491
   2   2.0000     -15.596676      -424.4071
   3   2.0000     -11.270565      -306.6877
   4   2.0000     -11.267468      -306.6034
   5   2.0000      -9.087871      -247.2935
   6   2.0000      -6.770292      -184.2290
   7   2.0000      -6.769528      -184.2082
   8   2.0000      -6.767031      -184.1403
   9   2.0000      -1.358335       -36.9622
  10   2.0000      -1.212016       -32.9806
  11   2.0000      -1.031616       -28.0717
  12   2.0000      -0.924069       -25.1452
  13   2.0000      -0.831806       -22.6346
  14   2.0000      -0.685384       -18.6502
  15   2.0000      -0.639101       -17.3908
  16   2.0000      -0.634873       -17.2758
  17   2.0000      -0.603398       -16.4193
  18   2.0000      -0.585106       -15.9215
  19   2.0000      -0.557823       -15.1791
  20   2.0000      -0.540209       -14.6998
  21   2.0000      -0.531367       -14.4592
  22   2.0000      -0.442536       -12.0420
  23   2.0000      -0.426491       -11.6054
  24   2.0000      -0.359716        -9.7884
  25   0.0000       0.029166         0.7937
  26   0.0000       0.040983         1.1152
  27   0.0000       0.051036         1.3888
  28   0.0000       0.052239         1.4215
  29   0.0000       0.067968         1.8495

MULLIKEN ATOMIC CHARGES
-----------------------
   0 C :    0.787362
   1 C :    0.095298
   2 N :   -0.862716
   3 O :   -1.110333
   4 S :    1.481496
   5 H :   -0.119758
   6 H :   -0.190533
   7 H :   -0.073178
   8 H :    0.020250
   9 H :   -0.013810
  10 H :   -0.045834
  11 H :    0.031755
Sum of atomic charges:    0.0000000

LOEWDIN ATOMIC CHARGES
----------------------
   0 C :    0.071166
   1 C :   -0.015607
   2 N :   -0.200141
   3 O :   -0.543703
   4 S :    1.000047
   5 H :   -0.029503
   6 H :   -0.024755
   7 H :   -0.028849
   8 H :   -0.045266
   9 H :   -0.055436
  10 H :   -0.057426
  11 H :   -0.070527

  Mayer bond orders larger than 0.100000
B(  0-C ,  2-N ) :   0.9096 B(  0-C ,  5-H ) :   0.9879 B(  0-C ,  6-H ) :   1.0172
B(  0-C ,  7-H ) :   0.8816 B(  1-C ,  4-S ) :   1.1311 B(  1-C ,  8-H ) :   0.9538
B(  1-C ,  9-H ) :   0.9655 B(  1-C , 10-H ) :   0.9648 B(  2-N ,  4-S ) :   0.8304
B(  2-N , 11-H ) :   1.1198 B(  3-O ,  4-S ) :   0.9348

MP2 TOTAL ENERGY:     -607.442126247 Eh
FINAL SINGLE POINT ENERGY      -607.442126247336

DIPOLE MOMENT
-------------
                                X             Y             Z
Electronic contribution:      2.26213       3.01654      -1.42727
Nuclear contribution   :     -2.39177      -4.70158       0.79171
                        -----------------------------------------
Total Dipole Moment    :     -0.12963      -1.68504      -0.63556
                        -----------------------------------------
Magnitude (a.u.)       :      1.80557
Magnitude (Debye)      :      4.58940

Rotational constants in cm-1:     0.227174     0.105204     0.080892
Rotational constants in MHz :  6810.492601  3153.929331  2425.094146

                             ****ORCA TERMINATED NORMALLY****
TOTAL RUN TIME: 0 days 0 hours 0 minutes 26 seconds 979 msec
