                         Program Version 5.0.3 -  RELEASE  -
|  1> !ri-mp2 aug-cc-pvdz aug-cc-pvdz/c tightscf
|  2> %pal nprocs 16 end
|  3> %maxcore 3800
|  4>
|  5> * xyz 0 1
|  6> C      5.737654    0.300711    0.011156
|  7> C      4.448192   -0.518362   -0.011562
|  8> C      3.184431    0.342309    0.009963
|  9> C      1.888085   -0.468013   -0.011393
| 10> C      0.625303    0.394075    0.008474
| 11> C     -0.671025   -0.416506   -0.012685
| 12> C     -1.932920    0.447391    0.006322
| 13> C     -3.228540   -0.365266   -0.019608
| 14> C     -4.476648    0.508022    0.005687
| 15> O     -5.690067   -0.238804   -0.075332
| 16> H      6.619389   -0.341382   -0.006380
| 17> H      5.796144    0.967682   -0.851502
| 18> H      5.795907    0.919276    0.909188
| 19> H      4.433983   -1.199317    0.844790
| 20> H      4.435354   -1.153265   -0.902627
| 21> H      3.198187    0.979052    0.901047
| 22> H      3.198984    1.023585   -0.847491
| 23> H      1.874006   -1.148349    0.846661
| 24> H      1.875740   -1.105201   -0.901950
| 25> H      0.637718    1.031678    0.898752
| 26> H      0.639314    1.073915   -0.849865
| 27> H     -0.686189   -1.095875    0.845940
| 28> H     -0.684331   -1.053895   -0.902720
| 29> H     -1.919452    1.084161    0.897002
| 30> H     -1.916317    1.126849   -0.852022
| 31> H     -3.259860   -0.993407   -0.913658
| 32> H     -3.249682   -1.044442    0.840338
| 33> H     -4.476569    1.142168    0.900551
| 34> H     -4.490512    1.170814   -0.860513
| 35> H     -5.748466   -0.819778    0.688990
| 36> *
| 37>
| 38>                          ****END OF INPUT****

CARTESIAN COORDINATES (ANGSTROEM)
---------------------------------
  C      5.737654    0.300711    0.011156
  C      4.448192   -0.518362   -0.011562
  C      3.184431    0.342309    0.009963
  C      1.888085   -0.468013   -0.011393
  C      0.625303    0.394075    0.008474
  C     -0.671025   -0.416506   -0.012685
  C     -1.932920    0.447391    0.006322
  C     -3.228540   -0.365266   -0.019608
  C     -4.476648    0.508022    0.005687
  O     -5.690067   -0.238804   -0.075332
  H      6.619389   -0.341382   -0.006380
  H      5.796144    0.967682   -0.851502
  H      5.795907    0.919276    0.909188
  H      4.433983   -1.199317    0.844790
  H      4.435354   -1.153265   -0.902627
  H      3.198187    0.979052    0.901047
  H      3.198984    1.023585   -0.847491
  H      1.874006   -1.148349    0.846661
  H      1.875740   -1.105201   -0.901950
  H      0.637718    1.031678    0.898752
  H      0.639314    1.073915   -0.849865
  H     -0.686189   -1.095875    0.845940
  H     -0.684331   -1.053895   -0.902720
  H     -1.919452    1.084161    0.897002
  H     -1.916317    1.126849   -0.852022
  H     -3.259860   -0.993407   -0.913658
  H     -3.249682   -1.044442    0.840338
  H     -4.476569    1.142168    0.900551
  H     -4.490512    1.170814   -0.860513
  H     -5.748466   -0.819778    0.688990

 Total Charge           Charge          ....    0
 Multiplicity           Mult            ....    1
 Number of Electrons    NEL             ....   82
 Basis Dimension        Dim             ....  410

ORBITAL ENERGIES
----------------

  NO   OCC          E(Eh)            E(eV)
   0   2.0000     -20.563201      -559.5531
   1   2.0000     -11.277499      -306.8764
   2   2.0000     -11.226877      -305.4989
   3   2.0000     -11.225454      -305.4601
   4   2.0000     -11.223553      -305.4084
   5   2.0000     -11.221810      -305.3610
   6   2.0000     -11.221612      -305.3556
   7   2.0000     -11.220537      -305.3263
   8   2.0000     -11.219643      -305.3020
   9   2.0000     -11.216877      -305.2267
  10   2.0000      -1.356293       -36.9066
  11   2.0000      -1.097610       -29.8675
  12   2.0000      -1.072216       -29.1765
  13   2.0000      -1.030325       -28.0366
  14   2.0000      -0.975199       -26.5365
  15   2.0000      -0.912079       -24.8189
  16   2.0000      -0.851739       -23.1770
  17   2.0000      -0.809172       -22.0187
  18   2.0000      -0.791026       -21.5249
  19   2.0000      -0.786577       -21.4039
  20   2.0000      -0.688832       -18.7441
  21   2.0000      -0.658722       -17.9247
  22   2.0000      -0.637637       -17.3510
  23   2.0000      -0.612838       -16.6762
  24   2.0000      -0.604100       -16.4384
  25   2.0000      -0.589487       -16.0408
  26   2.0000      -0.580316       -15.7912
  27   2.0000      -0.567122       -15.4322
  28   2.0000      -0.546992       -14.8844
  29   2.0000      -0.534058       -14.5324
  30   2.0000      -0.521640       -14.1945
  31   2.0000      -0.505932       -13.7671
  32   2.0000      -0.492924       -13.4131
  33   2.0000      -0.482650       -13.1336
  34   2.0000      -0.472716       -12.8633
  35   2.0000      -0.468974       -12.7614
  36   2.0000      -0.462791       -12.5932
  37   2.0000      -0.458813       -12.4849
  38   2.0000      -0.458223       -12.4689
  39   2.0000      -0.448850       -12.2138
  40   2.0000      -0.421993       -11.4830
  41   0.0000       0.035729         0.9722
  42   0.0000       0.036222         0.9856
  43   0.0000       0.040900         1.1129
  44   0.0000       0.043589         1.1861
  45   0.0000       0.048718         1.3257

MULLIKEN ATOMIC CHARGES
-----------------------
   0 C :    0.589822
   1 C :    0.530064
   2 C :    0.285784
   3 C :    0.295912
   4 C :    0.277289
   5 C :    0.216692
   6 C :    0.308128
   7 C :    0.504329
   8 C :    1.365494
   9 O :   -0.754199
  10 H :   -0.078742
  11 H :   -0.094404
  12 H :   -0.094331
  13 H :   -0.192536
  14 H :   -0.192126
  15 H :   -0.232624
  16 H :   -0.230929
  17 H :   -0.240982
  18 H :   -0.243169
  19 H :   -0.233468
  20 H :   -0.234428
  21 H :   -0.237772
  22 H :   -0.234994
  23 H :   -0.220084
  24 H :   -0.221512
  25 H :   -0.155516
  26 H :   -0.222182
  27 H :   -0.168137
  28 H :   -0.227937
  29 H :    0.136557
Sum of atomic charges:    0.0000000

LOEWDIN ATOMIC CHARGES
----------------------
   0 C :    0.129934
   1 C :   -0.073230
   2 C :   -0.042276
   3 C :   -0.034853
   4 C :   -0.033430
   5 C :   -0.033759
   6 C :   -0.035117
   7 C :   -0.036443
   8 C :   -0.049815
   9 O :    0.108538
  10 H :   -0.022360
  11 H :   -0.020420
  12 H :   -0.020472
  13 H :    0.010628
  14 H :    0.010729
  15 H :    0.016073
  16 H :    0.016150
  17 H :    0.016707
  18 H :    0.016913
  19 H :    0.016996
  20 H :    0.017190
  21 H :    0.016946
  22 H :    0.017735
  23 H :    0.016133
  24 H :    0.017291
  25 H :    0.019102
  26 H :    0.013603
  27 H :    0.004829
  28 H :    0.003874
  29 H :   -0.067193

  Mayer bond orders larger than 0.100000
B(  0-C ,  1-C ) :   1.1916 B(  0-C , 10-H ) :   0.9132 B(  0-C , 11-H ) :   0.9011
B(  0-C , 12-H ) :   0.9011 B(  1-C ,  2-C ) :   1.2603 B(  1-C ,  3-C ) :  -0.1742
B(  1-C , 13-H ) :   0.6939 B(  1-C , 14-H ) :   0.6936 B(  2-C ,  3-C ) :   1.3369
B(  2-C ,  4-C ) :  -0.1371 B(  2-C , 15-H ) :   0.6979 B(  2-C , 16-H ) :   0.6980
B(  3-C ,  4-C ) :   1.4986 B(  3-C ,  5-C ) :  -0.1192 B(  3-C , 17-H ) :   0.6985
B(  3-C , 18-H ) :   0.6941 B(  4-C ,  5-C ) :   1.5181 B(  4-C ,  6-C ) :  -0.1566
B(  4-C , 19-H ) :   0.6855 B(  4-C , 20-H ) :   0.6850 B(  5-C ,  6-C ) :   1.4200
B(  5-C ,  7-C ) :  -0.1559 B(  5-C , 21-H ) :   0.7053 B(  5-C , 22-H ) :   0.7021
B(  6-C ,  7-C ) :   1.2315 B(  6-C ,  8-C ) :  -0.1350 B(  6-C , 23-H ) :   0.7222
B(  6-C , 24-H ) :   0.6874 B(  7-C ,  8-C ) :   1.1887 B(  7-C , 23-H ) :  -0.1055
B(  7-C , 25-H ) :   0.7174 B(  7-C , 26-H ) :   0.6588 B(  8-C ,  9-O ) :   0.4476
B(  8-C , 27-H ) :   0.8218 B(  8-C , 28-H ) :   0.7895 B(  9-O , 29-H ) :   1.0814
B( 27-H , 28-H ) :  -0.1012

MP2 TOTAL ENERGY:     -428.925839126 Eh
FINAL SINGLE POINT ENERGY      -428.925839126382

DIPOLE MOMENT
-------------
                                X             Y             Z
Electronic contribution:    -12.18814      -0.66567      -0.26167
Nuclear contribution   :     12.79309       0.59836       0.72950
                        -----------------------------------------
Total Dipole Moment    :      0.60495      -0.06731       0.46783
                        -----------------------------------------
Magnitude (a.u.)       :      0.76770
Magnitude (Debye)      :      1.95133

Rotational constants in cm-1:     0.297782     0.008289     0.008178
Rotational constants in MHz :  8927.281889   248.500804   245.172922

                             ****ORCA TERMINATED NORMALLY****
TOTAL RUN TIME: 0 days 0 hours 2 minutes 28 seconds 391 msec
