                         Program Version 5.0.3 -  RELEASE  -
|  1> !ri-mp2 aug-cc-pvdz aug-cc-pvdz/c tightscf
|  2> %pal nprocs 16 end
|  3>
|  4> * xyz 0 1
|  5> C    -2.434690    1.007305     0.195988
|  6> C    -1.066080    1.206618     0.141234
|  7> C    -2.925749   -0.286900     0.055755
|  8> C    -0.831663   -1.149867    -0.199198
|  9> C    -0.234965    0.103590    -0.047113
| 10> C     1.234805    0.320466    -0.099690
| 11> N    -2.146220   -1.349895    -0.145302
| 12> N     2.025184   -0.770786     0.116502
| 13> O     1.753325    1.403823    -0.352026
| 14> O     3.394425   -0.509645     0.206692
| 15> H    -3.113977    1.834745     0.344733
| 16> H    -0.627372    2.189562     0.238840
| 17> H    -3.991491   -0.478121     0.101031
| 18> H    -0.227759   -2.027390    -0.401000
| 19> H     1.753487   -1.488411     0.769860
| 20> H     3.422406    0.453688     0.028951
| 21> *
| 22>
| 23>                          ****END OF INPUT****

CARTESIAN COORDINATES (ANGSTROEM)
---------------------------------
  C     -2.434690    1.007305    0.195988
  C     -1.066080    1.206618    0.141234
  C     -2.925749   -0.286900    0.055755
  C     -0.831663   -1.149867   -0.199198
  C     -0.234965    0.103590   -0.047113
  C      1.234805    0.320466   -0.099690
  N     -2.146220   -1.349895   -0.145302
  N      2.025184   -0.770786    0.116502
  O      1.753325    1.403823   -0.352026
  O      3.394425   -0.509645    0.206692
  H     -3.113977    1.834745    0.344733
  H     -0.627372    2.189562    0.238840
  H     -3.991491   -0.478121    0.101031
  H     -0.227759   -2.027390   -0.401000
  H      1.753487   -1.488411    0.769860
  H      3.422406    0.453688    0.028951

 Total Charge           Charge          ....    0
 Multiplicity           Mult            ....    1
 Number of Electrons    NEL             ....   72
 Basis Dimension        Dim             ....  284

ORBITAL ENERGIES
----------------

  NO   OCC          E(Eh)            E(eV)
   0   2.0000     -20.621367      -561.1359
   1   2.0000     -20.563115      -559.5508
   2   2.0000     -15.659183      -426.1080
   3   2.0000     -15.594783      -424.3556
   4   2.0000     -11.390075      -309.9397
   5   2.0000     -11.310799      -307.7825
   6   2.0000     -11.306303      -307.6601
   7   2.0000     -11.287356      -307.1446
   8   2.0000     -11.277413      -306.8740
   9   2.0000     -11.266034      -306.5644
  10   2.0000      -1.467850       -39.9422
  11   2.0000      -1.389090       -37.7991
  12   2.0000      -1.288705       -35.0674
  13   2.0000      -1.173939       -31.9445
  14   2.0000      -1.117508       -30.4090
  15   2.0000      -1.064310       -28.9614
  16   2.0000      -0.913349       -24.8535
  17   2.0000      -0.886797       -24.1310
  18   2.0000      -0.845350       -23.0032
  19   2.0000      -0.772891       -21.0314
  20   2.0000      -0.726807       -19.7774
  21   2.0000      -0.714610       -19.4455
  22   2.0000      -0.689030       -18.7494
  23   2.0000      -0.653922       -17.7941
  24   2.0000      -0.645912       -17.5762
  25   2.0000      -0.613535       -16.6951
  26   2.0000      -0.597214       -16.2510
  27   2.0000      -0.594522       -16.1778
  28   2.0000      -0.572117       -15.5681
  29   2.0000      -0.551817       -15.0157
  30   2.0000      -0.535013       -14.5584
  31   2.0000      -0.474344       -12.9075
  32   2.0000      -0.436993       -11.8912
  33   2.0000      -0.410122       -11.1600
  34   2.0000      -0.403184       -10.9712
  35   2.0000      -0.370308       -10.0766
  36   0.0000       0.028552         0.7769
  37   0.0000       0.037576         1.0225
  38   0.0000       0.043136         1.1738
  39   0.0000       0.056593         1.5400
  40   0.0000       0.057757         1.5716

MULLIKEN ATOMIC CHARGES
-----------------------
   0 C :    0.546151
   1 C :    0.140400
   2 C :    0.450935
   3 C :    0.667141
   4 C :    1.181614
   5 C :    0.668425
   6 N :   -0.720171
   7 N :    0.066208
   8 O :   -0.891870
   9 O :   -0.641666
  10 H :   -0.389093
  11 H :   -0.569847
  12 H :   -0.321377
  13 H :   -0.442384
  14 H :    0.061420
  15 H :    0.194112
Sum of atomic charges:   -0.0000000

LOEWDIN ATOMIC CHARGES
----------------------
   0 C :    0.036818
   1 C :    0.085736
   2 C :   -0.010893
   3 C :    0.020326
   4 C :   -0.113345
   5 C :   -0.301839
   6 N :    0.040852
   7 N :    0.080640
   8 O :    0.042317
   9 O :    0.158293
  10 H :    0.003277
  11 H :    0.022076
  12 H :    0.007380
  13 H :    0.008683
  14 H :    0.004479
  15 H :   -0.084802

  Mayer bond orders larger than 0.100000
B(  0-C ,  1-C ) :   1.8511 B(  0-C ,  2-C ) :   1.2845 B(  0-C ,  6-N ) :  -0.1084
B(  0-C , 10-H ) :   0.4800 B(  0-C , 11-H ) :   0.1433 B(  1-C ,  2-C ) :   0.2052
B(  1-C ,  3-C ) :  -0.4849 B(  1-C ,  4-C ) :   1.1046 B(  1-C ,  5-C ) :  -0.3180
B(  1-C , 10-H ) :   0.2626 B(  1-C , 11-H ) :   0.1911 B(  1-C , 12-H ) :   0.1042
B(  1-C , 13-H ) :   0.1333 B(  2-C ,  5-C ) :   0.1062 B(  2-C ,  6-N ) :   1.3977
B(  2-C , 12-H ) :   0.8585 B(  3-C ,  4-C ) :   1.3265 B(  3-C ,  5-C ) :  -0.1344
B(  3-C ,  6-N ) :   1.2048 B(  3-C , 13-H ) :   0.8085 B(  4-C ,  5-C ) :   0.6157
B(  4-C , 11-H ) :   0.3075 B(  5-C ,  7-N ) :   0.9407 B(  5-C ,  8-O ) :   1.2459
B(  5-C ,  9-O ) :  -0.1632 B(  7-N ,  9-O ) :   0.7165 B(  7-N , 14-H ) :   1.0252
B(  9-O , 15-H ) :   1.0322

MP2 TOTAL ENERGY:     -490.874575533 Eh
FINAL SINGLE POINT ENERGY      -490.874575532834

DIPOLE MOMENT
-------------
                                X             Y             Z
Electronic contribution:      1.66193      -0.37072      -0.46150
Nuclear contribution   :     -2.64740       0.47551       1.05724
                        -----------------------------------------
Total Dipole Moment    :     -0.98547       0.10479       0.59574
                        -----------------------------------------
Magnitude (a.u.)       :      1.15630
Magnitude (Debye)      :      2.93909

Rotational constants in cm-1:     0.122282     0.027318     0.022656
Rotational constants in MHz :  3665.915906   818.967546   679.221419

                             ****ORCA TERMINATED NORMALLY****
TOTAL RUN TIME: 0 days 0 hours 1 minutes 13 seconds 186 msec
