                         Program Version 5.0.3 -  RELEASE  -
|  1> !ri-mp2 aug-cc-pvdz aug-cc-pvdz/c tightscf
|  2> %pal nprocs 16 end
|  3>
|  4> * xyz 0 1
|  5> C     -1.071395   -1.776836    0.000000
|  6> C      1.414442    2.421868    0.000000
|  7> C      1.409577    0.893657    0.000000
|  8> C      0.000000    0.338803    0.000000
|  9> O     -2.169335   -1.290400    0.000000
| 10> O      0.086608   -1.109139    0.000000
| 11> H     -0.866386   -2.854791    0.000000
| 12> H      0.909790    2.821701    0.881287
| 13> H      2.434143    2.805918    0.000000
| 14> H      0.909790    2.821701   -0.881287
| 15> H      1.940343    0.515991    0.876316
| 16> H      1.940343    0.515991   -0.876316
| 17> H     -0.560976    0.652422    0.881239
| 18> H     -0.560976    0.652422   -0.881239
| 19> *
| 20>
| 21>                          ****END OF INPUT****

CARTESIAN COORDINATES (ANGSTROEM)
---------------------------------
  C     -1.071395   -1.776836    0.000000
  C      1.414442    2.421868    0.000000
  C      1.409577    0.893657    0.000000
  C      0.000000    0.338803    0.000000
  O     -2.169335   -1.290400    0.000000
  O      0.086608   -1.109139    0.000000
  H     -0.866386   -2.854791    0.000000
  H      0.909790    2.821701    0.881287
  H      2.434143    2.805918    0.000000
  H      0.909790    2.821701   -0.881287
  H      1.940343    0.515991    0.876316
  H      1.940343    0.515991   -0.876316
  H     -0.560976    0.652422    0.881239
  H     -0.560976    0.652422   -0.881239

 Total Charge           Charge          ....    0
 Multiplicity           Mult            ....    1
 Number of Electrons    NEL             ....   48
 Basis Dimension        Dim             ....  210

ORBITAL ENERGIES
----------------

  NO   OCC          E(Eh)            E(eV)
   0   2.0000     -20.618391      -561.0549
   1   2.0000     -20.564720      -559.5945
   2   2.0000     -11.391884      -309.9889
   3   2.0000     -11.298319      -307.4429
   4   2.0000     -11.239425      -305.8403
   5   2.0000     -11.232678      -305.6567
   6   2.0000      -1.468229       -39.9525
   7   2.0000      -1.372159       -37.3383
   8   2.0000      -1.078355       -29.3435
   9   2.0000      -0.962652       -26.1951
  10   2.0000      -0.846289       -23.0287
  11   2.0000      -0.807353       -21.9692
  12   2.0000      -0.725294       -19.7363
  13   2.0000      -0.688611       -18.7381
  14   2.0000      -0.681857       -18.5543
  15   2.0000      -0.614912       -16.7326
  16   2.0000      -0.602255       -16.3882
  17   2.0000      -0.546195       -14.8627
  18   2.0000      -0.544786       -14.8244
  19   2.0000      -0.523997       -14.2587
  20   2.0000      -0.495295       -13.4777
  21   2.0000      -0.491831       -13.3834
  22   2.0000      -0.462967       -12.5980
  23   2.0000      -0.458717       -12.4823
  24   0.0000       0.034407         0.9363
  25   0.0000       0.041497         1.1292
  26   0.0000       0.047978         1.3056
  27   0.0000       0.048381         1.3165
  28   0.0000       0.061679         1.6784

MULLIKEN ATOMIC CHARGES
-----------------------
   0 C :    0.944322
   1 C :    0.407937
   2 C :    0.129400
   3 C :    0.837694
   4 O :   -0.592158
   5 O :   -0.715838
   6 H :   -0.190087
   7 H :   -0.068220
   8 H :   -0.081081
   9 H :   -0.068220
  10 H :   -0.104591
  11 H :   -0.104591
  12 H :   -0.197283
  13 H :   -0.197283
Sum of atomic charges:   -0.0000000

LOEWDIN ATOMIC CHARGES
----------------------
   0 C :   -0.150721
   1 C :    0.138788
   2 C :   -0.067080
   3 C :   -0.000727
   4 O :    0.017481
   5 O :    0.044104
   6 H :    0.014574
   7 H :   -0.018118
   8 H :   -0.019075
   9 H :   -0.018118
  10 H :    0.014842
  11 H :    0.014842
  12 H :    0.014604
  13 H :    0.014604

  Mayer bond orders larger than 0.100000
B(  0-C ,  4-O ) :   1.6722 B(  0-C ,  5-O ) :   0.9638 B(  0-C ,  6-H ) :   1.0001
B(  1-C ,  2-C ) :   1.1969 B(  1-C ,  7-H ) :   0.9451 B(  1-C ,  8-H ) :   0.9112
B(  1-C ,  9-H ) :   0.9451 B(  2-C ,  3-C ) :   1.2618 B(  2-C , 10-H ) :   0.8100
B(  2-C , 11-H ) :   0.8100 B(  3-C ,  5-O ) :   0.4554 B(  3-C , 12-H ) :   0.8717
B(  3-C , 13-H ) :   0.8717

MP2 TOTAL ENERGY:     -306.873499276 Eh
FINAL SINGLE POINT ENERGY      -306.873499276386

DIPOLE MOMENT
-------------
                                X             Y             Z
Electronic contribution:     -5.32487      -7.84534      -0.00000
Nuclear contribution   :      6.25489       8.07643       0.00000
                        -----------------------------------------
Total Dipole Moment    :      0.93002       0.23109      -0.00000
                        -----------------------------------------
Magnitude (a.u.)       :      0.95830
Magnitude (Debye)      :      2.43580

Rotational constants in cm-1:     0.410370     0.052657     0.047910
Rotational constants in MHz : 12302.594971  1578.624922  1436.311880

                             ****ORCA TERMINATED NORMALLY****
TOTAL RUN TIME: 0 days 0 hours 0 minutes 57 seconds 163 msec
