                         Program Version 5.0.3 -  RELEASE  -
|  1> !ri-mp2 aug-cc-pvdz aug-cc-pvdz/c tightscf
|  2> %pal nprocs 16 end
|  3>
|  4> * xyz 0 1
|  5> C      1.276347   -0.143704    0.000000
|  6> C     -0.094534    1.815947    0.000000
|  7> C      2.368941    0.714696    0.000000
|  8> C      1.065879    2.570549    0.000000
|  9> C      0.000000    0.420948    0.000000
| 10> C     -1.364098   -1.686589    0.000000
| 11> C     -2.811083   -2.138228    0.000000
| 12> N      2.292696    2.045547    0.000000
| 13> N     -1.189731   -0.317431    0.000000
| 14> O     -0.446472   -2.481401    0.000000
| 15> H      1.408310   -1.211468    0.000000
| 16> H     -1.059712    2.307235    0.000000
| 17> H      3.368384    0.294912    0.000000
| 18> H      1.004291    3.652813    0.000000
| 19> H     -2.977485   -2.760972    0.878119
| 20> H     -2.977485   -2.760972   -0.878119
| 21> H     -3.532976   -1.322843    0.000000
| 22> H     -2.031016    0.233980    0.000000
| 23> *
| 24>
| 25>                          ****END OF INPUT****

CARTESIAN COORDINATES (ANGSTROEM)
---------------------------------
  C      1.276347   -0.143704    0.000000
  C     -0.094534    1.815947    0.000000
  C      2.368941    0.714696    0.000000
  C      1.065879    2.570549    0.000000
  C      0.000000    0.420948    0.000000
  C     -1.364098   -1.686589    0.000000
  C     -2.811083   -2.138228    0.000000
  N      2.292696    2.045547    0.000000
  N     -1.189731   -0.317431    0.000000
  O     -0.446472   -2.481401    0.000000
  H      1.408310   -1.211468    0.000000
  H     -1.059712    2.307235    0.000000
  H      3.368384    0.294912    0.000000
  H      1.004291    3.652813    0.000000
  H     -2.977485   -2.760972    0.878119
  H     -2.977485   -2.760972   -0.878119
  H     -3.532976   -1.322843    0.000000
  H     -2.031016    0.233980    0.000000

 Total Charge           Charge          ....    0
 Multiplicity           Mult            ....    1
 Number of Electrons    NEL             ....   72
 Basis Dimension        Dim             ....  302

ORBITAL ENERGIES
----------------

  NO   OCC          E(Eh)            E(eV)
   0   2.0000     -20.550589      -559.2100
   1   2.0000     -15.628775      -425.2806
   2   2.0000     -15.565337      -423.5544
   3   2.0000     -11.384002      -309.7744
   4   2.0000     -11.317561      -307.9665
   5   2.0000     -11.283375      -307.0363
   6   2.0000     -11.280003      -306.9445
   7   2.0000     -11.260807      -306.4221
   8   2.0000     -11.247983      -306.0732
   9   2.0000     -11.236793      -305.7687
  10   2.0000      -1.410777       -38.3892
  11   2.0000      -1.283345       -34.9216
  12   2.0000      -1.253858       -34.1192
  13   2.0000      -1.090816       -29.6826
  14   2.0000      -1.038871       -28.2691
  15   2.0000      -1.017572       -27.6895
  16   2.0000      -0.886983       -24.1360
  17   2.0000      -0.868227       -23.6257
  18   2.0000      -0.801284       -21.8041
  19   2.0000      -0.748668       -20.3723
  20   2.0000      -0.700223       -19.0540
  21   2.0000      -0.668283       -18.1849
  22   2.0000      -0.651306       -17.7229
  23   2.0000      -0.639691       -17.4069
  24   2.0000      -0.634339       -17.2613
  25   2.0000      -0.605871       -16.4866
  26   2.0000      -0.595847       -16.2138
  27   2.0000      -0.575306       -15.6549
  28   2.0000      -0.572672       -15.5832
  29   2.0000      -0.530291       -14.4299
  30   2.0000      -0.522847       -14.2274
  31   2.0000      -0.469826       -12.7846
  32   2.0000      -0.446459       -12.1488
  33   2.0000      -0.414494       -11.2790
  34   2.0000      -0.351037        -9.5522
  35   2.0000      -0.346785        -9.4365
  36   0.0000       0.020881         0.5682
  37   0.0000       0.036854         1.0028
  38   0.0000       0.045817         1.2468
  39   0.0000       0.052855         1.4383
  40   0.0000       0.055728         1.5164

MULLIKEN ATOMIC CHARGES
-----------------------
   0 C :    1.729509
   1 C :    1.343929
   2 C :    0.029195
   3 C :    0.233526
   4 C :   -0.360923
   5 C :    0.502568
   6 C :    0.557828
   7 N :   -0.584416
   8 N :   -0.605094
   9 O :   -0.828904
  10 H :   -0.584431
  11 H :   -0.655692
  12 H :   -0.305826
  13 H :   -0.309184
  14 H :    0.046666
  15 H :    0.046666
  16 H :   -0.199069
  17 H :   -0.056348
Sum of atomic charges:    0.0000000

LOEWDIN ATOMIC CHARGES
----------------------
   0 C :    0.083900
   1 C :    0.055322
   2 C :   -0.023069
   3 C :   -0.035217
   4 C :   -0.157013
   5 C :   -0.321804
   6 C :    0.218588
   7 N :    0.021964
   8 N :    0.137765
   9 O :    0.047060
  10 H :   -0.022561
  11 H :    0.000506
  12 H :    0.005133
  13 H :    0.003728
  14 H :   -0.000544
  15 H :   -0.000544
  16 H :   -0.018797
  17 H :    0.005585

  Mayer bond orders larger than 0.100000
B(  0-C ,  1-C ) :   0.2502 B(  0-C ,  2-C ) :   0.5988 B(  0-C ,  3-C ) :  -0.1501
B(  0-C ,  4-C ) :   0.7392 B(  0-C ,  8-N ) :  -0.1313 B(  1-C ,  2-C ) :  -0.2340
B(  1-C ,  3-C ) :   0.8535 B(  1-C ,  4-C ) :   1.0588 B(  2-C ,  3-C ) :   0.2466
B(  2-C ,  4-C ) :   0.7305 B(  2-C ,  7-N ) :   1.3394 B(  2-C , 10-H ) :   0.2308
B(  2-C , 12-H ) :   0.8748 B(  3-C ,  4-C ) :   0.6322 B(  3-C ,  7-N ) :   1.3289
B(  3-C , 13-H ) :   0.8915 B(  4-C ,  5-C ) :  -0.2112 B(  4-C ,  8-N ) :   0.7330
B(  4-C , 10-H ) :   0.4328 B(  4-C , 11-H ) :   0.7352 B(  4-C , 12-H ) :   0.1165
B(  4-C , 13-H ) :   0.1527 B(  4-C , 17-H ) :  -0.1283 B(  5-C ,  6-C ) :   1.1065
B(  5-C ,  8-N ) :   1.1066 B(  5-C ,  9-O ) :   1.4062 B(  5-C , 16-H ) :   0.2202
B(  6-C , 14-H ) :   0.9173 B(  6-C , 15-H ) :   0.9173 B(  6-C , 16-H ) :   0.8295
B(  8-N , 11-H ) :  -0.1458 B(  8-N , 17-H ) :   1.1237

MP2 TOTAL ENERGY:     -455.055491275 Eh
FINAL SINGLE POINT ENERGY      -455.055491274803

DIPOLE MOMENT
-------------
                                X             Y             Z
Electronic contribution:      4.75049       1.85119       0.00000
Nuclear contribution   :     -6.75168      -1.58535       0.00000
                        -----------------------------------------
Total Dipole Moment    :     -2.00119       0.26584       0.00000
                        -----------------------------------------
Magnitude (a.u.)       :      2.01877
Magnitude (Debye)      :      5.13129

Rotational constants in cm-1:     0.129422     0.025935     0.021692
Rotational constants in MHz :  3879.988254   777.511115   650.306650

                             ****ORCA TERMINATED NORMALLY****
TOTAL RUN TIME: 0 days 0 hours 1 minutes 18 seconds 351 msec
