                         Program Version 5.0.3 -  RELEASE  -
|  1> !ri-mp2 aug-cc-pvdz aug-cc-pvdz/c tightscf
|  2> %pal nprocs 16 end
|  3>
|  4> * xyz 0 1
|  5> Cl     0.728531    1.497292    0.772640
|  6> Cl     2.223389   -0.562465   -0.591632
|  7> O     -2.668641   -0.240390    0.519523
|  8> O     -1.881708    0.532517   -1.435981
|  9> N      0.638389    0.232441   -0.474123
| 10> C     -0.389595   -0.778712   -0.100354
| 11> C     -1.770143   -0.126666   -0.269201
| 12> C     -0.253722   -1.474534    1.243293
| 13> H     -2.779254    0.895548   -1.477125
| 14> H     -0.305243   -1.508256   -0.910817
| 15> H      0.726260   -1.938756    1.327217
| 16> H     -0.395120   -0.777206    2.064971
| 17> H     -1.014466   -2.248024    1.326727
| 18> *
| 19>
| 20>                          ****END OF INPUT****

CARTESIAN COORDINATES (ANGSTROEM)
---------------------------------
  Cl     0.728531    1.497292    0.772640
  Cl     2.223389   -0.562465   -0.591632
  O     -2.668641   -0.240390    0.519523
  O     -1.881708    0.532517   -1.435981
  N      0.638389    0.232441   -0.474123
  C     -0.389595   -0.778712   -0.100354
  C     -1.770143   -0.126666   -0.269201
  C     -0.253722   -1.474534    1.243293
  H     -2.779254    0.895548   -1.477125
  H     -0.305243   -1.508256   -0.910817
  H      0.726260   -1.938756    1.327217
  H     -0.395120   -0.777206    2.064971
  H     -1.014466   -2.248024    1.326727

 Total Charge           Charge          ....    0
 Multiplicity           Mult            ....    1
 Number of Electrons    NEL             ....   80
 Basis Dimension        Dim             ....  237

ORBITAL ENERGIES
----------------

  NO   OCC          E(Eh)            E(eV)
   0   2.0000    -104.880149     -2853.9340
   1   2.0000    -104.877457     -2853.8607
   2   2.0000     -20.636932      -561.5595
   3   2.0000     -20.581303      -560.0457
   4   2.0000     -15.717429      -427.6930
   5   2.0000     -11.416002      -310.6452
   6   2.0000     -11.325680      -308.1874
   7   2.0000     -11.243906      -305.9622
   8   2.0000     -10.603179      -288.5272
   9   2.0000     -10.600584      -288.4566
  10   2.0000      -8.071000      -219.6231
  11   2.0000      -8.068395      -219.5522
  12   2.0000      -8.066988      -219.5139
  13   2.0000      -8.066722      -219.5067
  14   2.0000      -8.064427      -219.4442
  15   2.0000      -8.064126      -219.4360
  16   2.0000      -1.489749       -40.5381
  17   2.0000      -1.387669       -37.7604
  18   2.0000      -1.307514       -35.5793
  19   2.0000      -1.112232       -30.2654
  20   2.0000      -1.097741       -29.8711
  21   2.0000      -0.980051       -26.6686
  22   2.0000      -0.913254       -24.8509
  23   2.0000      -0.805894       -21.9295
  24   2.0000      -0.727937       -19.8082
  25   2.0000      -0.722211       -19.6524
  26   2.0000      -0.690961       -18.8020
  27   2.0000      -0.634595       -17.2682
  28   2.0000      -0.626374       -17.0445
  29   2.0000      -0.616765       -16.7830
  30   2.0000      -0.597413       -16.2564
  31   2.0000      -0.552695       -15.0396
  32   2.0000      -0.548575       -14.9275
  33   2.0000      -0.530538       -14.4367
  34   2.0000      -0.500947       -13.6315
  35   2.0000      -0.494609       -13.4590
  36   2.0000      -0.482676       -13.1343
  37   2.0000      -0.465428       -12.6649
  38   2.0000      -0.458511       -12.4767
  39   2.0000      -0.411331       -11.1929
  40   0.0000       0.033885         0.9221
  41   0.0000       0.040819         1.1107
  42   0.0000       0.049678         1.3518
  43   0.0000       0.056028         1.5246
  44   0.0000       0.064932         1.7669

MULLIKEN ATOMIC CHARGES
-----------------------
   0 Cl:    0.140620
   1 Cl:    0.178047
   2 O :   -0.729751
   3 O :   -0.735060
   4 N :   -0.975656
   5 C :    0.092401
   6 C :    1.228877
   7 C :    0.684057
   8 H :    0.220581
   9 H :   -0.040124
  10 H :   -0.022480
  11 H :   -0.005938
  12 H :   -0.035574
Sum of atomic charges:   -0.0000000

LOEWDIN ATOMIC CHARGES
----------------------
   0 Cl:    0.483324
   1 Cl:    0.471991
   2 O :    0.061854
   3 O :    0.212389
   4 N :   -0.651762
   5 C :   -0.336658
   6 C :   -0.338722
   7 C :    0.139868
   8 H :   -0.011750
   9 H :    0.033411
  10 H :   -0.033547
  11 H :   -0.025363
  12 H :   -0.005037

  Mayer bond orders larger than 0.100000
B(  0-Cl,  4-N ) :   0.8067 B(  0-Cl,  5-C ) :  -0.1640 B(  1-Cl,  4-N ) :   0.9110
B(  2-O ,  5-C ) :   0.1323 B(  2-O ,  6-C ) :   1.4333 B(  3-O ,  5-C ) :   0.1040
B(  3-O ,  6-C ) :   0.4871 B(  3-O ,  8-H ) :   1.0021 B(  4-N ,  5-C ) :   0.6123
B(  5-C ,  6-C ) :   0.9616 B(  5-C ,  7-C ) :   1.2760 B(  5-C ,  9-H ) :   0.8096
B(  7-C , 10-H ) :   0.8739 B(  7-C , 11-H ) :   0.8797 B(  7-C , 12-H ) :   0.8348

MP2 TOTAL ENERGY:    -1240.966594839 Eh
FINAL SINGLE POINT ENERGY     -1240.966594839485

DIPOLE MOMENT
-------------
                                X             Y             Z
Electronic contribution:      7.57704       6.13098      -2.20202
Nuclear contribution   :     -7.66425      -6.56977       1.95414
                        -----------------------------------------
Total Dipole Moment    :     -0.08721      -0.43879      -0.24788
                        -----------------------------------------
Magnitude (a.u.)       :      0.51146
Magnitude (Debye)      :      1.30002

Rotational constants in cm-1:     0.068196     0.032287     0.029848
Rotational constants in MHz :  2044.468826   967.929450   894.806501

                             ****ORCA TERMINATED NORMALLY****
TOTAL RUN TIME: 0 days 0 hours 0 minutes 49 seconds 946 msec
