                         Program Version 5.0.3 -  RELEASE  -
|  1> !ri-mp2 aug-cc-pvdz aug-cc-pvdz/c tightscf
|  2> %pal nprocs 16 end
|  3>
|  4> * xyz 0 1
|  5> C      0.000000    0.771893    0.000000
|  6> S      1.640420    0.979773    0.000000
|  7> N     -0.700922   -0.369480    0.000000
|  8> C     -0.070945   -1.678921    0.000000
|  9> C     -2.154440   -0.362728    0.000000
| 10> H     -0.648724    1.645722    0.000000
| 11> H     -0.374521   -2.239525    0.886803
| 12> H     -0.374521   -2.239525   -0.886803
| 13> H      1.006974   -1.550438    0.000000
| 14> H     -2.539090   -0.874548   -0.885289
| 15> H     -2.539090   -0.874548    0.885289
| 16> H     -2.518989    0.661390    0.000000
| 17> *
| 18>
| 19>                          ****END OF INPUT****

CARTESIAN COORDINATES (ANGSTROEM)
---------------------------------
  C      0.000000    0.771893    0.000000
  S      1.640420    0.979773    0.000000
  N     -0.700922   -0.369480    0.000000
  C     -0.070945   -1.678921    0.000000
  C     -2.154440   -0.362728    0.000000
  H     -0.648724    1.645722    0.000000
  H     -0.374521   -2.239525    0.886803
  H     -0.374521   -2.239525   -0.886803
  H      1.006974   -1.550438    0.000000
  H     -2.539090   -0.874548   -0.885289
  H     -2.539090   -0.874548    0.885289
  H     -2.518989    0.661390    0.000000

 Total Charge           Charge          ....    0
 Multiplicity           Mult            ....    1
 Number of Electrons    NEL             ....   48
 Basis Dimension        Dim             ....  182

ORBITAL ENERGIES
----------------

  NO   OCC          E(Eh)            E(eV)
   0   2.0000     -91.899601     -2500.7153
   1   2.0000     -15.631294      -425.3491
   2   2.0000     -11.346507      -308.7541
   3   2.0000     -11.294794      -307.3470
   4   2.0000     -11.276530      -306.8500
   5   2.0000      -8.903012      -242.2633
   6   2.0000      -6.585355      -179.1966
   7   2.0000      -6.582736      -179.1253
   8   2.0000      -6.581540      -179.0928
   9   2.0000      -1.304474       -35.4965
  10   2.0000      -1.039523       -28.2868
  11   2.0000      -1.000541       -27.2261
  12   2.0000      -0.915158       -24.9027
  13   2.0000      -0.773508       -21.0482
  14   2.0000      -0.700849       -19.0711
  15   2.0000      -0.669207       -18.2101
  16   2.0000      -0.635162       -17.2836
  17   2.0000      -0.580088       -15.7850
  18   2.0000      -0.578102       -15.7309
  19   2.0000      -0.555829       -15.1249
  20   2.0000      -0.499355       -13.5881
  21   2.0000      -0.475916       -12.9503
  22   2.0000      -0.324262        -8.8236
  23   2.0000      -0.320986        -8.7345
  24   0.0000       0.025704         0.6995
  25   0.0000       0.041496         1.1292
  26   0.0000       0.046045         1.2529
  27   0.0000       0.052490         1.4283
  28   0.0000       0.071355         1.9417

MULLIKEN ATOMIC CHARGES
-----------------------
   0 C :    0.118568
   1 S :   -0.134232
   2 N :   -0.358326
   3 C :    0.692137
   4 C :    0.748281
   5 H :   -0.375048
   6 H :   -0.068236
   7 H :   -0.068236
   8 H :   -0.201752
   9 H :   -0.064689
  10 H :   -0.064689
  11 H :   -0.223779
Sum of atomic charges:   -0.0000000

LOEWDIN ATOMIC CHARGES
----------------------
   0 C :   -0.489677
   1 S :    0.492057
   2 N :   -0.238891
   3 C :    0.178544
   4 C :    0.192059
   5 H :   -0.040699
   6 H :   -0.005288
   7 H :   -0.005288
   8 H :   -0.060967
   9 H :   -0.004111
  10 H :   -0.004111
  11 H :   -0.013628

  Mayer bond orders larger than 0.100000
B(  0-C ,  1-S ) :   1.7162 B(  0-C ,  2-N ) :   1.1889 B(  0-C ,  5-H ) :   1.0612
B(  1-S ,  5-H ) :  -0.1279 B(  2-N ,  3-C ) :   0.8449 B(  2-N ,  4-C ) :   0.8298
B(  2-N ,  5-H ) :  -0.1537 B(  3-C ,  6-H ) :   0.9324 B(  3-C ,  7-H ) :   0.9324
B(  3-C ,  8-H ) :   1.0158 B(  4-C ,  9-H ) :   0.9201 B(  4-C , 10-H ) :   0.9201
B(  4-C , 11-H ) :   1.0616

MP2 TOTAL ENERGY:     -570.425228886 Eh
FINAL SINGLE POINT ENERGY      -570.425228885597

DIPOLE MOMENT
-------------
                                X             Y             Z
Electronic contribution:      6.15558       4.63454       0.00000
Nuclear contribution   :     -8.13213      -5.56508       0.00000
                        -----------------------------------------
Total Dipole Moment    :     -1.97656      -0.93055       0.00000
                        -----------------------------------------
Magnitude (a.u.)       :      2.18465
Magnitude (Debye)      :      5.55294

Rotational constants in cm-1:     0.299153     0.079689     0.064449
Rotational constants in MHz :  8968.379548  2389.011624  1932.146693

                             ****ORCA TERMINATED NORMALLY****
TOTAL RUN TIME: 0 days 0 hours 0 minutes 30 seconds 928 msec
