                         Program Version 5.0.3 -  RELEASE  -
|  1> !ri-mp2 aug-cc-pvdz aug-cc-pvdz/c tightscf
|  2> %pal nprocs 16 end
|  3> %maxcore 3800
|  4>
|  5> * xyz 0 1
|  6> O      3.657272   -0.908486    0.267264
|  7> N      2.280419   -1.049466   -0.034086
|  8> C      1.723395    0.078313   -0.240657
|  9> C      0.252045    0.045182   -0.552072
| 10> C     -0.612702    0.655783    0.563633
| 11> C      2.452308    1.390511   -0.181512
| 12> C     -2.104484    0.739914    0.222819
| 13> C     -2.812872   -0.610021    0.085967
| 14> C     -4.311099   -0.469861   -0.179030
| 15> H      3.935602   -1.821933    0.382506
| 16> H      0.079088    0.601638   -1.480057
| 17> H     -0.033680   -0.989673   -0.733020
| 18> H     -0.477778    0.065952    1.474702
| 19> H     -0.249404    1.660864    0.792252
| 20> H      1.801297    2.215730   -0.461660
| 21> H      3.314651    1.372956   -0.848863
| 22> H      2.840303    1.572750    0.821967
| 23> H     -2.605873    1.318775    1.004289
| 24> H     -2.232338    1.310663   -0.703449
| 25> H     -2.358845   -1.189949   -0.720907
| 26> H     -2.656457   -1.188678    1.001435
| 27> H     -4.805958    0.071843    0.629774
| 28> H     -4.498308    0.078583   -1.104556
| 29> H     -4.792947   -1.444298   -0.268812
| 30> *
| 31>
| 32>                          ****END OF INPUT****

CARTESIAN COORDINATES (ANGSTROEM)
---------------------------------
  O      3.657272   -0.908486    0.267264
  N      2.280419   -1.049466   -0.034086
  C      1.723395    0.078313   -0.240657
  C      0.252045    0.045182   -0.552072
  C     -0.612702    0.655783    0.563633
  C      2.452308    1.390511   -0.181512
  C     -2.104484    0.739914    0.222819
  C     -2.812872   -0.610021    0.085967
  C     -4.311099   -0.469861   -0.179030
  H      3.935602   -1.821933    0.382506
  H      0.079088    0.601638   -1.480057
  H     -0.033680   -0.989673   -0.733020
  H     -0.477778    0.065952    1.474702
  H     -0.249404    1.660864    0.792252
  H      1.801297    2.215730   -0.461660
  H      3.314651    1.372956   -0.848863
  H      2.840303    1.572750    0.821967
  H     -2.605873    1.318775    1.004289
  H     -2.232338    1.310663   -0.703449
  H     -2.358845   -1.189949   -0.720907
  H     -2.656457   -1.188678    1.001435
  H     -4.805958    0.071843    0.629774
  H     -4.498308    0.078583   -1.104556
  H     -4.792947   -1.444298   -0.268812

 Total Charge           Charge          ....    0
 Multiplicity           Mult            ....    1
 Number of Electrons    NEL             ....   72
 Basis Dimension        Dim             ....  342

ORBITAL ENERGIES
----------------

  NO   OCC          E(Eh)            E(eV)
   0   2.0000     -20.594160      -560.3956
   1   2.0000     -15.613676      -424.8697
   2   2.0000     -11.280636      -306.9617
   3   2.0000     -11.235056      -305.7214
   4   2.0000     -11.233167      -305.6700
   5   2.0000     -11.231130      -305.6146
   6   2.0000     -11.226173      -305.4797
   7   2.0000     -11.224186      -305.4256
   8   2.0000     -11.218964      -305.2835
   9   2.0000      -1.410625       -38.3850
  10   2.0000      -1.172026       -31.8924
  11   2.0000      -1.085818       -29.5466
  12   2.0000      -1.023911       -27.8620
  13   2.0000      -0.980910       -26.6919
  14   2.0000      -0.934138       -25.4192
  15   2.0000      -0.847660       -23.0660
  16   2.0000      -0.786484       -21.4013
  17   2.0000      -0.730168       -19.8689
  18   2.0000      -0.689206       -18.7542
  19   2.0000      -0.657731       -17.8978
  20   2.0000      -0.636361       -17.3163
  21   2.0000      -0.614142       -16.7116
  22   2.0000      -0.596777       -16.2391
  23   2.0000      -0.586864       -15.9694
  24   2.0000      -0.572069       -15.5668
  25   2.0000      -0.555030       -15.1031
  26   2.0000      -0.545692       -14.8490
  27   2.0000      -0.542463       -14.7612
  28   2.0000      -0.512165       -13.9367
  29   2.0000      -0.506695       -13.7879
  30   2.0000      -0.491319       -13.3695
  31   2.0000      -0.467801       -12.7295
  32   2.0000      -0.464539       -12.6407
  33   2.0000      -0.454047       -12.3552
  34   2.0000      -0.424614       -11.5543
  35   2.0000      -0.374501       -10.1907
  36   0.0000       0.035894         0.9767
  37   0.0000       0.040323         1.0972
  38   0.0000       0.044143         1.2012
  39   0.0000       0.044375         1.2075
  40   0.0000       0.055538         1.5113

MULLIKEN ATOMIC CHARGES
-----------------------
   0 O :   -0.635510
   1 N :   -0.397795
   2 C :    0.112808
   3 C :    0.703781
   4 C :    0.264289
   5 C :    0.576994
   6 C :    0.285367
   7 C :    0.238109
   8 C :    0.513814
   9 H :    0.159911
  10 H :   -0.137590
  11 H :   -0.211849
  12 H :   -0.229904
  13 H :   -0.166713
  14 H :   -0.230868
  15 H :    0.019153
  16 H :    0.086008
  17 H :   -0.133697
  18 H :   -0.203523
  19 H :   -0.187861
  20 H :   -0.173227
  21 H :   -0.096542
  22 H :   -0.075037
  23 H :   -0.080120
Sum of atomic charges:    0.0000000

LOEWDIN ATOMIC CHARGES
----------------------
   0 O :    0.097508
   1 N :    0.024738
   2 C :   -0.280292
   3 C :    0.004649
   4 C :   -0.017967
   5 C :    0.182849
   6 C :   -0.034640
   7 C :   -0.070688
   8 C :    0.132666
   9 H :   -0.073812
  10 H :    0.026163
  11 H :    0.010465
  12 H :    0.022182
  13 H :    0.009646
  14 H :   -0.016782
  15 H :   -0.006527
  16 H :   -0.000397
  17 H :    0.015567
  18 H :    0.016435
  19 H :    0.004688
  20 H :    0.014531
  21 H :   -0.020211
  22 H :   -0.019529
  23 H :   -0.021241

  Mayer bond orders larger than 0.100000
B(  0-O ,  1-N ) :   0.7977 B(  0-O ,  2-C ) :  -0.2616 B(  0-O ,  9-H ) :   1.0492
B(  1-N ,  2-C ) :   1.6082 B(  1-N ,  5-C ) :  -0.1186 B(  2-C ,  3-C ) :   0.9637
B(  2-C ,  5-C ) :   1.2068 B(  2-C , 11-H ) :   0.1077 B(  2-C , 14-H ) :   0.2319
B(  2-C , 16-H ) :   0.1078 B(  3-C ,  4-C ) :   1.0932 B(  3-C , 10-H ) :   0.7924
B(  3-C , 11-H ) :   0.6895 B(  3-C , 14-H ) :  -0.1072 B(  4-C ,  6-C ) :   1.3478
B(  4-C , 12-H ) :   0.8177 B(  4-C , 13-H ) :   0.6990 B(  4-C , 17-H ) :   0.1008
B(  5-C , 14-H ) :   0.8306 B(  5-C , 15-H ) :   0.8684 B(  5-C , 16-H ) :   0.8747
B(  6-C ,  7-C ) :   1.1849 B(  6-C , 13-H ) :   0.1514 B(  6-C , 17-H ) :   0.7573
B(  6-C , 18-H ) :   0.8315 B(  7-C ,  8-C ) :   1.1874 B(  7-C , 19-H ) :   0.7552
B(  7-C , 20-H ) :   0.7388 B(  7-C , 23-H ) :   0.1229 B(  8-C , 21-H ) :   0.8961
B(  8-C , 22-H ) :   0.9364 B(  8-C , 23-H ) :   0.8885 B( 12-H , 13-H ) :  -0.1019
B( 17-H , 18-H ) :  -0.1168

MP2 TOTAL ENERGY:     -404.529560356 Eh
FINAL SINGLE POINT ENERGY      -404.529560355959

DIPOLE MOMENT
-------------
                                X             Y             Z
Electronic contribution:     12.89693      -3.40190       0.16741
Nuclear contribution   :    -13.25976       3.78312      -0.22019
                        -----------------------------------------
Total Dipole Moment    :     -0.36283       0.38121      -0.05278
                        -----------------------------------------
Magnitude (a.u.)       :      0.52892
Magnitude (Debye)      :      1.34441

Rotational constants in cm-1:     0.141972     0.018262     0.016924
Rotational constants in MHz :  4256.212896   547.479287   507.380911

                             ****ORCA TERMINATED NORMALLY****
TOTAL RUN TIME: 0 days 0 hours 1 minutes 40 seconds 607 msec
