                         Program Version 5.0.3 -  RELEASE  -
|  1> !ri-mp2 aug-cc-pvdz aug-cc-pvdz/c tightscf
|  2> %pal nprocs 16 end
|  3>
|  4> * xyz 0 1
|  5> C      2.188329   -0.578455    0.000000
|  6> C     -1.460704    0.073620    0.000000
|  7> C      0.000000    0.510660    0.000000
|  8> N     -2.360917    1.087263    0.000000
|  9> N      0.840666   -0.658435    0.000000
| 10> O      2.817916    0.462897    0.000000
| 11> O     -1.784599   -1.100738    0.000000
| 12> H      2.671946   -1.568981    0.000000
| 13> H      0.198935    1.134237    0.876265
| 14> H      0.198935    1.134237   -0.876265
| 15> H     -3.341011    0.863104    0.000000
| 16> H     -2.082734    2.051773    0.000000
| 17> H      0.363396   -1.548392    0.000000
| 18> *
| 19>
| 20>                          ****END OF INPUT****

CARTESIAN COORDINATES (ANGSTROEM)
---------------------------------
  C      2.188329   -0.578455    0.000000
  C     -1.460704    0.073620    0.000000
  C      0.000000    0.510660    0.000000
  N     -2.360917    1.087263    0.000000
  N      0.840666   -0.658435    0.000000
  O      2.817916    0.462897    0.000000
  O     -1.784599   -1.100738    0.000000
  H      2.671946   -1.568981    0.000000
  H      0.198935    1.134237    0.876265
  H      0.198935    1.134237   -0.876265
  H     -3.341011    0.863104    0.000000
  H     -2.082734    2.051773    0.000000
  H      0.363396   -1.548392    0.000000

 Total Charge           Charge          ....    0
 Multiplicity           Mult            ....    1
 Number of Electrons    NEL             ....   54
 Basis Dimension        Dim             ....  215

ORBITAL ENERGIES
----------------

  NO   OCC          E(Eh)            E(eV)
   0   2.0000     -20.555655      -559.3478
   1   2.0000     -20.537668      -558.8584
   2   2.0000     -15.613697      -424.8703
   3   2.0000     -15.600962      -424.5237
   4   2.0000     -11.385878      -309.8255
   5   2.0000     -11.360742      -309.1415
   6   2.0000     -11.299947      -307.4872
   7   2.0000      -1.414640       -38.4943
   8   2.0000      -1.389660       -37.8146
   9   2.0000      -1.247451       -33.9449
  10   2.0000      -1.238528       -33.7021
  11   2.0000      -1.013646       -27.5827
  12   2.0000      -0.847146       -23.0520
  13   2.0000      -0.808127       -21.9902
  14   2.0000      -0.771497       -20.9935
  15   2.0000      -0.725283       -19.7360
  16   2.0000      -0.680674       -18.5221
  17   2.0000      -0.667183       -18.1550
  18   2.0000      -0.646150       -17.5826
  19   2.0000      -0.610822       -16.6213
  20   2.0000      -0.583761       -15.8849
  21   2.0000      -0.579882       -15.7794
  22   2.0000      -0.531754       -14.4697
  23   2.0000      -0.453983       -12.3535
  24   2.0000      -0.439598       -11.9621
  25   2.0000      -0.434410       -11.8209
  26   2.0000      -0.400131       -10.8881
  27   0.0000       0.023441         0.6379
  28   0.0000       0.041631         1.1328
  29   0.0000       0.048221         1.3122
  30   0.0000       0.052492         1.4284
  31   0.0000       0.062595         1.7033

MULLIKEN ATOMIC CHARGES
-----------------------
   0 C :    0.866523
   1 C :    0.785087
   2 C :    0.910651
   3 N :   -0.195615
   4 N :   -0.385462
   5 O :   -0.699272
   6 O :   -0.797983
   7 H :   -0.155471
   8 H :   -0.100984
   9 H :   -0.100984
  10 H :   -0.018258
  11 H :   -0.027087
  12 H :   -0.081144
Sum of atomic charges:   -0.0000000

LOEWDIN ATOMIC CHARGES
----------------------
   0 C :   -0.152216
   1 C :   -0.342742
   2 C :    0.060367
   3 N :    0.280199
   4 N :    0.073031
   5 O :   -0.014611
   6 O :    0.029279
   7 H :    0.022966
   8 H :    0.032339
   9 H :    0.032339
  10 H :   -0.000136
  11 H :   -0.010005
  12 H :   -0.010811

  Mayer bond orders larger than 0.100000
B(  0-C ,  4-N ) :   1.1283 B(  0-C ,  5-O ) :   1.5565 B(  0-C ,  7-H ) :   0.9607
B(  1-C ,  2-C ) :   1.0311 B(  1-C ,  3-N ) :   1.0056 B(  1-C ,  6-O ) :   1.4238
B(  2-C ,  4-N ) :   0.6797 B(  2-C ,  8-H ) :   0.8259 B(  2-C ,  9-H ) :   0.8259
B(  3-N , 10-H ) :   1.0919 B(  3-N , 11-H ) :   1.1071 B(  4-N , 12-H ) :   1.1074

MP2 TOTAL ENERGY:     -376.960397065 Eh
FINAL SINGLE POINT ENERGY      -376.960397065253

DIPOLE MOMENT
-------------
                                X             Y             Z
Electronic contribution:      0.72503      -1.50164      -0.00000
Nuclear contribution   :     -1.97001       2.04479       0.00000
                        -----------------------------------------
Total Dipole Moment    :     -1.24499       0.54315      -0.00000
                        -----------------------------------------
Magnitude (a.u.)       :      1.35831
Magnitude (Debye)      :      3.45254

Rotational constants in cm-1:     0.257646     0.044968     0.038557
Rotational constants in MHz :  7724.034224  1348.105259  1155.906457

                             ****ORCA TERMINATED NORMALLY****
TOTAL RUN TIME: 0 days 0 hours 0 minutes 34 seconds 716 msec
