                         Program Version 5.0.3 -  RELEASE  -
|  1> !ri-mp2 aug-cc-pvdz aug-cc-pvdz/c tightscf
|  2> %pal nprocs 16 end
|  3>
|  4> * xyz 0 1
|  5> C     -0.776157    0.482170    0.010862
|  6> N      0.561163    0.638019   -0.078048
|  7> O     -1.303837   -0.617381    0.001319
|  8> O      1.345896   -0.512290    0.011708
|  9> H     -1.318051    1.436615    0.052353
| 10> H      1.043410    1.455182    0.258679
| 11> H      0.666967   -1.213576    0.065911
| 12> *
| 13>
| 14>                          ****END OF INPUT****

CARTESIAN COORDINATES (ANGSTROEM)
---------------------------------
  C     -0.776157    0.482170    0.010862
  N      0.561163    0.638019   -0.078048
  O     -1.303837   -0.617381    0.001319
  O      1.345896   -0.512290    0.011708
  H     -1.318051    1.436615    0.052353
  H      1.043410    1.455182    0.258679
  H      0.666967   -1.213576    0.065911

 Total Charge           Charge          ....    0
 Multiplicity           Mult            ....    1
 Number of Electrons    NEL             ....   32
 Basis Dimension        Dim             ....  119

ORBITAL ENERGIES
----------------

  NO   OCC          E(Eh)            E(eV)
   0   2.0000     -20.629963      -561.3698
   1   2.0000     -20.563033      -559.5486
   2   2.0000     -15.666217      -426.2994
   3   2.0000     -11.384360      -309.7842
   4   2.0000      -1.470939       -40.0263
   5   2.0000      -1.390311       -37.8323
   6   2.0000      -1.171939       -31.8901
   7   2.0000      -0.876770       -23.8581
   8   2.0000      -0.779966       -21.2239
   9   2.0000      -0.715563       -19.4715
  10   2.0000      -0.655612       -17.8401
  11   2.0000      -0.625374       -17.0173
  12   2.0000      -0.599763       -16.3204
  13   2.0000      -0.539638       -14.6843
  14   2.0000      -0.465385       -12.6638
  15   2.0000      -0.404978       -11.0200
  16   0.0000       0.026925         0.7327
  17   0.0000       0.048694         1.3250
  18   0.0000       0.057915         1.5759
  19   0.0000       0.087022         2.3680
  20   0.0000       0.109199         2.9715

MULLIKEN ATOMIC CHARGES
-----------------------
   0 C :    1.021087
   1 N :    0.122837
   2 O :   -0.676438
   3 O :   -0.609616
   4 H :   -0.099625
   5 H :    0.053945
   6 H :    0.187809
Sum of atomic charges:   -0.0000000

LOEWDIN ATOMIC CHARGES
----------------------
   0 C :   -0.143499
   1 N :    0.038661
   2 O :   -0.001487
   3 O :    0.155078
   4 H :    0.024226
   5 H :    0.002424
   6 H :   -0.075403

  Mayer bond orders larger than 0.100000
B(  0-C ,  1-N ) :   1.0735 B(  0-C ,  2-O ) :   1.5661 B(  0-C ,  4-H ) :   0.9425
B(  1-N ,  3-O ) :   0.7139 B(  1-N ,  5-H ) :   1.0653 B(  3-O ,  6-H ) :   1.0301

MP2 TOTAL ENERGY:     -244.474378399 Eh
FINAL SINGLE POINT ENERGY      -244.474378399418

DIPOLE MOMENT
-------------
                                X             Y             Z
Electronic contribution:     -0.11182      -0.41904      -0.08661
Nuclear contribution   :      0.39017       1.63848       0.37088
                        -----------------------------------------
Total Dipole Moment    :      0.27834       1.21945       0.28427
                        -----------------------------------------
Magnitude (a.u.)       :      1.28271
Magnitude (Debye)      :      3.26038

Rotational constants in cm-1:     0.685906     0.236417     0.176386
Rotational constants in MHz : 20562.957632  7087.599186  5287.905916

                             ****ORCA TERMINATED NORMALLY****
TOTAL RUN TIME: 0 days 0 hours 0 minutes 15 seconds 323 msec
