                         Program Version 5.0.3 -  RELEASE  -
|  1> !ri-mp2 aug-cc-pvdz aug-cc-pvdz/c tightscf
|  2> %pal nprocs 16 end
|  3>
|  4> * xyz 0 1
|  5> C     -1.936874   -0.817158    0.000000
|  6> C     -0.619074   -0.628886    0.000000
|  7> C      1.363850    0.795633    0.000000
|  8> C     -2.590379   -2.163352    0.000000
|  9> C      1.836552    2.234079    0.000000
| 10> N      0.000000    0.623665    0.000000
| 11> O      2.140869   -0.141131    0.000000
| 12> H     -2.595791    0.047327    0.000000
| 13> H      0.088707   -1.445676    0.000000
| 14> H     -3.229378   -2.296210    0.877032
| 15> H     -3.229378   -2.296210   -0.877032
| 16> H     -1.850635   -2.963831    0.000000
| 17> H      2.460883    2.395108   -0.878171
| 18> H      2.460883    2.395108    0.878171
| 19> H      1.027080    2.963093    0.000000
| 20> H     -0.583780    1.442786    0.000000
| 21> *
| 22>
| 23>                          ****END OF INPUT****

CARTESIAN COORDINATES (ANGSTROEM)
---------------------------------
  C     -1.936874   -0.817158    0.000000
  C     -0.619074   -0.628886    0.000000
  C      1.363850    0.795633    0.000000
  C     -2.590379   -2.163352    0.000000
  C      1.836552    2.234079    0.000000
  N      0.000000    0.623665    0.000000
  O      2.140869   -0.141131    0.000000
  H     -2.595791    0.047327    0.000000
  H      0.088707   -1.445676    0.000000
  H     -3.229378   -2.296210    0.877032
  H     -3.229378   -2.296210   -0.877032
  H     -1.850635   -2.963831    0.000000
  H      2.460883    2.395108   -0.878171
  H      2.460883    2.395108    0.878171
  H      1.027080    2.963093    0.000000
  H     -0.583780    1.442786    0.000000

 Total Charge           Charge          ....    0
 Multiplicity           Mult            ....    1
 Number of Electrons    NEL             ....   54
 Basis Dimension        Dim             ....  242

ORBITAL ENERGIES
----------------

  NO   OCC          E(Eh)            E(eV)
   0   2.0000     -20.532756      -558.7247
   1   2.0000     -15.608250      -424.7221
   2   2.0000     -11.366599      -309.3009
   3   2.0000     -11.275211      -306.8141
   4   2.0000     -11.249661      -306.1188
   5   2.0000     -11.233451      -305.6778
   6   2.0000     -11.230135      -305.5875
   7   2.0000      -1.392690       -37.8970
   8   2.0000      -1.253258       -34.1029
   9   2.0000      -1.070655       -29.1340
  10   2.0000      -1.012628       -27.5550
  11   2.0000      -0.931779       -25.3550
  12   2.0000      -0.804866       -21.9015
  13   2.0000      -0.797645       -21.7050
  14   2.0000      -0.688290       -18.7293
  15   2.0000      -0.678171       -18.4540
  16   2.0000      -0.624341       -16.9892
  17   2.0000      -0.600685       -16.3455
  18   2.0000      -0.580333       -15.7917
  19   2.0000      -0.571697       -15.5567
  20   2.0000      -0.569760       -15.5040
  21   2.0000      -0.541196       -14.7267
  22   2.0000      -0.538846       -14.6627
  23   2.0000      -0.510013       -13.8781
  24   2.0000      -0.460161       -12.5216
  25   2.0000      -0.428603       -11.6629
  26   2.0000      -0.322197        -8.7674
  27   0.0000       0.027112         0.7378
  28   0.0000       0.039019         1.0618
  29   0.0000       0.046591         1.2678
  30   0.0000       0.056694         1.5427
  31   0.0000       0.062270         1.6944

MULLIKEN ATOMIC CHARGES
-----------------------
   0 C :    0.657097
   1 C :    0.742294
   2 C :    0.592033
   3 C :    0.166396
   4 C :    0.398860
   5 N :   -0.445329
   6 O :   -0.833477
   7 H :   -0.584350
   8 H :   -0.468970
   9 H :    0.051201
  10 H :    0.051201
  11 H :   -0.126426
  12 H :    0.049057
  13 H :    0.049057
  14 H :   -0.166633
  15 H :   -0.132011
Sum of atomic charges:    0.0000000

LOEWDIN ATOMIC CHARGES
----------------------
   0 C :   -0.042112
   1 C :    0.006978
   2 C :   -0.351392
   3 C :    0.125964
   4 C :    0.212399
   5 N :    0.098080
   6 O :    0.022109
   7 H :   -0.007884
   8 H :    0.009081
   9 H :   -0.019706
  10 H :   -0.019706
  11 H :   -0.017317
  12 H :   -0.002992
  13 H :   -0.002992
  14 H :   -0.020200
  15 H :    0.009690

  Mayer bond orders larger than 0.100000
B(  0-C ,  1-C ) :   1.9132 B(  0-C ,  3-C ) :   1.2580 B(  0-C ,  7-H ) :   0.2472
B(  0-C ,  8-H ) :  -0.1701 B(  0-C , 11-H ) :   0.1093 B(  1-C ,  5-N ) :   0.8250
B(  1-C ,  7-H ) :   0.5137 B(  1-C ,  8-H ) :   0.5905 B(  1-C , 11-H ) :  -0.1240
B(  2-C ,  4-C ) :   1.0442 B(  2-C ,  5-N ) :   0.9832 B(  2-C ,  6-O ) :   1.3920
B(  3-C ,  9-H ) :   0.8947 B(  3-C , 10-H ) :   0.8947 B(  3-C , 11-H ) :   0.9983
B(  4-C , 12-H ) :   0.9223 B(  4-C , 13-H ) :   0.9223 B(  4-C , 14-H ) :   0.9329
B(  5-N , 15-H ) :   1.1124

MP2 TOTAL ENERGY:     -325.012248966 Eh
FINAL SINGLE POINT ENERGY      -325.012248966198

DIPOLE MOMENT
-------------
                                X             Y             Z
Electronic contribution:      4.50091       0.87979      -0.00000
Nuclear contribution   :     -5.54242       0.24853       0.00000
                        -----------------------------------------
Total Dipole Moment    :     -1.04152       1.12831      -0.00000
                        -----------------------------------------
Magnitude (a.u.)       :      1.53553
Magnitude (Debye)      :      3.90300

Rotational constants in cm-1:     0.287257     0.037885     0.033888
Rotational constants in MHz :  8611.751046  1135.754726  1015.947452

                             ****ORCA TERMINATED NORMALLY****
TOTAL RUN TIME: 0 days 0 hours 0 minutes 38 seconds 630 msec
