                         Program Version 5.0.3 -  RELEASE  -
|  1> !ri-mp2 aug-cc-pvdz aug-cc-pvdz/c tightscf
|  2> %pal nprocs 16 end
|  3>
|  4> * xyz 0 1
|  5> O      0.398686   -0.658181    0.432310
|  6> O      2.110858    0.540150   -0.435213
|  7> N     -0.324934    0.558558    0.529684
|  8> N     -2.184383   -0.564932   -0.359925
|  9> C      1.635791   -0.499882   -0.069258
| 10> C     -1.596806    0.501735   -0.024181
| 11> H      0.269573    1.312628    0.194878
| 12> H     -3.129950   -0.371180   -0.673543
| 13> H      2.131567   -1.475260   -0.070979
| 14> H     -2.016233    1.511565   -0.054807
| 15> *
| 16>
| 17>                          ****END OF INPUT****

CARTESIAN COORDINATES (ANGSTROEM)
---------------------------------
  O      0.398686   -0.658181    0.432310
  O      2.110858    0.540150   -0.435213
  N     -0.324934    0.558558    0.529684
  N     -2.184383   -0.564932   -0.359925
  C      1.635791   -0.499882   -0.069258
  C     -1.596806    0.501735   -0.024181
  H      0.269573    1.312628    0.194878
  H     -3.129950   -0.371180   -0.673543
  H      2.131567   -1.475260   -0.070979
  H     -2.016233    1.511565   -0.054807

 Total Charge           Charge          ....    0
 Multiplicity           Mult            ....    1
 Number of Electrons    NEL             ....   46
 Basis Dimension        Dim             ....  174

ORBITAL ENERGIES
----------------

  NO   OCC          E(Eh)            E(eV)
   0   2.0000     -20.668585      -562.4208
   1   2.0000     -20.590426      -560.2940
   2   2.0000     -15.661444      -426.1695
   3   2.0000     -15.560946      -423.4349
   4   2.0000     -11.417020      -310.6729
   5   2.0000     -11.341521      -308.6185
   6   2.0000      -1.519393       -41.3448
   7   2.0000      -1.411627       -38.4123
   8   2.0000      -1.255960       -34.1764
   9   2.0000      -1.155458       -31.4416
  10   2.0000      -0.900917       -24.5152
  11   2.0000      -0.836934       -22.7741
  12   2.0000      -0.769823       -20.9479
  13   2.0000      -0.721592       -19.6355
  14   2.0000      -0.699563       -19.0361
  15   2.0000      -0.672897       -18.3104
  16   2.0000      -0.643597       -17.5132
  17   2.0000      -0.590126       -16.0581
  18   2.0000      -0.557646       -15.1743
  19   2.0000      -0.492679       -13.4065
  20   2.0000      -0.486974       -13.2512
  21   2.0000      -0.443396       -12.0654
  22   2.0000      -0.395443       -10.7605
  23   0.0000       0.031706         0.8628
  24   0.0000       0.041483         1.1288
  25   0.0000       0.050100         1.3633
  26   0.0000       0.070603         1.9212
  27   0.0000       0.081509         2.2180

MULLIKEN ATOMIC CHARGES
-----------------------
   0 O :   -0.730171
   1 O :   -0.583611
   2 N :   -0.066308
   3 N :   -0.460361
   4 C :    1.012926
   5 C :    0.997216
   6 H :    0.094300
   7 H :    0.040927
   8 H :   -0.132614
   9 H :   -0.172303
Sum of atomic charges:   -0.0000000

LOEWDIN ATOMIC CHARGES
----------------------
   0 O :    0.072132
   1 O :    0.028819
   2 N :    0.087628
   3 N :    0.150033
   4 C :   -0.112881
   5 C :   -0.139245
   6 H :   -0.040437
   7 H :   -0.090818
   8 H :    0.021036
   9 H :    0.023734

  Mayer bond orders larger than 0.100000
B(  0-O ,  2-N ) :   0.7874 B(  0-O ,  4-C ) :   0.9001 B(  1-O ,  4-C ) :   1.6685
B(  2-N ,  5-C ) :   0.8447 B(  2-N ,  6-H ) :   1.0315 B(  3-N ,  5-C ) :   1.7986
B(  3-N ,  7-H ) :   0.9921 B(  4-C ,  8-H ) :   1.0160 B(  5-C ,  9-H ) :   0.8758

MP2 TOTAL ENERGY:     -337.669602090 Eh
FINAL SINGLE POINT ENERGY      -337.669602090218

DIPOLE MOMENT
-------------
                                X             Y             Z
Electronic contribution:      2.39004      -0.49075       0.52471
Nuclear contribution   :     -2.66848       0.95730      -0.59202
                        -----------------------------------------
Total Dipole Moment    :     -0.27844       0.46655      -0.06731
                        -----------------------------------------
Magnitude (a.u.)       :      0.54748
Magnitude (Debye)      :      1.39158

Rotational constants in cm-1:     0.374450     0.071466     0.065771
Rotational constants in MHz : 11225.721442  2142.492886  1971.757787

                             ****ORCA TERMINATED NORMALLY****
TOTAL RUN TIME: 0 days 0 hours 0 minutes 25 seconds 516 msec
