                         Program Version 5.0.3 -  RELEASE  -
|  1> !ri-mp2 aug-cc-pvdz aug-cc-pvdz/c tightscf
|  2> %pal nprocs 16 end
|  3>
|  4> * xyz 0 1
|  5> Cl     1.560711    1.893407   -0.220108
|  6> S     -2.790812    0.329751   -0.047708
|  7> O      1.341983   -2.035398   -1.015709
|  8> O      1.598920   -1.268082    1.083308
|  9> N      0.161310    1.041443    0.439465
| 10> C     -0.069935   -0.213443   -0.269978
| 11> C      1.035385   -1.265596   -0.146657
| 12> C     -1.382089   -0.820778    0.246351
| 13> H     -3.701568   -0.633058   -0.277035
| 14> H      2.276249   -1.960533    1.095104
| 15> H      0.436799    0.846291    1.397865
| 16> H     -0.173273    0.009303   -1.329322
| 17> H     -1.303752   -1.040723    1.310335
| 18> H     -1.570111   -1.748572   -0.287123
| 19> *
| 20>
| 21>                          ****END OF INPUT****

CARTESIAN COORDINATES (ANGSTROEM)
---------------------------------
  Cl     1.560711    1.893407   -0.220108
  S     -2.790812    0.329751   -0.047708
  O      1.341983   -2.035398   -1.015709
  O      1.598920   -1.268082    1.083308
  N      0.161310    1.041443    0.439465
  C     -0.069935   -0.213443   -0.269978
  C      1.035385   -1.265596   -0.146657
  C     -1.382089   -0.820778    0.246351
  H     -3.701568   -0.633058   -0.277035
  H      2.276249   -1.960533    1.095104
  H      0.436799    0.846291    1.397865
  H     -0.173273    0.009303   -1.329322
  H     -1.303752   -1.040723    1.310335
  H     -1.570111   -1.748572   -0.287123

 Total Charge           Charge          ....    0
 Multiplicity           Mult            ....    1
 Number of Electrons    NEL             ....   80
 Basis Dimension        Dim             ....  246

ORBITAL ENERGIES
----------------

  NO   OCC          E(Eh)            E(eV)
   0   2.0000    -104.862497     -2853.4536
   1   2.0000     -91.970554     -2502.6460
   2   2.0000     -20.644662      -561.7698
   3   2.0000     -20.583468      -560.1046
   4   2.0000     -15.650294      -425.8661
   5   2.0000     -11.415846      -310.6410
   6   2.0000     -11.318151      -307.9825
   7   2.0000     -11.298472      -307.4471
   8   2.0000     -10.585723      -288.0522
   9   2.0000      -8.971622      -244.1302
  10   2.0000      -8.053576      -219.1489
  11   2.0000      -8.049754      -219.0449
  12   2.0000      -8.049495      -219.0379
  13   2.0000      -6.653564      -181.0527
  14   2.0000      -6.652292      -181.0181
  15   2.0000      -6.650093      -180.9582
  16   2.0000      -1.492635       -40.6167
  17   2.0000      -1.390935       -37.8493
  18   2.0000      -1.278020       -34.7767
  19   2.0000      -1.112825       -30.2815
  20   2.0000      -1.028566       -27.9887
  21   2.0000      -0.970274       -26.4025
  22   2.0000      -0.880617       -23.9628
  23   2.0000      -0.838742       -22.8233
  24   2.0000      -0.734994       -20.0002
  25   2.0000      -0.725719       -19.7478
  26   2.0000      -0.667190       -18.1552
  27   2.0000      -0.659057       -17.9339
  28   2.0000      -0.641414       -17.4537
  29   2.0000      -0.627509       -17.0754
  30   2.0000      -0.590189       -16.0599
  31   2.0000      -0.554766       -15.0960
  32   2.0000      -0.546162       -14.8618
  33   2.0000      -0.529537       -14.4094
  34   2.0000      -0.503082       -13.6896
  35   2.0000      -0.478524       -13.0213
  36   2.0000      -0.467041       -12.7088
  37   2.0000      -0.461631       -12.5616
  38   2.0000      -0.409355       -11.1391
  39   2.0000      -0.370990       -10.0951
  40   0.0000       0.028844         0.7849
  41   0.0000       0.038927         1.0593
  42   0.0000       0.049879         1.3573
  43   0.0000       0.056082         1.5261
  44   0.0000       0.062658         1.7050

MULLIKEN ATOMIC CHARGES
-----------------------
   0 Cl:    0.177477
   1 S :    0.344693
   2 O :   -0.777629
   3 O :   -0.774819
   4 N :   -0.724377
   5 C :    0.562037
   6 C :    1.243374
   7 C :   -0.059352
   8 H :    0.098551
   9 H :    0.203757
  10 H :    0.152154
  11 H :   -0.229382
  12 H :   -0.078011
  13 H :   -0.138472
Sum of atomic charges:    0.0000000

LOEWDIN ATOMIC CHARGES
----------------------
   0 Cl:    0.479050
   1 S :    0.750008
   2 O :    0.058096
   3 O :    0.201769
   4 N :   -0.230307
   5 C :   -0.319298
   6 C :   -0.333639
   7 C :   -0.268015
   8 H :   -0.229556
   9 H :   -0.010915
  10 H :   -0.079344
  11 H :    0.029332
  12 H :   -0.027388
  13 H :   -0.019791

  Mayer bond orders larger than 0.100000
B(  0-Cl,  4-N ) :   0.9118 B(  0-Cl,  5-C ) :  -0.1230 B(  1-S ,  5-C ) :  -0.1346
B(  1-S ,  7-C ) :   1.2205 B(  1-S ,  8-H ) :   0.9769 B(  1-S , 12-H ) :  -0.1306
B(  2-O ,  3-O ) :   0.1238 B(  2-O ,  6-C ) :   1.3317 B(  3-O ,  6-C ) :   0.4680
B(  3-O ,  9-H ) :   1.0158 B(  4-N ,  5-C ) :   0.8412 B(  4-N , 10-H ) :   1.0327
B(  5-C ,  6-C ) :   0.9242 B(  5-C ,  7-C ) :   1.1283 B(  5-C , 11-H ) :   0.6501
B(  5-C , 13-H ) :   0.1562 B(  6-C , 11-H ) :   0.1409 B(  7-C , 12-H ) :   0.9097
B(  7-C , 13-H ) :   0.9284

MP2 TOTAL ENERGY:    -1179.616137377 Eh
FINAL SINGLE POINT ENERGY     -1179.616137376689

DIPOLE MOMENT
-------------
                                X             Y             Z
Electronic contribution:      5.83507       6.19050      -1.27491
Nuclear contribution   :     -5.92400      -7.04136       2.15313
                        -----------------------------------------
Total Dipole Moment    :     -0.08893      -0.85087       0.87822
                        -----------------------------------------
Magnitude (a.u.)       :      1.22603
Magnitude (Debye)      :      3.11633

Rotational constants in cm-1:     0.052205     0.032816     0.022788
Rotational constants in MHz :  1565.053755   983.801118   683.159502

                             ****ORCA TERMINATED NORMALLY****
TOTAL RUN TIME: 0 days 0 hours 0 minutes 49 seconds 893 msec
