                         Program Version 5.0.3 -  RELEASE  -
|  1> !ri-mp2 aug-cc-pvdz aug-cc-pvdz/c tightscf
|  2> %pal nprocs 16 end
|  3>
|  4> * xyz 0 1
|  5> C    -2.911807   -0.353161    0.000000
|  6> C    -1.970075   -1.370420    0.000028
|  7> C    -2.420063    0.945020   -0.000029
|  8> C    -0.295388    0.168403   -0.000001
|  9> C     1.202333    0.467839    0.000009
| 10> C     3.415957   -0.609641   -0.000010
| 11> N    -0.663500   -1.117055    0.000026
| 12> N    -1.117120    1.213429   -0.000028
| 13> N     1.969122   -0.648818   -0.000052
| 14> O     1.629250    1.606620    0.000055
| 15> H    -3.971769   -0.560591    0.000002
| 16> H    -2.264814   -2.413448    0.000052
| 17> H    -3.089232    1.798175   -0.000054
| 18> H     3.820894   -1.101243   -0.886355
| 19> H     3.820882   -1.099999    0.887039
| 20> H     3.726013    0.431675   -0.000714
| 21> H     1.478770   -1.528660   -0.000016
| 22> *
| 23>
| 24>                          ****END OF INPUT****

CARTESIAN COORDINATES (ANGSTROEM)
---------------------------------
  C     -2.911807   -0.353161    0.000000
  C     -1.970075   -1.370420    0.000028
  C     -2.420063    0.945020   -0.000029
  C     -0.295388    0.168403   -0.000001
  C      1.202333    0.467839    0.000009
  C      3.415957   -0.609641   -0.000010
  N     -0.663500   -1.117055    0.000026
  N     -1.117120    1.213429   -0.000028
  N      1.969122   -0.648818   -0.000052
  O      1.629250    1.606620    0.000055
  H     -3.971769   -0.560591    0.000002
  H     -2.264814   -2.413448    0.000052
  H     -3.089232    1.798175   -0.000054
  H      3.820894   -1.101243   -0.886355
  H      3.820882   -1.099999    0.887039
  H      3.726013    0.431675   -0.000714
  H      1.478770   -1.528660   -0.000016

 Total Charge           Charge          ....    0
 Multiplicity           Mult            ....    1
 Number of Electrons    NEL             ....   72
 Basis Dimension        Dim             ....  293

ORBITAL ENERGIES
----------------

  NO   OCC          E(Eh)            E(eV)
   0   2.0000     -20.526611      -558.5575
   1   2.0000     -15.600963      -424.5238
   2   2.0000     -15.592945      -424.3056
   3   2.0000     -15.587257      -424.1508
   4   2.0000     -11.359374      -309.1043
   5   2.0000     -11.339644      -308.5674
   6   2.0000     -11.319455      -308.0180
   7   2.0000     -11.315938      -307.9223
   8   2.0000     -11.269100      -306.6478
   9   2.0000     -11.262741      -306.4748
  10   2.0000      -1.387833       -37.7649
  11   2.0000      -1.332436       -36.2574
  12   2.0000      -1.235757       -33.6267
  13   2.0000      -1.211415       -32.9643
  14   2.0000      -1.097008       -29.8511
  15   2.0000      -0.974946       -26.5296
  16   2.0000      -0.914506       -24.8850
  17   2.0000      -0.903927       -24.5971
  18   2.0000      -0.798307       -21.7230
  19   2.0000      -0.763816       -20.7845
  20   2.0000      -0.723659       -19.6918
  21   2.0000      -0.689734       -18.7686
  22   2.0000      -0.639501       -17.4017
  23   2.0000      -0.634795       -17.2736
  24   2.0000      -0.627705       -17.0807
  25   2.0000      -0.608322       -16.5533
  26   2.0000      -0.593838       -16.1592
  27   2.0000      -0.582235       -15.8434
  28   2.0000      -0.545801       -14.8520
  29   2.0000      -0.530181       -14.4270
  30   2.0000      -0.499964       -13.6047
  31   2.0000      -0.436979       -11.8908
  32   2.0000      -0.431966       -11.7544
  33   2.0000      -0.419610       -11.4182
  34   2.0000      -0.390121       -10.6157
  35   2.0000      -0.381278       -10.3751
  36   0.0000       0.025157         0.6846
  37   0.0000       0.035795         0.9740
  38   0.0000       0.042276         1.1504
  39   0.0000       0.053598         1.4585
  40   0.0000       0.057457         1.5635

MULLIKEN ATOMIC CHARGES
-----------------------
   0 C :    0.647381
   1 C :    0.550143
   2 C :    0.621652
   3 C :    0.151709
   4 C :    1.251388
   5 C :    0.805475
   6 N :   -0.632863
   7 N :   -0.619591
   8 N :   -0.538958
   9 O :   -0.831477
  10 H :   -0.364716
  11 H :   -0.336899
  12 H :   -0.318381
  13 H :   -0.082083
  14 H :   -0.081917
  15 H :   -0.154076
  16 H :   -0.066788
Sum of atomic charges:    0.0000000

LOEWDIN ATOMIC CHARGES
----------------------
   0 C :    0.042397
   1 C :   -0.000892
   2 C :    0.005390
   3 C :   -0.180193
   4 C :   -0.296473
   5 C :    0.191150
   6 N :    0.076214
   7 N :    0.098990
   8 N :    0.075944
   9 O :    0.038674
  10 H :    0.001826
  11 H :    0.011640
  12 H :    0.013852
  13 H :   -0.016314
  14 H :   -0.016308
  15 H :   -0.020321
  16 H :   -0.025575

  Mayer bond orders larger than 0.100000
B(  0-C ,  1-C ) :   1.3953 B(  0-C ,  2-C ) :   1.3421 B(  0-C ,  3-C ) :   0.1078
B(  0-C , 10-H ) :   0.7308 B(  1-C ,  2-C ) :   0.2474 B(  1-C ,  3-C ) :  -0.2439
B(  1-C ,  6-N ) :   1.2872 B(  1-C , 11-H ) :   0.8540 B(  2-C ,  3-C ) :  -0.1566
B(  2-C ,  7-N ) :   1.2074 B(  2-C , 12-H ) :   0.8669 B(  3-C ,  4-C ) :   0.9464
B(  3-C ,  6-N ) :   1.2603 B(  3-C ,  7-N ) :   1.3663 B(  3-C ,  9-O ) :   0.2292
B(  4-C ,  5-C ) :  -0.1448 B(  4-C ,  8-N ) :   0.9730 B(  4-C ,  9-O ) :   1.1405
B(  5-C ,  8-N ) :   0.9302 B(  5-C , 13-H ) :   0.9108 B(  5-C , 14-H ) :   0.9106
B(  5-C , 15-H ) :   1.0208 B(  6-N , 11-H ) :  -0.1148 B(  7-N , 12-H ) :  -0.1076
B(  8-N , 16-H ) :   1.0516

MP2 TOTAL ENERGY:     -471.076368519 Eh
FINAL SINGLE POINT ENERGY      -471.076368518722

DIPOLE MOMENT
-------------
                                X             Y             Z
Electronic contribution:     -4.75127       2.65230       0.00001
Nuclear contribution   :      3.49785      -4.38965      -0.00004
                        -----------------------------------------
Total Dipole Moment    :     -1.25343      -1.73736      -0.00004
                        -----------------------------------------
Magnitude (a.u.)       :      2.14231
Magnitude (Debye)      :      5.44532

Rotational constants in cm-1:     0.117660     0.029281     0.023550
Rotational constants in MHz :  3527.363457   877.824553   706.012769

                             ****ORCA TERMINATED NORMALLY****
TOTAL RUN TIME: 0 days 0 hours 1 minutes 16 seconds 800 msec
