                         Program Version 5.0.3 -  RELEASE  -
|  1> !ri-mp2 aug-cc-pvdz aug-cc-pvdz/c tightscf
|  2> %pal nprocs 16 end
|  3> %maxcore 3800
|  4>
|  5> * xyz 0 1
|  6> C    -1.325488   -1.023014   -0.620671
|  7> C    -1.153772    0.908207    0.754322
|  8> C    -3.123935    0.272789   -0.162363
|  9> C    -0.530909   -0.169977    0.137241
| 10> C     1.986994    1.737827   -1.056432
| 11> N    -2.628272   -0.802402   -0.775809
| 12> N    -2.457181    1.136617    0.601107
| 13> N     1.994174    0.281587   -0.935689
| 14> O     1.635439    0.218540    1.535945
| 15> O     1.440056   -1.889346    0.122330
| 16> S     1.229691   -0.470095    0.327322
| 17> H    -0.905378   -1.902771   -1.092500
| 18> H    -0.596738    1.583105    1.391696
| 19> H    -4.183013    0.459324   -0.293879
| 20> H     1.020179    2.141933   -1.369626
| 21> H     2.740545    2.019831   -1.789059
| 22> H     2.264660    2.168978   -0.098408
| 23> H     1.902340   -0.248049   -1.791428
| 24> *
| 25>
| 26>                          ****END OF INPUT****

CARTESIAN COORDINATES (ANGSTROEM)
---------------------------------
  C     -1.325488   -1.023014   -0.620671
  C     -1.153772    0.908207    0.754322
  C     -3.123935    0.272789   -0.162363
  C     -0.530909   -0.169977    0.137241
  C      1.986994    1.737827   -1.056432
  N     -2.628272   -0.802402   -0.775809
  N     -2.457181    1.136617    0.601107
  N      1.994174    0.281587   -0.935689
  O      1.635439    0.218540    1.535945
  O      1.440056   -1.889346    0.122330
  S      1.229691   -0.470095    0.327322
  H     -0.905378   -1.902771   -1.092500
  H     -0.596738    1.583105    1.391696
  H     -4.183013    0.459324   -0.293879
  H      1.020179    2.141933   -1.369626
  H      2.740545    2.019831   -1.789059
  H      2.264660    2.168978   -0.098408
  H      1.902340   -0.248049   -1.791428

 Total Charge           Charge          ....    0
 Multiplicity           Mult            ....    1
 Number of Electrons    NEL             ....   90
 Basis Dimension        Dim             ....  320

ORBITAL ENERGIES
----------------

  NO   OCC          E(Eh)            E(eV)
   0   2.0000     -92.242782     -2510.0537
   1   2.0000     -20.572786      -559.8140
   2   2.0000     -20.572722      -559.8122
   3   2.0000     -15.623226      -425.1296
   4   2.0000     -15.607411      -424.6992
   5   2.0000     -15.607193      -424.6933
   6   2.0000     -11.350097      -308.8518
   7   2.0000     -11.337634      -308.5127
   8   2.0000     -11.337235      -308.5018
   9   2.0000     -11.298561      -307.4495
  10   2.0000     -11.295548      -307.3675
  11   2.0000      -9.210305      -250.6251
  12   2.0000      -6.896245      -187.6564
  13   2.0000      -6.895275      -187.6300
  14   2.0000      -6.894388      -187.6058
  15   2.0000      -1.485832       -40.4316
  16   2.0000      -1.365579       -37.1593
  17   2.0000      -1.346372       -36.6366
  18   2.0000      -1.252900       -34.0931
  19   2.0000      -1.227983       -33.4151
  20   2.0000      -1.120159       -30.4811
  21   2.0000      -0.986854       -26.8537
  22   2.0000      -0.939463       -25.5641
  23   2.0000      -0.929470       -25.2922
  24   2.0000      -0.856808       -23.3149
  25   2.0000      -0.775224       -21.0949
  26   2.0000      -0.750392       -20.4192
  27   2.0000      -0.740391       -20.1471
  28   2.0000      -0.706159       -19.2156
  29   2.0000      -0.688584       -18.7373
  30   2.0000      -0.642457       -17.4821
  31   2.0000      -0.628403       -17.0997
  32   2.0000      -0.623087       -16.9551
  33   2.0000      -0.614602       -16.7242
  34   2.0000      -0.604898       -16.4601
  35   2.0000      -0.580671       -15.8009
  36   2.0000      -0.538429       -14.6514
  37   2.0000      -0.516969       -14.0674
  38   2.0000      -0.513077       -13.9615
  39   2.0000      -0.490067       -13.3354
  40   2.0000      -0.476236       -12.9590
  41   2.0000      -0.449580       -12.2337
  42   2.0000      -0.444709       -12.1012
  43   2.0000      -0.438889       -11.9428
  44   2.0000      -0.404161       -10.9978
  45   0.0000       0.025341         0.6896
  46   0.0000       0.037674         1.0251
  47   0.0000       0.040624         1.1054
  48   0.0000       0.051154         1.3920
  49   0.0000       0.055224         1.5027

MULLIKEN ATOMIC CHARGES
-----------------------
   0 C :    0.632337
   1 C :    0.640773
   2 C :    0.699904
   3 C :    0.213733
   4 C :    0.815402
   5 N :   -0.782543
   6 N :   -0.759489
   7 N :   -0.858746
   8 O :   -1.164189
   9 O :   -1.130595
  10 S :    3.063776
  11 H :   -0.332687
  12 H :   -0.359775
  13 H :   -0.203768
  14 H :   -0.059890
  15 H :   -0.199706
  16 H :   -0.122281
  17 H :   -0.092255
Sum of atomic charges:    0.0000000

LOEWDIN ATOMIC CHARGES
----------------------
   0 C :   -0.004436
   1 C :   -0.006544
   2 C :   -0.046229
   3 C :   -0.227809
   4 C :    0.129213
   5 N :    0.048333
   6 N :    0.048343
   7 N :   -0.119016
   8 O :   -0.355845
   9 O :   -0.360737
  10 S :    0.946065
  11 H :    0.013458
  12 H :    0.013236
  13 H :    0.010029
  14 H :   -0.021754
  15 H :   -0.014752
  16 H :   -0.020282
  17 H :   -0.031274

  Mayer bond orders larger than 0.100000
B(  0-C ,  2-C ) :  -0.1999 B(  0-C ,  3-C ) :   1.2085 B(  0-C ,  5-N ) :   1.1023
B(  0-C , 11-H ) :   0.7082 B(  1-C ,  2-C ) :  -0.1464 B(  1-C ,  3-C ) :   1.2013
B(  1-C ,  6-N ) :   1.0898 B(  1-C ,  8-O ) :   0.1231 B(  1-C , 12-H ) :   0.7727
B(  2-C ,  3-C ) :   0.1493 B(  2-C ,  5-N ) :   1.3365 B(  2-C ,  6-N ) :   1.3399
B(  2-C , 13-H ) :   1.0188 B(  3-C ,  9-O ) :   0.1425 B(  3-C , 10-S ) :   0.8360
B(  3-C , 11-H ) :   0.1271 B(  4-C ,  7-N ) :   0.8515 B(  4-C , 14-H ) :   0.8779
B(  4-C , 15-H ) :   0.9915 B(  4-C , 16-H ) :   0.9644 B(  7-N ,  8-O ) :   0.1200
B(  7-N , 10-S ) :   0.9874 B(  7-N , 17-H ) :   1.1533 B(  8-O , 10-S ) :   0.7634
B(  9-O , 10-S ) :   0.6983

MP2 TOTAL ENERGY:     -905.726538125 Eh
FINAL SINGLE POINT ENERGY      -905.726538125367

DIPOLE MOMENT
-------------
                                X             Y             Z
Electronic contribution:     -2.49510      -4.96502       3.46315
Nuclear contribution   :      2.18126       6.06475      -4.91267
                        -----------------------------------------
Total Dipole Moment    :     -0.31384       1.09972      -1.44953
                        -----------------------------------------
Magnitude (a.u.)       :      1.84635
Magnitude (Debye)      :      4.69305

Rotational constants in cm-1:     0.060968     0.023842     0.021725
Rotational constants in MHz :  1827.762266   714.767878   651.306795

                             ****ORCA TERMINATED NORMALLY****
TOTAL RUN TIME: 0 days 0 hours 1 minutes 39 seconds 81 msec
