                         Program Version 5.0.3 -  RELEASE  -
|  1> !ri-mp2 aug-cc-pvdz aug-cc-pvdz/c tightscf
|  2> %pal nprocs 16 end
|  3>
|  4> * xyz 0 1
|  5> F      2.662788   -0.389952   -0.184145
|  6> F      1.350478    1.307291    0.242723
|  7> N      1.365233    0.093381   -0.468109
|  8> C      0.486442   -0.814523    0.318269
|  9> C     -0.906899   -0.447656    0.149345
| 10> C     -3.460800    0.209456   -0.144708
| 11> C     -2.062686   -0.155069    0.017364
| 12> H      0.689215   -1.805176   -0.090461
| 13> H      0.800414   -0.789621    1.363966
| 14> H     -3.548554    1.185872   -0.623577
| 15> H     -3.988577   -0.517719   -0.763260
| 16> H     -3.964868    0.263674    0.821272
| 17> *
| 18>
| 19>                          ****END OF INPUT****

CARTESIAN COORDINATES (ANGSTROEM)
---------------------------------
  F      2.662788   -0.389952   -0.184145
  F      1.350478    1.307291    0.242723
  N      1.365233    0.093381   -0.468109
  C      0.486442   -0.814523    0.318269
  C     -0.906899   -0.447656    0.149345
  C     -3.460800    0.209456   -0.144708
  C     -2.062686   -0.155069    0.017364
  H      0.689215   -1.805176   -0.090461
  H      0.800414   -0.789621    1.363966
  H     -3.548554    1.185872   -0.623577
  H     -3.988577   -0.517719   -0.763260
  H     -3.964868    0.263674    0.821272

 Total Charge           Charge          ....    0
 Multiplicity           Mult            ....    1
 Number of Electrons    NEL             ....   54
 Basis Dimension        Dim             ....  206

ORBITAL ENERGIES
----------------

  NO   OCC          E(Eh)            E(eV)
   0   2.0000     -26.347832      -716.9610
   1   2.0000     -26.346765      -716.9319
   2   2.0000     -15.784742      -429.5247
   3   2.0000     -11.323781      -308.1358
   4   2.0000     -11.266759      -306.5841
   5   2.0000     -11.258492      -306.3591
   6   2.0000     -11.246451      -306.0315
   7   2.0000      -1.684118       -45.8272
   8   2.0000      -1.600015       -43.5386
   9   2.0000      -1.184902       -32.2428
  10   2.0000      -1.077552       -29.3217
  11   2.0000      -0.998823       -27.1793
  12   2.0000      -0.930901       -25.3311
  13   2.0000      -0.771419       -20.9914
  14   2.0000      -0.764238       -20.7960
  15   2.0000      -0.756931       -20.5971
  16   2.0000      -0.686089       -18.6694
  17   2.0000      -0.665444       -18.1076
  18   2.0000      -0.650375       -17.6976
  19   2.0000      -0.632596       -17.2138
  20   2.0000      -0.622439       -16.9374
  21   2.0000      -0.606711       -16.5095
  22   2.0000      -0.600577       -16.3425
  23   2.0000      -0.594334       -16.1727
  24   2.0000      -0.488780       -13.3004
  25   2.0000      -0.398648       -10.8478
  26   2.0000      -0.391465       -10.6523
  27   0.0000       0.030184         0.8213
  28   0.0000       0.040380         1.0988
  29   0.0000       0.049142         1.3372
  30   0.0000       0.058650         1.5959
  31   0.0000       0.064483         1.7547

MULLIKEN ATOMIC CHARGES
-----------------------
   0 F :   -0.561093
   1 F :   -0.524114
   2 N :    0.398635
   3 C :    0.772666
   4 C :   -0.083610
   5 C :    0.143967
   6 C :   -0.677847
   7 H :    0.037706
   8 H :    0.073116
   9 H :    0.147667
  10 H :    0.133083
  11 H :    0.139822
Sum of atomic charges:    0.0000000

LOEWDIN ATOMIC CHARGES
----------------------
   0 F :   -0.005331
   1 F :    0.003014
   2 N :   -0.027509
   3 C :   -0.066705
   4 C :   -0.017529
   5 C :    0.128846
   6 C :   -0.043978
   7 H :    0.023552
   8 H :    0.025049
   9 H :   -0.004764
  10 H :   -0.007646
  11 H :   -0.006999

  Mayer bond orders larger than 0.100000
B(  0-F ,  2-N ) :   0.5587 B(  1-F ,  2-N ) :   0.6157 B(  2-N ,  3-C ) :   0.8599
B(  2-N ,  6-C ) :  -0.1014 B(  3-C ,  4-C ) :   1.0377 B(  3-C ,  6-C ) :   0.2728
B(  3-C ,  7-H ) :   0.7867 B(  3-C ,  8-H ) :   0.8021 B(  4-C ,  5-C ) :   0.2788
B(  4-C ,  6-C ) :   2.7702 B(  4-C ,  7-H ) :   0.1826 B(  4-C ,  8-H ) :   0.2076
B(  4-C ,  9-H ) :  -0.1047 B(  4-C , 10-H ) :  -0.1040 B(  4-C , 11-H ) :  -0.1094
B(  5-C ,  6-C ) :   1.2266 B(  5-C ,  9-H ) :   0.7901 B(  5-C , 10-H ) :   0.7920
B(  5-C , 11-H ) :   0.7899 B(  6-C ,  9-H ) :   0.3085 B(  6-C , 10-H ) :   0.2960
B(  6-C , 11-H ) :   0.3070

MP2 TOTAL ENERGY:     -408.680995542 Eh
FINAL SINGLE POINT ENERGY      -408.680995541543

DIPOLE MOMENT
-------------
                                X             Y             Z
Electronic contribution:     12.28687       1.88609      -0.38719
Nuclear contribution   :    -13.47987      -2.47865       0.62473
                        -----------------------------------------
Total Dipole Moment    :     -1.19300      -0.59256       0.23753
                        -----------------------------------------
Magnitude (a.u.)       :      1.35307
Magnitude (Debye)      :      3.43923

Rotational constants in cm-1:     0.270611     0.036876     0.033759
Rotational constants in MHz :  8112.714727  1105.524213  1012.056936

                             ****ORCA TERMINATED NORMALLY****
TOTAL RUN TIME: 0 days 0 hours 0 minutes 35 seconds 981 msec
