                         Program Version 5.0.3 -  RELEASE  -
|  1> !ri-mp2 aug-cc-pvdz aug-cc-pvdz/c tightscf
|  2> %pal nprocs 16 end
|  3>
|  4> * xyz 0 1
|  5> Cl     2.020286   -0.360915    0.000049
|  6> O      0.203450    1.555974   -0.000169
|  7> N     -0.574181   -0.605015    0.000072
|  8> C      0.376440    0.384407   -0.000039
|  9> C     -1.897702   -0.346943    0.000026
| 10> C     -3.075438   -0.133700   -0.000002
| 11> H     -0.254865   -1.560965    0.000162
| 12> H     -4.118136    0.061245   -0.000060
| 13> *
| 14>
| 15>                          ****END OF INPUT****

CARTESIAN COORDINATES (ANGSTROEM)
---------------------------------
  Cl     2.020286   -0.360915    0.000049
  O      0.203450    1.555974   -0.000169
  N     -0.574181   -0.605015    0.000072
  C      0.376440    0.384407   -0.000039
  C     -1.897702   -0.346943    0.000026
  C     -3.075438   -0.133700   -0.000002
  H     -0.254865   -1.560965    0.000162
  H     -4.118136    0.061245   -0.000060

 Total Charge           Charge          ....    0
 Multiplicity           Mult            ....    1
 Number of Electrons    NEL             ....   52
 Basis Dimension        Dim             ....  160

ORBITAL ENERGIES
----------------

  NO   OCC          E(Eh)            E(eV)
   0   2.0000    -104.867852     -2853.5993
   1   2.0000     -20.600265      -560.5617
   2   2.0000     -15.670839      -426.4252
   3   2.0000     -11.460566      -311.8579
   4   2.0000     -11.303037      -307.5713
   5   2.0000     -11.259605      -306.3894
   6   2.0000     -10.594156      -288.2816
   7   2.0000      -8.061725      -219.3707
   8   2.0000      -8.058367      -219.2793
   9   2.0000      -8.058334      -219.2784
  10   2.0000      -1.468737       -39.9664
  11   2.0000      -1.315218       -35.7889
  12   2.0000      -1.145762       -31.1778
  13   2.0000      -1.046635       -28.4804
  14   2.0000      -0.889033       -24.1918
  15   2.0000      -0.816218       -22.2104
  16   2.0000      -0.730130       -19.8679
  17   2.0000      -0.718690       -19.5565
  18   2.0000      -0.660347       -17.9689
  19   2.0000      -0.653012       -17.7694
  20   2.0000      -0.533779       -14.5249
  21   2.0000      -0.504167       -13.7191
  22   2.0000      -0.485469       -13.2103
  23   2.0000      -0.474875       -12.9220
  24   2.0000      -0.429023       -11.6743
  25   2.0000      -0.383523       -10.4362
  26   0.0000       0.029212         0.7949
  27   0.0000       0.040081         1.0906
  28   0.0000       0.076592         2.0842
  29   0.0000       0.094644         2.5754
  30   0.0000       0.096272         2.6197

MULLIKEN ATOMIC CHARGES
-----------------------
   0 Cl:   -0.080580
   1 O :   -0.508186
   2 N :   -0.259367
   3 C :    0.542046
   4 C :   -0.472675
   5 C :    1.182909
   6 H :    0.000058
   7 H :   -0.404205
Sum of atomic charges:    0.0000000

LOEWDIN ATOMIC CHARGES
----------------------
   0 Cl:    0.511886
   1 O :    0.047706
   2 N :    0.024387
   3 C :   -0.603620
   4 C :   -0.131696
   5 C :    0.243378
   6 H :    0.004238
   7 H :   -0.096278

  Mayer bond orders larger than 0.100000
B(  0-Cl,  3-C ) :   1.0873 B(  1-O ,  3-C ) :   1.6188 B(  2-N ,  3-C ) :   1.0048
B(  2-N ,  4-C ) :   1.3285 B(  2-N ,  5-C ) :  -0.2994 B(  2-N ,  6-H ) :   1.0332
B(  3-C ,  4-C ) :  -0.1627 B(  4-C ,  5-C ) :   3.0669 B(  4-C ,  7-H ) :   0.7032
B(  5-C ,  7-H ) :  -0.1532

MP2 TOTAL ENERGY:     -704.449828826 Eh
FINAL SINGLE POINT ENERGY      -704.449828826367

DIPOLE MOMENT
-------------
                                X             Y             Z
Electronic contribution:      6.38473      -0.26827       0.00007
Nuclear contribution   :     -6.85311      -0.90802       0.00003
                        -----------------------------------------
Total Dipole Moment    :     -0.46838      -1.17629       0.00010
                        -----------------------------------------
Magnitude (a.u.)       :      1.26611
Magnitude (Debye)      :      3.21819

Rotational constants in cm-1:     0.310110     0.051837     0.044413
Rotational constants in MHz :  9296.854490  1554.024597  1331.462680

                             ****ORCA TERMINATED NORMALLY****
TOTAL RUN TIME: 0 days 0 hours 0 minutes 27 seconds 755 msec
