                         Program Version 5.0.3 -  RELEASE  -
|  1> !ri-mp2 aug-cc-pvdz aug-cc-pvdz/c tightscf
|  2> %pal nprocs 16 end
|  3>
|  4> * xyz 0 1
|  5> C      2.232485    0.157278   -0.013976
|  6> C     -0.853827    1.545278   -0.325744
|  7> N      1.037219   -0.489380   -0.546136
|  8> O     -0.349336   -0.241094    1.524633
|  9> O     -1.388574   -1.007152   -0.660628
| 10> S     -0.465777   -0.166383    0.079766
| 11> H      3.102438   -0.419525   -0.323302
| 12> H      2.182272    0.139563    1.071682
| 13> H      2.358894    1.190382   -0.351993
| 14> H     -0.896516    1.650085   -1.406514
| 15> H     -1.825831    1.753159    0.115159
| 16> H     -0.099484    2.195057    0.110415
| 17> H      1.001456   -0.650307   -1.542474
| 18> *
| 19>
| 20>                          ****END OF INPUT****

CARTESIAN COORDINATES (ANGSTROEM)
---------------------------------
  C      2.232485    0.157278   -0.013976
  C     -0.853827    1.545278   -0.325744
  N      1.037219   -0.489380   -0.546136
  O     -0.349336   -0.241094    1.524633
  O     -1.388574   -1.007152   -0.660628
  S     -0.465777   -0.166383    0.079766
  H      3.102438   -0.419525   -0.323302
  H      2.182272    0.139563    1.071682
  H      2.358894    1.190382   -0.351993
  H     -0.896516    1.650085   -1.406514
  H     -1.825831    1.753159    0.115159
  H     -0.099484    2.195057    0.110415
  H      1.001456   -0.650307   -1.542474

 Total Charge           Charge          ....    0
 Multiplicity           Mult            ....    1
 Number of Electrons    NEL             ....   58
 Basis Dimension        Dim             ....  205

ORBITAL ENERGIES
----------------

  NO   OCC          E(Eh)            E(eV)
   0   2.0000     -92.222317     -2509.4968
   1   2.0000     -20.555318      -559.3386
   2   2.0000     -20.555187      -559.3351
   3   2.0000     -15.611549      -424.8118
   4   2.0000     -11.288683      -307.1807
   5   2.0000     -11.285320      -307.0892
   6   2.0000      -9.190805      -250.0945
   7   2.0000      -6.876554      -187.1205
   8   2.0000      -6.875790      -187.0997
   9   2.0000      -6.874543      -187.0658
  10   2.0000      -1.467270       -39.9265
  11   2.0000      -1.346185       -36.6315
  12   2.0000      -1.241152       -33.7735
  13   2.0000      -1.041774       -28.3481
  14   2.0000      -0.964405       -26.2428
  15   2.0000      -0.835705       -22.7407
  16   2.0000      -0.731561       -19.9068
  17   2.0000      -0.682399       -18.5690
  18   2.0000      -0.681829       -18.5535
  19   2.0000      -0.644224       -17.5302
  20   2.0000      -0.619530       -16.8583
  21   2.0000      -0.606307       -16.4984
  22   2.0000      -0.599882       -16.3236
  23   2.0000      -0.568918       -15.4810
  24   2.0000      -0.504067       -13.7164
  25   2.0000      -0.495338       -13.4788
  26   2.0000      -0.470404       -12.8004
  27   2.0000      -0.459437       -12.5019
  28   2.0000      -0.429624       -11.6907
  29   0.0000       0.024575         0.6687
  30   0.0000       0.039115         1.0644
  31   0.0000       0.044609         1.2139
  32   0.0000       0.052517         1.4291
  33   0.0000       0.065651         1.7865

MULLIKEN ATOMIC CHARGES
-----------------------
   0 C :    0.800302
   1 C :    0.050050
   2 N :   -0.882142
   3 O :   -1.134487
   4 O :   -1.115134
   5 S :    2.682545
   6 H :   -0.171066
   7 H :   -0.094678
   8 H :   -0.087341
   9 H :    0.016375
  10 H :    0.033636
  11 H :   -0.001024
  12 H :   -0.097037
Sum of atomic charges:   -0.0000000

LOEWDIN ATOMIC CHARGES
----------------------
   0 C :    0.121827
   1 C :    0.085659
   2 N :   -0.130027
   3 O :   -0.380586
   4 O :   -0.385743
   5 S :    0.892383
   6 H :   -0.017204
   7 H :   -0.021850
   8 H :   -0.025499
   9 H :   -0.033780
  10 H :   -0.030828
  11 H :   -0.039112
  12 H :   -0.035240

  Mayer bond orders larger than 0.100000
B(  0-C ,  2-N ) :   0.8589 B(  0-C ,  6-H ) :   0.9988 B(  0-C ,  7-H ) :   0.9740
B(  0-C ,  8-H ) :   0.8978 B(  1-C ,  5-S ) :   1.0794 B(  1-C ,  9-H ) :   0.9342
B(  1-C , 10-H ) :   0.9219 B(  1-C , 11-H ) :   0.9457 B(  2-N ,  5-S ) :   0.8267
B(  2-N , 12-H ) :   1.1824 B(  3-O ,  4-O ) :   0.1101 B(  3-O ,  5-S ) :   0.8085
B(  4-O ,  5-S ) :   0.8160

MP2 TOTAL ENERGY:     -682.502777722 Eh
FINAL SINGLE POINT ENERGY      -682.502777722238

DIPOLE MOMENT
-------------
                                X             Y             Z
Electronic contribution:     -4.55328      -4.24480       1.25687
Nuclear contribution   :      5.80485       5.82951      -2.31451
                        -----------------------------------------
Total Dipole Moment    :      1.25157       1.58471      -1.05764
                        -----------------------------------------
Magnitude (a.u.)       :      2.27955
Magnitude (Debye)      :      5.79415

Rotational constants in cm-1:     0.142529     0.082638     0.079731
Rotational constants in MHz :  4272.921255  2477.435554  2390.267053

                             ****ORCA TERMINATED NORMALLY****
TOTAL RUN TIME: 0 days 0 hours 0 minutes 33 seconds 787 msec
