                         Program Version 5.0.3 -  RELEASE  -
|  1> !ri-mp2 aug-cc-pvdz aug-cc-pvdz/c tightscf
|  2> %pal nprocs 16 end
|  3>
|  4> * xyz 0 1
|  5> C      0.504007    0.162021   -0.000522
|  6> C      1.815083   -0.581550    0.000816
|  7> C     -1.959986   -0.145515    0.001321
|  8> N      0.504425    1.442302    0.000085
|  9> N     -0.605061   -0.647080   -0.003604
| 10> H      1.900600   -1.219398    0.883090
| 11> H      1.902657   -1.218859   -0.881594
| 12> H      2.630056    0.134963    0.002108
| 13> H     -2.164863    0.459162    0.889530
| 14> H     -2.648126   -0.987714   -0.000986
| 15> H     -2.167537    0.465376   -0.881811
| 16> H     -0.436074    1.830537   -0.000616
| 17> H     -0.466885   -1.640362    0.005221
| 18> *
| 19>
| 20>                          ****END OF INPUT****

CARTESIAN COORDINATES (ANGSTROEM)
---------------------------------
  C      0.504007    0.162021   -0.000522
  C      1.815083   -0.581550    0.000816
  C     -1.959986   -0.145515    0.001321
  N      0.504425    1.442302    0.000085
  N     -0.605061   -0.647080   -0.003604
  H      1.900600   -1.219398    0.883090
  H      1.902657   -1.218859   -0.881594
  H      2.630056    0.134963    0.002108
  H     -2.164863    0.459162    0.889530
  H     -2.648126   -0.987714   -0.000986
  H     -2.167537    0.465376   -0.881811
  H     -0.436074    1.830537   -0.000616
  H     -0.466885   -1.640362    0.005221

 Total Charge           Charge          ....    0
 Multiplicity           Mult            ....    1
 Number of Electrons    NEL             ....   40
 Basis Dimension        Dim             ....  187

ORBITAL ENERGIES
----------------

  NO   OCC          E(Eh)            E(eV)
   0   2.0000     -15.583486      -424.0482
   1   2.0000     -15.519941      -422.3191
   2   2.0000     -11.315457      -307.9092
   3   2.0000     -11.273669      -306.7721
   4   2.0000     -11.231439      -305.6230
   5   2.0000      -1.272905       -34.6375
   6   2.0000      -1.148605       -31.2551
   7   2.0000      -1.002696       -27.2847
   8   2.0000      -0.930083       -25.3088
   9   2.0000      -0.771668       -20.9981
  10   2.0000      -0.704033       -19.1577
  11   2.0000      -0.661715       -18.0062
  12   2.0000      -0.625262       -17.0143
  13   2.0000      -0.576487       -15.6870
  14   2.0000      -0.561757       -15.2862
  15   2.0000      -0.543620       -14.7926
  16   2.0000      -0.535973       -14.5846
  17   2.0000      -0.463361       -12.6087
  18   2.0000      -0.413031       -11.2392
  19   2.0000      -0.350185        -9.5290
  20   0.0000       0.028941         0.7875
  21   0.0000       0.043452         1.1824
  22   0.0000       0.049392         1.3440
  23   0.0000       0.053832         1.4648
  24   0.0000       0.065416         1.7800

MULLIKEN ATOMIC CHARGES
-----------------------
   0 C :    0.492609
   1 C :    0.503892
   2 C :    0.750093
   3 N :   -0.564250
   4 N :   -0.558093
   5 H :    0.011145
   6 H :    0.013348
   7 H :   -0.064458
   8 H :   -0.066038
   9 H :   -0.256848
  10 H :   -0.067735
  11 H :   -0.051652
  12 H :   -0.142014
Sum of atomic charges:   -0.0000000

LOEWDIN ATOMIC CHARGES
----------------------
   0 C :   -0.367274
   1 C :    0.194250
   2 C :    0.160107
   3 N :    0.151624
   4 N :    0.049329
   5 H :   -0.009550
   6 H :   -0.009453
   7 H :   -0.011235
   8 H :   -0.010375
   9 H :   -0.014892
  10 H :   -0.010474
  11 H :   -0.117332
  12 H :   -0.004726

  Mayer bond orders larger than 0.100000
B(  0-C ,  1-C ) :   1.1696 B(  0-C ,  3-N ) :   1.6481 B(  0-C ,  4-N ) :   0.8867
B(  0-C ,  7-H ) :   0.2096 B(  0-C , 12-H ) :  -0.1259 B(  1-C ,  5-H ) :   0.9206
B(  1-C ,  6-H ) :   0.9213 B(  1-C ,  7-H ) :   0.8005 B(  2-C ,  4-N ) :   0.8800
B(  2-C ,  8-H ) :   0.9230 B(  2-C ,  9-H ) :   1.0192 B(  2-C , 10-H ) :   0.9267
B(  3-N , 11-H ) :   1.0464 B(  4-N , 12-H ) :   1.1575

MP2 TOTAL ENERGY:     -227.972453378 Eh
FINAL SINGLE POINT ENERGY      -227.972453377666

DIPOLE MOMENT
-------------
                                X             Y             Z
Electronic contribution:      0.72732       0.97139      -0.00952
Nuclear contribution   :     -1.51136      -2.26233       0.01554
                        -----------------------------------------
Total Dipole Moment    :     -0.78404      -1.29094       0.00602
                        -----------------------------------------
Magnitude (a.u.)       :      1.51039
Magnitude (Debye)      :      3.83911

Rotational constants in cm-1:     0.317633     0.127761     0.094326
Rotational constants in MHz :  9522.406597  3830.176496  2827.817733

                             ****ORCA TERMINATED NORMALLY****
TOTAL RUN TIME: 0 days 0 hours 0 minutes 27 seconds 262 msec
