                         Program Version 5.0.3 -  RELEASE  -
|  1> !ri-mp2 aug-cc-pvdz aug-cc-pvdz/c tightscf
|  2> %pal nprocs 16 end
|  3>
|  4> * xyz 0 1
|  5> H      2.546292    0.664510    0.165310
|  6> O      1.231997   -1.340449   -0.051260
|  7> C      0.759803   -0.212659   -0.016985
|  8> N     -0.589131    0.040718   -0.042504
|  9> H      1.276432    1.747193    0.451488
| 10> N      1.584512    0.906330   -0.005452
| 11> H     -2.218134   -1.068197   -0.768577
| 12> H     -2.090342   -1.011668    0.999406
| 13> H     -0.951852   -1.996650    0.058184
| 14> C     -1.517068   -1.071094    0.069328
| 15> H     -1.231220    1.809057    0.957610
| 16> H     -2.152797    1.337971   -0.470531
| 17> H     -0.559592    2.045476   -0.673917
| 18> C     -1.149808    1.378179   -0.047877
| 19> *
| 20>
| 21>                          ****END OF INPUT****

CARTESIAN COORDINATES (ANGSTROEM)
---------------------------------
  H      2.546292    0.664510    0.165310
  O      1.231997   -1.340449   -0.051260
  C      0.759803   -0.212659   -0.016985
  N     -0.589131    0.040718   -0.042504
  H      1.276432    1.747193    0.451488
  N      1.584512    0.906330   -0.005452
  H     -2.218134   -1.068197   -0.768577
  H     -2.090342   -1.011668    0.999406
  H     -0.951852   -1.996650    0.058184
  C     -1.517068   -1.071094    0.069328
  H     -1.231220    1.809057    0.957610
  H     -2.152797    1.337971   -0.470531
  H     -0.559592    2.045476   -0.673917
  C     -1.149808    1.378179   -0.047877

 Total Charge           Charge          ....    0
 Multiplicity           Mult            ....    1
 Number of Electrons    NEL             ....   48
 Basis Dimension        Dim             ....  210

ORBITAL ENERGIES
----------------

  NO   OCC          E(Eh)            E(eV)
   0   2.0000     -20.511972      -558.1591
   1   2.0000     -15.589647      -424.2159
   2   2.0000     -15.584240      -424.0687
   3   2.0000     -11.379545      -309.6532
   4   2.0000     -11.278931      -306.9153
   5   2.0000     -11.259415      -306.3842
   6   2.0000      -1.388644       -37.7869
   7   2.0000      -1.252033       -34.0696
   8   2.0000      -1.194044       -32.4916
   9   2.0000      -0.979206       -26.6456
  10   2.0000      -0.937256       -25.5040
  11   2.0000      -0.770740       -20.9729
  12   2.0000      -0.735540       -20.0151
  13   2.0000      -0.683728       -18.6052
  14   2.0000      -0.658658       -17.9230
  15   2.0000      -0.624760       -17.0006
  16   2.0000      -0.592125       -16.1125
  17   2.0000      -0.566589       -15.4177
  18   2.0000      -0.562889       -15.3170
  19   2.0000      -0.556612       -15.1462
  20   2.0000      -0.531654       -14.4670
  21   2.0000      -0.437593       -11.9075
  22   2.0000      -0.415273       -11.3002
  23   2.0000      -0.372019       -10.1232
  24   0.0000       0.027794         0.7563
  25   0.0000       0.039976         1.0878
  26   0.0000       0.047634         1.2962
  27   0.0000       0.051208         1.3934
  28   0.0000       0.065668         1.7869

MULLIKEN ATOMIC CHARGES
-----------------------
   0 H :   -0.020343
   1 O :   -0.745859
   2 C :    0.931839
   3 N :   -0.631744
   4 H :   -0.018762
   5 N :   -0.215879
   6 H :   -0.110119
   7 H :   -0.043679
   8 H :   -0.228239
   9 C :    0.693723
  10 H :   -0.073696
  11 H :   -0.205544
  12 H :   -0.157025
  13 C :    0.825327
Sum of atomic charges:    0.0000000

LOEWDIN ATOMIC CHARGES
----------------------
   0 H :   -0.015862
   1 O :    0.011470
   2 C :   -0.392136
   3 N :   -0.132603
   4 H :   -0.041523
   5 N :    0.278449
   6 H :   -0.010920
   7 H :   -0.008121
   8 H :   -0.024591
   9 C :    0.189702
  10 H :   -0.004422
  11 H :   -0.010628
  12 H :   -0.015393
  13 C :    0.176578

  Mayer bond orders larger than 0.100000
B(  0-H ,  5-N ) :   1.0600 B(  1-O ,  2-C ) :   1.4957 B(  2-C ,  3-N ) :   1.1184
B(  2-C ,  5-N ) :   0.9611 B(  3-N ,  9-C ) :   0.9229 B(  3-N , 13-C ) :   0.8242
B(  4-H ,  5-N ) :   1.0752 B(  6-H ,  9-C ) :   0.9453 B(  7-H ,  9-C ) :   0.9017
B(  8-H ,  9-C ) :   1.0453 B( 10-H , 13-C ) :   0.8683 B( 11-H , 13-C ) :   1.0197
B( 12-H , 13-C ) :   0.9939

MP2 TOTAL ENERGY:     -303.067384142 Eh
FINAL SINGLE POINT ENERGY      -303.067384142499

DIPOLE MOMENT
-------------
                                X             Y             Z
Electronic contribution:      4.67003      -2.11655      -0.32921
Nuclear contribution   :     -5.47980       3.59334       0.73448
                        -----------------------------------------
Total Dipole Moment    :     -0.80977       1.47679       0.40528
                        -----------------------------------------
Magnitude (a.u.)       :      1.73230
Magnitude (Debye)      :      4.40317

Rotational constants in cm-1:     0.169294     0.117604     0.071510
Rotational constants in MHz :  5075.318994  3525.668776  2143.801467

                             ****ORCA TERMINATED NORMALLY****
TOTAL RUN TIME: 0 days 0 hours 0 minutes 36 seconds 489 msec
