                         Program Version 5.0.3 -  RELEASE  -
|  1> !ri-mp2 aug-cc-pvdz aug-cc-pvdz/c tightscf
|  2> %pal nprocs 16 end
|  3>
|  4> * xyz 0 1
|  5> Cl    -1.403966    1.580358   -0.186597
|  6> Cl    -2.213265   -1.174993   -0.243708
|  7> O      2.873057    0.758059   -0.738556
|  8> O      2.277698   -1.354913   -0.264765
|  9> N     -0.804970   -0.095332   -0.210337
| 10> C     -0.056679   -0.361932    1.040612
| 11> C      1.277873    0.375527    1.029972
| 12> C      2.216236   -0.012637   -0.091722
| 13> H      2.900728   -1.522198   -0.987239
| 14> H      0.107577   -1.437333    1.044710
| 15> H     -0.639389   -0.090423    1.923058
| 16> H      1.143470    1.452829    0.989941
| 17> H      1.784708    0.142322    1.970482
| 18> *
| 19>
| 20>                          ****END OF INPUT****

CARTESIAN COORDINATES (ANGSTROEM)
---------------------------------
  Cl    -1.403966    1.580358   -0.186597
  Cl    -2.213265   -1.174993   -0.243708
  O      2.873057    0.758059   -0.738556
  O      2.277698   -1.354913   -0.264765
  N     -0.804970   -0.095332   -0.210337
  C     -0.056679   -0.361932    1.040612
  C      1.277873    0.375527    1.029972
  C      2.216236   -0.012637   -0.091722
  H      2.900728   -1.522198   -0.987239
  H      0.107577   -1.437333    1.044710
  H     -0.639389   -0.090423    1.923058
  H      1.143470    1.452829    0.989941
  H      1.784708    0.142322    1.970482

 Total Charge           Charge          ....    0
 Multiplicity           Mult            ....    1
 Number of Electrons    NEL             ....   80
 Basis Dimension        Dim             ....  237

ORBITAL ENERGIES
----------------

  NO   OCC          E(Eh)            E(eV)
   0   2.0000    -104.876522     -2853.8353
   1   2.0000    -104.875258     -2853.8008
   2   2.0000     -20.631844      -561.4210
   3   2.0000     -20.570798      -559.7599
   4   2.0000     -15.715015      -427.6273
   5   2.0000     -11.407477      -310.4132
   6   2.0000     -11.309302      -307.7418
   7   2.0000     -11.275146      -306.8123
   8   2.0000     -10.599705      -288.4326
   9   2.0000     -10.598536      -288.4008
  10   2.0000      -8.067518      -219.5283
  11   2.0000      -8.066328      -219.4959
  12   2.0000      -8.063490      -219.4187
  13   2.0000      -8.063241      -219.4119
  14   2.0000      -8.062365      -219.3881
  15   2.0000      -8.062084      -219.3805
  16   2.0000      -1.480145       -40.2768
  17   2.0000      -1.377876       -37.4939
  18   2.0000      -1.305599       -35.5272
  19   2.0000      -1.110597       -30.2209
  20   2.0000      -1.101141       -29.9636
  21   2.0000      -0.999956       -27.2102
  22   2.0000      -0.883390       -24.0383
  23   2.0000      -0.825632       -22.4666
  24   2.0000      -0.719841       -19.5879
  25   2.0000      -0.701370       -19.0852
  26   2.0000      -0.681841       -18.5538
  27   2.0000      -0.664925       -18.0935
  28   2.0000      -0.638230       -17.3671
  29   2.0000      -0.621088       -16.9007
  30   2.0000      -0.591368       -16.0919
  31   2.0000      -0.571155       -15.5419
  32   2.0000      -0.548372       -14.9220
  33   2.0000      -0.532704       -14.4956
  34   2.0000      -0.494730       -13.4623
  35   2.0000      -0.482307       -13.1242
  36   2.0000      -0.479016       -13.0347
  37   2.0000      -0.460825       -12.5397
  38   2.0000      -0.455568       -12.3966
  39   2.0000      -0.413924       -11.2634
  40   0.0000       0.031044         0.8448
  41   0.0000       0.041501         1.1293
  42   0.0000       0.051306         1.3961
  43   0.0000       0.054036         1.4704
  44   0.0000       0.061571         1.6754

MULLIKEN ATOMIC CHARGES
-----------------------
   0 Cl:    0.169140
   1 Cl:    0.189557
   2 O :   -0.720823
   3 O :   -0.716087
   4 N :   -0.960610
   5 C :    0.981227
   6 C :    0.072385
   7 C :    1.061513
   8 H :    0.195364
   9 H :   -0.162471
  10 H :   -0.169957
  11 H :   -0.058662
  12 H :    0.119422
Sum of atomic charges:   -0.0000000

LOEWDIN ATOMIC CHARGES
----------------------
   0 Cl:    0.459959
   1 Cl:    0.448282
   2 O :    0.049852
   3 O :    0.202526
   4 N :   -0.676188
   5 C :   -0.179126
   6 C :    0.017526
   7 C :   -0.341483
   8 H :   -0.014816
   9 H :   -0.006640
  10 H :    0.003574
  11 H :    0.002118
  12 H :    0.034416

  Mayer bond orders larger than 0.100000
B(  0-Cl,  4-N ) :   0.8207 B(  1-Cl,  4-N ) :   0.9036 B(  2-O ,  7-C ) :   1.4033
B(  3-O ,  7-C ) :   0.5300 B(  3-O ,  8-H ) :   1.0118 B(  4-N ,  5-C ) :   0.6924
B(  5-C ,  6-C ) :   1.2255 B(  5-C ,  9-H ) :   0.8753 B(  5-C , 10-H ) :   0.8639
B(  6-C ,  7-C ) :   1.0165 B(  6-C , 11-H ) :   0.7753 B(  6-C , 12-H ) :   0.8942
B(  7-C , 11-H ) :   0.1279

MP2 TOTAL ENERGY:    -1240.969668993 Eh
FINAL SINGLE POINT ENERGY     -1240.969668993059

DIPOLE MOMENT
-------------
                                X             Y             Z
Electronic contribution:     -9.94304       1.29429      -4.27774
Nuclear contribution   :     10.03190      -1.94456       5.26819
                        -----------------------------------------
Total Dipole Moment    :      0.08886      -0.65027       0.99045
                        -----------------------------------------
Magnitude (a.u.)       :      1.18816
Magnitude (Debye)      :      3.02007

Rotational constants in cm-1:     0.071385     0.027669     0.022625
Rotational constants in MHz :  2140.079889   829.489333   678.277441

                             ****ORCA TERMINATED NORMALLY****
TOTAL RUN TIME: 0 days 0 hours 0 minutes 49 seconds 255 msec
