                         Program Version 5.0.3 -  RELEASE  -
|  1> !ri-mp2 aug-cc-pvdz aug-cc-pvdz/c tightscf
|  2> %pal nprocs 16 end
|  3>
|  4> * xyz 0 1
|  5> C     -2.139834   -0.710922    0.596826
|  6> C      1.068695   -0.883406   -0.030439
|  7> N     -1.459776   -0.309985   -0.644054
|  8> O      0.011483    1.442982    0.707174
|  9> S      0.021665    0.552366   -0.498920
| 10> H     -1.644773   -1.577025    1.031747
| 11> H     -3.157132   -1.003061    0.342196
| 12> H     -2.170598    0.089547    1.338748
| 13> C      2.503165   -0.427132    0.192491
| 14> H      0.977363   -1.601303   -0.844626
| 15> H      0.639979   -1.306459    0.877147
| 16> H     -2.062842    0.266509   -1.218062
| 17> H      2.551572    0.320870    0.982347
| 18> H      2.931112    0.002810   -0.714236
| 19> H      3.123098   -1.274945    0.485174
| 20> *
| 21>
| 22>                          ****END OF INPUT****

CARTESIAN COORDINATES (ANGSTROEM)
---------------------------------
  C     -2.139834   -0.710922    0.596826
  C      1.068695   -0.883406   -0.030439
  N     -1.459776   -0.309985   -0.644054
  O      0.011483    1.442982    0.707174
  S      0.021665    0.552366   -0.498920
  H     -1.644773   -1.577025    1.031747
  H     -3.157132   -1.003061    0.342196
  H     -2.170598    0.089547    1.338748
  C      2.503165   -0.427132    0.192491
  H      0.977363   -1.601303   -0.844626
  H      0.639979   -1.306459    0.877147
  H     -2.062842    0.266509   -1.218062
  H      2.551572    0.320870    0.982347
  H      2.931112    0.002810   -0.714236
  H      3.123098   -1.274945    0.485174

 Total Charge           Charge          ....    0
 Multiplicity           Mult            ....    1
 Number of Electrons    NEL             ....   58
 Basis Dimension        Dim             ....  223

ORBITAL ENERGIES
----------------

  NO   OCC          E(Eh)            E(eV)
   0   2.0000     -92.094750     -2506.0256
   1   2.0000     -20.516522      -558.2829
   2   2.0000     -15.596202      -424.3942
   3   2.0000     -11.269454      -306.6574
   4   2.0000     -11.268367      -306.6279
   5   2.0000     -11.237415      -305.7856
   6   2.0000      -9.079927      -247.0774
   7   2.0000      -6.762470      -184.0162
   8   2.0000      -6.761299      -183.9843
   9   2.0000      -6.759360      -183.9315
  10   2.0000      -1.349802       -36.7300
  11   2.0000      -1.213490       -33.0207
  12   2.0000      -1.065357       -28.9898
  13   2.0000      -0.958543       -26.0833
  14   2.0000      -0.894451       -24.3393
  15   2.0000      -0.802038       -21.8246
  16   2.0000      -0.683600       -18.6017
  17   2.0000      -0.649160       -17.6645
  18   2.0000      -0.640460       -17.4278
  19   2.0000      -0.605527       -16.4772
  20   2.0000      -0.599302       -16.3078
  21   2.0000      -0.557048       -15.1581
  22   2.0000      -0.540307       -14.7025
  23   2.0000      -0.530246       -14.4287
  24   2.0000      -0.527501       -14.3540
  25   2.0000      -0.502440       -13.6721
  26   2.0000      -0.441140       -12.0040
  27   2.0000      -0.409556       -11.1446
  28   2.0000      -0.366323        -9.9681
  29   0.0000       0.032658         0.8887
  30   0.0000       0.039310         1.0697
  31   0.0000       0.046070         1.2536
  32   0.0000       0.053337         1.4514
  33   0.0000       0.060814         1.6548

MULLIKEN ATOMIC CHARGES
-----------------------
   0 C :    0.788839
   1 C :   -0.121066
   2 N :   -0.816769
   3 O :   -1.191416
   4 S :    1.733830
   5 H :   -0.166998
   6 H :   -0.181070
   7 H :   -0.054651
   8 C :    0.397624
   9 H :   -0.083061
  10 H :   -0.105275
  11 H :   -0.052674
  12 H :   -0.024702
  13 H :   -0.062114
  14 H :   -0.060495
Sum of atomic charges:   -0.0000000

LOEWDIN ATOMIC CHARGES
----------------------
   0 C :    0.093202
   1 C :   -0.207024
   2 N :   -0.213257
   3 O :   -0.546940
   4 S :    1.047859
   5 H :   -0.033539
   6 H :   -0.021183
   7 H :   -0.026544
   8 C :    0.089755
   9 H :   -0.019208
  10 H :   -0.025983
  11 H :   -0.073498
  12 H :   -0.021602
  13 H :   -0.022335
  14 H :   -0.019704

  Mayer bond orders larger than 0.100000
B(  0-C ,  2-N ) :   0.8755 B(  0-C ,  5-H ) :   0.9852 B(  0-C ,  6-H ) :   0.9820
B(  0-C ,  7-H ) :   0.9150 B(  1-C ,  3-O ) :   0.1449 B(  1-C ,  4-S ) :   1.0417
B(  1-C ,  8-C ) :   1.2641 B(  1-C ,  9-H ) :   0.9253 B(  1-C , 10-H ) :   0.8411
B(  2-N ,  3-O ) :   0.1616 B(  2-N ,  4-S ) :   0.7003 B(  2-N , 11-H ) :   1.1678
B(  3-O ,  4-S ) :   0.8063 B(  4-S , 11-H ) :  -0.1069 B(  8-C , 12-H ) :   0.9753
B(  8-C , 13-H ) :   0.9189 B(  8-C , 14-H ) :   0.9184

MP2 TOTAL ENERGY:     -646.638999909 Eh
FINAL SINGLE POINT ENERGY      -646.638999908632

DIPOLE MOMENT
-------------
                                X             Y             Z
Electronic contribution:     -1.42007       4.97847      -2.84646
Nuclear contribution   :      1.19805      -6.17885       2.34096
                        -----------------------------------------
Total Dipole Moment    :     -0.22202      -1.20038      -0.50550
                        -----------------------------------------
Magnitude (a.u.)       :      1.32127
Magnitude (Debye)      :      3.35839

Rotational constants in cm-1:     0.159699     0.065821     0.057414
Rotational constants in MHz :  4787.652070  1973.273807  1721.241594

                             ****ORCA TERMINATED NORMALLY****
TOTAL RUN TIME: 0 days 0 hours 0 minutes 40 seconds 162 msec
