                         Program Version 5.0.3 -  RELEASE  -
|  1> !ri-mp2 aug-cc-pvdz aug-cc-pvdz/c tightscf
|  2> %pal nprocs 16 end
|  3>
|  4> * xyz 0 1
|  5> Cl   -0.701864    1.462003   -0.034783
|  6> O    -2.283438   -0.979375   -0.549331
|  7> N    -0.344081   -0.165493    0.372382
|  8> N     2.914608   -0.191919   -0.838450
|  9> C     0.978044   -0.423781    0.908893
| 10> C    -1.224862   -1.151741   -0.010019
| 11> C     2.060093   -0.287664   -0.076810
| 12> H     1.172647    0.247397    1.745782
| 13> H     0.982654   -1.443332    1.297214
| 14> H    -0.829457   -2.142106    0.273049
| 15> *
| 16>
| 17>                          ****END OF INPUT****

CARTESIAN COORDINATES (ANGSTROEM)
---------------------------------
  Cl    -0.701864    1.462003   -0.034783
  O     -2.283438   -0.979375   -0.549331
  N     -0.344081   -0.165493    0.372382
  N      2.914608   -0.191919   -0.838450
  C      0.978044   -0.423781    0.908893
  C     -1.224862   -1.151741   -0.010019
  C      2.060093   -0.287664   -0.076810
  H      1.172647    0.247397    1.745782
  H      0.982654   -1.443332    1.297214
  H     -0.829457   -2.142106    0.273049

 Total Charge           Charge          ....    0
 Multiplicity           Mult            ....    1
 Number of Electrons    NEL             ....   60
 Basis Dimension        Dim             ....  192

ORBITAL ENERGIES
----------------

  NO   OCC          E(Eh)            E(eV)
   0   2.0000    -104.900438     -2854.4860
   1   2.0000     -20.578511      -559.9698
   2   2.0000     -15.687978      -426.8916
   3   2.0000     -15.611609      -424.8135
   4   2.0000     -11.402796      -310.2859
   5   2.0000     -11.372675      -309.4662
   6   2.0000     -11.308298      -307.7144
   7   2.0000     -10.622811      -289.0614
   8   2.0000      -8.090918      -220.1651
   9   2.0000      -8.086497      -220.0448
  10   2.0000      -8.086177      -220.0361
  11   2.0000      -1.436992       -39.1025
  12   2.0000      -1.329287       -36.1717
  13   2.0000      -1.252216       -34.0745
  14   2.0000      -1.121386       -30.5145
  15   2.0000      -1.043566       -28.3969
  16   2.0000      -0.848463       -23.0878
  17   2.0000      -0.779876       -21.2215
  18   2.0000      -0.741936       -20.1891
  19   2.0000      -0.712122       -19.3778
  20   2.0000      -0.655137       -17.8272
  21   2.0000      -0.624566       -16.9953
  22   2.0000      -0.616118       -16.7654
  23   2.0000      -0.581790       -15.8313
  24   2.0000      -0.528497       -14.3811
  25   2.0000      -0.502714       -13.6795
  26   2.0000      -0.495951       -13.4955
  27   2.0000      -0.490633       -13.3508
  28   2.0000      -0.470370       -12.7994
  29   2.0000      -0.420452       -11.4411
  30   0.0000       0.020503         0.5579
  31   0.0000       0.038606         1.0505
  32   0.0000       0.054527         1.4838
  33   0.0000       0.060802         1.6545
  34   0.0000       0.072109         1.9622

MULLIKEN ATOMIC CHARGES
-----------------------
   0 Cl:    0.325110
   1 O :   -0.617547
   2 N :   -0.861150
   3 N :   -0.274776
   4 C :    0.880734
   5 C :    0.935786
   6 C :   -0.126034
   7 H :   -0.065596
   8 H :   -0.042279
   9 H :   -0.154248
Sum of atomic charges:   -0.0000000

LOEWDIN ATOMIC CHARGES
----------------------
   0 Cl:    0.630400
   1 O :    0.019980
   2 N :   -0.447209
   3 N :    0.087490
   4 C :   -0.058190
   5 C :   -0.186666
   6 C :   -0.128344
   7 H :    0.026326
   8 H :    0.027644
   9 H :    0.028568

  Mayer bond orders larger than 0.100000
B(  0-Cl,  2-N ) :   0.7904 B(  1-O ,  5-C ) :   1.6648 B(  2-N ,  4-C ) :   0.8826
B(  2-N ,  5-C ) :   1.1880 B(  3-N ,  6-C ) :   2.6941 B(  4-C ,  6-C ) :   0.8021
B(  4-C ,  7-H ) :   0.9156 B(  4-C ,  8-H ) :   0.8446 B(  5-C ,  9-H ) :   0.8960

MP2 TOTAL ENERGY:     -759.670549042 Eh
FINAL SINGLE POINT ENERGY      -759.670549042477

DIPOLE MOMENT
-------------
                                X             Y             Z
Electronic contribution:     -1.87275       4.71393      -1.54590
Nuclear contribution   :      2.19531      -5.17886       3.18917
                        -----------------------------------------
Total Dipole Moment    :      0.32257      -0.46493       1.64327
                        -----------------------------------------
Magnitude (a.u.)       :      1.73797
Magnitude (Debye)      :      4.41757

Rotational constants in cm-1:     0.113143     0.050112     0.039876
Rotational constants in MHz :  3391.947746  1502.310993  1195.439011

                             ****ORCA TERMINATED NORMALLY****
TOTAL RUN TIME: 0 days 0 hours 0 minutes 33 seconds 738 msec
