                         Program Version 5.0.3 -  RELEASE  -
|  1> !ri-mp2 aug-cc-pvdz aug-cc-pvdz/c tightscf
|  2> %pal nprocs 16 end
|  3>
|  4> * xyz 0 1
|  5> Cl   -0.857697    1.572767    0.000268
|  6> N    -0.570057   -0.129205   -0.000081
|  7> N     1.743589    0.140834    0.000082
|  8> N    -2.544730   -1.638675   -0.000357
|  9> C     0.749729   -0.615993   -0.000106
| 10> C    -1.632177   -0.928384   -0.000224
| 11> C     3.070199   -0.442365    0.000029
| 12> H     0.755182   -1.709286   -0.000314
| 13> H     3.613291   -0.089928    0.877506
| 14> H     3.613351   -0.089629   -0.877292
| 15> H     3.070905   -1.538419   -0.000158
| 16> *
| 17>
| 18>                          ****END OF INPUT****

CARTESIAN COORDINATES (ANGSTROEM)
---------------------------------
  Cl    -0.857697    1.572767    0.000268
  N     -0.570057   -0.129205   -0.000081
  N      1.743589    0.140834    0.000082
  N     -2.544730   -1.638675   -0.000357
  C      0.749729   -0.615993   -0.000106
  C     -1.632177   -0.928384   -0.000224
  C      3.070199   -0.442365    0.000029
  H      0.755182   -1.709286   -0.000314
  H      3.613291   -0.089928    0.877506
  H      3.613351   -0.089629   -0.877292
  H      3.070905   -1.538419   -0.000158

 Total Charge           Charge          ....    0
 Multiplicity           Mult            ....    1
 Number of Electrons    NEL             ....   60
 Basis Dimension        Dim             ....  201

ORBITAL ENERGIES
----------------

  NO   OCC          E(Eh)            E(eV)
   0   2.0000    -104.908386     -2854.7023
   1   2.0000     -15.706964      -427.4082
   2   2.0000     -15.600086      -424.4999
   3   2.0000     -15.591418      -424.2641
   4   2.0000     -11.365885      -309.2814
   5   2.0000     -11.339735      -308.5699
   6   2.0000     -11.278994      -306.9170
   7   2.0000     -10.630173      -289.2617
   8   2.0000      -8.098325      -220.3666
   9   2.0000      -8.093619      -220.2386
  10   2.0000      -8.093325      -220.2306
  11   2.0000      -1.373809       -37.3833
  12   2.0000      -1.264350       -34.4047
  13   2.0000      -1.227752       -33.4088
  14   2.0000      -1.108455       -30.1626
  15   2.0000      -0.992841       -27.0166
  16   2.0000      -0.873904       -23.7801
  17   2.0000      -0.789452       -21.4821
  18   2.0000      -0.691344       -18.8124
  19   2.0000      -0.667666       -18.1681
  20   2.0000      -0.654958       -17.8223
  21   2.0000      -0.608333       -16.5536
  22   2.0000      -0.583004       -15.8643
  23   2.0000      -0.577857       -15.7243
  24   2.0000      -0.510016       -13.8782
  25   2.0000      -0.508041       -13.8245
  26   2.0000      -0.483804       -13.1650
  27   2.0000      -0.478109       -13.0100
  28   2.0000      -0.443359       -12.0644
  29   2.0000      -0.384859       -10.4725
  30   0.0000       0.029486         0.8023
  31   0.0000       0.046174         1.2565
  32   0.0000       0.051594         1.4039
  33   0.0000       0.055258         1.5037
  34   0.0000       0.062419         1.6985

MULLIKEN ATOMIC CHARGES
-----------------------
   0 Cl:    0.414938
   1 N :   -0.607081
   2 N :   -0.649858
   3 N :   -0.271108
   4 C :    1.193215
   5 C :   -0.151279
   6 C :    0.665593
   7 H :   -0.304854
   8 H :   -0.111197
   9 H :   -0.111191
  10 H :   -0.067178
Sum of atomic charges:    0.0000000

LOEWDIN ATOMIC CHARGES
----------------------
   0 Cl:    0.638418
   1 N :   -0.437465
   2 N :   -0.014815
   3 N :    0.097901
   4 C :   -0.093076
   5 C :   -0.277001
   6 C :    0.116680
   7 H :    0.034862
   8 H :   -0.021228
   9 H :   -0.021227
  10 H :   -0.023049

  Mayer bond orders larger than 0.100000
B(  0-Cl,  1-N ) :   0.7687 B(  1-N ,  4-C ) :   0.8468 B(  1-N ,  5-C ) :   1.1326
B(  2-N ,  4-C ) :   1.9337 B(  2-N ,  6-C ) :   0.8392 B(  3-N ,  5-C ) :   2.7012
B(  4-C ,  5-C ) :  -0.1938 B(  4-C ,  6-C ) :  -0.1410 B(  4-C ,  7-H ) :   0.7576
B(  6-C ,  8-H ) :   0.9637 B(  6-C ,  9-H ) :   0.9637 B(  6-C , 10-H ) :   0.9742

MP2 TOTAL ENERGY:     -739.781840166 Eh
FINAL SINGLE POINT ENERGY      -739.781840166356

DIPOLE MOMENT
-------------
                                X             Y             Z
Electronic contribution:    -10.31878       5.50013       0.00066
Nuclear contribution   :     11.76490      -5.45202      -0.00062
                        -----------------------------------------
Total Dipole Moment    :      1.44611       0.04811       0.00004
                        -----------------------------------------
Magnitude (a.u.)       :      1.44692
Magnitude (Debye)      :      3.67777

Rotational constants in cm-1:     0.112706     0.047795     0.033771
Rotational constants in MHz :  3378.855324  1432.845421  1012.424077

                             ****ORCA TERMINATED NORMALLY****
TOTAL RUN TIME: 0 days 0 hours 0 minutes 31 seconds 780 msec
