                         Program Version 5.0.3 -  RELEASE  -
|  1> !ri-mp2 aug-cc-pvdz aug-cc-pvdz/c tightscf
|  2> %pal nprocs 16 end
|  3>
|  4> * xyz 0 1
|  5> C     0.000000     0.000000    1.385266
|  6> C     0.000000     1.130265    0.339297
|  7> C     0.000000    -1.130265    0.339297
|  8> C     1.252143     0.780951   -0.492266
|  9> C    -1.252143     0.780951   -0.492266
| 10> C    -1.252143    -0.780951   -0.492266
| 11> C     1.252143    -0.780951   -0.492266
| 12> H    -0.887352     0.000000    2.020515
| 13> H     0.887352     0.000000    2.020515
| 14> H     0.000000     2.146851    0.729171
| 15> H     0.000000    -2.146851    0.729171
| 16> H     2.153759     1.172887   -0.019845
| 17> H    -2.153759    -1.172887   -0.019845
| 18> H     2.153759    -1.172887   -0.019845
| 19> H    -2.153759     1.172887   -0.019845
| 20> H     1.204295    -1.201509   -1.497189
| 21> H    -1.204295     1.201509   -1.497189
| 22> H     1.204295     1.201509   -1.497189
| 23> H    -1.204295    -1.201509   -1.497189
| 24> *
| 25>
| 26>                          ****END OF INPUT****

CARTESIAN COORDINATES (ANGSTROEM)
---------------------------------
  C      0.000000    0.000000    1.385266
  C      0.000000    1.130265    0.339297
  C      0.000000   -1.130265    0.339297
  C      1.252143    0.780951   -0.492266
  C     -1.252143    0.780951   -0.492266
  C     -1.252143   -0.780951   -0.492266
  C      1.252143   -0.780951   -0.492266
  H     -0.887352    0.000000    2.020515
  H      0.887352    0.000000    2.020515
  H      0.000000    2.146851    0.729171
  H      0.000000   -2.146851    0.729171
  H      2.153759    1.172887   -0.019845
  H     -2.153759   -1.172887   -0.019845
  H      2.153759   -1.172887   -0.019845
  H     -2.153759    1.172887   -0.019845
  H      1.204295   -1.201509   -1.497189
  H     -1.204295    1.201509   -1.497189
  H      1.204295    1.201509   -1.497189
  H     -1.204295   -1.201509   -1.497189

 Total Charge           Charge          ....    0
 Multiplicity           Mult            ....    1
 Number of Electrons    NEL             ....   54
 Basis Dimension        Dim             ....  269

ORBITAL ENERGIES
----------------

  NO   OCC          E(Eh)            E(eV)
   0   2.0000     -11.221592      -305.3550
   1   2.0000     -11.221582      -305.3548
   2   2.0000     -11.216589      -305.2189
   3   2.0000     -11.216542      -305.2176
   4   2.0000     -11.216060      -305.2045
   5   2.0000     -11.216019      -305.2034
   6   2.0000     -11.214483      -305.1616
   7   2.0000      -1.160167       -31.5697
   8   2.0000      -0.995925       -27.1005
   9   2.0000      -0.976904       -26.5829
  10   2.0000      -0.939327       -25.5604
  11   2.0000      -0.821077       -22.3426
  12   2.0000      -0.753701       -20.5093
  13   2.0000      -0.726577       -19.7712
  14   2.0000      -0.675877       -18.3915
  15   2.0000      -0.633828       -17.2473
  16   2.0000      -0.625071       -17.0090
  17   2.0000      -0.544676       -14.8214
  18   2.0000      -0.541033       -14.7223
  19   2.0000      -0.501175       -13.6377
  20   2.0000      -0.491347       -13.3702
  21   2.0000      -0.481147       -13.0927
  22   2.0000      -0.463453       -12.6112
  23   2.0000      -0.460674       -12.5356
  24   2.0000      -0.441119       -12.0035
  25   2.0000      -0.427550       -11.6342
  26   2.0000      -0.415124       -11.2961
  27   0.0000       0.035688         0.9711
  28   0.0000       0.043263         1.1772
  29   0.0000       0.046581         1.2675
  30   0.0000       0.047156         1.2832
  31   0.0000       0.061082         1.6621

MULLIKEN ATOMIC CHARGES
-----------------------
   0 C :    1.020239
   1 C :   -0.201507
   2 C :   -0.201507
   3 C :    0.539304
   4 C :    0.539304
   5 C :    0.539304
   6 C :    0.539304
   7 H :   -0.234215
   8 H :   -0.234215
   9 H :   -0.299318
  10 H :   -0.299318
  11 H :   -0.204179
  12 H :   -0.204179
  13 H :   -0.204179
  14 H :   -0.204179
  15 H :   -0.222665
  16 H :   -0.222665
  17 H :   -0.222665
  18 H :   -0.222665
Sum of atomic charges:    0.0000000

LOEWDIN ATOMIC CHARGES
----------------------
   0 C :    0.037011
   1 C :   -0.176134
   2 C :   -0.176134
   3 C :    0.033781
   4 C :    0.033781
   5 C :    0.033781
   6 C :    0.033781
   7 H :    0.020682
   8 H :    0.020682
   9 H :    0.033763
  10 H :    0.033763
  11 H :    0.009527
  12 H :    0.009527
  13 H :    0.009527
  14 H :    0.009527
  15 H :    0.008283
  16 H :    0.008283
  17 H :    0.008283
  18 H :    0.008283

  Mayer bond orders larger than 0.100000
B(  0-C ,  1-C ) :   1.0569 B(  0-C ,  2-C ) :   1.0569 B(  0-C ,  7-H ) :   0.6276
B(  0-C ,  8-H ) :   0.6276 B(  1-C ,  2-C ) :  -0.1396 B(  1-C ,  3-C ) :   1.0984
B(  1-C ,  4-C ) :   1.0984 B(  1-C ,  7-H ) :   0.1178 B(  1-C ,  8-H ) :   0.1178
B(  1-C ,  9-H ) :   0.4498 B(  1-C , 11-H ) :   0.1211 B(  1-C , 14-H ) :   0.1211
B(  2-C ,  5-C ) :   1.0984 B(  2-C ,  6-C ) :   1.0984 B(  2-C ,  7-H ) :   0.1178
B(  2-C ,  8-H ) :   0.1178 B(  2-C , 10-H ) :   0.4498 B(  2-C , 12-H ) :   0.1211
B(  2-C , 13-H ) :   0.1211 B(  3-C ,  6-C ) :   1.2904 B(  3-C , 11-H ) :   0.6891
B(  3-C , 17-H ) :   0.7205 B(  4-C ,  5-C ) :   1.2904 B(  4-C , 14-H ) :   0.6891
B(  4-C , 16-H ) :   0.7205 B(  5-C , 12-H ) :   0.6891 B(  5-C , 18-H ) :   0.7205
B(  6-C , 13-H ) :   0.6891 B(  6-C , 15-H ) :   0.7205 B(  7-H ,  8-H ) :  -0.2743
B( 11-H , 17-H ) :  -0.2308 B( 12-H , 18-H ) :  -0.2308 B( 13-H , 15-H ) :  -0.2308
B( 14-H , 16-H ) :  -0.2308

MP2 TOTAL ENERGY:     -273.110860464 Eh
FINAL SINGLE POINT ENERGY      -273.110860464432

DIPOLE MOMENT
-------------
                                X             Y             Z
Electronic contribution:      0.00000       0.00000       0.63185
Nuclear contribution   :      0.00000       0.00000      -0.59977
                        -----------------------------------------
Total Dipole Moment    :      0.00000       0.00000       0.03208
                        -----------------------------------------
Magnitude (a.u.)       :      0.03208
Magnitude (Debye)      :      0.08154

Rotational constants in cm-1:     0.123551     0.107196     0.092567
Rotational constants in MHz :  3703.952102  3213.665698  2775.086773

                             ****ORCA TERMINATED NORMALLY****
TOTAL RUN TIME: 0 days 0 hours 1 minutes 20 seconds 532 msec
