                         Program Version 5.0.3 -  RELEASE  -
|  1> !ri-mp2 aug-cc-pvdz aug-cc-pvdz/c tightscf
|  2> %pal nprocs 16 end
|  3> %maxcore 3800
|  4>
|  5> * xyz 0 1
|  6> C      2.998166   -0.117026    0.186742
|  7> C      2.250260   -1.206555   -0.245165
|  8> C      2.377431    1.120060    0.328290
|  9> C      0.896545   -1.067455   -0.525584
| 10> C      1.027004    1.269555    0.042344
| 11> C      0.267676    0.172124   -0.374549
| 12> C     -2.052493    0.014676    0.007335
| 13> C     -3.450793    0.232807   -0.503277
| 14> C     -1.944865   -0.582860    1.389174
| 15> N     -1.078820    0.350050   -0.736188
| 16> H      4.051545   -0.228318    0.403476
| 17> H      2.721570   -2.173091   -0.366506
| 18> H      2.949124    1.977574    0.658099
| 19> H      0.319634   -1.913528   -0.874264
| 20> H      0.548756    2.235247    0.134308
| 21> H     -4.006387    0.889434    0.170715
| 22> H     -3.995891   -0.713622   -0.539447
| 23> H     -3.427654    0.672409   -1.496672
| 24> H     -2.429938   -1.561221    1.412890
| 25> H     -2.478210    0.046473    2.105055
| 26> H     -0.914394   -0.693657    1.713800
| 27> *
| 28>
| 29>                          ****END OF INPUT****

CARTESIAN COORDINATES (ANGSTROEM)
---------------------------------
  C      2.998166   -0.117026    0.186742
  C      2.250260   -1.206555   -0.245165
  C      2.377431    1.120060    0.328290
  C      0.896545   -1.067455   -0.525584
  C      1.027004    1.269555    0.042344
  C      0.267676    0.172124   -0.374549
  C     -2.052493    0.014676    0.007335
  C     -3.450793    0.232807   -0.503277
  C     -1.944865   -0.582860    1.389174
  N     -1.078820    0.350050   -0.736188
  H      4.051545   -0.228318    0.403476
  H      2.721570   -2.173091   -0.366506
  H      2.949124    1.977574    0.658099
  H      0.319634   -1.913528   -0.874264
  H      0.548756    2.235247    0.134308
  H     -4.006387    0.889434    0.170715
  H     -3.995891   -0.713622   -0.539447
  H     -3.427654    0.672409   -1.496672
  H     -2.429938   -1.561221    1.412890
  H     -2.478210    0.046473    2.105055
  H     -0.914394   -0.693657    1.713800

 Total Charge           Charge          ....    0
 Multiplicity           Mult            ....    1
 Number of Electrons    NEL             ....   72
 Basis Dimension        Dim             ....  329

ORBITAL ENERGIES
----------------

  NO   OCC          E(Eh)            E(eV)
   0   2.0000     -15.560564      -423.4245
   1   2.0000     -11.301465      -307.5285
   2   2.0000     -11.271226      -306.7057
   3   2.0000     -11.238447      -305.8137
   4   2.0000     -11.237824      -305.7967
   5   2.0000     -11.237459      -305.7868
   6   2.0000     -11.233305      -305.6738
   7   2.0000     -11.229681      -305.5752
   8   2.0000     -11.228640      -305.5468
   9   2.0000     -11.228241      -305.5360
  10   2.0000      -1.253020       -34.0964
  11   2.0000      -1.143299       -31.1108
  12   2.0000      -1.047694       -28.5092
  13   2.0000      -1.013524       -27.5794
  14   2.0000      -0.983539       -26.7635
  15   2.0000      -0.958094       -26.0711
  16   2.0000      -0.834720       -22.7139
  17   2.0000      -0.826056       -22.4781
  18   2.0000      -0.743558       -20.2332
  19   2.0000      -0.683231       -18.5917
  20   2.0000      -0.655344       -17.8328
  21   2.0000      -0.634314       -17.2606
  22   2.0000      -0.621211       -16.9040
  23   2.0000      -0.607262       -16.5244
  24   2.0000      -0.603243       -16.4151
  25   2.0000      -0.581924       -15.8350
  26   2.0000      -0.554555       -15.0902
  27   2.0000      -0.550386       -14.9768
  28   2.0000      -0.524516       -14.2728
  29   2.0000      -0.514135       -13.9903
  30   2.0000      -0.497755       -13.5446
  31   2.0000      -0.493731       -13.4351
  32   2.0000      -0.422167       -11.4878
  33   2.0000      -0.411074       -11.1859
  34   2.0000      -0.334270        -9.0959
  35   2.0000      -0.305237        -8.3059
  36   0.0000       0.033000         0.8980
  37   0.0000       0.039817         1.0835
  38   0.0000       0.041805         1.1376
  39   0.0000       0.048038         1.3072
  40   0.0000       0.053093         1.4447

MULLIKEN ATOMIC CHARGES
-----------------------
   0 C :    0.526488
   1 C :    0.783139
   2 C :    0.736423
   3 C :    0.523742
   4 C :    0.408319
   5 C :    0.643003
   6 C :   -1.110541
   7 C :    0.519188
   8 C :    0.693381
   9 N :   -0.898212
  10 H :   -0.455531
  11 H :   -0.462323
  12 H :   -0.452749
  13 H :   -0.585173
  14 H :   -0.571972
  15 H :    0.045228
  16 H :    0.044744
  17 H :   -0.162605
  18 H :    0.006180
  19 H :   -0.012948
  20 H :   -0.217781
Sum of atomic charges:   -0.0000000

LOEWDIN ATOMIC CHARGES
----------------------
   0 C :   -0.004480
   1 C :    0.004078
   2 C :    0.004845
   3 C :    0.048052
   4 C :    0.050827
   5 C :   -0.248407
   6 C :   -0.267829
   7 C :    0.185685
   8 C :    0.200552
   9 N :    0.072737
  10 H :   -0.006088
  11 H :   -0.000067
  12 H :    0.000124
  13 H :    0.006208
  14 H :    0.005413
  15 H :   -0.008378
  16 H :   -0.007911
  17 H :   -0.010483
  18 H :   -0.002924
  19 H :   -0.003743
  20 H :   -0.018211

  Mayer bond orders larger than 0.100000
B(  0-C ,  1-C ) :   1.6874 B(  0-C ,  2-C ) :   1.7246 B(  0-C ,  3-C ) :   0.1676
B(  0-C ,  4-C ) :   0.1561 B(  0-C , 10-H ) :   0.2624 B(  0-C , 11-H ) :   0.1582
B(  0-C , 12-H ) :   0.1533 B(  1-C ,  2-C ) :  -0.1280 B(  1-C ,  3-C ) :   1.7789
B(  1-C ,  4-C ) :   0.1277 B(  1-C ,  5-C ) :  -0.3119 B(  1-C , 10-H ) :   0.2368
B(  1-C , 11-H ) :   0.1655 B(  1-C , 13-H ) :   0.1236 B(  2-C ,  3-C ) :   0.2066
B(  2-C ,  4-C ) :   1.7976 B(  2-C ,  5-C ) :  -0.4116 B(  2-C , 10-H ) :   0.2222
B(  2-C , 11-H ) :  -0.1144 B(  2-C , 12-H ) :   0.2143 B(  3-C ,  4-C ) :   0.2952
B(  3-C ,  5-C ) :   1.5617 B(  3-C , 11-H ) :   0.4134 B(  3-C , 13-H ) :  -0.1108
B(  4-C ,  5-C ) :   1.7753 B(  4-C ,  6-C ) :   0.1350 B(  4-C , 12-H ) :   0.3916
B(  5-C ,  6-C ) :  -0.7480 B(  5-C ,  7-C ) :   0.2446 B(  5-C ,  9-N ) :   0.2820
B(  5-C , 13-H ) :   0.6084 B(  5-C , 14-H ) :   0.5598 B(  6-C ,  7-C ) :   1.2922
B(  6-C ,  8-C ) :   1.1644 B(  6-C ,  9-N ) :   2.1388 B(  6-C , 14-H ) :   0.1276
B(  6-C , 17-H ) :   0.3611 B(  6-C , 20-H ) :   0.2782 B(  7-C ,  8-C ) :  -0.1316
B(  7-C , 15-H ) :   0.8918 B(  7-C , 16-H ) :   0.8802 B(  7-C , 17-H ) :   0.7368
B(  8-C , 18-H ) :   0.9007 B(  8-C , 19-H ) :   0.8590 B(  8-C , 20-H ) :   0.8084

MP2 TOTAL ENERGY:     -403.118221015 Eh
FINAL SINGLE POINT ENERGY      -403.118221015471

DIPOLE MOMENT
-------------
                                X             Y             Z
Electronic contribution:      6.18581       1.17012      -2.65785
Nuclear contribution   :     -6.76967      -1.48247       3.36762
                        -----------------------------------------
Total Dipole Moment    :     -0.58386      -0.31235       0.70977
                        -----------------------------------------
Magnitude (a.u.)       :      0.97068
Magnitude (Debye)      :      2.46727

Rotational constants in cm-1:     0.112778     0.025545     0.024085
Rotational constants in MHz :  3380.990729   765.826538   722.046256

                             ****ORCA TERMINATED NORMALLY****
TOTAL RUN TIME: 0 days 0 hours 1 minutes 34 seconds 445 msec
