                         Program Version 5.0.3 -  RELEASE  -
|  1> !ri-mp2 aug-cc-pvdz aug-cc-pvdz/c tightscf
|  2> %pal nprocs 16 end
|  3> %maxcore 3800
|  4>
|  5> * xyz 0 1
|  6> C      0.000000    0.000000    0.713923
|  7> C      0.000000    1.240542    1.396864
|  8> C      0.000000   -1.240542    1.396864
|  9> C      0.000000    2.423616    0.705779
| 10> C      0.000000    2.423616   -0.705779
| 11> C      0.000000    1.240542   -1.396864
| 12> C      0.000000   -2.423616    0.705779
| 13> C      0.000000   -2.423616   -0.705779
| 14> C      0.000000   -1.240542   -1.396864
| 15> C      0.000000    0.000000   -0.713923
| 16> H      0.000000   -3.364265    1.240162
| 17> H      0.000000   -3.364265   -1.240162
| 18> H      0.000000    3.364265   -1.240162
| 19> H      0.000000    3.364265    1.240162
| 20> H      0.000000    1.239118   -2.479712
| 21> H      0.000000   -1.239118    2.479712
| 22> H      0.000000   -1.239118   -2.479712
| 23> H      0.000000    1.239118    2.479712
| 24> *
| 25>
| 26>                          ****END OF INPUT****

CARTESIAN COORDINATES (ANGSTROEM)
---------------------------------
  C      0.000000    0.000000    0.713923
  C      0.000000    1.240542    1.396864
  C      0.000000   -1.240542    1.396864
  C      0.000000    2.423616    0.705779
  C      0.000000    2.423616   -0.705779
  C      0.000000    1.240542   -1.396864
  C      0.000000   -2.423616    0.705779
  C      0.000000   -2.423616   -0.705779
  C      0.000000   -1.240542   -1.396864
  C      0.000000    0.000000   -0.713923
  H      0.000000   -3.364265    1.240162
  H      0.000000   -3.364265   -1.240162
  H      0.000000    3.364265   -1.240162
  H      0.000000    3.364265    1.240162
  H      0.000000    1.239118   -2.479712
  H      0.000000   -1.239118    2.479712
  H      0.000000   -1.239118   -2.479712
  H      0.000000    1.239118    2.479712

 Total Charge           Charge          ....    0
 Multiplicity           Mult            ....    1
 Number of Electrons    NEL             ....   68
 Basis Dimension        Dim             ....  302

ORBITAL ENERGIES
----------------

  NO   OCC          E(Eh)            E(eV)
   0   2.0000     -11.248906      -306.0983
   1   2.0000     -11.247896      -306.0708
   2   2.0000     -11.242898      -305.9348
   3   2.0000     -11.242850      -305.9335
   4   2.0000     -11.242546      -305.9252
   5   2.0000     -11.242446      -305.9225
   6   2.0000     -11.241536      -305.8977
   7   2.0000     -11.241486      -305.8964
   8   2.0000     -11.240837      -305.8787
   9   2.0000     -11.240816      -305.8781
  10   2.0000      -1.181733       -32.1566
  11   2.0000      -1.114965       -30.3397
  12   2.0000      -1.055094       -28.7106
  13   2.0000      -1.012874       -27.5617
  14   2.0000      -0.985850       -26.8264
  15   2.0000      -0.857840       -23.3430
  16   2.0000      -0.840086       -22.8599
  17   2.0000      -0.814739       -22.1702
  18   2.0000      -0.709277       -19.3004
  19   2.0000      -0.702587       -19.1184
  20   2.0000      -0.680861       -18.5272
  21   2.0000      -0.625242       -17.0137
  22   2.0000      -0.613779       -16.7018
  23   2.0000      -0.587070       -15.9750
  24   2.0000      -0.585371       -15.9287
  25   2.0000      -0.566231       -15.4079
  26   2.0000      -0.534988       -14.5578
  27   2.0000      -0.525605       -14.3024
  28   2.0000      -0.490313       -13.3421
  29   2.0000      -0.477578       -12.9956
  30   2.0000      -0.450130       -12.2487
  31   2.0000      -0.387037       -10.5318
  32   2.0000      -0.320267        -8.7149
  33   2.0000      -0.290232        -7.8976
  34   0.0000       0.035316         0.9610
  35   0.0000       0.037401         1.0177
  36   0.0000       0.038921         1.0591
  37   0.0000       0.050681         1.3791
  38   0.0000       0.053038         1.4432

MULLIKEN ATOMIC CHARGES
-----------------------
   0 C :    0.899526
   1 C :    0.604265
   2 C :    0.604265
   3 C :    0.014037
   4 C :    0.014037
   5 C :    0.604265
   6 C :    0.014037
   7 C :    0.014037
   8 C :    0.604265
   9 C :    0.899526
  10 H :   -0.477117
  11 H :   -0.477117
  12 H :   -0.477117
  13 H :   -0.477117
  14 H :   -0.590949
  15 H :   -0.590949
  16 H :   -0.590949
  17 H :   -0.590949
Sum of atomic charges:   -0.0000000

LOEWDIN ATOMIC CHARGES
----------------------
   0 C :   -0.137608
   1 C :    0.050363
   2 C :    0.050363
   3 C :    0.011603
   4 C :    0.011603
   5 C :    0.050363
   6 C :    0.011603
   7 C :    0.011603
   8 C :    0.050363
   9 C :   -0.137608
  10 H :   -0.000101
  11 H :   -0.000101
  12 H :   -0.000101
  13 H :   -0.000101
  14 H :    0.006940
  15 H :    0.006940
  16 H :    0.006940
  17 H :    0.006940

  Mayer bond orders larger than 0.100000
B(  0-C ,  1-C ) :   1.7670 B(  0-C ,  2-C ) :   1.7670 B(  0-C ,  3-C ) :  -0.6994
B(  0-C ,  4-C ) :  -0.3141 B(  0-C ,  5-C ) :  -1.6209 B(  0-C ,  6-C ) :  -0.6994
B(  0-C ,  7-C ) :  -0.3141 B(  0-C ,  8-C ) :  -1.6209 B(  0-C ,  9-C ) :   3.9027
B(  0-C , 10-H ) :   0.1442 B(  0-C , 13-H ) :   0.1442 B(  0-C , 15-H ) :   0.9566
B(  0-C , 17-H ) :   0.9566 B(  1-C ,  2-C ) :  -1.9603 B(  1-C ,  3-C ) :   1.5776
B(  1-C ,  4-C ) :   0.1539 B(  1-C ,  5-C ) :   0.4512 B(  1-C ,  6-C ) :   0.4729
B(  1-C ,  7-C ) :  -0.1840 B(  1-C ,  8-C ) :   0.3402 B(  1-C ,  9-C ) :  -1.6209
B(  1-C , 13-H ) :   0.4492 B(  1-C , 15-H ) :  -0.2132 B(  1-C , 17-H ) :  -0.4232
B(  2-C ,  3-C ) :   0.4729 B(  2-C ,  4-C ) :  -0.1840 B(  2-C ,  5-C ) :   0.3402
B(  2-C ,  6-C ) :   1.5776 B(  2-C ,  7-C ) :   0.1539 B(  2-C ,  8-C ) :   0.4512
B(  2-C ,  9-C ) :  -1.6209 B(  2-C , 10-H ) :   0.4492 B(  2-C , 15-H ) :  -0.4232
B(  2-C , 17-H ) :  -0.2132 B(  3-C ,  4-C ) :   2.0234 B(  3-C ,  5-C ) :   0.1539
B(  3-C ,  6-C ) :   0.4267 B(  3-C ,  7-C ) :   0.3619 B(  3-C ,  8-C ) :  -0.1840
B(  3-C ,  9-C ) :  -0.3141 B(  3-C , 12-H ) :   0.1369 B(  3-C , 13-H ) :   0.1351
B(  3-C , 14-H ) :  -0.1120 B(  3-C , 17-H ) :   0.3478 B(  4-C ,  5-C ) :   1.5776
B(  4-C ,  6-C ) :   0.3619 B(  4-C ,  7-C ) :   0.4267 B(  4-C ,  8-C ) :   0.4729
B(  4-C ,  9-C ) :  -0.6994 B(  4-C , 12-H ) :   0.1351 B(  4-C , 13-H ) :   0.1369
B(  4-C , 14-H ) :   0.3478 B(  4-C , 17-H ) :  -0.1120 B(  5-C ,  6-C ) :  -0.1840
B(  5-C ,  7-C ) :   0.4729 B(  5-C ,  8-C ) :  -1.9603 B(  5-C ,  9-C ) :   1.7670
B(  5-C , 12-H ) :   0.4492 B(  5-C , 14-H ) :  -0.4232 B(  5-C , 16-H ) :  -0.2132
B(  6-C ,  7-C ) :   2.0234 B(  6-C ,  8-C ) :   0.1539 B(  6-C ,  9-C ) :  -0.3141
B(  6-C , 10-H ) :   0.1351 B(  6-C , 11-H ) :   0.1369 B(  6-C , 15-H ) :   0.3478
B(  6-C , 16-H ) :  -0.1120 B(  7-C ,  8-C ) :   1.5776 B(  7-C ,  9-C ) :  -0.6994
B(  7-C , 10-H ) :   0.1369 B(  7-C , 11-H ) :   0.1351 B(  7-C , 15-H ) :  -0.1120
B(  7-C , 16-H ) :   0.3478 B(  8-C ,  9-C ) :   1.7670 B(  8-C , 11-H ) :   0.4492
B(  8-C , 14-H ) :  -0.2132 B(  8-C , 16-H ) :  -0.4232 B(  9-C , 11-H ) :   0.1442
B(  9-C , 12-H ) :   0.1442 B(  9-C , 14-H ) :   0.9566 B(  9-C , 16-H ) :   0.9566

MP2 TOTAL ENERGY:     -384.735577584 Eh
FINAL SINGLE POINT ENERGY      -384.735577583880

DIPOLE MOMENT
-------------
                                X             Y             Z
Electronic contribution:      0.00000      -0.00000      -0.00000
Nuclear contribution   :      0.00000      -0.00000       0.00000
                        -----------------------------------------
Total Dipole Moment    :      0.00000      -0.00000      -0.00000
                        -----------------------------------------
Magnitude (a.u.)       :      0.00000
Magnitude (Debye)      :      0.00000

Rotational constants in cm-1:     0.104762     0.041321     0.029633
Rotational constants in MHz :  3140.675301  1238.767848   888.370382

                             ****ORCA TERMINATED NORMALLY****
TOTAL RUN TIME: 0 days 0 hours 1 minutes 43 seconds 487 msec
