                         Program Version 5.0.3 -  RELEASE  -
|  1> !ri-mp2 aug-cc-pvdz aug-cc-pvdz/c tightscf
|  2> %pal nprocs 16 end
|  3> %maxcore 3800
|  4>
|  5> * xyz 0 1
|  6> C     0.000000     5.113451    0.369764
|  7> C     0.000000    -5.113451    0.369764
|  8> C     0.000000     3.841175   -0.476207
|  9> C     0.000000    -3.841175   -0.476207
| 10> C     0.000000     2.559853    0.358568
| 11> C     0.000000    -2.559853    0.358568
| 12> C     0.000000     1.280240   -0.478345
| 13> C     0.000000    -1.280240   -0.478345
| 14> C     0.000000     0.000000    0.358018
| 15> H     0.880614     5.158370    1.014023
| 16> H     0.000000     6.008632   -0.253795
| 17> H    -0.880614     5.158370    1.014023
| 18> H     0.000000    -6.008632   -0.253795
| 19> H    -0.880614    -5.158370    1.014023
| 20> H     0.880614    -5.158370    1.014023
| 21> H    -0.873886     3.841226   -1.134700
| 22> H     0.873886     3.841226   -1.134700
| 23> H    -0.873886    -3.841226   -1.134700
| 24> H     0.873886    -3.841226   -1.134700
| 25> H     0.874404     2.560551    1.018190
| 26> H    -0.874404     2.560551    1.018190
| 27> H    -0.874404    -2.560551    1.018190
| 28> H     0.874404    -2.560551    1.018190
| 29> H     0.874440     1.280475   -1.137677
| 30> H    -0.874440     1.280475   -1.137677
| 31> H    -0.874440    -1.280475   -1.137677
| 32> H     0.874440    -1.280475   -1.137677
| 33> H     0.874372     0.000000    1.017387
| 34> H    -0.874372     0.000000    1.017387
| 35> *
| 36>
| 37>                          ****END OF INPUT****

CARTESIAN COORDINATES (ANGSTROEM)
---------------------------------
  C      0.000000    5.113451    0.369764
  C      0.000000   -5.113451    0.369764
  C      0.000000    3.841175   -0.476207
  C      0.000000   -3.841175   -0.476207
  C      0.000000    2.559853    0.358568
  C      0.000000   -2.559853    0.358568
  C      0.000000    1.280240   -0.478345
  C      0.000000   -1.280240   -0.478345
  C      0.000000    0.000000    0.358018
  H      0.880614    5.158370    1.014023
  H      0.000000    6.008632   -0.253795
  H     -0.880614    5.158370    1.014023
  H      0.000000   -6.008632   -0.253795
  H     -0.880614   -5.158370    1.014023
  H      0.880614   -5.158370    1.014023
  H     -0.873886    3.841226   -1.134700
  H      0.873886    3.841226   -1.134700
  H     -0.873886   -3.841226   -1.134700
  H      0.873886   -3.841226   -1.134700
  H      0.874404    2.560551    1.018190
  H     -0.874404    2.560551    1.018190
  H     -0.874404   -2.560551    1.018190
  H      0.874404   -2.560551    1.018190
  H      0.874440    1.280475   -1.137677
  H     -0.874440    1.280475   -1.137677
  H     -0.874440   -1.280475   -1.137677
  H      0.874440   -1.280475   -1.137677
  H      0.874372    0.000000    1.017387
  H     -0.874372    0.000000    1.017387

 Total Charge           Charge          ....    0
 Multiplicity           Mult            ....    1
 Number of Electrons    NEL             ....   74
 Basis Dimension        Dim             ....  387

ORBITAL ENERGIES
----------------

  NO   OCC          E(Eh)            E(eV)
   0   2.0000     -11.219719      -305.3041
   1   2.0000     -11.219718      -305.3040
   2   2.0000     -11.217680      -305.2486
   3   2.0000     -11.217460      -305.2426
   4   2.0000     -11.217170      -305.2347
   5   2.0000     -11.216861      -305.2263
   6   2.0000     -11.216635      -305.2202
   7   2.0000     -11.215164      -305.1801
   8   2.0000     -11.215164      -305.1801
   9   2.0000      -1.092892       -29.7391
  10   2.0000      -1.068746       -29.0821
  11   2.0000      -1.029208       -28.0062
  12   2.0000      -0.976442       -26.5703
  13   2.0000      -0.914019       -24.8717
  14   2.0000      -0.849021       -23.1030
  15   2.0000      -0.798331       -21.7237
  16   2.0000      -0.785216       -21.3668
  17   2.0000      -0.781328       -21.2610
  18   2.0000      -0.656141       -17.8545
  19   2.0000      -0.634838       -17.2748
  20   2.0000      -0.601799       -16.3758
  21   2.0000      -0.591816       -16.1041
  22   2.0000      -0.585393       -15.9293
  23   2.0000      -0.561548       -15.2805
  24   2.0000      -0.552304       -15.0290
  25   2.0000      -0.550719       -14.9858
  26   2.0000      -0.520613       -14.1666
  27   2.0000      -0.513807       -13.9814
  28   2.0000      -0.486564       -13.2401
  29   2.0000      -0.486561       -13.2400
  30   2.0000      -0.478256       -13.0140
  31   2.0000      -0.464950       -12.6519
  32   2.0000      -0.462508       -12.5855
  33   2.0000      -0.456155       -12.4126
  34   2.0000      -0.455370       -12.3912
  35   2.0000      -0.453445       -12.3389
  36   2.0000      -0.424815       -11.5598
  37   0.0000       0.036767         1.0005
  38   0.0000       0.038202         1.0395
  39   0.0000       0.043256         1.1771
  40   0.0000       0.045056         1.2260
  41   0.0000       0.049515         1.3474

MULLIKEN ATOMIC CHARGES
-----------------------
   0 C :    0.586941
   1 C :    0.586941
   2 C :    0.523481
   3 C :    0.523481
   4 C :    0.286637
   5 C :    0.286637
   6 C :    0.263790
   7 C :    0.263790
   8 C :    0.326040
   9 H :   -0.094250
  10 H :   -0.079061
  11 H :   -0.094250
  12 H :   -0.079061
  13 H :   -0.094250
  14 H :   -0.094250
  15 H :   -0.192331
  16 H :   -0.192331
  17 H :   -0.192331
  18 H :   -0.192331
  19 H :   -0.233140
  20 H :   -0.233140
  21 H :   -0.233140
  22 H :   -0.233140
  23 H :   -0.239031
  24 H :   -0.239031
  25 H :   -0.239031
  26 H :   -0.239031
  27 H :   -0.227302
  28 H :   -0.227302
Sum of atomic charges:   -0.0000000

LOEWDIN ATOMIC CHARGES
----------------------
   0 C :    0.129541
   1 C :    0.129541
   2 C :   -0.073391
   3 C :   -0.073391
   4 C :   -0.042536
   5 C :   -0.042536
   6 C :   -0.035337
   7 C :   -0.035337
   8 C :   -0.034266
   9 H :   -0.020581
  10 H :   -0.022607
  11 H :   -0.020581
  12 H :   -0.022607
  13 H :   -0.020581
  14 H :   -0.020581
  15 H :    0.010519
  16 H :    0.010519
  17 H :    0.010519
  18 H :    0.010519
  19 H :    0.015931
  20 H :    0.015931
  21 H :    0.015931
  22 H :    0.015931
  23 H :    0.016522
  24 H :    0.016522
  25 H :    0.016522
  26 H :    0.016522
  27 H :    0.016681
  28 H :    0.016681

  Mayer bond orders larger than 0.100000
B(  0-C ,  2-C ) :   1.1891 B(  0-C ,  9-H ) :   0.9017 B(  0-C , 10-H ) :   0.9134
B(  0-C , 11-H ) :   0.9017 B(  1-C ,  3-C ) :   1.1891 B(  1-C , 12-H ) :   0.9134
B(  1-C , 13-H ) :   0.9017 B(  1-C , 14-H ) :   0.9017 B(  2-C ,  4-C ) :   1.2553
B(  2-C ,  6-C ) :  -0.1657 B(  2-C , 15-H ) :   0.6953 B(  2-C , 16-H ) :   0.6953
B(  3-C ,  5-C ) :   1.2553 B(  3-C ,  7-C ) :  -0.1657 B(  3-C , 17-H ) :   0.6953
B(  3-C , 18-H ) :   0.6953 B(  4-C ,  6-C ) :   1.3483 B(  4-C ,  8-C ) :  -0.1386
B(  4-C , 19-H ) :   0.7004 B(  4-C , 20-H ) :   0.7004 B(  5-C ,  7-C ) :   1.3483
B(  5-C ,  8-C ) :  -0.1386 B(  5-C , 21-H ) :   0.7004 B(  5-C , 22-H ) :   0.7004
B(  6-C ,  7-C ) :  -0.1099 B(  6-C ,  8-C ) :   1.4921 B(  6-C , 23-H ) :   0.7114
B(  6-C , 24-H ) :   0.7114 B(  7-C ,  8-C ) :   1.4921 B(  7-C , 25-H ) :   0.7114
B(  7-C , 26-H ) :   0.7114 B(  8-C , 27-H ) :   0.6897 B(  8-C , 28-H ) :   0.6897

MP2 TOTAL ENERGY:     -353.863771741 Eh
FINAL SINGLE POINT ENERGY      -353.863771741185

DIPOLE MOMENT
-------------
                                X             Y             Z
Electronic contribution:      0.00000      -0.00000      -0.64779
Nuclear contribution   :      0.00000       0.00000       0.61387
                        -----------------------------------------
Total Dipole Moment    :      0.00000      -0.00000      -0.03391
                        -----------------------------------------
Magnitude (a.u.)       :      0.03391
Magnitude (Debye)      :      0.08620

Rotational constants in cm-1:     0.313808     0.011500     0.011301
Rotational constants in MHz :  9407.724290   344.767444   338.783015

                             ****ORCA TERMINATED NORMALLY****
TOTAL RUN TIME: 0 days 0 hours 2 minutes 25 seconds 208 msec
