                         Program Version 5.0.3 -  RELEASE  -
|  1> !ri-mp2 aug-cc-pvdz aug-cc-pvdz/c tightscf
|  2> %pal nprocs 16 end
|  3> %maxcore 3800
|  4>
|  5> * xyz 0 1
|  6> C      2.855440    0.252651    0.039517
|  7> C      1.955251    1.308154   -0.006830
|  8> C      2.360141   -1.050018    0.041527
|  9> C      0.583533    1.082280   -0.050241
| 10> C      0.997959   -1.289253   -0.005941
| 11> C      0.080290   -0.226157   -0.056360
| 12> C     -3.683656   -0.105023    0.019100
| 13> C     -2.294319    0.511126    0.087695
| 14> N     -1.276349   -0.497538   -0.143162
| 15> H      3.919858    0.436494    0.075585
| 16> H      2.318186    2.327791   -0.005576
| 17> H      3.043134   -1.888633    0.080058
| 18> H     -0.090520    1.925367   -0.082058
| 19> H      0.628256   -2.307784   -0.011219
| 20> H     -3.861554   -0.559934   -0.955872
| 21> H     -3.812010   -0.873971    0.784186
| 22> H     -4.445779    0.655703    0.185234
| 23> H     -2.153505    1.006369    1.058333
| 24> H     -2.204125    1.287273   -0.676443
| 25> H     -1.535324   -1.428467    0.139104
| 26> *
| 27>
| 28>                          ****END OF INPUT****

CARTESIAN COORDINATES (ANGSTROEM)
---------------------------------
  C      2.855440    0.252651    0.039517
  C      1.955251    1.308154   -0.006830
  C      2.360141   -1.050018    0.041527
  C      0.583533    1.082280   -0.050241
  C      0.997959   -1.289253   -0.005941
  C      0.080290   -0.226157   -0.056360
  C     -3.683656   -0.105023    0.019100
  C     -2.294319    0.511126    0.087695
  N     -1.276349   -0.497538   -0.143162
  H      3.919858    0.436494    0.075585
  H      2.318186    2.327791   -0.005576
  H      3.043134   -1.888633    0.080058
  H     -0.090520    1.925367   -0.082058
  H      0.628256   -2.307784   -0.011219
  H     -3.861554   -0.559934   -0.955872
  H     -3.812010   -0.873971    0.784186
  H     -4.445779    0.655703    0.185234
  H     -2.153505    1.006369    1.058333
  H     -2.204125    1.287273   -0.676443
  H     -1.535324   -1.428467    0.139104

 Total Charge           Charge          ....    0
 Multiplicity           Mult            ....    1
 Number of Electrons    NEL             ....   66
 Basis Dimension        Dim             ....  306

ORBITAL ENERGIES
----------------

  NO   OCC          E(Eh)            E(eV)
   0   2.0000     -15.569231      -423.6603
   1   2.0000     -11.280318      -306.9531
   2   2.0000     -11.267636      -306.6080
   3   2.0000     -11.236435      -305.7589
   4   2.0000     -11.235910      -305.7447
   5   2.0000     -11.232128      -305.6417
   6   2.0000     -11.224768      -305.4415
   7   2.0000     -11.222924      -305.3913
   8   2.0000     -11.219075      -305.2865
   9   2.0000      -1.245097       -33.8808
  10   2.0000      -1.134444       -30.8698
  11   2.0000      -1.035497       -28.1773
  12   2.0000      -1.011166       -27.5152
  13   2.0000      -0.970146       -26.3990
  14   2.0000      -0.863875       -23.5072
  15   2.0000      -0.822452       -22.3801
  16   2.0000      -0.798661       -21.7327
  17   2.0000      -0.712461       -19.3870
  18   2.0000      -0.667164       -18.1545
  19   2.0000      -0.649042       -17.6613
  20   2.0000      -0.636051       -17.3078
  21   2.0000      -0.606158       -16.4944
  22   2.0000      -0.584855       -15.9147
  23   2.0000      -0.578920       -15.7532
  24   2.0000      -0.540274       -14.7016
  25   2.0000      -0.539191       -14.6721
  26   2.0000      -0.514153       -13.9908
  27   2.0000      -0.502293       -13.6681
  28   2.0000      -0.494863       -13.4659
  29   2.0000      -0.480777       -13.0826
  30   2.0000      -0.420790       -11.4503
  31   2.0000      -0.333312        -9.0699
  32   2.0000      -0.283348        -7.7103
  33   0.0000       0.033534         0.9125
  34   0.0000       0.039603         1.0776
  35   0.0000       0.040460         1.1010
  36   0.0000       0.051544         1.4026
  37   0.0000       0.052687         1.4337

MULLIKEN ATOMIC CHARGES
-----------------------
   0 C :    0.421015
   1 C :    0.773119
   2 C :    0.625528
   3 C :    0.140377
   4 C :    0.504445
   5 C :    0.794520
   6 C :    0.335995
   7 C :    0.801491
   8 N :   -0.865188
   9 H :   -0.455912
  10 H :   -0.475310
  11 H :   -0.453321
  12 H :   -0.739695
  13 H :   -0.650068
  14 H :   -0.013325
  15 H :   -0.064932
  16 H :   -0.074832
  17 H :   -0.238067
  18 H :   -0.281453
  19 H :   -0.084385
Sum of atomic charges:   -0.0000000

LOEWDIN ATOMIC CHARGES
----------------------
   0 C :   -0.011481
   1 C :    0.002608
   2 C :    0.000235
   3 C :    0.045817
   4 C :    0.044334
   5 C :   -0.191896
   6 C :    0.147914
   7 C :   -0.063319
   8 N :    0.070041
   9 H :   -0.010106
  10 H :    0.001451
  11 H :    0.001398
  12 H :   -0.013741
  13 H :   -0.000291
  14 H :   -0.012891
  15 H :   -0.017387
  16 H :   -0.015845
  17 H :    0.017727
  18 H :    0.012745
  19 H :   -0.007311

  Mayer bond orders larger than 0.100000
B(  0-C ,  1-C ) :   1.5547 B(  0-C ,  2-C ) :   1.6669 B(  0-C ,  3-C ) :   0.3369
B(  0-C ,  4-C ) :   0.2402 B(  0-C ,  9-H ) :   0.2763 B(  0-C , 10-H ) :   0.1421
B(  0-C , 11-H ) :   0.1608 B(  1-C ,  2-C ) :  -0.2167 B(  1-C ,  3-C ) :   1.6573
B(  1-C ,  5-C ) :  -0.2495 B(  1-C ,  9-H ) :   0.2305 B(  1-C , 11-H ) :  -0.1032
B(  1-C , 12-H ) :   0.2720 B(  2-C ,  3-C ) :   0.1642 B(  2-C ,  4-C ) :   1.9355
B(  2-C ,  5-C ) :  -0.2542 B(  2-C ,  9-H ) :   0.1886 B(  2-C , 10-H ) :  -0.1420
B(  2-C , 11-H ) :   0.2548 B(  2-C , 13-H ) :   0.2038 B(  3-C ,  4-C ) :   0.1469
B(  3-C ,  5-C ) :   1.5289 B(  3-C , 10-H ) :   0.6609 B(  3-C , 12-H ) :  -0.1765
B(  4-C ,  5-C ) :   1.5158 B(  4-C ,  8-N ) :  -0.1867 B(  4-C , 11-H ) :   0.3592
B(  4-C , 13-H ) :  -0.1613 B(  5-C ,  8-N ) :   1.1252 B(  5-C , 12-H ) :   0.4041
B(  5-C , 13-H ) :   0.6499 B(  6-C ,  7-C ) :   1.1392 B(  6-C , 14-H ) :   0.9319
B(  6-C , 15-H ) :   0.9168 B(  6-C , 16-H ) :   0.9037 B(  7-C ,  8-N ) :   0.8353
B(  7-C , 17-H ) :   0.6959 B(  7-C , 18-H ) :   0.7415 B(  8-N , 17-H ) :   0.1782
B(  8-N , 19-H ) :   1.0734

MP2 TOTAL ENERGY:     -365.127538304 Eh
FINAL SINGLE POINT ENERGY      -365.127538304330

DIPOLE MOMENT
-------------
                                X             Y             Z
Electronic contribution:      7.72812      -0.68564      -0.39500
Nuclear contribution   :     -8.38832       0.59048       0.60399
                        -----------------------------------------
Total Dipole Moment    :     -0.66020      -0.09516       0.20899
                        -----------------------------------------
Magnitude (a.u.)       :      0.69899
Magnitude (Debye)      :      1.77670

Rotational constants in cm-1:     0.161687     0.029510     0.025231
Rotational constants in MHz :  4847.259331   884.691224   756.414568

                             ****ORCA TERMINATED NORMALLY****
TOTAL RUN TIME: 0 days 0 hours 1 minutes 20 seconds 325 msec
