                         Program Version 5.0.3 -  RELEASE  -
|  1> !ri-mp2 aug-cc-pvdz aug-cc-pvdz/c tightscf
|  2> %pal nprocs 16 end
|  3>
|  4> * xyz 0 1
|  5> C      0.691531   -0.351810   -0.035843
|  6> C      1.785942    0.685648    0.044153
|  7> C     -1.753536   -0.709923    0.070079
|  8> N     -0.596467    0.122694   -0.200791
|  9> O      0.907289   -1.549850   -0.004258
| 10> O     -0.805591    1.479569    0.133264
| 11> H      2.738393    0.164728    0.040895
| 12> H      1.688929    1.273709    0.956539
| 13> H      1.741301    1.381719   -0.792856
| 14> H     -2.070590   -0.610444    1.110769
| 15> H     -1.471281   -1.739112   -0.127674
| 16> H     -2.574605   -0.421529   -0.584996
| 17> H     -1.034080    1.910829   -0.699522
| 18> *
| 19>
| 20>                          ****END OF INPUT****

CARTESIAN COORDINATES (ANGSTROEM)
---------------------------------
  C      0.691531   -0.351810   -0.035843
  C      1.785942    0.685648    0.044153
  C     -1.753536   -0.709923    0.070079
  N     -0.596467    0.122694   -0.200791
  O      0.907289   -1.549850   -0.004258
  O     -0.805591    1.479569    0.133264
  H      2.738393    0.164728    0.040895
  H      1.688929    1.273709    0.956539
  H      1.741301    1.381719   -0.792856
  H     -2.070590   -0.610444    1.110769
  H     -1.471281   -1.739112   -0.127674
  H     -2.574605   -0.421529   -0.584996
  H     -1.034080    1.910829   -0.699522

 Total Charge           Charge          ....    0
 Multiplicity           Mult            ....    1
 Number of Electrons    NEL             ....   48
 Basis Dimension        Dim             ....  201

ORBITAL ENERGIES
----------------

  NO   OCC          E(Eh)            E(eV)
   0   2.0000     -20.632028      -561.4260
   1   2.0000     -20.537438      -558.8521
   2   2.0000     -15.645528      -425.7364
   3   2.0000     -11.364826      -309.2526
   4   2.0000     -11.268906      -306.6425
   5   2.0000     -11.241742      -305.9034
   6   2.0000      -1.452919       -39.5359
   7   2.0000      -1.383621       -37.6502
   8   2.0000      -1.168170       -31.7875
   9   2.0000      -1.024333       -27.8735
  10   2.0000      -0.936190       -25.4750
  11   2.0000      -0.778516       -21.1845
  12   2.0000      -0.724464       -19.7137
  13   2.0000      -0.687871       -18.7179
  14   2.0000      -0.668841       -18.2001
  15   2.0000      -0.605384       -16.4733
  16   2.0000      -0.587667       -15.9912
  17   2.0000      -0.586700       -15.9649
  18   2.0000      -0.571457       -15.5501
  19   2.0000      -0.550338       -14.9754
  20   2.0000      -0.525379       -14.2963
  21   2.0000      -0.511566       -13.9204
  22   2.0000      -0.428406       -11.6575
  23   2.0000      -0.391888       -10.6638
  24   0.0000       0.028485         0.7751
  25   0.0000       0.044199         1.2027
  26   0.0000       0.049087         1.3357
  27   0.0000       0.055081         1.4988
  28   0.0000       0.067894         1.8475

MULLIKEN ATOMIC CHARGES
-----------------------
   0 C :    0.723527
   1 C :    0.362400
   2 C :    0.856740
   3 N :   -0.360404
   4 O :   -0.778180
   5 O :   -0.675699
   6 H :   -0.061793
   7 H :    0.075700
   8 H :    0.019789
   9 H :   -0.078777
  10 H :   -0.114752
  11 H :   -0.155673
  12 H :    0.187122
Sum of atomic charges:   -0.0000000

LOEWDIN ATOMIC CHARGES
----------------------
   0 C :   -0.341238
   1 C :    0.204300
   2 C :    0.191622
   3 N :   -0.142566
   4 O :    0.027329
   5 O :    0.168575
   6 H :   -0.008369
   7 H :   -0.007050
   8 H :   -0.009799
   9 H :   -0.005943
  10 H :   -0.018470
  11 H :   -0.015083
  12 H :   -0.043309

  Mayer bond orders larger than 0.100000
B(  0-C ,  1-C ) :   1.0600 B(  0-C ,  3-N ) :   1.0163 B(  0-C ,  4-O ) :   1.4261
B(  0-C ,  5-O ) :  -0.1261 B(  0-C ,  6-H ) :   0.1334 B(  1-C ,  6-H ) :   0.8463
B(  1-C ,  7-H ) :   0.9202 B(  1-C ,  8-H ) :   0.9584 B(  2-C ,  3-N ) :   0.8406
B(  2-C ,  9-H ) :   0.9143 B(  2-C , 10-H ) :   0.9574 B(  2-C , 11-H ) :   0.9923
B(  3-N ,  5-O ) :   0.7753 B(  5-O , 12-H ) :   1.0408

MP2 TOTAL ENERGY:     -322.852429870 Eh
FINAL SINGLE POINT ENERGY      -322.852429870294

DIPOLE MOMENT
-------------
                                X             Y             Z
Electronic contribution:      0.42449      -0.80199      -0.30345
Nuclear contribution   :     -0.99546       1.98268      -0.09712
                        -----------------------------------------
Total Dipole Moment    :     -0.57098       1.18069      -0.40058
                        -----------------------------------------
Magnitude (a.u.)       :      1.37132
Magnitude (Debye)      :      3.48561

Rotational constants in cm-1:     0.167261     0.117604     0.071745
Rotational constants in MHz :  5014.345080  3525.686908  2150.847916

                             ****ORCA TERMINATED NORMALLY****
TOTAL RUN TIME: 0 days 0 hours 0 minutes 32 seconds 847 msec
