                         Program Version 5.0.3 -  RELEASE  -
|  1> !ri-mp2 aug-cc-pvdz aug-cc-pvdz/c tightscf
|  2> %pal nprocs 16 end
|  3> %maxcore 3800
|  4>
|  5> * xyz 0 1
|  6> C     -2.745482   -0.250488    0.015139
|  7> C     -2.350376    1.101274   -0.020876
|  8> C      1.894620   -1.629753   -0.016536
|  9> C     -1.798435   -1.240778    0.025645
| 10> C     -1.018277    1.430836   -0.033362
| 11> C      0.565283   -1.959620    0.002317
| 12> C      2.304363   -0.285408   -0.011578
| 13> C     -0.414684   -0.938347    0.010052
| 14> C     -0.013885    0.433355   -0.006243
| 15> C      1.383991    0.743412   -0.000677
| 16> N      1.805666    2.071855   -0.042792
| 17> H     -3.797274   -0.503107    0.026539
| 18> H     -3.099801    1.880731   -0.046991
| 19> H      2.647310   -2.406938   -0.024601
| 20> H     -2.097908   -2.281072    0.043095
| 21> H     -0.742879    2.474995   -0.088131
| 22> H      0.249676   -2.994190    0.010295
| 23> H      3.361776   -0.050767   -0.011365
| 24> H      2.778199    2.210429    0.179331
| 25> H      1.218530    2.740032    0.428091
| 26> *
| 27>
| 28>                          ****END OF INPUT****

CARTESIAN COORDINATES (ANGSTROEM)
---------------------------------
  C     -2.745482   -0.250488    0.015139
  C     -2.350376    1.101274   -0.020876
  C      1.894620   -1.629753   -0.016536
  C     -1.798435   -1.240778    0.025645
  C     -1.018277    1.430836   -0.033362
  C      0.565283   -1.959620    0.002317
  C      2.304363   -0.285408   -0.011578
  C     -0.414684   -0.938347    0.010052
  C     -0.013885    0.433355   -0.006243
  C      1.383991    0.743412   -0.000677
  N      1.805666    2.071855   -0.042792
  H     -3.797274   -0.503107    0.026539
  H     -3.099801    1.880731   -0.046991
  H      2.647310   -2.406938   -0.024601
  H     -2.097908   -2.281072    0.043095
  H     -0.742879    2.474995   -0.088131
  H      0.249676   -2.994190    0.010295
  H      3.361776   -0.050767   -0.011365
  H      2.778199    2.210429    0.179331
  H      1.218530    2.740032    0.428091

 Total Charge           Charge          ....    0
 Multiplicity           Mult            ....    1
 Number of Electrons    NEL             ....   76
 Basis Dimension        Dim             ....  334

ORBITAL ENERGIES
----------------

  NO   OCC          E(Eh)            E(eV)
   0   2.0000     -15.576170      -423.8491
   1   2.0000     -11.288009      -307.1623
   2   2.0000     -11.248085      -306.0760
   3   2.0000     -11.244835      -305.9875
   4   2.0000     -11.243510      -305.9515
   5   2.0000     -11.241179      -305.8880
   6   2.0000     -11.239871      -305.8524
   7   2.0000     -11.239060      -305.8304
   8   2.0000     -11.238547      -305.8164
   9   2.0000     -11.226312      -305.4835
  10   2.0000     -11.225298      -305.4559
  11   2.0000      -1.234567       -33.5943
  12   2.0000      -1.163830       -31.6694
  13   2.0000      -1.105384       -30.0790
  14   2.0000      -1.036960       -28.2171
  15   2.0000      -1.011183       -27.5157
  16   2.0000      -0.972011       -26.4498
  17   2.0000      -0.854352       -23.2481
  18   2.0000      -0.844669       -22.9846
  19   2.0000      -0.803914       -21.8756
  20   2.0000      -0.721221       -19.6254
  21   2.0000      -0.714663       -19.4470
  22   2.0000      -0.685232       -18.6461
  23   2.0000      -0.658227       -17.9113
  24   2.0000      -0.638363       -17.3707
  25   2.0000      -0.603420       -16.4199
  26   2.0000      -0.595950       -16.2166
  27   2.0000      -0.578472       -15.7410
  28   2.0000      -0.561827       -15.2881
  29   2.0000      -0.548941       -14.9374
  30   2.0000      -0.530127       -14.4255
  31   2.0000      -0.489245       -13.3130
  32   2.0000      -0.486373       -13.2349
  33   2.0000      -0.478409       -13.0182
  34   2.0000      -0.434172       -11.8144
  35   2.0000      -0.358967        -9.7680
  36   2.0000      -0.320607        -8.7242
  37   2.0000      -0.268953        -7.3186
  38   0.0000       0.031989         0.8705
  39   0.0000       0.037308         1.0152
  40   0.0000       0.039388         1.0718
  41   0.0000       0.050041         1.3617
  42   0.0000       0.051407         1.3989

MULLIKEN ATOMIC CHARGES
-----------------------
   0 C :    0.064121
   1 C :   -0.167988
   2 C :    0.018640
   3 C :    0.569711
   4 C :    0.554790
   5 C :    0.611766
   6 C :    0.865156
   7 C :    0.746927
   8 C :    1.666882
   9 C :   -0.492678
  10 N :   -0.411175
  11 H :   -0.482860
  12 H :   -0.494528
  13 H :   -0.481599
  14 H :   -0.597450
  15 H :   -0.699670
  16 H :   -0.612485
  17 H :   -0.609979
  18 H :   -0.002803
  19 H :   -0.044778
Sum of atomic charges:    0.0000000

LOEWDIN ATOMIC CHARGES
----------------------
   0 C :    0.013008
   1 C :    0.012260
   2 C :    0.006860
   3 C :    0.052485
   4 C :    0.055722
   5 C :    0.035595
   6 C :    0.044405
   7 C :   -0.137248
   8 C :   -0.080765
   9 C :   -0.187033
  10 N :    0.251949
  11 H :    0.000900
  12 H :   -0.000878
  13 H :    0.003050
  14 H :    0.007337
  15 H :   -0.005065
  16 H :    0.000282
  17 H :   -0.001323
  18 H :   -0.026809
  19 H :   -0.044731

  Mayer bond orders larger than 0.100000
B(  0-C ,  1-C ) :   2.0918 B(  0-C ,  2-C ) :   0.3893 B(  0-C ,  3-C ) :   1.6100
B(  0-C ,  4-C ) :   0.1838 B(  0-C ,  5-C ) :   0.3288 B(  0-C ,  6-C ) :   0.4036
B(  0-C ,  7-C ) :  -0.7441 B(  0-C ,  8-C ) :  -0.4022 B(  0-C ,  9-C ) :  -0.1086
B(  0-C , 14-H ) :   0.3546 B(  0-C , 15-H ) :  -0.1395 B(  1-C ,  2-C ) :   0.3322
B(  1-C ,  3-C ) :   0.2403 B(  1-C ,  4-C ) :   1.5189 B(  1-C ,  5-C ) :  -0.2685
B(  1-C ,  6-C ) :   0.3239 B(  1-C ,  7-C ) :  -0.4973 B(  1-C ,  8-C ) :  -0.5496
B(  1-C ,  9-C ) :   0.5552 B(  1-C , 11-H ) :   0.1392 B(  1-C , 14-H ) :  -0.1102
B(  1-C , 15-H ) :   0.4626 B(  2-C ,  3-C ) :   0.3383 B(  2-C ,  4-C ) :  -0.1791
B(  2-C ,  5-C ) :   1.3989 B(  2-C ,  6-C ) :   1.7947 B(  2-C ,  7-C ) :  -0.5986
B(  2-C ,  8-C ) :   0.1205 B(  2-C ,  9-C ) :   0.1368 B(  2-C , 16-H ) :   0.3386
B(  2-C , 17-H ) :   0.1428 B(  3-C ,  4-C ) :   0.4378 B(  3-C ,  5-C ) :  -1.8088
B(  3-C ,  7-C ) :   1.6490 B(  3-C ,  8-C ) :  -1.5589 B(  3-C , 11-H ) :   0.4897
B(  3-C , 12-H ) :  -0.1149 B(  3-C , 14-H ) :  -0.4767 B(  3-C , 15-H ) :   0.1276
B(  3-C , 16-H ) :  -0.2125 B(  4-C ,  5-C ) :   0.3729 B(  4-C ,  6-C ) :   0.5292
B(  4-C ,  7-C ) :  -1.7457 B(  4-C ,  8-C ) :   1.3261 B(  4-C ,  9-C ) :  -2.2790
B(  4-C , 12-H ) :   0.5983 B(  4-C , 15-H ) :  -0.7785 B(  4-C , 17-H ) :   0.1048
B(  5-C ,  6-C ) :   0.4516 B(  5-C ,  7-C ) :   1.6300 B(  5-C ,  8-C ) :  -1.1274
B(  5-C , 13-H ) :   0.3947 B(  5-C , 14-H ) :  -0.2657 B(  5-C , 16-H ) :  -0.5229
B(  5-C , 17-H ) :  -0.1719 B(  6-C ,  7-C ) :  -0.7331 B(  6-C ,  8-C ) :  -0.4128
B(  6-C ,  9-C ) :   1.0731 B(  6-C , 10-N ) :  -0.1332 B(  6-C , 13-H ) :   0.2272
B(  6-C , 17-H ) :  -0.7612 B(  7-C ,  8-C ) :   3.7025 B(  7-C ,  9-C ) :  -1.5429
B(  7-C , 11-H ) :   0.1515 B(  7-C , 13-H ) :   0.1007 B(  7-C , 14-H ) :   1.0367
B(  7-C , 16-H ) :   1.0195 B(  8-C ,  9-C ) :   0.8149 B(  8-C , 10-N ) :   0.2151
B(  8-C , 12-H ) :   0.2050 B(  8-C , 15-H ) :   1.2669 B(  8-C , 19-H ) :   0.1076
B(  9-C , 10-N ) :   0.6065 B(  9-C , 15-H ) :  -0.2806 B(  9-C , 17-H ) :   1.3663
B(  9-C , 19-H ) :  -0.1348 B( 10-N , 17-H ) :  -0.1062 B( 10-N , 18-H ) :   1.0234
B( 10-N , 19-H ) :   1.1207

MP2 TOTAL ENERGY:     -439.958795436 Eh
FINAL SINGLE POINT ENERGY      -439.958795435605

DIPOLE MOMENT
-------------
                                X             Y             Z
Electronic contribution:     -0.35901      -0.70509      -0.15214
Nuclear contribution   :      0.52655       1.07883       0.51437
                        -----------------------------------------
Total Dipole Moment    :      0.16753       0.37374       0.36223
                        -----------------------------------------
Magnitude (a.u.)       :      0.54677
Magnitude (Debye)      :      1.38979

Rotational constants in cm-1:     0.064866     0.037716     0.023868
Rotational constants in MHz :  1944.618954  1130.693935   715.547049

                             ****ORCA TERMINATED NORMALLY****
TOTAL RUN TIME: 0 days 0 hours 2 minutes 40 seconds 791 msec
