                         Program Version 5.0.3 -  RELEASE  -
|  1> !ri-mp2 aug-cc-pvdz aug-cc-pvdz/c tightscf
|  2> %pal nprocs 16 end
|  3>
|  4> * xyz 0 1
|  5> S      2.138126   -0.471424   -0.497762
|  6> O     -1.262728    1.239322   -1.123753
|  7> O     -0.184106    2.173393    0.574489
|  8> O     -2.195916   -1.611940    0.020091
|  9> N     -1.071021   -1.335428   -0.264211
| 10> C     -0.489680   -0.243773    0.615987
| 11> C     -0.694454    1.099412   -0.085165
| 12> C      0.973673   -0.594469    0.910781
| 13> H      2.200865    0.872262   -0.543734
| 14> H      0.192088    1.925376    1.427496
| 15> H     -1.071763   -0.233746    1.544268
| 16> H      1.349553   -0.008418    1.748575
| 17> H      1.021152   -1.637918    1.220832
| 18> *
| 19>
| 20>                          ****END OF INPUT****

CARTESIAN COORDINATES (ANGSTROEM)
---------------------------------
  S      2.138126   -0.471424   -0.497762
  O     -1.262728    1.239322   -1.123753
  O     -0.184106    2.173393    0.574489
  O     -2.195916   -1.611940    0.020091
  N     -1.071021   -1.335428   -0.264211
  C     -0.489680   -0.243773    0.615987
  C     -0.694454    1.099412   -0.085165
  C      0.973673   -0.594469    0.910781
  H      2.200865    0.872262   -0.543734
  H      0.192088    1.925376    1.427496
  H     -1.071763   -0.233746    1.544268
  H      1.349553   -0.008418    1.748575
  H      1.021152   -1.637918    1.220832

 Total Charge           Charge          ....    0
 Multiplicity           Mult            ....    1
 Number of Electrons    NEL             ....   70
 Basis Dimension        Dim             ....  233

ORBITAL ENERGIES
----------------

  NO   OCC          E(Eh)            E(eV)
   0   2.0000     -91.984012     -2503.0122
   1   2.0000     -20.664786      -562.3174
   2   2.0000     -20.649886      -561.9120
   3   2.0000     -20.583990      -560.1189
   4   2.0000     -15.732820      -428.1118
   5   2.0000     -11.424777      -310.8840
   6   2.0000     -11.328113      -308.2536
   7   2.0000     -11.318942      -308.0041
   8   2.0000      -8.985278      -244.5018
   9   2.0000      -6.667273      -181.4257
  10   2.0000      -6.665939      -181.3894
  11   2.0000      -6.663731      -181.3294
  12   2.0000      -1.555194       -42.3190
  13   2.0000      -1.491995       -40.5992
  14   2.0000      -1.399081       -38.0709
  15   2.0000      -1.156864       -31.4799
  16   2.0000      -1.039322       -28.2814
  17   2.0000      -0.936295       -25.4779
  18   2.0000      -0.899188       -24.4682
  19   2.0000      -0.844208       -22.9721
  20   2.0000      -0.767169       -20.8757
  21   2.0000      -0.726680       -19.7740
  22   2.0000      -0.702324       -19.1112
  23   2.0000      -0.668209       -18.1829
  24   2.0000      -0.664831       -18.0910
  25   2.0000      -0.636450       -17.3187
  26   2.0000      -0.624899       -17.0044
  27   2.0000      -0.597878       -16.2691
  28   2.0000      -0.578795       -15.7498
  29   2.0000      -0.552798       -15.0424
  30   2.0000      -0.507482       -13.8093
  31   2.0000      -0.486268       -13.2320
  32   2.0000      -0.472498       -12.8573
  33   2.0000      -0.419660       -11.4195
  34   2.0000      -0.383494       -10.4354
  35   0.0000       0.017159         0.4669
  36   0.0000       0.039030         1.0621
  37   0.0000       0.043608         1.1866
  38   0.0000       0.052502         1.4287
  39   0.0000       0.063787         1.7357

MULLIKEN ATOMIC CHARGES
-----------------------
   0 S :    0.295171
   1 O :   -0.682750
   2 O :   -0.703922
   3 O :   -0.526956
   4 N :   -0.169771
   5 C :    0.374746
   6 C :    1.123524
   7 C :    0.065208
   8 H :    0.125593
   9 H :    0.206944
  10 H :    0.020413
  11 H :   -0.133553
  12 H :    0.005353
Sum of atomic charges:   -0.0000000

LOEWDIN ATOMIC CHARGES
----------------------
   0 S :    0.772078
   1 O :    0.083238
   2 O :    0.211971
   3 O :    0.055721
   4 N :    0.036719
   5 C :   -0.231626
   6 C :   -0.341418
   7 C :   -0.299295
   8 H :   -0.218459
   9 H :   -0.044330
  10 H :    0.036152
  11 H :   -0.032469
  12 H :   -0.028281

  Mayer bond orders larger than 0.100000
B(  0-S ,  5-C ) :  -0.2930 B(  0-S ,  7-C ) :   1.2201 B(  0-S ,  8-H ) :   0.9207
B(  1-O ,  6-C ) :   1.6162 B(  2-O ,  5-C ) :   0.1552 B(  2-O ,  6-C ) :   0.3609
B(  2-O ,  9-H ) :   0.9954 B(  3-O ,  4-N ) :   1.5127 B(  3-O ,  5-C ) :  -0.1072
B(  4-N ,  5-C ) :   0.4257 B(  4-N ,  6-C ) :   0.1268 B(  5-C ,  6-C ) :   0.8805
B(  5-C ,  7-C ) :   1.0620 B(  5-C , 10-H ) :   0.8673 B(  5-C , 12-H ) :   0.1118
B(  7-C , 11-H ) :   0.9427 B(  7-C , 12-H ) :   0.8278

MP2 TOTAL ENERGY:     -794.371431441 Eh
FINAL SINGLE POINT ENERGY      -794.371431441162

DIPOLE MOMENT
-------------
                                X             Y             Z
Electronic contribution:     -2.45840      -0.85217      -3.17731
Nuclear contribution   :      3.46542       0.92677       5.25610
                        -----------------------------------------
Total Dipole Moment    :      1.00702       0.07459       2.07879
                        -----------------------------------------
Magnitude (a.u.)       :      2.31107
Magnitude (Debye)      :      5.87427

Rotational constants in cm-1:     0.065166     0.047766     0.034034
Rotational constants in MHz :  1953.641677  1431.995274  1020.298805

                             ****ORCA TERMINATED NORMALLY****
TOTAL RUN TIME: 0 days 0 hours 0 minutes 44 seconds 792 msec
