                         Program Version 5.0.3 -  RELEASE  -
|  1> !ri-mp2 aug-cc-pvdz aug-cc-pvdz/c tightscf
|  2> %pal nprocs 16 end
|  3>
|  4> * xyz 0 1
|  5> S     -1.804112   -0.039089   -0.085409
|  6> N     -0.228364   -0.684420    0.016954
|  7> N      0.819790    1.392841   -0.011749
|  8> N      2.070170   -0.650194    0.057789
|  9> C      0.910802    0.124627   -0.000028
| 10> H     -1.789467    0.778881    0.993822
| 11> H     -0.146667   -1.513718    0.584188
| 12> H      1.724397    1.840201   -0.118314
| 13> H      2.927975   -0.134408   -0.049798
| 14> H      2.053559   -1.500893   -0.484146
| 15> *
| 16>
| 17>                          ****END OF INPUT****

CARTESIAN COORDINATES (ANGSTROEM)
---------------------------------
  S     -1.804112   -0.039089   -0.085409
  N     -0.228364   -0.684420    0.016954
  N      0.819790    1.392841   -0.011749
  N      2.070170   -0.650194    0.057789
  C      0.910802    0.124627   -0.000028
  H     -1.789467    0.778881    0.993822
  H     -0.146667   -1.513718    0.584188
  H      1.724397    1.840201   -0.118314
  H      2.927975   -0.134408   -0.049798
  H      2.053559   -1.500893   -0.484146

 Total Charge           Charge          ....    0
 Multiplicity           Mult            ....    1
 Number of Electrons    NEL             ....   48
 Basis Dimension        Dim             ....  164

ORBITAL ENERGIES
----------------

  NO   OCC          E(Eh)            E(eV)
   0   2.0000     -91.988698     -2503.1397
   1   2.0000     -15.607744      -424.7083
   2   2.0000     -15.595890      -424.3858
   3   2.0000     -15.531699      -422.6390
   4   2.0000     -11.362584      -309.1916
   5   2.0000      -8.986332      -244.5305
   6   2.0000      -6.668730      -181.4654
   7   2.0000      -6.666684      -181.4097
   8   2.0000      -6.664494      -181.3501
   9   2.0000      -1.312389       -35.7119
  10   2.0000      -1.194161       -32.4948
  11   2.0000      -1.151728       -31.3401
  12   2.0000      -0.951155       -25.8822
  13   2.0000      -0.805301       -21.9134
  14   2.0000      -0.731700       -19.9106
  15   2.0000      -0.710267       -19.3273
  16   2.0000      -0.643468       -17.5096
  17   2.0000      -0.625355       -17.0168
  18   2.0000      -0.558334       -15.1930
  19   2.0000      -0.507171       -13.8008
  20   2.0000      -0.439604       -11.9622
  21   2.0000      -0.421698       -11.4750
  22   2.0000      -0.378604       -10.3023
  23   2.0000      -0.363223        -9.8838
  24   0.0000       0.026371         0.7176
  25   0.0000       0.043830         1.1927
  26   0.0000       0.049894         1.3577
  27   0.0000       0.065108         1.7717
  28   0.0000       0.069084         1.8799

MULLIKEN ATOMIC CHARGES
-----------------------
   0 S :    0.362947
   1 N :   -0.717207
   2 N :   -0.396397
   3 N :   -0.248603
   4 C :    0.983693
   5 H :    0.111839
   6 H :   -0.077013
   7 H :    0.003357
   8 H :   -0.007202
   9 H :   -0.015413
Sum of atomic charges:    0.0000000

LOEWDIN ATOMIC CHARGES
----------------------
   0 S :    0.771990
   1 N :   -0.258032
   2 N :    0.131166
   3 N :    0.258967
   4 C :   -0.475890
   5 H :   -0.217470
   6 H :   -0.061405
   7 H :   -0.098335
   8 H :   -0.024517
   9 H :   -0.026473

  Mayer bond orders larger than 0.100000
B(  0-S ,  1-N ) :   0.8474 B(  0-S ,  5-H ) :   0.9239 B(  1-N ,  4-C ) :   0.9819
B(  1-N ,  6-H ) :   1.1560 B(  2-N ,  4-C ) :   1.6959 B(  2-N ,  7-H ) :   0.9874
B(  3-N ,  4-C ) :   0.8827 B(  3-N ,  8-H ) :   1.0994 B(  3-N ,  9-H ) :   1.0735

MP2 TOTAL ENERGY:     -602.480477134 Eh
FINAL SINGLE POINT ENERGY      -602.480477133824

DIPOLE MOMENT
-------------
                                X             Y             Z
Electronic contribution:     -3.71335      -0.30893      -0.78607
Nuclear contribution   :      4.78879      -0.52268       0.91872
                        -----------------------------------------
Total Dipole Moment    :      1.07544      -0.83161       0.13265
                        -----------------------------------------
Magnitude (a.u.)       :      1.36592
Magnitude (Debye)      :      3.47190

Rotational constants in cm-1:     0.335016     0.082132     0.066912
Rotational constants in MHz : 10043.535216  2462.247166  2005.980480

                             ****ORCA TERMINATED NORMALLY****
TOTAL RUN TIME: 0 days 0 hours 0 minutes 26 seconds 45 msec
