                         Program Version 5.0.3 -  RELEASE  -
|  1> !ri-mp2 aug-cc-pvdz aug-cc-pvdz/c tightscf
|  2> %pal nprocs 16 end
|  3>
|  4> * xyz 0 1
|  5> C     -0.691463   -0.825035    0.000000
|  6> C      1.451045    0.342396    0.000000
|  7> C     -0.673160    1.625303    0.000000
|  8> N      0.000000    0.344183    0.000000
|  9> O     -0.204681   -1.939050    0.000000
| 10> H     -1.782485   -0.660464    0.000000
| 11> H      1.835600    0.852868    0.886378
| 12> H      1.835600    0.852868   -0.886378
| 13> H      1.793661   -0.687964    0.000000
| 14> H     -0.406192    2.208353    0.885441
| 15> H     -1.751076    1.473118    0.000000
| 16> H     -0.406192    2.208353   -0.885441
| 17> *
| 18>
| 19>                          ****END OF INPUT****

CARTESIAN COORDINATES (ANGSTROEM)
---------------------------------
  C     -0.691463   -0.825035    0.000000
  C      1.451045    0.342396    0.000000
  C     -0.673160    1.625303    0.000000
  N      0.000000    0.344183    0.000000
  O     -0.204681   -1.939050    0.000000
  H     -1.782485   -0.660464    0.000000
  H      1.835600    0.852868    0.886378
  H      1.835600    0.852868   -0.886378
  H      1.793661   -0.687964    0.000000
  H     -0.406192    2.208353    0.885441
  H     -1.751076    1.473118    0.000000
  H     -0.406192    2.208353   -0.885441

 Total Charge           Charge          ....    0
 Multiplicity           Mult            ....    1
 Number of Electrons    NEL             ....   40
 Basis Dimension        Dim             ....  178

ORBITAL ENERGIES
----------------

  NO   OCC          E(Eh)            E(eV)
   0   2.0000     -20.529988      -558.6494
   1   2.0000     -15.600934      -424.5230
   2   2.0000     -11.354532      -308.9725
   3   2.0000     -11.283474      -307.0389
   4   2.0000     -11.267077      -306.5928
   5   2.0000      -1.384097       -37.6632
   6   2.0000      -1.257900       -34.2292
   7   2.0000      -0.989036       -26.9130
   8   2.0000      -0.952412       -25.9164
   9   2.0000      -0.782884       -21.3034
  10   2.0000      -0.705285       -19.1918
  11   2.0000      -0.659317       -17.9409
  12   2.0000      -0.656342       -17.8600
  13   2.0000      -0.584916       -15.9164
  14   2.0000      -0.569027       -15.4840
  15   2.0000      -0.568265       -15.4633
  16   2.0000      -0.541462       -14.7339
  17   2.0000      -0.531911       -14.4740
  18   2.0000      -0.427313       -11.6278
  19   2.0000      -0.376159       -10.2358
  20   0.0000       0.028911         0.7867
  21   0.0000       0.043588         1.1861
  22   0.0000       0.048714         1.3256
  23   0.0000       0.053205         1.4478
  24   0.0000       0.071913         1.9568

MULLIKEN ATOMIC CHARGES
-----------------------
   0 C :    0.784190
   1 C :    0.728699
   2 C :    0.738072
   3 N :   -0.527627
   4 O :   -0.699442
   5 H :   -0.234774
   6 H :   -0.081075
   7 H :   -0.081075
   8 H :   -0.235519
   9 H :   -0.077561
  10 H :   -0.236327
  11 H :   -0.077561
Sum of atomic charges:    0.0000000

LOEWDIN ATOMIC CHARGES
----------------------
   0 C :   -0.138957
   1 C :    0.194144
   2 C :    0.179597
   3 N :   -0.178001
   4 O :   -0.007477
   5 H :    0.019886
   6 H :   -0.008516
   7 H :   -0.008516
   8 H :   -0.019509
   9 H :   -0.007947
  10 H :   -0.016756
  11 H :   -0.007947

  Mayer bond orders larger than 0.100000
B(  0-C ,  3-N ) :   1.2000 B(  0-C ,  4-O ) :   1.5207 B(  0-C ,  5-H ) :   1.0235
B(  1-C ,  3-N ) :   0.8605 B(  1-C ,  6-H ) :   0.9310 B(  1-C ,  7-H ) :   0.9310
B(  1-C ,  8-H ) :   1.0368 B(  2-C ,  3-N ) :   0.8322 B(  2-C ,  9-H ) :   0.9215
B(  2-C , 10-H ) :   1.0456 B(  2-C , 11-H ) :   0.9215 B(  3-N ,  5-H ) :  -0.1033

MP2 TOTAL ENERGY:     -247.831349654 Eh
FINAL SINGLE POINT ENERGY      -247.831349654227

DIPOLE MOMENT
-------------
                                X             Y             Z
Electronic contribution:     -1.32865      -4.68150       0.00000
Nuclear contribution   :      1.14664       6.39111       0.00000
                        -----------------------------------------
Total Dipole Moment    :     -0.18201       1.70961       0.00000
                        -----------------------------------------
Magnitude (a.u.)       :      1.71927
Magnitude (Debye)      :      4.37003

Rotational constants in cm-1:     0.297743     0.139889     0.098700
Rotational constants in MHz :  8926.106128  4193.773100  2958.959845

                             ****ORCA TERMINATED NORMALLY****
TOTAL RUN TIME: 0 days 0 hours 0 minutes 30 seconds 416 msec
