                         Program Version 5.0.3 -  RELEASE  -
|  1> !ri-mp2 aug-cc-pvdz aug-cc-pvdz/c tightscf
|  2> %pal nprocs 16 end
|  3>
|  4> * xyz 0 1
|  5> O     -0.689613    0.644791   -0.033712
|  6> N      0.397947   -0.341322   -0.020979
|  7> N      2.699526   -0.326539   -0.051220
|  8> C      1.495578    0.309910    0.018594
|  9> C     -1.853711    0.076390   -0.000732
| 10> C     -2.964471   -0.373779    0.028776
| 11> H      3.498737    0.148468    0.328845
| 12> H      2.698373   -1.329150    0.048330
| 13> H      1.518689    1.394723    0.066269
| 14> H     -3.945580   -0.772460    0.051811
| 15> *
| 16>
| 17>                          ****END OF INPUT****

CARTESIAN COORDINATES (ANGSTROEM)
---------------------------------
  O     -0.689613    0.644791   -0.033712
  N      0.397947   -0.341322   -0.020979
  N      2.699526   -0.326539   -0.051220
  C      1.495578    0.309910    0.018594
  C     -1.853711    0.076390   -0.000732
  C     -2.964471   -0.373779    0.028776
  H      3.498737    0.148468    0.328845
  H      2.698373   -1.329150    0.048330
  H      1.518689    1.394723    0.066269
  H     -3.945580   -0.772460    0.051811

 Total Charge           Charge          ....    0
 Multiplicity           Mult            ....    1
 Number of Electrons    NEL             ....   44
 Basis Dimension        Dim             ....  174

ORBITAL ENERGIES
----------------

  NO   OCC          E(Eh)            E(eV)
   0   2.0000     -20.645040      -561.7801
   1   2.0000     -15.633202      -425.4011
   2   2.0000     -15.615677      -424.9242
   3   2.0000     -11.351153      -308.8806
   4   2.0000     -11.288071      -307.1640
   5   2.0000     -11.214579      -305.1642
   6   2.0000      -1.463460       -39.8228
   7   2.0000      -1.286655       -35.0117
   8   2.0000      -1.159740       -31.5581
   9   2.0000      -1.001796       -27.2602
  10   2.0000      -0.854869       -23.2622
  11   2.0000      -0.791231       -21.5305
  12   2.0000      -0.723267       -19.6811
  13   2.0000      -0.695386       -18.9224
  14   2.0000      -0.676101       -18.3976
  15   2.0000      -0.645209       -17.5570
  16   2.0000      -0.637938       -17.3592
  17   2.0000      -0.548405       -14.9229
  18   2.0000      -0.481638       -13.1060
  19   2.0000      -0.407455       -11.0874
  20   2.0000      -0.376100       -10.2342
  21   2.0000      -0.344172        -9.3654
  22   0.0000       0.022585         0.6146
  23   0.0000       0.042509         1.1567
  24   0.0000       0.046542         1.2665
  25   0.0000       0.061137         1.6636
  26   0.0000       0.086231         2.3465

MULLIKEN ATOMIC CHARGES
-----------------------
   0 O :   -0.721530
   1 N :   -0.322443
   2 N :   -0.295330
   3 C :    1.167245
   4 C :   -0.210332
   5 C :    0.914372
   6 H :    0.012411
   7 H :   -0.012234
   8 H :   -0.097086
   9 H :   -0.435073
Sum of atomic charges:   -0.0000000

LOEWDIN ATOMIC CHARGES
----------------------
   0 O :    0.003228
   1 N :    0.049169
   2 N :    0.236400
   3 C :   -0.099858
   4 C :   -0.237963
   5 C :    0.175910
   6 H :   -0.022859
   7 H :   -0.012810
   8 H :    0.026867
   9 H :   -0.118084

  Mayer bond orders larger than 0.100000
B(  0-O ,  1-N ) :   0.8082 B(  0-O ,  3-C ) :  -0.1923 B(  0-O ,  4-C ) :   0.9775
B(  0-O ,  5-C ) :  -0.3119 B(  1-N ,  3-C ) :   1.6490 B(  1-N ,  4-C ) :  -0.1612
B(  2-N ,  3-C ) :   0.8965 B(  2-N ,  6-H ) :   1.0910 B(  2-N ,  7-H ) :   1.1430
B(  3-C ,  8-H ) :   0.9122 B(  4-C ,  5-C ) :   2.9792 B(  4-C ,  9-H ) :   0.5068

MP2 TOTAL ENERGY:     -300.506077347 Eh
FINAL SINGLE POINT ENERGY      -300.506077346659

DIPOLE MOMENT
-------------
                                X             Y             Z
Electronic contribution:     -1.94845       0.73587      -0.13781
Nuclear contribution   :      3.71271      -0.54270       0.48582
                        -----------------------------------------
Total Dipole Moment    :      1.76425       0.19317       0.34801
                        -----------------------------------------
Magnitude (a.u.)       :      1.80859
Magnitude (Debye)      :      4.59708

Rotational constants in cm-1:     0.979345     0.052138     0.049557
Rotational constants in MHz : 29360.025071  1563.062803  1485.680774

                             ****ORCA TERMINATED NORMALLY****
TOTAL RUN TIME: 0 days 0 hours 0 minutes 23 seconds 986 msec
