                         Program Version 5.0.3 -  RELEASE  -
|  1> !ri-mp2 aug-cc-pvdz aug-cc-pvdz/c tightscf
|  2> %pal nprocs 16 end
|  3>
|  4> * xyz 0 1
|  5> S     0.865517   -1.220324    0.000033
|  6> N    -0.472803   -0.109850    0.001005
|  7> N    -1.693397   -0.595410   -0.000089
|  8> N    -2.596092    0.285481   -0.000471
|  9> C    -0.129116    1.320148    0.000374
| 10> C     1.958652    0.149745   -0.000464
| 11> C     1.366917    1.340992   -0.000208
| 12> H    -3.475838   -0.230299   -0.001183
| 13> H    -0.574130    1.802666   -0.877164
| 14> H    -0.573436    1.803341    0.877870
| 15> H     3.018570   -0.049442   -0.000901
| 16> H     1.913895    2.272063   -0.000472
| 17> *
| 18>
| 19>                          ****END OF INPUT****

CARTESIAN COORDINATES (ANGSTROEM)
---------------------------------
  S      0.865517   -1.220324    0.000033
  N     -0.472803   -0.109850    0.001005
  N     -1.693397   -0.595410   -0.000089
  N     -2.596092    0.285481   -0.000471
  C     -0.129116    1.320148    0.000374
  C      1.958652    0.149745   -0.000464
  C      1.366917    1.340992   -0.000208
  H     -3.475838   -0.230299   -0.001183
  H     -0.574130    1.802666   -0.877164
  H     -0.573436    1.803341    0.877870
  H      3.018570   -0.049442   -0.000901
  H      1.913895    2.272063   -0.000472

 Total Charge           Charge          ....    0
 Multiplicity           Mult            ....    1
 Number of Electrons    NEL             ....   60
 Basis Dimension        Dim             ....  210

ORBITAL ENERGIES
----------------

  NO   OCC          E(Eh)            E(eV)
   0   2.0000     -92.010752     -2503.7398
   1   2.0000     -15.685778      -426.8317
   2   2.0000     -15.638313      -425.5401
   3   2.0000     -15.592283      -424.2876
   4   2.0000     -11.292056      -307.2725
   5   2.0000     -11.288439      -307.1740
   6   2.0000     -11.262402      -306.4655
   7   2.0000      -9.009192      -245.1526
   8   2.0000      -6.691141      -182.0752
   9   2.0000      -6.689735      -182.0369
  10   2.0000      -6.686809      -181.9573
  11   2.0000      -1.421146       -38.6713
  12   2.0000      -1.236879       -33.6572
  13   2.0000      -1.106001       -30.0958
  14   2.0000      -1.023021       -27.8378
  15   2.0000      -0.945476       -25.7277
  16   2.0000      -0.794807       -21.6278
  17   2.0000      -0.784359       -21.3435
  18   2.0000      -0.712136       -19.3782
  19   2.0000      -0.665991       -18.1225
  20   2.0000      -0.664581       -18.0842
  21   2.0000      -0.626005       -17.0345
  22   2.0000      -0.575084       -15.6488
  23   2.0000      -0.554563       -15.0904
  24   2.0000      -0.538033       -14.6406
  25   2.0000      -0.497932       -13.5494
  26   2.0000      -0.476931       -12.9779
  27   2.0000      -0.411910       -11.2086
  28   2.0000      -0.390711       -10.6318
  29   2.0000      -0.300326        -8.1723
  30   0.0000       0.031478         0.8566
  31   0.0000       0.042052         1.1443
  32   0.0000       0.046990         1.2787
  33   0.0000       0.058170         1.5829
  34   0.0000       0.063726         1.7341

MULLIKEN ATOMIC CHARGES
-----------------------
   0 S :    0.560777
   1 N :   -0.429134
   2 N :   -0.125451
   3 N :   -0.235572
   4 C :    0.761223
   5 C :   -0.164466
   6 C :    0.393435
   7 H :    0.055115
   8 H :   -0.083373
   9 H :   -0.083693
  10 H :   -0.351325
  11 H :   -0.297536
Sum of atomic charges:    0.0000000

LOEWDIN ATOMIC CHARGES
----------------------
   0 S :    0.918972
   1 N :   -0.428316
   2 N :   -0.088324
   3 N :    0.111594
   4 C :   -0.033466
   5 C :   -0.296432
   6 C :   -0.060738
   7 H :   -0.105038
   8 H :    0.015594
   9 H :    0.015632
  10 H :   -0.044609
  11 H :   -0.004867

  Mayer bond orders larger than 0.100000
B(  0-S ,  1-N ) :   0.8127 B(  0-S ,  2-N ) :  -0.1924 B(  0-S ,  5-C ) :   0.9632
B(  0-S , 10-H ) :  -0.1215 B(  1-N ,  2-N ) :   0.8440 B(  1-N ,  4-C ) :   0.7108
B(  1-N ,  5-C ) :  -0.1315 B(  2-N ,  3-N ) :   1.3990 B(  2-N ,  5-C ) :  -0.1596
B(  2-N ,  6-C ) :   0.1565 B(  3-N ,  7-H ) :   0.9745 B(  4-C ,  5-C ) :   0.1422
B(  4-C ,  6-C ) :   1.1042 B(  4-C ,  8-H ) :   0.8487 B(  4-C ,  9-H ) :   0.8486
B(  5-C ,  6-C ) :   2.0008 B(  5-C , 10-H ) :   0.8569 B(  6-C , 11-H ) :   0.7455

MP2 TOTAL ENERGY:     -678.377655999 Eh
FINAL SINGLE POINT ENERGY      -678.377655999368

DIPOLE MOMENT
-------------
                                X             Y             Z
Electronic contribution:      0.52393      -5.01243       0.00127
Nuclear contribution   :      0.24894       5.51270      -0.00181
                        -----------------------------------------
Total Dipole Moment    :      0.77287       0.50027      -0.00054
                        -----------------------------------------
Magnitude (a.u.)       :      0.92065
Magnitude (Debye)      :      2.34011

Rotational constants in cm-1:     0.153454     0.065399     0.046246
Rotational constants in MHz :  4600.434907  1960.602614  1386.434811

                             ****ORCA TERMINATED NORMALLY****
TOTAL RUN TIME: 0 days 0 hours 0 minutes 37 seconds 49 msec
