                         Program Version 5.0.3 -  RELEASE  -
|  1> !ri-mp2 aug-cc-pvdz aug-cc-pvdz/c tightscf
|  2> %pal nprocs 16 end
|  3>
|  4> * xyz 0 1
|  5> C      0.484528    0.165592    0.000016
|  6> C      1.812482   -0.565934   -0.000009
|  7> C     -1.975116   -0.101915   -0.000016
|  8> N     -0.623641   -0.629072    0.000038
|  9> O      0.425955    1.384169    0.000000
| 10> H      2.378559   -0.258444   -0.878404
| 11> H      2.378838   -0.257978    0.878038
| 12> H      1.716856   -1.651294    0.000288
| 13> H     -2.523186   -0.423664   -0.887098
| 14> H     -1.906742    0.982265   -0.000850
| 15> H     -2.522801   -0.422285    0.887811
| 16> H     -0.495040   -1.624899    0.000005
| 17> *
| 18>
| 19>                          ****END OF INPUT****

CARTESIAN COORDINATES (ANGSTROEM)
---------------------------------
  C      0.484528    0.165592    0.000016
  C      1.812482   -0.565934   -0.000009
  C     -1.975116   -0.101915   -0.000016
  N     -0.623641   -0.629072    0.000038
  O      0.425955    1.384169    0.000000
  H      2.378559   -0.258444   -0.878404
  H      2.378838   -0.257978    0.878038
  H      1.716856   -1.651294    0.000288
  H     -2.523186   -0.423664   -0.887098
  H     -1.906742    0.982265   -0.000850
  H     -2.522801   -0.422285    0.887811
  H     -0.495040   -1.624899    0.000005

 Total Charge           Charge          ....    0
 Multiplicity           Mult            ....    1
 Number of Electrons    NEL             ....   40
 Basis Dimension        Dim             ....  178

ORBITAL ENERGIES
----------------

  NO   OCC          E(Eh)            E(eV)
   0   2.0000     -20.521053      -558.4062
   1   2.0000     -15.593419      -424.3185
   2   2.0000     -11.356002      -309.0125
   3   2.0000     -11.264904      -306.5336
   4   2.0000     -11.242923      -305.9355
   5   2.0000      -1.380280       -37.5593
   6   2.0000      -1.231101       -33.5000
   7   2.0000      -1.017674       -27.6923
   8   2.0000      -0.933523       -25.4024
   9   2.0000      -0.789503       -21.4835
  10   2.0000      -0.690660       -18.7938
  11   2.0000      -0.652144       -17.7457
  12   2.0000      -0.631342       -17.1797
  13   2.0000      -0.585761       -15.9394
  14   2.0000      -0.581523       -15.8240
  15   2.0000      -0.553756       -15.0685
  16   2.0000      -0.544457       -14.8154
  17   2.0000      -0.504656       -13.7324
  18   2.0000      -0.419344       -11.4109
  19   2.0000      -0.389921       -10.6103
  20   0.0000       0.029117         0.7923
  21   0.0000       0.042868         1.1665
  22   0.0000       0.052004         1.4151
  23   0.0000       0.052894         1.4393
  24   0.0000       0.068199         1.8558

MULLIKEN ATOMIC CHARGES
-----------------------
   0 C :    0.721185
   1 C :    0.388973
   2 C :    0.738219
   3 N :   -0.470529
   4 O :   -0.841763
   5 H :    0.037445
   6 H :    0.037419
   7 H :   -0.137547
   8 H :   -0.101785
   9 H :   -0.155708
  10 H :   -0.101654
  11 H :   -0.114254
Sum of atomic charges:   -0.0000000

LOEWDIN ATOMIC CHARGES
----------------------
   0 C :   -0.372983
   1 C :    0.208979
   2 C :    0.185242
   3 N :    0.062456
   4 O :    0.011217
   5 H :   -0.005116
   6 H :   -0.005119
   7 H :   -0.021866
   8 H :   -0.018006
   9 H :   -0.022873
  10 H :   -0.018001
  11 H :   -0.003928

  Mayer bond orders larger than 0.100000
B(  0-C ,  1-C ) :   1.0563 B(  0-C ,  3-N ) :   1.0442 B(  0-C ,  4-O ) :   1.3544
B(  1-C ,  5-H ) :   0.8978 B(  1-C ,  6-H ) :   0.8978 B(  1-C ,  7-H ) :   0.9637
B(  2-C ,  3-N ) :   0.8613 B(  2-C ,  8-H ) :   0.9510 B(  2-C ,  9-H ) :   1.0287
B(  2-C , 10-H ) :   0.9508 B(  3-N , 11-H ) :   1.0994

MP2 TOTAL ENERGY:     -247.846560448 Eh
FINAL SINGLE POINT ENERGY      -247.846560447688

DIPOLE MOMENT
-------------
                                X             Y             Z
Electronic contribution:      0.75994       2.13878       0.00014
Nuclear contribution   :     -0.99739      -3.73911      -0.00022
                        -----------------------------------------
Total Dipole Moment    :     -0.23745      -1.60032      -0.00008
                        -----------------------------------------
Magnitude (a.u.)       :      1.61784
Magnitude (Debye)      :      4.11223

Rotational constants in cm-1:     0.335584     0.127864     0.095897
Rotational constants in MHz : 10060.564563  3833.257774  2874.918376

                             ****ORCA TERMINATED NORMALLY****
TOTAL RUN TIME: 0 days 0 hours 0 minutes 26 seconds 283 msec
