                         Program Version 5.0.3 -  RELEASE  -
|  1> !ri-mp2 aug-cc-pvdz aug-cc-pvdz/c tightscf
|  2> %pal nprocs 16 end
|  3>
|  4> * xyz 0 1
|  5> O      0.003809    1.878896   -0.058549
|  6> O     -1.325094   -1.341270   -0.193926
|  7> N     -1.242362    0.008952    0.182819
|  8> C     -0.039394    0.667675    0.014547
|  9> C      1.144130   -0.169619    0.016092
| 10> C      2.171402   -0.787529    0.007182
| 11> H     -1.418256   -1.824659    0.635941
| 12> H     -2.054044    0.531652   -0.119875
| 13> H      3.082283   -1.333824   -0.002916
| 14> *
| 15>
| 16>                          ****END OF INPUT****

CARTESIAN COORDINATES (ANGSTROEM)
---------------------------------
  O      0.003809    1.878896   -0.058549
  O     -1.325094   -1.341270   -0.193926
  N     -1.242362    0.008952    0.182819
  C     -0.039394    0.667675    0.014547
  C      1.144130   -0.169619    0.016092
  C      2.171402   -0.787529    0.007182
  H     -1.418256   -1.824659    0.635941
  H     -2.054044    0.531652   -0.119875
  H      3.082283   -1.333824   -0.002916

 Total Charge           Charge          ....    0
 Multiplicity           Mult            ....    1
 Number of Electrons    NEL             ....   44
 Basis Dimension        Dim             ....  165

ORBITAL ENERGIES
----------------

  NO   OCC          E(Eh)            E(eV)
   0   2.0000     -20.644119      -561.7550
   1   2.0000     -20.565318      -559.6108
   2   2.0000     -15.661512      -426.1714
   3   2.0000     -11.404868      -310.3422
   4   2.0000     -11.277308      -306.8712
   5   2.0000     -11.268506      -306.6316
   6   2.0000      -1.465923       -39.8898
   7   2.0000      -1.408712       -38.3330
   8   2.0000      -1.166643       -31.7460
   9   2.0000      -1.069000       -29.0890
  10   2.0000      -0.909477       -24.7481
  11   2.0000      -0.777065       -21.1450
  12   2.0000      -0.745141       -20.2763
  13   2.0000      -0.720351       -19.6017
  14   2.0000      -0.696345       -18.9485
  15   2.0000      -0.640927       -17.4405
  16   2.0000      -0.587356       -15.9828
  17   2.0000      -0.542110       -14.7516
  18   2.0000      -0.474478       -12.9112
  19   2.0000      -0.432511       -11.7692
  20   2.0000      -0.427162       -11.6237
  21   2.0000      -0.423611       -11.5270
  22   0.0000       0.029770         0.8101
  23   0.0000       0.037885         1.0309
  24   0.0000       0.051735         1.4078
  25   0.0000       0.075607         2.0574
  26   0.0000       0.095759         2.6057

MULLIKEN ATOMIC CHARGES
-----------------------
   0 O :   -0.750496
   1 O :   -0.618555
   2 N :   -0.006145
   3 C :    0.852597
   4 C :   -0.011949
   5 C :    0.685924
   6 H :    0.202043
   7 H :    0.104741
   8 H :   -0.458160
Sum of atomic charges:    0.0000000

LOEWDIN ATOMIC CHARGES
----------------------
   0 O :    0.049691
   1 O :    0.152883
   2 N :    0.074995
   3 C :   -0.389488
   4 C :   -0.007791
   5 C :    0.249377
   6 H :   -0.046468
   7 H :    0.006833
   8 H :   -0.090032

  Mayer bond orders larger than 0.100000
B(  0-O ,  3-C ) :   1.2991 B(  1-O ,  2-N ) :   0.8172 B(  1-O ,  6-H ) :   1.0361
B(  2-N ,  3-C ) :   0.9614 B(  2-N ,  7-H ) :   1.0449 B(  3-C ,  4-C ) :   1.1354
B(  3-C ,  5-C ) :   0.1670 B(  4-C ,  5-C ) :   2.6330 B(  4-C ,  8-H ) :   0.2120
B(  5-C ,  8-H ) :   0.2577

MP2 TOTAL ENERGY:     -320.394318971 Eh
FINAL SINGLE POINT ENERGY      -320.394318971350

DIPOLE MOMENT
-------------
                                X             Y             Z
Electronic contribution:      0.25289       1.17914      -0.12022
Nuclear contribution   :     -0.40621      -2.54360       0.49569
                        -----------------------------------------
Total Dipole Moment    :     -0.15332      -1.36446       0.37546
                        -----------------------------------------
Magnitude (a.u.)       :      1.42346
Magnitude (Debye)      :      3.61814

Rotational constants in cm-1:     0.160361     0.120699     0.069739
Rotational constants in MHz :  4807.499044  3618.464480  2090.720300

                             ****ORCA TERMINATED NORMALLY****
TOTAL RUN TIME: 0 days 0 hours 0 minutes 26 seconds 302 msec
