                         Program Version 5.0.3 -  RELEASE  -
|  1> !ri-mp2 aug-cc-pvdz aug-cc-pvdz/c tightscf
|  2> %pal nprocs 16 end
|  3> %maxcore 3800
|  4>
|  5> * xyz 0 1
|  6> C     -0.824709    1.228044    0.516573
|  7> C     -0.551689   -0.837659   -0.670034
|  8> C     -2.192547    1.016290    0.567183
|  9> C     -1.928178   -1.033187   -0.636809
| 10> C      0.016971    0.292751   -0.088553
| 11> C     -2.771189   -0.118200   -0.009775
| 12> C      1.480040    0.615826   -0.196992
| 13> C     -4.260063   -0.333800    0.047428
| 14> C      3.800000   -0.087883   -0.163135
| 15> C      2.129735   -1.553398    0.876092
| 16> N      2.392421   -0.372582    0.069758
| 17> O      1.827343    1.734039   -0.557225
| 18> H     -0.393860    2.126909    0.935086
| 19> H      0.076121   -1.560776   -1.173451
| 20> H     -2.825569    1.749761    1.051454
| 21> H     -2.351256   -1.910030   -1.110565
| 22> H     -4.560652   -1.194770   -0.547754
| 23> H     -4.593447   -0.504188    1.073579
| 24> H     -4.800270    0.538795   -0.323928
| 25> H      4.294841   -0.991603   -0.522094
| 26> H      4.298732    0.238192    0.755175
| 27> H      3.890077    0.701076   -0.901854
| 28> H      2.743352   -1.528530    1.781764
| 29> H      2.377510   -2.465691    0.327084
| 30> H      1.088513   -1.596087    1.173131
| 31> *
| 32>
| 33>                          ****END OF INPUT****

CARTESIAN COORDINATES (ANGSTROEM)
---------------------------------
  C     -0.824709    1.228044    0.516573
  C     -0.551689   -0.837659   -0.670034
  C     -2.192547    1.016290    0.567183
  C     -1.928178   -1.033187   -0.636809
  C      0.016971    0.292751   -0.088553
  C     -2.771189   -0.118200   -0.009775
  C      1.480040    0.615826   -0.196992
  C     -4.260063   -0.333800    0.047428
  C      3.800000   -0.087883   -0.163135
  C      2.129735   -1.553398    0.876092
  N      2.392421   -0.372582    0.069758
  O      1.827343    1.734039   -0.557225
  H     -0.393860    2.126909    0.935086
  H      0.076121   -1.560776   -1.173451
  H     -2.825569    1.749761    1.051454
  H     -2.351256   -1.910030   -1.110565
  H     -4.560652   -1.194770   -0.547754
  H     -4.593447   -0.504188    1.073579
  H     -4.800270    0.538795   -0.323928
  H      4.294841   -0.991603   -0.522094
  H      4.298732    0.238192    0.755175
  H      3.890077    0.701076   -0.901854
  H      2.743352   -1.528530    1.781764
  H      2.377510   -2.465691    0.327084
  H      1.088513   -1.596087    1.173131

 Total Charge           Charge          ....    0
 Multiplicity           Mult            ....    1
 Number of Electrons    NEL             ....   88
 Basis Dimension        Dim             ....  393

ORBITAL ENERGIES
----------------

  NO   OCC          E(Eh)            E(eV)
   0   2.0000     -20.521564      -558.4202
   1   2.0000     -15.591496      -424.2662
   2   2.0000     -11.354561      -308.9733
   3   2.0000     -11.271666      -306.7176
   4   2.0000     -11.257633      -306.3358
   5   2.0000     -11.256285      -306.2991
   6   2.0000     -11.251655      -306.1731
   7   2.0000     -11.248754      -306.0942
   8   2.0000     -11.246429      -306.0309
   9   2.0000     -11.241969      -305.9095
  10   2.0000     -11.239760      -305.8494
  11   2.0000     -11.236907      -305.7718
  12   2.0000      -1.379682       -37.5431
  13   2.0000      -1.244016       -33.8514
  14   2.0000      -1.168171       -31.7876
  15   2.0000      -1.065934       -29.0055
  16   2.0000      -1.024791       -27.8860
  17   2.0000      -0.977041       -26.5866
  18   2.0000      -0.964207       -26.2374
  19   2.0000      -0.925034       -25.1715
  20   2.0000      -0.839934       -22.8558
  21   2.0000      -0.822991       -22.3947
  22   2.0000      -0.754168       -20.5219
  23   2.0000      -0.710126       -19.3235
  24   2.0000      -0.665169       -18.1002
  25   2.0000      -0.652212       -17.7476
  26   2.0000      -0.648491       -17.6463
  27   2.0000      -0.634245       -17.2587
  28   2.0000      -0.620806       -16.8930
  29   2.0000      -0.592100       -16.1119
  30   2.0000      -0.582803       -15.8589
  31   2.0000      -0.574499       -15.6329
  32   2.0000      -0.561533       -15.2801
  33   2.0000      -0.556726       -15.1493
  34   2.0000      -0.549075       -14.9411
  35   2.0000      -0.535893       -14.5824
  36   2.0000      -0.523333       -14.2406
  37   2.0000      -0.506337       -13.7781
  38   2.0000      -0.492501       -13.4016
  39   2.0000      -0.489003       -13.3064
  40   2.0000      -0.421389       -11.4666
  41   2.0000      -0.369788       -10.0625
  42   2.0000      -0.343236        -9.3399
  43   2.0000      -0.331582        -9.0228
  44   0.0000       0.030835         0.8391
  45   0.0000       0.035702         0.9715
  46   0.0000       0.041074         1.1177
  47   0.0000       0.047442         1.2910
  48   0.0000       0.049720         1.3530

MULLIKEN ATOMIC CHARGES
-----------------------
   0 C :   -0.257870
   1 C :    0.310126
   2 C :    0.706491
   3 C :    0.337875
   4 C :    1.563974
   5 C :   -0.197908
   6 C :    0.028940
   7 C :    0.725174
   8 C :    0.797975
   9 C :    0.881348
  10 N :   -0.594619
  11 O :   -0.841860
  12 H :   -0.647468
  13 H :   -0.678501
  14 H :   -0.616503
  15 H :   -0.626434
  16 H :   -0.186824
  17 H :    0.107436
  18 H :    0.064911
  19 H :   -0.115178
  20 H :   -0.073053
  21 H :   -0.203132
  22 H :   -0.122272
  23 H :   -0.134366
  24 H :   -0.228265
Sum of atomic charges:    0.0000000

LOEWDIN ATOMIC CHARGES
----------------------
   0 C :    0.068750
   1 C :    0.050480
   2 C :    0.053653
   3 C :    0.048399
   4 C :   -0.127358
   5 C :   -0.209454
   6 C :   -0.280265
   7 C :    0.177245
   8 C :    0.187038
   9 C :    0.184695
  10 N :   -0.131734
  11 O :    0.033987
  12 H :    0.016286
  13 H :    0.015621
  14 H :    0.009264
  15 H :    0.003871
  16 H :   -0.015957
  17 H :   -0.006442
  18 H :   -0.007943
  19 H :   -0.010449
  20 H :   -0.003462
  21 H :   -0.020338
  22 H :   -0.004938
  23 H :   -0.005808
  24 H :   -0.025137

  Mayer bond orders larger than 0.100000
B(  0-C ,  1-C ) :  -0.5491 B(  0-C ,  2-C ) :   3.0228 B(  0-C ,  3-C ) :   0.1885
B(  0-C ,  4-C ) :   1.0621 B(  0-C ,  5-C ) :  -0.6872 B(  0-C ,  7-C ) :   0.1475
B(  0-C , 11-O ) :  -0.1138 B(  0-C , 12-H ) :  -0.5403 B(  0-C , 14-H ) :   0.5030
B(  1-C ,  2-C ) :   0.2337 B(  1-C ,  3-C ) :   2.5258 B(  1-C ,  4-C ) :   1.3371
B(  1-C ,  5-C ) :  -0.4860 B(  1-C ,  6-C ) :  -0.4182 B(  1-C ,  7-C ) :   0.2716
B(  1-C , 13-H ) :  -0.4799 B(  1-C , 15-H ) :   0.3650 B(  2-C ,  3-C ) :  -0.5498
B(  2-C ,  4-C ) :  -0.6607 B(  2-C ,  5-C ) :   1.3180 B(  2-C ,  7-C ) :  -0.6151
B(  2-C , 12-H ) :   0.3489 B(  2-C , 14-H ) :  -0.3751 B(  2-C , 18-H ) :  -0.1062
B(  3-C ,  4-C ) :  -0.5207 B(  3-C ,  5-C ) :   2.0707 B(  3-C ,  6-C ) :   0.1462
B(  3-C ,  7-C ) :  -0.2900 B(  3-C , 13-H ) :   0.5775 B(  3-C , 15-H ) :  -0.5494
B(  3-C , 16-H ) :  -0.1011 B(  4-C ,  5-C ) :   0.7596 B(  4-C ,  6-C ) :   0.8860
B(  4-C , 10-N ) :   0.1060 B(  4-C , 11-O ) :   0.1337 B(  4-C , 12-H ) :   0.8178
B(  4-C , 13-H ) :   0.4229 B(  4-C , 14-H ) :  -0.2133 B(  4-C , 15-H ) :  -0.1825
B(  5-C ,  7-C ) :   1.5411 B(  5-C , 12-H ) :  -0.1997 B(  5-C , 13-H ) :  -0.1943
B(  5-C , 14-H ) :   0.5844 B(  5-C , 15-H ) :   0.7946 B(  5-C , 16-H ) :   0.5534
B(  5-C , 17-H ) :   0.2177 B(  5-C , 18-H ) :   0.2676 B(  6-C ,  7-C ) :   0.1278
B(  6-C , 10-N ) :   1.0381 B(  6-C , 11-O ) :   1.3429 B(  6-C , 21-H ) :   0.1735
B(  7-C , 16-H ) :   0.4968 B(  7-C , 17-H ) :   0.8527 B(  7-C , 18-H ) :   0.8118
B(  8-C , 10-N ) :   0.9271 B(  8-C , 19-H ) :   0.9186 B(  8-C , 20-H ) :   0.8783
B(  8-C , 21-H ) :   1.0413 B(  9-C , 10-N ) :   0.8207 B(  9-C , 22-H ) :   0.9301
B(  9-C , 23-H ) :   0.8894 B(  9-C , 24-H ) :   1.0043 B( 19-H , 21-H ) :  -0.1102
B( 22-H , 24-H ) :  -0.1143

MP2 TOTAL ENERGY:     -517.396773403 Eh
FINAL SINGLE POINT ENERGY      -517.396773402670

DIPOLE MOMENT
-------------
                                X             Y             Z
Electronic contribution:      0.24774       5.03169      -1.96061
Nuclear contribution   :     -0.72202      -6.45184       2.54077
                        -----------------------------------------
Total Dipole Moment    :     -0.47428      -1.42015       0.58017
                        -----------------------------------------
Magnitude (a.u.)       :      1.60573
Magnitude (Debye)      :      4.08143

Rotational constants in cm-1:     0.079885     0.016798     0.014990
Rotational constants in MHz :  2394.894384   503.605520   449.382949

                             ****ORCA TERMINATED NORMALLY****
TOTAL RUN TIME: 0 days 0 hours 3 minutes 9 seconds 174 msec
