                         Program Version 5.0.3 -  RELEASE  -
|  1> !ri-mp2 aug-cc-pvdz aug-cc-pvdz/c tightscf
|  2> %pal nprocs 16 end
|  3> %maxcore 3800
|  4>
|  5> * xyz 0 1
|  6> C    -3.674067   -0.853951   -0.083418
|  7> C    -2.544884   -1.650937    0.067775
|  8> C    -3.509148    0.522321   -0.154373
|  9> C    -1.279010   -1.090719    0.146626
| 10> C    -2.248330    1.098967   -0.065846
| 11> C    -1.102333    0.302544    0.091353
| 12> C     0.314133    2.318038    0.012392
| 13> C     1.235426    0.205711    0.866884
| 14> C     2.316851   -0.367967   -0.044102
| 15> N     0.170829    0.879498    0.166684
| 16> F     3.284492   -0.950410    0.698778
| 17> F     1.843375   -1.300588   -0.890331
| 18> F     2.908950    0.584737   -0.794752
| 19> H    -4.657463   -1.297035   -0.151204
| 20> H    -2.643137   -2.727701    0.109315
| 21> H    -4.370757    1.166188   -0.272823
| 22> H    -0.425739   -1.747886    0.213334
| 23> H    -2.166729    2.173555   -0.110469
| 24> H    -0.155118    2.650083   -0.912697
| 25> H     1.369780    2.566254   -0.050624
| 26> H    -0.127388    2.879150    0.846120
| 27> H     1.743693    0.891876    1.548447
| 28> H     0.853873   -0.618659    1.466816
| 29> *
| 30>
| 31>                          ****END OF INPUT****

CARTESIAN COORDINATES (ANGSTROEM)
---------------------------------
  C     -3.674067   -0.853951   -0.083418
  C     -2.544884   -1.650937    0.067775
  C     -3.509148    0.522321   -0.154373
  C     -1.279010   -1.090719    0.146626
  C     -2.248330    1.098967   -0.065846
  C     -1.102333    0.302544    0.091353
  C      0.314133    2.318038    0.012392
  C      1.235426    0.205711    0.866884
  C      2.316851   -0.367967   -0.044102
  N      0.170829    0.879498    0.166684
  F      3.284492   -0.950410    0.698778
  F      1.843375   -1.300588   -0.890331
  F      2.908950    0.584737   -0.794752
  H     -4.657463   -1.297035   -0.151204
  H     -2.643137   -2.727701    0.109315
  H     -4.370757    1.166188   -0.272823
  H     -0.425739   -1.747886    0.213334
  H     -2.166729    2.173555   -0.110469
  H     -0.155118    2.650083   -0.912697
  H      1.369780    2.566254   -0.050624
  H     -0.127388    2.879150    0.846120
  H      1.743693    0.891876    1.548447
  H      0.853873   -0.618659    1.466816

 Total Charge           Charge          ....    0
 Multiplicity           Mult            ....    1
 Number of Electrons    NEL             ....   98
 Basis Dimension        Dim             ....  389

ORBITAL ENERGIES
----------------

  NO   OCC          E(Eh)            E(eV)
   0   2.0000     -26.351392      -717.0578
   1   2.0000     -26.350264      -717.0271
   2   2.0000     -26.350166      -717.0245
   3   2.0000     -15.594812      -424.3564
   4   2.0000     -11.513911      -313.3095
   5   2.0000     -11.306602      -307.6683
   6   2.0000     -11.293457      -307.3106
   7   2.0000     -11.273833      -306.7766
   8   2.0000     -11.244385      -305.9753
   9   2.0000     -11.244270      -305.9721
  10   2.0000     -11.234668      -305.7109
  11   2.0000     -11.234468      -305.7054
  12   2.0000     -11.229458      -305.5691
  13   2.0000      -1.730475       -47.0886
  14   2.0000      -1.636878       -44.5417
  15   2.0000      -1.636318       -44.5265
  16   2.0000      -1.280764       -34.8513
  17   2.0000      -1.149475       -31.2788
  18   2.0000      -1.063295       -28.9337
  19   2.0000      -1.024106       -27.8673
  20   2.0000      -1.011718       -27.5303
  21   2.0000      -0.948123       -25.7997
  22   2.0000      -0.907743       -24.7009
  23   2.0000      -0.833734       -22.6870
  24   2.0000      -0.825419       -22.4608
  25   2.0000      -0.822321       -22.3765
  26   2.0000      -0.810853       -22.0644
  27   2.0000      -0.774378       -21.0719
  28   2.0000      -0.729210       -19.8428
  29   2.0000      -0.710907       -19.3448
  30   2.0000      -0.704805       -19.1787
  31   2.0000      -0.671201       -18.2643
  32   2.0000      -0.665559       -18.1108
  33   2.0000      -0.660413       -17.9707
  34   2.0000      -0.653500       -17.7826
  35   2.0000      -0.647125       -17.6092
  36   2.0000      -0.633633       -17.2420
  37   2.0000      -0.626167       -17.0389
  38   2.0000      -0.597846       -16.2682
  39   2.0000      -0.593507       -16.1501
  40   2.0000      -0.570297       -15.5186
  41   2.0000      -0.564513       -15.3612
  42   2.0000      -0.547079       -14.8868
  43   2.0000      -0.514008       -13.9869
  44   2.0000      -0.512270       -13.9396
  45   2.0000      -0.490815       -13.3558
  46   2.0000      -0.423981       -11.5371
  47   2.0000      -0.341672        -9.2974
  48   2.0000      -0.296773        -8.0756
  49   0.0000       0.031681         0.8621
  50   0.0000       0.038533         1.0485
  51   0.0000       0.040250         1.0953
  52   0.0000       0.049533         1.3479
  53   0.0000       0.053731         1.4621

MULLIKEN ATOMIC CHARGES
-----------------------
   0 C :    0.514727
   1 C :    0.625267
   2 C :    0.750297
   3 C :    0.338949
   4 C :    0.289377
   5 C :    0.831711
   6 C :    0.893671
   7 C :    0.187370
   8 C :    2.335183
   9 N :   -0.966581
  10 F :   -0.661645
  11 F :   -0.750771
  12 F :   -0.708924
  13 H :   -0.455263
  14 H :   -0.478761
  15 H :   -0.475574
  16 H :   -0.720007
  17 H :   -0.826611
  18 H :   -0.133009
  19 H :   -0.282350
  20 H :   -0.041447
  21 H :   -0.171303
  22 H :   -0.094308
Sum of atomic charges:    0.0000000

LOEWDIN ATOMIC CHARGES
----------------------
   0 C :   -0.003731
   1 C :    0.010917
   2 C :    0.009225
   3 C :    0.050631
   4 C :    0.049202
   5 C :   -0.151115
   6 C :    0.174097
   7 C :    0.054205
   8 C :   -0.340496
   9 N :   -0.117724
  10 F :    0.077315
  11 F :    0.088963
  12 F :    0.080939
  13 H :   -0.006374
  14 H :    0.004153
  15 H :    0.003404
  16 H :   -0.012402
  17 H :   -0.016696
  18 H :   -0.004486
  19 H :   -0.014080
  20 H :    0.000805
  21 H :    0.037687
  22 H :    0.025561

  Mayer bond orders larger than 0.100000
B(  0-C ,  1-C ) :   1.5745 B(  0-C ,  2-C ) :   1.5308 B(  0-C ,  3-C ) :   0.2780
B(  0-C ,  4-C ) :   0.2991 B(  0-C , 13-H ) :   0.2697 B(  1-C ,  2-C ) :  -0.2025
B(  1-C ,  3-C ) :   1.8599 B(  1-C ,  4-C ) :   0.1737 B(  1-C ,  5-C ) :  -0.2969
B(  1-C ,  7-C ) :   0.1073 B(  1-C , 13-H ) :   0.2274 B(  1-C , 15-H ) :  -0.1652
B(  1-C , 16-H ) :   0.2638 B(  2-C ,  3-C ) :   0.1142 B(  2-C ,  4-C ) :   1.7464
B(  2-C ,  5-C ) :  -0.2767 B(  2-C ,  6-C ) :   0.1084 B(  2-C , 13-H ) :   0.1997
B(  2-C , 14-H ) :  -0.1632 B(  2-C , 17-H ) :   0.4118 B(  3-C ,  4-C ) :   0.1192
B(  3-C ,  5-C ) :   1.5760 B(  3-C ,  9-N ) :  -0.1559 B(  3-C , 14-H ) :   0.7484
B(  3-C , 16-H ) :  -0.2090 B(  4-C ,  5-C ) :   1.5966 B(  4-C ,  9-N ) :  -0.1213
B(  4-C , 15-H ) :   0.6777 B(  4-C , 17-H ) :  -0.5491 B(  5-C ,  9-N ) :   0.9911
B(  5-C , 16-H ) :   0.4499 B(  5-C , 17-H ) :   0.5869 B(  6-C ,  9-N ) :   0.9756
B(  6-C , 18-H ) :   0.9128 B(  6-C , 19-H ) :   1.0172 B(  6-C , 20-H ) :   0.8214
B(  7-C ,  8-C ) :   1.0612 B(  7-C ,  9-N ) :   0.8333 B(  7-C , 10-F ) :   0.1952
B(  7-C , 11-F ) :   0.2950 B(  7-C , 12-F ) :   0.1376 B(  7-C , 21-H ) :   0.9127
B(  7-C , 22-H ) :   0.7995 B(  8-C , 10-F ) :   0.1084 B(  8-C , 11-F ) :   0.1063
B(  8-C , 12-F ) :   0.1680 B( 18-H , 19-H ) :  -0.1295 B( 19-H , 20-H ) :  -0.1155
B( 21-H , 22-H ) :  -0.1266

MP2 TOTAL ENERGY:     -701.510453346 Eh
FINAL SINGLE POINT ENERGY      -701.510453345600

DIPOLE MOMENT
-------------
                                X             Y             Z
Electronic contribution:     17.59783      -6.73477      -2.95325
Nuclear contribution   :    -18.01310       7.38089       3.56200
                        -----------------------------------------
Total Dipole Moment    :     -0.41527       0.64612       0.60875
                        -----------------------------------------
Magnitude (a.u.)       :      0.98005
Magnitude (Debye)      :      2.49109

Rotational constants in cm-1:     0.055820     0.015222     0.012929
Rotational constants in MHz :  1673.444677   456.334065   387.604077

                             ****ORCA TERMINATED NORMALLY****
TOTAL RUN TIME: 0 days 0 hours 2 minutes 43 seconds 684 msec
