                         Program Version 5.0.3 -  RELEASE  -
|  1> !ri-mp2 aug-cc-pvdz aug-cc-pvdz/c tightscf
|  2> %pal nprocs 16 end
|  3>
|  4> * xyz 0 1
|  5> C      0.000229   -1.324841    0.000000
|  6> N     -0.009436    0.173920    0.000000
|  7> O      0.000229    0.730465    1.084390
|  8> O      0.000229    0.730465   -1.084390
|  9> H     -0.491970   -1.664331   -0.903741
| 10> H     -0.491970   -1.664331    0.903741
| 11> H      1.044943   -1.627166    0.000000
| 12> *
| 13>
| 14>                          ****END OF INPUT****

CARTESIAN COORDINATES (ANGSTROEM)
---------------------------------
  C      0.000229   -1.324841    0.000000
  N     -0.009436    0.173920    0.000000
  O      0.000229    0.730465    1.084390
  O      0.000229    0.730465   -1.084390
  H     -0.491970   -1.664331   -0.903741
  H     -0.491970   -1.664331    0.903741
  H      1.044943   -1.627166    0.000000

 Total Charge           Charge          ....    0
 Multiplicity           Mult            ....    1
 Number of Electrons    NEL             ....   32
 Basis Dimension        Dim             ....  119

ORBITAL ENERGIES
----------------

  NO   OCC          E(Eh)            E(eV)
   0   2.0000     -20.619052      -561.0729
   1   2.0000     -20.618997      -561.0714
   2   2.0000     -15.862025      -431.6276
   3   2.0000     -11.320227      -308.0390
   4   2.0000      -1.618729       -44.0479
   5   2.0000      -1.413403       -38.4606
   6   2.0000      -1.103421       -30.0256
   7   2.0000      -0.873842       -23.7784
   8   2.0000      -0.759415       -20.6647
   9   2.0000      -0.740481       -20.1495
  10   2.0000      -0.739787       -20.1306
  11   2.0000      -0.629513       -17.1299
  12   2.0000      -0.603535       -16.4230
  13   2.0000      -0.498091       -13.5538
  14   2.0000      -0.496188       -13.5020
  15   2.0000      -0.459798       -12.5117
  16   0.0000       0.027036         0.7357
  17   0.0000       0.046993         1.2788
  18   0.0000       0.053565         1.4576
  19   0.0000       0.083768         2.2794
  20   0.0000       0.088739         2.4147

MULLIKEN ATOMIC CHARGES
-----------------------
   0 C :    0.854993
   1 N :    0.762376
   2 O :   -0.759273
   3 O :   -0.759273
   4 H :   -0.053179
   5 H :   -0.053179
   6 H :    0.007535
Sum of atomic charges:    0.0000000

LOEWDIN ATOMIC CHARGES
----------------------
   0 C :    0.270004
   1 N :   -0.401401
   2 O :    0.071178
   3 O :    0.071178
   4 H :   -0.006548
   5 H :   -0.006548
   6 H :    0.002137

  Mayer bond orders larger than 0.100000
B(  0-C ,  1-N ) :   0.6975 B(  0-C ,  4-H ) :   0.9446 B(  0-C ,  5-H ) :   0.9446
B(  0-C ,  6-H ) :   0.9305 B(  1-N ,  2-O ) :   1.1953 B(  1-N ,  3-O ) :   1.1953
B(  2-O ,  3-O ) :   0.1685

MP2 TOTAL ENERGY:     -244.436892310 Eh
FINAL SINGLE POINT ENERGY      -244.436892310207

DIPOLE MOMENT
-------------
                                X             Y             Z
Electronic contribution:     -0.05586       3.23371       0.00000
Nuclear contribution   :      0.06002      -4.85569       0.00000
                        -----------------------------------------
Total Dipole Moment    :      0.00415      -1.62199       0.00000
                        -----------------------------------------
Magnitude (a.u.)       :      1.62199
Magnitude (Debye)      :      4.12278

Rotational constants in cm-1:     0.412544     0.350994     0.196678
Rotational constants in MHz : 12367.746883 10522.541801  5896.271476

                             ****ORCA TERMINATED NORMALLY****
TOTAL RUN TIME: 0 days 0 hours 0 minutes 33 seconds 694 msec
