                         Program Version 5.0.3 -  RELEASE  -
|  1> !ri-mp2 aug-cc-pvdz aug-cc-pvdz/c tightscf
|  2> %pal nprocs 16 end
|  3>
|  4> * xyz 0 1
|  5> N     -0.047335    0.494707    0.000095
|  6> N     -2.426020   -0.243839   -0.000088
|  7> N      2.256899   -0.124368    0.000008
|  8> C     -1.325935    0.106762   -0.000003
|  9> C      1.029441   -0.407626   -0.000048
| 10> H      0.145193    1.485628    0.000247
| 11> H      2.449675    0.876936    0.000174
| 12> H      0.699288   -1.442885   -0.000220
| 13> *
| 14>
| 15>                          ****END OF INPUT****

CARTESIAN COORDINATES (ANGSTROEM)
---------------------------------
  N     -0.047335    0.494707    0.000095
  N     -2.426020   -0.243839   -0.000088
  N      2.256899   -0.124368    0.000008
  C     -1.325935    0.106762   -0.000003
  C      1.029441   -0.407626   -0.000048
  H      0.145193    1.485628    0.000247
  H      2.449675    0.876936    0.000174
  H      0.699288   -1.442885   -0.000220

 Total Charge           Charge          ....    0
 Multiplicity           Mult            ....    1
 Number of Electrons    NEL             ....   36
 Basis Dimension        Dim             ....  142

ORBITAL ENERGIES
----------------

  NO   OCC          E(Eh)            E(eV)
   0   2.0000     -15.670813      -426.4245
   1   2.0000     -15.596164      -424.3932
   2   2.0000     -15.584701      -424.0813
   3   2.0000     -11.368510      -309.3529
   4   2.0000     -11.337070      -308.4974
   5   2.0000      -1.347309       -36.6621
   6   2.0000      -1.246448       -33.9176
   7   2.0000      -1.202953       -32.7340
   8   2.0000      -0.907445       -24.6928
   9   2.0000      -0.846936       -23.0463
  10   2.0000      -0.752691       -20.4818
  11   2.0000      -0.639597       -17.4043
  12   2.0000      -0.629176       -17.1207
  13   2.0000      -0.577658       -15.7189
  14   2.0000      -0.497998       -13.5512
  15   2.0000      -0.496289       -13.5047
  16   2.0000      -0.465122       -12.6566
  17   2.0000      -0.403710       -10.9855
  18   0.0000       0.021341         0.5807
  19   0.0000       0.044747         1.2176
  20   0.0000       0.050818         1.3828
  21   0.0000       0.080847         2.2000
  22   0.0000       0.093007         2.5309

MULLIKEN ATOMIC CHARGES
-----------------------
   0 N :   -0.149869
   1 N :   -0.291411
   2 N :   -0.414430
   3 C :   -0.003270
   4 C :    1.095198
   5 H :   -0.062049
   6 H :   -0.023940
   7 H :   -0.150228
Sum of atomic charges:    0.0000000

LOEWDIN ATOMIC CHARGES
----------------------
   0 N :    0.074896
   1 N :    0.091021
   2 N :    0.153789
   3 C :   -0.212264
   4 C :   -0.080177
   5 H :    0.029735
   6 H :   -0.081178
   7 H :    0.024178

  Mayer bond orders larger than 0.100000
B(  0-N ,  3-C ) :   1.1241 B(  0-N ,  4-C ) :   0.6869 B(  0-N ,  5-H ) :   1.1245
B(  1-N ,  3-C ) :   2.6980 B(  2-N ,  4-C ) :   1.7320 B(  2-N ,  6-H ) :   1.0347
B(  2-N ,  7-H ) :  -0.1050 B(  3-C ,  4-C ) :  -0.1352 B(  4-C ,  7-H ) :   0.9786

MP2 TOTAL ENERGY:     -241.594282822 Eh
FINAL SINGLE POINT ENERGY      -241.594282822221

DIPOLE MOMENT
-------------
                                X             Y             Z
Electronic contribution:     -2.49565       0.10032      -0.00002
Nuclear contribution   :      3.22345       0.90101       0.00020
                        -----------------------------------------
Total Dipole Moment    :      0.72780       1.00133       0.00018
                        -----------------------------------------
Magnitude (a.u.)       :      1.23789
Magnitude (Debye)      :      3.14646

Rotational constants in cm-1:     1.442567     0.086859     0.081926
Rotational constants in MHz : 43247.058861  2603.969369  2456.084867

                             ****ORCA TERMINATED NORMALLY****
TOTAL RUN TIME: 0 days 0 hours 0 minutes 23 seconds 603 msec
