                         Program Version 5.0.3 -  RELEASE  -
|  1> !ri-mp2 aug-cc-pvdz aug-cc-pvdz/c tightscf
|  2> %pal nprocs 16 end
|  3>
|  4> * xyz 0 1
|  5> F    -2.192510   -0.268440    1.108615
|  6> F    -2.196021   -0.431782   -1.071868
|  7> N    -1.580972    0.316470   -0.035136
|  8> N     1.505260   -1.737413    0.024215
|  9> N     0.347175    2.296354    0.002544
| 10> C    -0.202650   -0.061410   -0.009063
| 11> C     0.727919    0.992051   -0.013556
| 12> C     0.228543   -1.384447    0.013005
| 13> C     2.079236    0.604782   -0.004927
| 14> C     2.400219   -0.735610    0.013200
| 15> H     1.025447    3.014652   -0.169637
| 16> H    -0.622485    2.526037   -0.124140
| 17> H    -0.507894   -2.178420    0.017074
| 18> H     2.859819    1.353746   -0.007846
| 19> H     3.442048   -1.034086    0.020506
| 20> *
| 21>
| 22>                          ****END OF INPUT****

CARTESIAN COORDINATES (ANGSTROEM)
---------------------------------
  F     -2.192510   -0.268440    1.108615
  F     -2.196021   -0.431782   -1.071868
  N     -1.580972    0.316470   -0.035136
  N      1.505260   -1.737413    0.024215
  N      0.347175    2.296354    0.002544
  C     -0.202650   -0.061410   -0.009063
  C      0.727919    0.992051   -0.013556
  C      0.228543   -1.384447    0.013005
  C      2.079236    0.604782   -0.004927
  C      2.400219   -0.735610    0.013200
  H      1.025447    3.014652   -0.169637
  H     -0.622485    2.526037   -0.124140
  H     -0.507894   -2.178420    0.017074
  H      2.859819    1.353746   -0.007846
  H      3.442048   -1.034086    0.020506

 Total Charge           Charge          ....    0
 Multiplicity           Mult            ....    1
 Number of Electrons    NEL             ....   74
 Basis Dimension        Dim             ....  275

ORBITAL ENERGIES
----------------

  NO   OCC          E(Eh)            E(eV)
   0   2.0000     -26.349275      -717.0002
   1   2.0000     -26.346861      -716.9345
   2   2.0000     -15.788448      -429.6255
   3   2.0000     -15.610534      -424.7842
   4   2.0000     -15.574793      -423.8117
   5   2.0000     -11.340312      -308.5856
   6   2.0000     -11.306812      -307.6740
   7   2.0000     -11.301553      -307.5309
   8   2.0000     -11.286998      -307.1348
   9   2.0000     -11.253974      -306.2362
  10   2.0000      -1.680116       -45.7183
  11   2.0000      -1.596973       -43.4558
  12   2.0000      -1.295026       -35.2394
  13   2.0000      -1.257663       -34.2228
  14   2.0000      -1.183098       -32.1937
  15   2.0000      -1.071794       -29.1650
  16   2.0000      -1.019291       -27.7363
  17   2.0000      -0.887052       -24.1379
  18   2.0000      -0.872331       -23.7373
  19   2.0000      -0.780132       -21.2285
  20   2.0000      -0.766529       -20.8583
  21   2.0000      -0.756107       -20.5747
  22   2.0000      -0.746783       -20.3210
  23   2.0000      -0.723492       -19.6872
  24   2.0000      -0.676507       -18.4087
  25   2.0000      -0.667577       -18.1657
  26   2.0000      -0.651035       -17.7156
  27   2.0000      -0.638108       -17.3638
  28   2.0000      -0.629850       -17.1391
  29   2.0000      -0.617301       -16.7976
  30   2.0000      -0.581888       -15.8340
  31   2.0000      -0.542532       -14.7630
  32   2.0000      -0.507567       -13.8116
  33   2.0000      -0.506572       -13.7845
  34   2.0000      -0.428406       -11.6575
  35   2.0000      -0.375455       -10.2166
  36   2.0000      -0.349538        -9.5114
  37   0.0000       0.023208         0.6315
  38   0.0000       0.038107         1.0370
  39   0.0000       0.049934         1.3588
  40   0.0000       0.057309         1.5595
  41   0.0000       0.070873         1.9285

MULLIKEN ATOMIC CHARGES
-----------------------
   0 F :   -0.543854
   1 F :   -0.548790
   2 N :   -0.042419
   3 N :   -0.677291
   4 N :   -0.386343
   5 C :    1.409657
   6 C :   -0.383107
   7 C :    0.577082
   8 C :    1.516589
   9 C :    0.292216
  10 H :   -0.060458
  11 H :    0.001942
  12 H :   -0.324408
  13 H :   -0.516687
  14 H :   -0.314130
Sum of atomic charges:   -0.0000000

LOEWDIN ATOMIC CHARGES
----------------------
   0 F :    0.003891
   1 F :    0.006817
   2 N :   -0.005063
   3 N :    0.027702
   4 N :    0.279442
   5 C :   -0.190000
   6 C :   -0.190378
   7 C :    0.026014
   8 C :    0.066473
   9 C :   -0.020051
  10 H :   -0.011007
  11 H :   -0.024469
  12 H :    0.019739
  13 H :    0.001967
  14 H :    0.008922

  Mayer bond orders larger than 0.100000
B(  0-F ,  2-N ) :   0.7153 B(  0-F ,  5-C ) :  -0.2039 B(  1-F ,  2-N ) :   0.7166
B(  1-F ,  5-C ) :  -0.2315 B(  2-N ,  5-C ) :   0.1187 B(  3-N ,  6-C ) :  -0.1024
B(  3-N ,  7-C ) :   1.4475 B(  3-N ,  9-C ) :   1.2377 B(  4-N ,  5-C ) :  -0.1050
B(  4-N ,  6-C ) :   1.0204 B(  4-N ,  8-C ) :  -0.1091 B(  4-N , 10-H ) :   1.1223
B(  4-N , 11-H ) :   1.1337 B(  5-C ,  6-C ) :   1.1653 B(  5-C ,  7-C ) :   1.3347
B(  5-C ,  8-C ) :   0.3030 B(  5-C ,  9-C ) :  -0.2295 B(  5-C , 12-H ) :   0.1963
B(  6-C ,  7-C ) :   0.5060 B(  6-C ,  8-C ) :   0.8317 B(  6-C ,  9-C ) :   0.4942
B(  6-C , 13-H ) :   0.6135 B(  6-C , 14-H ) :   0.1097 B(  7-C ,  8-C ) :  -0.1253
B(  7-C ,  9-C ) :   0.3160 B(  7-C , 12-H ) :   0.6456 B(  8-C ,  9-C ) :   0.9977
B(  9-C , 14-H ) :   0.9069

MP2 TOTAL ENERGY:     -555.989946960 Eh
FINAL SINGLE POINT ENERGY      -555.989946960305

DIPOLE MOMENT
-------------
                                X             Y             Z
Electronic contribution:     -9.14522      -2.67052       0.08915
Nuclear contribution   :     10.08733       4.19349      -0.28768
                        -----------------------------------------
Total Dipole Moment    :      0.94212       1.52297      -0.19854
                        -----------------------------------------
Magnitude (a.u.)       :      1.80179
Magnitude (Debye)      :      4.57978

Rotational constants in cm-1:     0.071235     0.037765     0.028450
Rotational constants in MHz :  2135.570665  1132.153149   852.897602

                             ****ORCA TERMINATED NORMALLY****
TOTAL RUN TIME: 0 days 0 hours 0 minutes 59 seconds 513 msec
