                         Program Version 5.0.3 -  RELEASE  -
|  1> !ri-mp2 aug-cc-pvdz aug-cc-pvdz/c tightscf
|  2> %pal nprocs 16 end
|  3> %maxcore 3800
|  4>
|  5> * xyz 0 1
|  6> C     -0.060027   -2.648826    0.000000
|  7> C     -0.034335   -1.937551    1.193561
|  8> C     -0.034335   -1.937551   -1.193561
|  9> C      0.022378   -0.551433    1.203052
| 10> C      0.022378   -0.551433   -1.203052
| 11> C      0.066946    0.180520    0.000000
| 12> C     -0.034335    2.290729    1.239444
| 13> C     -0.034335    2.290729   -1.239444
| 14> N      0.163911    1.564753    0.000000
| 15> H     -0.106296   -3.728607    0.000000
| 16> H     -0.063515   -2.465030    2.138258
| 17> H     -0.063515   -2.465030   -2.138258
| 18> H      0.033546   -0.040931    2.153087
| 19> H      0.033546   -0.040931   -2.153087
| 20> H     -1.037990    2.148981    1.661823
| 21> H      0.110493    3.352219    1.055557
| 22> H      0.693922    1.986879    1.992824
| 23> H      0.110493    3.352219   -1.055557
| 24> H     -1.037990    2.148981   -1.661823
| 25> H      0.693922    1.986879   -1.992824
| 26> *
| 27>
| 28>                          ****END OF INPUT****

CARTESIAN COORDINATES (ANGSTROEM)
---------------------------------
  C     -0.060027   -2.648826    0.000000
  C     -0.034335   -1.937551    1.193561
  C     -0.034335   -1.937551   -1.193561
  C      0.022378   -0.551433    1.203052
  C      0.022378   -0.551433   -1.203052
  C      0.066946    0.180520    0.000000
  C     -0.034335    2.290729    1.239444
  C     -0.034335    2.290729   -1.239444
  N      0.163911    1.564753    0.000000
  H     -0.106296   -3.728607    0.000000
  H     -0.063515   -2.465030    2.138258
  H     -0.063515   -2.465030   -2.138258
  H      0.033546   -0.040931    2.153087
  H      0.033546   -0.040931   -2.153087
  H     -1.037990    2.148981    1.661823
  H      0.110493    3.352219    1.055557
  H      0.693922    1.986879    1.992824
  H      0.110493    3.352219   -1.055557
  H     -1.037990    2.148981   -1.661823
  H      0.693922    1.986879   -1.992824

 Total Charge           Charge          ....    0
 Multiplicity           Mult            ....    1
 Number of Electrons    NEL             ....   66
 Basis Dimension        Dim             ....  306

ORBITAL ENERGIES
----------------

  NO   OCC          E(Eh)            E(eV)
   0   2.0000     -15.574306      -423.7984
   1   2.0000     -11.280587      -306.9604
   2   2.0000     -11.262582      -306.4704
   3   2.0000     -11.262560      -306.4698
   4   2.0000     -11.234880      -305.7166
   5   2.0000     -11.234848      -305.7158
   6   2.0000     -11.222666      -305.3843
   7   2.0000     -11.222650      -305.3838
   8   2.0000     -11.218150      -305.2614
   9   2.0000      -1.258862       -34.2554
  10   2.0000      -1.134843       -30.8807
  11   2.0000      -1.013954       -27.5911
  12   2.0000      -1.008324       -27.4379
  13   2.0000      -0.970082       -26.3973
  14   2.0000      -0.893185       -24.3048
  15   2.0000      -0.818478       -22.2719
  16   2.0000      -0.784813       -21.3559
  17   2.0000      -0.710755       -19.3406
  18   2.0000      -0.649140       -17.6640
  19   2.0000      -0.647610       -17.6224
  20   2.0000      -0.637440       -17.3456
  21   2.0000      -0.617668       -16.8076
  22   2.0000      -0.582821       -15.8594
  23   2.0000      -0.575149       -15.6506
  24   2.0000      -0.558772       -15.2049
  25   2.0000      -0.546358       -14.8672
  26   2.0000      -0.529562       -14.4101
  27   2.0000      -0.505313       -13.7503
  28   2.0000      -0.497962       -13.5502
  29   2.0000      -0.476229       -12.9589
  30   2.0000      -0.405590       -11.0367
  31   2.0000      -0.332035        -9.0351
  32   2.0000      -0.278377        -7.5750
  33   0.0000       0.033454         0.9103
  34   0.0000       0.041130         1.1192
  35   0.0000       0.041164         1.1201
  36   0.0000       0.053973         1.4687
  37   0.0000       0.054081         1.4716

MULLIKEN ATOMIC CHARGES
-----------------------
   0 C :    0.464105
   1 C :    0.704631
   2 C :    0.704631
   3 C :    0.252240
   4 C :    0.252240
   5 C :    1.063598
   6 C :    0.798436
   7 C :    0.798436
   8 N :   -1.043844
   9 H :   -0.460613
  10 H :   -0.479938
  11 H :   -0.479938
  12 H :   -0.803706
  13 H :   -0.803706
  14 H :   -0.037236
  15 H :   -0.316725
  16 H :   -0.129325
  17 H :   -0.316725
  18 H :   -0.037236
  19 H :   -0.129325
Sum of atomic charges:   -0.0000000

LOEWDIN ATOMIC CHARGES
----------------------
   0 C :   -0.011101
   1 C :    0.003099
   2 C :    0.003099
   3 C :    0.046925
   4 C :    0.046925
   5 C :   -0.157527
   6 C :    0.165208
   7 C :    0.165208
   8 N :   -0.152813
   9 H :   -0.009729
  10 H :    0.002062
  11 H :    0.002062
  12 H :   -0.019893
  13 H :   -0.019893
  14 H :    0.000248
  15 H :   -0.018465
  16 H :   -0.013600
  17 H :   -0.018465
  18 H :    0.000248
  19 H :   -0.013600

  Mayer bond orders larger than 0.100000
B(  0-C ,  1-C ) :   1.5476 B(  0-C ,  2-C ) :   1.5476 B(  0-C ,  3-C ) :   0.3294
B(  0-C ,  4-C ) :   0.3294 B(  0-C ,  9-H ) :   0.2734 B(  1-C ,  2-C ) :  -0.2022
B(  1-C ,  3-C ) :   1.7358 B(  1-C ,  5-C ) :  -0.2263 B(  1-C ,  9-H ) :   0.2188
B(  1-C , 11-H ) :  -0.1583 B(  1-C , 12-H ) :   0.3392 B(  2-C ,  4-C ) :   1.7358
B(  2-C ,  5-C ) :  -0.2263 B(  2-C ,  9-H ) :   0.2188 B(  2-C , 10-H ) :  -0.1583
B(  2-C , 13-H ) :   0.3392 B(  3-C ,  4-C ) :   0.1973 B(  3-C ,  5-C ) :   1.5146
B(  3-C ,  8-N ) :  -0.1031 B(  3-C , 10-H ) :   0.6578 B(  3-C , 12-H ) :  -0.3740
B(  3-C , 16-H ) :   0.1188 B(  4-C ,  5-C ) :   1.5146 B(  4-C ,  8-N ) :  -0.1031
B(  4-C , 11-H ) :   0.6578 B(  4-C , 13-H ) :  -0.3740 B(  4-C , 19-H ) :   0.1188
B(  5-C ,  8-N ) :   0.9760 B(  5-C , 12-H ) :   0.4812 B(  5-C , 13-H ) :   0.4812
B(  6-C ,  8-N ) :   0.9504 B(  6-C , 14-H ) :   0.8706 B(  6-C , 15-H ) :   1.0236
B(  6-C , 16-H ) :   0.9250 B(  7-C ,  8-N ) :   0.9504 B(  7-C , 17-H ) :   1.0236
B(  7-C , 18-H ) :   0.8706 B(  7-C , 19-H ) :   0.9250 B(  8-N , 14-H ) :   0.1056
B(  8-N , 18-H ) :   0.1056 B( 15-H , 16-H ) :  -0.1103 B( 17-H , 19-H ) :  -0.1103

MP2 TOTAL ENERGY:     -365.114506897 Eh
FINAL SINGLE POINT ENERGY      -365.114506896676

DIPOLE MOMENT
-------------
                                X             Y             Z
Electronic contribution:      0.55914      -5.69469       0.00000
Nuclear contribution   :     -0.64688       6.38755       0.00000
                        -----------------------------------------
Total Dipole Moment    :     -0.08773       0.69286       0.00000
                        -----------------------------------------
Magnitude (a.u.)       :      0.69839
Magnitude (Debye)      :      1.77517

Rotational constants in cm-1:     0.117111     0.040907     0.030723
Rotational constants in MHz :  3510.897982  1226.352844   921.040776

                             ****ORCA TERMINATED NORMALLY****
TOTAL RUN TIME: 0 days 0 hours 1 minutes 23 seconds 702 msec
