                         Program Version 5.0.3 -  RELEASE  -
|  1> !ri-mp2 aug-cc-pvdz aug-cc-pvdz/c tightscf
|  2> %pal nprocs 16 end
|  3>
|  4> * xyz 0 1
|  5> C      2.308280    0.333913    0.032715
|  6> C      1.874791   -0.990670    0.036977
|  7> C      1.359701    1.346306   -0.009499
|  8> C      0.525138   -1.293489   -0.004025
|  9> C     -0.000206    1.056554   -0.046565
| 10> C     -0.440752   -0.273922   -0.049701
| 11> C     -2.835641    0.363095    0.089889
| 12> N     -1.783597   -0.606016   -0.128315
| 13> H      3.363058    0.567419    0.063881
| 14> H      2.596525   -1.796291    0.072123
| 15> H      1.674892    2.381687   -0.010024
| 16> H      0.202937   -2.328068   -0.007472
| 17> H     -0.713687    1.866797   -0.075478
| 18> H     -2.839553    1.117185   -0.699380
| 19> H     -2.751251    0.880801    1.053410
| 20> H     -3.794605   -0.149894    0.057667
| 21> H     -2.001002   -1.548246    0.144734
| 22> *
| 23>
| 24>                          ****END OF INPUT****

CARTESIAN COORDINATES (ANGSTROEM)
---------------------------------
  C      2.308280    0.333913    0.032715
  C      1.874791   -0.990670    0.036977
  C      1.359701    1.346306   -0.009499
  C      0.525138   -1.293489   -0.004025
  C     -0.000206    1.056554   -0.046565
  C     -0.440752   -0.273922   -0.049701
  C     -2.835641    0.363095    0.089889
  N     -1.783597   -0.606016   -0.128315
  H      3.363058    0.567419    0.063881
  H      2.596525   -1.796291    0.072123
  H      1.674892    2.381687   -0.010024
  H      0.202937   -2.328068   -0.007472
  H     -0.713687    1.866797   -0.075478
  H     -2.839553    1.117185   -0.699380
  H     -2.751251    0.880801    1.053410
  H     -3.794605   -0.149894    0.057667
  H     -2.001002   -1.548246    0.144734

 Total Charge           Charge          ....    0
 Multiplicity           Mult            ....    1
 Number of Electrons    NEL             ....   58
 Basis Dimension        Dim             ....  265

ORBITAL ENERGIES
----------------

  NO   OCC          E(Eh)            E(eV)
   0   2.0000     -15.572351      -423.7452
   1   2.0000     -11.281229      -306.9778
   2   2.0000     -11.265122      -306.5396
   3   2.0000     -11.237140      -305.7781
   4   2.0000     -11.236635      -305.7644
   5   2.0000     -11.225490      -305.4611
   6   2.0000     -11.223629      -305.4105
   7   2.0000     -11.219609      -305.3011
   8   2.0000      -1.244544       -33.8658
   9   2.0000      -1.133336       -30.8396
  10   2.0000      -1.013757       -27.5857
  11   2.0000      -1.004351       -27.3298
  12   2.0000      -0.921896       -25.0861
  13   2.0000      -0.828791       -22.5526
  14   2.0000      -0.801662       -21.8143
  15   2.0000      -0.714755       -19.4495
  16   2.0000      -0.673097       -18.3159
  17   2.0000      -0.641879       -17.4664
  18   2.0000      -0.611617       -16.6429
  19   2.0000      -0.607672       -16.5356
  20   2.0000      -0.581261       -15.8169
  21   2.0000      -0.578573       -15.7438
  22   2.0000      -0.541148       -14.7254
  23   2.0000      -0.510642       -13.8953
  24   2.0000      -0.502736       -13.6801
  25   2.0000      -0.483094       -13.1457
  26   2.0000      -0.423845       -11.5334
  27   2.0000      -0.334063        -9.0903
  28   2.0000      -0.283907        -7.7255
  29   0.0000       0.032781         0.8920
  30   0.0000       0.040696         1.1074
  31   0.0000       0.041898         1.1401
  32   0.0000       0.054750         1.4898
  33   0.0000       0.056207         1.5295

MULLIKEN ATOMIC CHARGES
-----------------------
   0 C :    0.335670
   1 C :    0.634602
   2 C :    0.659796
   3 C :    0.393022
   4 C :    0.332181
   5 C :    0.830061
   6 C :    0.836547
   7 N :   -0.719624
   8 H :   -0.456162
   9 H :   -0.444647
  10 H :   -0.460501
  11 H :   -0.613574
  12 H :   -0.734175
  13 H :   -0.117010
  14 H :   -0.074311
  15 H :   -0.284244
  16 H :   -0.117632
Sum of atomic charges:    0.0000000

LOEWDIN ATOMIC CHARGES
----------------------
   0 C :   -0.011582
   1 C :    0.000246
   2 C :    0.002476
   3 C :    0.043528
   4 C :    0.043583
   5 C :   -0.197627
   6 C :    0.146953
   7 N :    0.045341
   8 H :   -0.010098
   9 H :    0.001518
  10 H :    0.001511
  11 H :   -0.000616
  12 H :   -0.014630
  13 H :   -0.015652
  14 H :   -0.010758
  15 H :   -0.015630
  16 H :   -0.008562

  Mayer bond orders larger than 0.100000
B(  0-C ,  1-C ) :   1.6594 B(  0-C ,  2-C ) :   1.6324 B(  0-C ,  3-C ) :   0.3122
B(  0-C ,  4-C ) :   0.3062 B(  0-C ,  8-H ) :   0.2888 B(  0-C ,  9-H ) :   0.1979
B(  0-C , 10-H ) :   0.1667 B(  1-C ,  2-C ) :  -0.2395 B(  1-C ,  3-C ) :   1.8849
B(  1-C ,  4-C ) :   0.2050 B(  1-C ,  5-C ) :  -0.3073 B(  1-C ,  8-H ) :   0.1911
B(  1-C ,  9-H ) :   0.2753 B(  1-C , 10-H ) :  -0.1284 B(  1-C , 11-H ) :   0.2081
B(  2-C ,  3-C ) :   0.1233 B(  2-C ,  4-C ) :   1.7812 B(  2-C ,  5-C ) :  -0.2562
B(  2-C ,  8-H ) :   0.2353 B(  2-C , 10-H ) :   0.1286 B(  2-C , 12-H ) :   0.2789
B(  3-C ,  4-C ) :   0.1712 B(  3-C ,  5-C ) :   1.4801 B(  3-C ,  7-N ) :  -0.1605
B(  3-C ,  9-H ) :   0.3253 B(  4-C ,  5-C ) :   1.6256 B(  4-C , 10-H ) :   0.5099
B(  4-C , 12-H ) :  -0.1146 B(  5-C ,  7-N ) :   1.0013 B(  5-C , 11-H ) :   0.5706
B(  5-C , 12-H ) :   0.3836 B(  6-C ,  7-N ) :   0.9062 B(  6-C , 13-H ) :   0.9642
B(  6-C , 14-H ) :   0.8999 B(  6-C , 15-H ) :   0.9998 B(  7-N , 14-H ) :   0.1022
B(  7-N , 16-H ) :   1.0872 B( 14-H , 15-H ) :  -0.1037

MP2 TOTAL ENERGY:     -325.937037102 Eh
FINAL SINGLE POINT ENERGY      -325.937037101904

DIPOLE MOMENT
-------------
                                X             Y             Z
Electronic contribution:      3.74004      -1.15725      -0.39447
Nuclear contribution   :     -4.34383       1.00417       0.60861
                        -----------------------------------------
Total Dipole Moment    :     -0.60378      -0.15308       0.21414
                        -----------------------------------------
Magnitude (a.u.)       :      0.65867
Magnitude (Debye)      :      1.67420

Rotational constants in cm-1:     0.167234     0.050622     0.039232
Rotational constants in MHz :  5013.554097  1517.612521  1176.131616

                             ****ORCA TERMINATED NORMALLY****
TOTAL RUN TIME: 0 days 0 hours 0 minutes 57 seconds 114 msec
