                         Program Version 5.0.3 -  RELEASE  -
|  1> !ri-mp2 aug-cc-pvdz aug-cc-pvdz/c tightscf
|  2> %pal nprocs 16 end
|  3>
|  4> * xyz 0 1
|  5> C     3.276469   -0.292227    0.099087
|  6> C     2.790514    0.999064    0.229996
|  7> C     1.181024   -1.031756   -0.375895
|  8> C     0.688197    0.275288   -0.221938
|  9> C    -3.203955    0.336431   -0.890716
| 10> N     2.463709   -1.307293   -0.206599
| 11> N     1.497661    1.284923    0.078596
| 12> N    -0.655790    0.607184   -0.433652
| 13> O    -2.260256   -0.137191    1.534977
| 14> S    -1.909653   -0.449316    0.121673
| 15> H     4.326381   -0.516346    0.234552
| 16> H     3.449330    1.825368    0.467782
| 17> H     0.524349   -1.850733   -0.640400
| 18> H    -4.132247   -0.170891   -0.639919
| 19> H    -2.965474    0.215129   -1.944190
| 20> H    -3.270616    1.387654   -0.614934
| 21> H    -0.827771    1.581914   -0.201099
| 22> *
| 23>
| 24>                          ****END OF INPUT****

CARTESIAN COORDINATES (ANGSTROEM)
---------------------------------
  C      3.276469   -0.292227    0.099087
  C      2.790514    0.999064    0.229996
  C      1.181024   -1.031756   -0.375895
  C      0.688197    0.275288   -0.221938
  C     -3.203955    0.336431   -0.890716
  N      2.463709   -1.307293   -0.206599
  N      1.497661    1.284923    0.078596
  N     -0.655790    0.607184   -0.433652
  O     -2.260256   -0.137191    1.534977
  S     -1.909653   -0.449316    0.121673
  H      4.326381   -0.516346    0.234552
  H      3.449330    1.825368    0.467782
  H      0.524349   -1.850733   -0.640400
  H     -4.132247   -0.170891   -0.639919
  H     -2.965474    0.215129   -1.944190
  H     -3.270616    1.387654   -0.614934
  H     -0.827771    1.581914   -0.201099

 Total Charge           Charge          ....    0
 Multiplicity           Mult            ....    1
 Number of Electrons    NEL             ....   82
 Basis Dimension        Dim             ....  297

ORBITAL ENERGIES
----------------

  NO   OCC          E(Eh)            E(eV)
   0   2.0000     -92.125262     -2506.8558
   1   2.0000     -20.537309      -558.8486
   2   2.0000     -15.620032      -425.0427
   3   2.0000     -15.607372      -424.6982
   4   2.0000     -15.599637      -424.4877
   5   2.0000     -11.344492      -308.6993
   6   2.0000     -11.297270      -307.4143
   7   2.0000     -11.292220      -307.2769
   8   2.0000     -11.284854      -307.0765
   9   2.0000     -11.282724      -307.0185
  10   2.0000      -9.109312      -247.8770
  11   2.0000      -6.791827      -184.8150
  12   2.0000      -6.790669      -184.7835
  13   2.0000      -6.788674      -184.7292
  14   2.0000      -1.377198       -37.4755
  15   2.0000      -1.331865       -36.2419
  16   2.0000      -1.257731       -34.2246
  17   2.0000      -1.211294       -32.9610
  18   2.0000      -1.063548       -28.9406
  19   2.0000      -1.025944       -27.9174
  20   2.0000      -0.919319       -25.0159
  21   2.0000      -0.901507       -24.5313
  22   2.0000      -0.852075       -23.1861
  23   2.0000      -0.743695       -20.2370
  24   2.0000      -0.728884       -19.8339
  25   2.0000      -0.699360       -19.0305
  26   2.0000      -0.661657       -18.0046
  27   2.0000      -0.642151       -17.4738
  28   2.0000      -0.631897       -17.1948
  29   2.0000      -0.618426       -16.8282
  30   2.0000      -0.599129       -16.3031
  31   2.0000      -0.586900       -15.9704
  32   2.0000      -0.569895       -15.5076
  33   2.0000      -0.551242       -15.0001
  34   2.0000      -0.504828       -13.7371
  35   2.0000      -0.493286       -13.4230
  36   2.0000      -0.456449       -12.4206
  37   2.0000      -0.432427       -11.7669
  38   2.0000      -0.419800       -11.4233
  39   2.0000      -0.394292       -10.7292
  40   2.0000      -0.335860        -9.1392
  41   0.0000       0.030592         0.8325
  42   0.0000       0.036377         0.9899
  43   0.0000       0.044205         1.2029
  44   0.0000       0.051244         1.3944
  45   0.0000       0.054969         1.4958

MULLIKEN ATOMIC CHARGES
-----------------------
   0 C :    0.561739
   1 C :    0.746510
   2 C :    0.775593
   3 C :    0.702082
   4 C :    0.086653
   5 N :   -0.660363
   6 N :   -0.790927
   7 N :   -0.867246
   8 O :   -1.144438
   9 S :    1.641496
  10 H :   -0.268546
  11 H :   -0.323179
  12 H :   -0.324960
  13 H :   -0.022466
  14 H :   -0.021814
  15 H :   -0.055749
  16 H :   -0.034384
Sum of atomic charges:    0.0000000

LOEWDIN ATOMIC CHARGES
----------------------
   0 C :   -0.025998
   1 C :   -0.011420
   2 C :    0.008118
   3 C :   -0.298263
   4 C :   -0.001916
   5 N :    0.052048
   6 N :    0.076942
   7 N :   -0.123773
   8 O :   -0.536879
   9 S :    1.046396
  10 H :   -0.003664
  11 H :    0.003866
  12 H :   -0.009928
  13 H :   -0.050569
  14 H :   -0.048590
  15 H :   -0.045257
  16 H :   -0.031113

  Mayer bond orders larger than 0.100000
B(  0-C ,  1-C ) :   1.2805 B(  0-C ,  3-C ) :   0.1168 B(  0-C ,  5-N ) :   1.2811
B(  0-C , 10-H ) :   0.9791 B(  1-C ,  2-C ) :   0.1374 B(  1-C ,  3-C ) :  -0.1653
B(  1-C ,  6-N ) :   1.1942 B(  1-C , 11-H ) :   0.9421 B(  2-C ,  3-C ) :   1.3270
B(  2-C ,  5-N ) :   1.3074 B(  2-C , 12-H ) :   0.8172 B(  3-C ,  6-N ) :   1.4028
B(  3-C ,  7-N ) :   0.6527 B(  3-C , 12-H ) :   0.1489 B(  3-C , 16-H ) :  -0.1403
B(  4-C ,  9-S ) :   1.1170 B(  4-C , 13-H ) :   0.9564 B(  4-C , 14-H ) :   0.9797
B(  4-C , 15-H ) :   0.9758 B(  6-N , 11-H ) :  -0.1346 B(  7-N ,  8-O ) :   0.1077
B(  7-N ,  9-S ) :   0.7086 B(  7-N , 16-H ) :   1.2285 B(  8-O ,  9-S ) :   0.8616

MP2 TOTAL ENERGY:     -830.684420787 Eh
FINAL SINGLE POINT ENERGY      -830.684420786533

DIPOLE MOMENT
-------------
                                X             Y             Z
Electronic contribution:      2.59844      -1.97730       1.91094
Nuclear contribution   :     -2.79546       2.43677      -3.25369
                        -----------------------------------------
Total Dipole Moment    :     -0.19703       0.45946      -1.34275
                        -----------------------------------------
Magnitude (a.u.)       :      1.43279
Magnitude (Debye)      :      3.64187

Rotational constants in cm-1:     0.106876     0.020626     0.019674
Rotational constants in MHz :  3204.054903   618.358821   589.812714

                             ****ORCA TERMINATED NORMALLY****
TOTAL RUN TIME: 0 days 0 hours 1 minutes 16 seconds 503 msec
