                         Program Version 5.0.3 -  RELEASE  -
|  1> !ri-mp2 aug-cc-pvdz aug-cc-pvdz/c tightscf
|  2> %pal nprocs 16 end
|  3>
|  4> * xyz 0 1
|  5> F      2.523812   -0.000530    0.037332
|  6> O     -1.881341   -1.007854   -0.239265
|  7> O     -1.539739    1.170779    0.004238
|  8> N      1.215026   -0.004014   -0.555021
|  9> C     -1.136839   -0.128298    0.067470
| 10> C      0.302592   -0.347682    0.537573
| 11> H     -0.888066    1.766285    0.392635
| 12> H      1.117050    0.980700   -0.797020
| 13> H      0.422906   -1.402721    0.762868
| 14> H      0.502739    0.241088    1.440632
| 15> *
| 16>
| 17>                          ****END OF INPUT****

CARTESIAN COORDINATES (ANGSTROEM)
---------------------------------
  F      2.523812   -0.000530    0.037332
  O     -1.881341   -1.007854   -0.239265
  O     -1.539739    1.170779    0.004238
  N      1.215026   -0.004014   -0.555021
  C     -1.136839   -0.128298    0.067470
  C      0.302592   -0.347682    0.537573
  H     -0.888066    1.766285    0.392635
  H      1.117050    0.980700   -0.797020
  H      0.422906   -1.402721    0.762868
  H      0.502739    0.241088    1.440632

 Total Charge           Charge          ....    0
 Multiplicity           Mult            ....    1
 Number of Electrons    NEL             ....   48
 Basis Dimension        Dim             ....  174

ORBITAL ENERGIES
----------------

  NO   OCC          E(Eh)            E(eV)
   0   2.0000     -26.334917      -716.6095
   1   2.0000     -20.647826      -561.8559
   2   2.0000     -20.583983      -560.1186
   3   2.0000     -15.696652      -427.1276
   4   2.0000     -11.422123      -310.8118
   5   2.0000     -11.319420      -308.0171
   6   2.0000      -1.623240       -44.1706
   7   2.0000      -1.490162       -40.5494
   8   2.0000      -1.397186       -38.0194
   9   2.0000      -1.213397       -33.0182
  10   2.0000      -0.991747       -26.9868
  11   2.0000      -0.860757       -23.4224
  12   2.0000      -0.784783       -21.3550
  13   2.0000      -0.736144       -20.0315
  14   2.0000      -0.711446       -19.3594
  15   2.0000      -0.690098       -18.7785
  16   2.0000      -0.684874       -18.6364
  17   2.0000      -0.646839       -17.6014
  18   2.0000      -0.625663       -17.0251
  19   2.0000      -0.602256       -16.3882
  20   2.0000      -0.580143       -15.7865
  21   2.0000      -0.504820       -13.7368
  22   2.0000      -0.476864       -12.9761
  23   2.0000      -0.466981       -12.7072
  24   0.0000       0.019390         0.5276
  25   0.0000       0.041672         1.1339
  26   0.0000       0.051577         1.4035
  27   0.0000       0.062908         1.7118
  28   0.0000       0.089736         2.4418

MULLIKEN ATOMIC CHARGES
-----------------------
   0 F :   -0.566092
   1 O :   -0.655534
   2 O :   -0.684035
   3 N :   -0.057922
   4 C :    1.100186
   5 C :    0.757611
   6 H :    0.203603
   7 H :    0.111496
   8 H :   -0.138934
   9 H :   -0.070378
Sum of atomic charges:    0.0000000

LOEWDIN ATOMIC CHARGES
----------------------
   0 F :   -0.026659
   1 O :    0.074894
   2 O :    0.204459
   3 N :    0.092974
   4 C :   -0.318780
   5 C :    0.011706
   6 H :   -0.040634
   7 H :   -0.038859
   8 H :    0.021635
   9 H :    0.019263

  Mayer bond orders larger than 0.100000
B(  0-F ,  3-N ) :   0.5583 B(  1-O ,  4-C ) :   1.5786 B(  2-O ,  4-C ) :   0.4755
B(  2-O ,  5-C ) :   0.1155 B(  2-O ,  6-H ) :   0.9943 B(  3-N ,  5-C ) :   0.8305
B(  3-N ,  7-H ) :   0.9746 B(  4-C ,  5-C ) :   0.9416 B(  5-C ,  8-H ) :   0.8985
B(  5-C ,  9-H ) :   0.9087

MP2 TOTAL ENERGY:     -382.704328030 Eh
FINAL SINGLE POINT ENERGY      -382.704328029708

DIPOLE MOMENT
-------------
                                X             Y             Z
Electronic contribution:      1.88592      -0.32233      -0.88888
Nuclear contribution   :     -1.34137       1.53876       1.70040
                        -----------------------------------------
Total Dipole Moment    :      0.54456       1.21643       0.81152
                        -----------------------------------------
Magnitude (a.u.)       :      1.56038
Magnitude (Debye)      :      3.96618

Rotational constants in cm-1:     0.289746     0.063008     0.055947
Rotational constants in MHz :  8686.366056  1888.927629  1677.243755

                             ****ORCA TERMINATED NORMALLY****
TOTAL RUN TIME: 0 days 0 hours 0 minutes 27 seconds 814 msec
