                         Program Version 5.0.3 -  RELEASE  -
|  1> !ri-mp2 aug-cc-pvdz aug-cc-pvdz/c tightscf
|  2> %pal nprocs 16 end
|  3> %maxcore 3800
|  4>
|  5> * xyz 0 1
|  6> C     3.364850    0.398763    0.150943
|  7> C     2.326412    1.312586    0.065958
|  8> C     1.891085   -1.300109   -0.147133
|  9> C     0.842900   -0.369826   -0.242482
| 10> C    -2.122614    1.334764   -0.896648
| 11> N     3.141045   -0.913697    0.037962
| 12> N     1.065571    0.934122   -0.143705
| 13> N    -0.461515   -0.797266   -0.495355
| 14> O    -2.884414   -1.071196   -0.072187
| 15> O    -1.587626    0.402262    1.509475
| 16> S    -1.856311   -0.074094    0.169128
| 17> H     4.385597    0.718852    0.312895
| 18> H     2.507994    2.376178    0.160123
| 19> H     1.700423   -2.365075   -0.225096
| 20> H    -3.002391    1.842073   -0.507181
| 21> H    -1.240827    1.965017   -0.832434
| 22> H    -2.293340    0.973464   -1.906154
| 23> H    -0.611669   -1.792707   -0.582644
| 24> *
| 25>
| 26>                          ****END OF INPUT****

CARTESIAN COORDINATES (ANGSTROEM)
---------------------------------
  C      3.364850    0.398763    0.150943
  C      2.326412    1.312586    0.065958
  C      1.891085   -1.300109   -0.147133
  C      0.842900   -0.369826   -0.242482
  C     -2.122614    1.334764   -0.896648
  N      3.141045   -0.913697    0.037962
  N      1.065571    0.934122   -0.143705
  N     -0.461515   -0.797266   -0.495355
  O     -2.884414   -1.071196   -0.072187
  O     -1.587626    0.402262    1.509475
  S     -1.856311   -0.074094    0.169128
  H      4.385597    0.718852    0.312895
  H      2.507994    2.376178    0.160123
  H      1.700423   -2.365075   -0.225096
  H     -3.002391    1.842073   -0.507181
  H     -1.240827    1.965017   -0.832434
  H     -2.293340    0.973464   -1.906154
  H     -0.611669   -1.792707   -0.582644

 Total Charge           Charge          ....    0
 Multiplicity           Mult            ....    1
 Number of Electrons    NEL             ....   90
 Basis Dimension        Dim             ....  320

ORBITAL ENERGIES
----------------

  NO   OCC          E(Eh)            E(eV)
   0   2.0000     -92.235995     -2509.8690
   1   2.0000     -20.567941      -559.6821
   2   2.0000     -20.566262      -559.6364
   3   2.0000     -15.632743      -425.3885
   4   2.0000     -15.616494      -424.9464
   5   2.0000     -15.609040      -424.7436
   6   2.0000     -11.356896      -309.0369
   7   2.0000     -11.306340      -307.6611
   8   2.0000     -11.303477      -307.5832
   9   2.0000     -11.291861      -307.2672
  10   2.0000     -11.287524      -307.1491
  11   2.0000      -9.204435      -250.4654
  12   2.0000      -6.889926      -187.4844
  13   2.0000      -6.889398      -187.4700
  14   2.0000      -6.887979      -187.4314
  15   2.0000      -1.478806       -40.2404
  16   2.0000      -1.356722       -36.9183
  17   2.0000      -1.344169       -36.5767
  18   2.0000      -1.269783       -34.5526
  19   2.0000      -1.224597       -33.3230
  20   2.0000      -1.068744       -29.0820
  21   2.0000      -1.043399       -28.3923
  22   2.0000      -0.929989       -25.3063
  23   2.0000      -0.914023       -24.8718
  24   2.0000      -0.843571       -22.9547
  25   2.0000      -0.770294       -20.9608
  26   2.0000      -0.742726       -20.2106
  27   2.0000      -0.718241       -19.5443
  28   2.0000      -0.699012       -19.0211
  29   2.0000      -0.684906       -18.6372
  30   2.0000      -0.662453       -18.0263
  31   2.0000      -0.640837       -17.4381
  32   2.0000      -0.622063       -16.9272
  33   2.0000      -0.606957       -16.5161
  34   2.0000      -0.599239       -16.3061
  35   2.0000      -0.582168       -15.8416
  36   2.0000      -0.536016       -14.5857
  37   2.0000      -0.513185       -13.9645
  38   2.0000      -0.512260       -13.9393
  39   2.0000      -0.496689       -13.5156
  40   2.0000      -0.475748       -12.9458
  41   2.0000      -0.471800       -12.8383
  42   2.0000      -0.445433       -12.1208
  43   2.0000      -0.426431       -11.6038
  44   2.0000      -0.347130        -9.4459
  45   0.0000       0.028944         0.7876
  46   0.0000       0.035954         0.9784
  47   0.0000       0.038704         1.0532
  48   0.0000       0.051729         1.4076
  49   0.0000       0.055220         1.5026

MULLIKEN ATOMIC CHARGES
-----------------------
   0 C :    0.541203
   1 C :    0.708548
   2 C :    0.964199
   3 C :    0.412542
   4 C :    0.119579
   5 N :   -0.706626
   6 N :   -0.566375
   7 N :   -0.944769
   8 O :   -1.132024
   9 O :   -1.160031
  10 S :    2.726406
  11 H :   -0.265378
  12 H :   -0.336357
  13 H :   -0.324809
  14 H :    0.035896
  15 H :    0.001786
  16 H :    0.021775
  17 H :   -0.095567
Sum of atomic charges:    0.0000000

LOEWDIN ATOMIC CHARGES
----------------------
   0 C :   -0.018928
   1 C :   -0.004620
   2 C :    0.028345
   3 C :   -0.274942
   4 C :    0.101489
   5 N :    0.056427
   6 N :    0.073636
   7 N :   -0.032069
   8 O :   -0.380595
   9 O :   -0.371016
  10 S :    0.932836
  11 H :   -0.001475
  12 H :    0.005815
  13 H :    0.007381
  14 H :   -0.027125
  15 H :   -0.043765
  16 H :   -0.026686
  17 H :   -0.024707

  Mayer bond orders larger than 0.100000
B(  0-C ,  1-C ) :   1.3120 B(  0-C ,  2-C ) :  -0.1096 B(  0-C ,  3-C ) :   0.1398
B(  0-C ,  5-N ) :   1.2918 B(  0-C , 11-H ) :   1.0159 B(  1-C ,  2-C ) :   0.1040
B(  1-C ,  3-C ) :  -0.1319 B(  1-C ,  6-N ) :   1.2143 B(  1-C , 12-H ) :   0.9403
B(  2-C ,  3-C ) :   1.3141 B(  2-C ,  5-N ) :   1.4112 B(  2-C ,  7-N ) :  -0.1393
B(  2-C , 13-H ) :   0.6510 B(  3-C ,  6-N ) :   1.4933 B(  3-C ,  7-N ) :   0.7704
B(  3-C ,  9-O ) :   0.1034 B(  3-C , 13-H ) :   0.2733 B(  4-C ,  9-O ) :   0.1340
B(  4-C , 10-S ) :   1.1365 B(  4-C , 14-H ) :   0.9200 B(  4-C , 15-H ) :   0.9668
B(  4-C , 16-H ) :   0.9080 B(  5-N ,  6-N ) :   0.1122 B(  6-N ,  7-N ) :  -0.1282
B(  6-N , 12-H ) :  -0.1343 B(  7-N ,  9-O ) :   0.2153 B(  7-N , 10-S ) :   0.6763
B(  7-N , 17-H ) :   1.2376 B(  8-O ,  9-O ) :   0.1332 B(  8-O , 10-S ) :   0.8396
B(  9-O , 10-S ) :   0.6082

MP2 TOTAL ENERGY:     -905.739708048 Eh
FINAL SINGLE POINT ENERGY      -905.739708047611

DIPOLE MOMENT
-------------
                                X             Y             Z
Electronic contribution:     -0.60837      -2.87759       2.25138
Nuclear contribution   :      1.41959       3.61592      -3.48084
                        -----------------------------------------
Total Dipole Moment    :      0.81122       0.73833      -1.22946
                        -----------------------------------------
Magnitude (a.u.)       :      1.64766
Magnitude (Debye)      :      4.18802

Rotational constants in cm-1:     0.084179     0.019839     0.018013
Rotational constants in MHz :  2523.609215   594.762952   540.008661

                             ****ORCA TERMINATED NORMALLY****
TOTAL RUN TIME: 0 days 0 hours 1 minutes 39 seconds 526 msec
