                         Program Version 5.0.3 -  RELEASE  -
|  1> !ri-mp2 aug-cc-pvdz aug-cc-pvdz/c tightscf
|  2> %pal nprocs 16 end
|  3>
|  4> * xyz 0 1
|  5> C      0.000000    0.400135    0.000000
|  6> C     -0.559646    1.800763    0.000000
|  7> C      1.512118    0.333612    0.000000
|  8> C     -0.421806   -1.955288    0.000000
|  9> N     -0.823365   -0.565462    0.000000
| 10> H     -0.214550    2.354611    0.877083
| 11> H     -0.214550    2.354611   -0.877083
| 12> H     -1.645869    1.770131    0.000000
| 13> H      1.903128    0.856799    0.875493
| 14> H      1.903128    0.856799   -0.875493
| 15> H      1.909280   -0.676287    0.000000
| 16> H     -0.857799   -2.442000   -0.874888
| 17> H     -0.857799   -2.442000    0.874888
| 18> H      0.654591   -2.149764    0.000000
| 19> *
| 20>
| 21>                          ****END OF INPUT****

CARTESIAN COORDINATES (ANGSTROEM)
---------------------------------
  C      0.000000    0.400135    0.000000
  C     -0.559646    1.800763    0.000000
  C      1.512118    0.333612    0.000000
  C     -0.421806   -1.955288    0.000000
  N     -0.823365   -0.565462    0.000000
  H     -0.214550    2.354611    0.877083
  H     -0.214550    2.354611   -0.877083
  H     -1.645869    1.770131    0.000000
  H      1.903128    0.856799    0.875493
  H      1.903128    0.856799   -0.875493
  H      1.909280   -0.676287    0.000000
  H     -0.857799   -2.442000   -0.874888
  H     -0.857799   -2.442000    0.874888
  H      0.654591   -2.149764    0.000000

 Total Charge           Charge          ....    0
 Multiplicity           Mult            ....    1
 Number of Electrons    NEL             ....   40
 Basis Dimension        Dim             ....  196

ORBITAL ENERGIES
----------------

  NO   OCC          E(Eh)            E(eV)
   0   2.0000     -15.548749      -423.1030
   1   2.0000     -11.283006      -307.0262
   2   2.0000     -11.244663      -305.9828
   3   2.0000     -11.235157      -305.7242
   4   2.0000     -11.223139      -305.3971
   5   2.0000      -1.223630       -33.2967
   6   2.0000      -1.030829       -28.0503
   7   2.0000      -0.956027       -26.0148
   8   2.0000      -0.912332       -24.8258
   9   2.0000      -0.708545       -19.2805
  10   2.0000      -0.643877       -17.5208
  11   2.0000      -0.620801       -16.8928
  12   2.0000      -0.609519       -16.5858
  13   2.0000      -0.566637       -15.4190
  14   2.0000      -0.544184       -14.8080
  15   2.0000      -0.542321       -14.7573
  16   2.0000      -0.524243       -14.2654
  17   2.0000      -0.510844       -13.9008
  18   2.0000      -0.387592       -10.5469
  19   2.0000      -0.381388       -10.3781
  20   0.0000       0.034601         0.9415
  21   0.0000       0.045981         1.2512
  22   0.0000       0.050347         1.3700
  23   0.0000       0.052390         1.4256
  24   0.0000       0.068495         1.8638

MULLIKEN ATOMIC CHARGES
-----------------------
   0 C :   -0.498158
   1 C :    0.623011
   2 C :    0.531433
   3 C :    0.714542
   4 N :   -0.740089
   5 H :    0.043110
   6 H :    0.043110
   7 H :   -0.140832
   8 H :    0.047309
   9 H :    0.047309
  10 H :   -0.289159
  11 H :   -0.116107
  12 H :   -0.116107
  13 H :   -0.149371
Sum of atomic charges:   -0.0000000

LOEWDIN ATOMIC CHARGES
----------------------
   0 C :   -0.298269
   1 C :    0.172676
   2 C :    0.191293
   3 C :    0.110454
   4 N :    0.005792
   5 H :   -0.012119
   6 H :   -0.012119
   7 H :   -0.014336
   8 H :   -0.006211
   9 H :   -0.006211
  10 H :   -0.039404
  11 H :   -0.023211
  12 H :   -0.023211
  13 H :   -0.045123

  Mayer bond orders larger than 0.100000
B(  0-C ,  1-C ) :   1.2716 B(  0-C ,  2-C ) :   1.2271 B(  0-C ,  3-C ) :  -0.1461
B(  0-C ,  4-N ) :   1.7776 B(  0-C ,  7-H ) :   0.2843 B(  0-C , 10-H ) :   0.2547
B(  1-C ,  2-C ) :  -0.1472 B(  1-C ,  5-H ) :   0.8800 B(  1-C ,  6-H ) :   0.8800
B(  1-C ,  7-H ) :   0.7799 B(  2-C ,  8-H ) :   0.9317 B(  2-C ,  9-H ) :   0.9317
B(  2-C , 10-H ) :   0.7747 B(  3-C ,  4-N ) :   0.8812 B(  3-C , 11-H ) :   0.9611
B(  3-C , 12-H ) :   0.9611 B(  3-C , 13-H ) :   0.9628

MP2 TOTAL ENERGY:     -211.927868232 Eh
FINAL SINGLE POINT ENERGY      -211.927868231940

DIPOLE MOMENT
-------------
                                X             Y             Z
Electronic contribution:     -1.92385      -0.34239       0.00000
Nuclear contribution   :      2.71953       0.50655       0.00000
                        -----------------------------------------
Total Dipole Moment    :      0.79568       0.16416       0.00000
                        -----------------------------------------
Magnitude (a.u.)       :      0.81244
Magnitude (Debye)      :      2.06505

Rotational constants in cm-1:     0.275005     0.127689     0.091597
Rotational constants in MHz :  8244.455337  3828.030930  2746.005976

                             ****ORCA TERMINATED NORMALLY****
TOTAL RUN TIME: 0 days 0 hours 0 minutes 30 seconds 904 msec
