                         Program Version 5.0.3 -  RELEASE  -
|  1> !ri-mp2 aug-cc-pvdz aug-cc-pvdz/c tightscf
|  2> %pal nprocs 16 end
|  3>
|  4> * xyz 0 1
|  5> F      1.116105    1.093260    0.040175
|  6> F      1.116118   -1.093252    0.040168
|  7> N      0.345864    0.000000   -0.426963
|  8> C     -0.813920   -0.000009    0.420336
|  9> C     -2.001377    0.000000   -0.157052
| 10> H     -0.622645   -0.000022    1.485320
| 11> H     -2.091523    0.000012   -1.234028
| 12> H     -2.905105   -0.000005    0.434659
| 13> *
| 14>
| 15>                          ****END OF INPUT****

CARTESIAN COORDINATES (ANGSTROEM)
---------------------------------
  F      1.116105    1.093260    0.040175
  F      1.116118   -1.093252    0.040168
  N      0.345864    0.000000   -0.426963
  C     -0.813920   -0.000009    0.420336
  C     -2.001377    0.000000   -0.157052
  H     -0.622645   -0.000022    1.485320
  H     -2.091523    0.000012   -1.234028
  H     -2.905105   -0.000005    0.434659

 Total Charge           Charge          ....    0
 Multiplicity           Mult            ....    1
 Number of Electrons    NEL             ....   40
 Basis Dimension        Dim             ....  142

ORBITAL ENERGIES
----------------

  NO   OCC          E(Eh)            E(eV)
   0   2.0000     -26.347388      -716.9489
   1   2.0000     -26.347367      -716.9483
   2   2.0000     -15.787355      -429.5958
   3   2.0000     -11.305872      -307.6484
   4   2.0000     -11.281990      -306.9986
   5   2.0000      -1.682588       -45.7856
   6   2.0000      -1.598268       -43.4911
   7   2.0000      -1.197027       -32.5728
   8   2.0000      -1.030815       -28.0499
   9   2.0000      -0.846731       -23.0407
  10   2.0000      -0.766419       -20.8553
  11   2.0000      -0.756497       -20.5853
  12   2.0000      -0.731887       -19.9157
  13   2.0000      -0.681446       -18.5431
  14   2.0000      -0.675628       -18.3848
  15   2.0000      -0.630337       -17.1523
  16   2.0000      -0.612521       -16.6675
  17   2.0000      -0.583025       -15.8649
  18   2.0000      -0.493622       -13.4321
  19   2.0000      -0.426148       -11.5961
  20   0.0000       0.032763         0.8915
  21   0.0000       0.044965         1.2236
  22   0.0000       0.055326         1.5055
  23   0.0000       0.081117         2.2073
  24   0.0000       0.108931         2.9642

MULLIKEN ATOMIC CHARGES
-----------------------
   0 F :   -0.508935
   1 F :   -0.508935
   2 N :    0.229304
   3 C :    0.929972
   4 C :    0.436308
   5 H :   -0.163563
   6 H :   -0.197227
   7 H :   -0.216924
Sum of atomic charges:    0.0000000

LOEWDIN ATOMIC CHARGES
----------------------
   0 F :   -0.006845
   1 F :   -0.006844
   2 N :   -0.039498
   3 C :   -0.106135
   4 C :    0.210801
   5 H :    0.001901
   6 H :   -0.025745
   7 H :   -0.027635

  Mayer bond orders larger than 0.100000
B(  0-F ,  2-N ) :   0.6530 B(  1-F ,  2-N ) :   0.6530 B(  2-N ,  3-C ) :   0.5846
B(  3-C ,  4-C ) :   2.0194 B(  3-C ,  5-H ) :   0.8176 B(  4-C ,  6-H ) :   0.9172
B(  4-C ,  7-H ) :   0.8930 B(  6-H ,  7-H ) :  -0.1607

MP2 TOTAL ENERGY:     -331.531817657 Eh
FINAL SINGLE POINT ENERGY      -331.531817657417

DIPOLE MOMENT
-------------
                                X             Y             Z
Electronic contribution:      6.16530       0.00001      -0.33678
Nuclear contribution   :     -7.43328      -0.00002       0.57410
                        -----------------------------------------
Total Dipole Moment    :     -1.26798      -0.00001       0.23732
                        -----------------------------------------
Magnitude (a.u.)       :      1.29000
Magnitude (Debye)      :      3.27892

Rotational constants in cm-1:     0.309938     0.133162     0.103401
Rotational constants in MHz :  9291.693344  3992.089490  3099.896804

                             ****ORCA TERMINATED NORMALLY****
TOTAL RUN TIME: 0 days 0 hours 0 minutes 26 seconds 538 msec
