                         Program Version 5.0.3 -  RELEASE  -
|  1> !ri-mp2 aug-cc-pvdz aug-cc-pvdz/c tightscf
|  2> %pal nprocs 16 end
|  3>
|  4> * xyz 0 1
|  5> C     -0.000029   -1.883915    0.767287
|  6> N      0.000023    0.323654    0.000000
|  7> C      0.000000   -0.423893   -1.187980
|  8> C     -0.000029   -1.883915   -0.767287
|  9> C      0.000000   -0.423893    1.187980
| 10> Cl     0.000020    2.020882    0.000000
| 11> H      0.876572   -2.363854   -1.200021
| 12> H     -0.876661   -2.363803   -1.200016
| 13> H      0.876572   -2.363854    1.200021
| 14> H     -0.876661   -2.363803    1.200016
| 15> O      0.000000    0.033027   -2.295994
| 16> O      0.000000    0.033027    2.295994
| 17> *
| 18>
| 19>                          ****END OF INPUT****

CARTESIAN COORDINATES (ANGSTROEM)
---------------------------------
  C     -0.000029   -1.883915    0.767287
  N      0.000023    0.323654    0.000000
  C      0.000000   -0.423893   -1.187980
  C     -0.000029   -1.883915   -0.767287
  C      0.000000   -0.423893    1.187980
  Cl     0.000020    2.020882    0.000000
  H      0.876572   -2.363854   -1.200021
  H     -0.876661   -2.363803   -1.200016
  H      0.876572   -2.363854    1.200021
  H     -0.876661   -2.363803    1.200016
  O      0.000000    0.033027   -2.295994
  O      0.000000    0.033027    2.295994

 Total Charge           Charge          ....    0
 Multiplicity           Mult            ....    1
 Number of Electrons    NEL             ....   68
 Basis Dimension        Dim             ....  224

ORBITAL ENERGIES
----------------

  NO   OCC          E(Eh)            E(eV)
   0   2.0000    -104.895356     -2854.3478
   1   2.0000     -20.579623      -560.0000
   2   2.0000     -20.579622      -560.0000
   3   2.0000     -15.684755      -426.8039
   4   2.0000     -11.404603      -310.3350
   5   2.0000     -11.404581      -310.3344
   6   2.0000     -11.287361      -307.1447
   7   2.0000     -11.286773      -307.1287
   8   2.0000     -10.617518      -288.9173
   9   2.0000      -8.085745      -220.0243
  10   2.0000      -8.081039      -219.8962
  11   2.0000      -8.080864      -219.8915
  12   2.0000      -1.450806       -39.4784
  13   2.0000      -1.429152       -38.8892
  14   2.0000      -1.318859       -35.8880
  15   2.0000      -1.156456       -31.4688
  16   2.0000      -1.053652       -28.6713
  17   2.0000      -0.977948       -26.6113
  18   2.0000      -0.868054       -23.6210
  19   2.0000      -0.775682       -21.1074
  20   2.0000      -0.710116       -19.3232
  21   2.0000      -0.705819       -19.2063
  22   2.0000      -0.682982       -18.5849
  23   2.0000      -0.635208       -17.2849
  24   2.0000      -0.623147       -16.9567
  25   2.0000      -0.623080       -16.9549
  26   2.0000      -0.602342       -16.3906
  27   2.0000      -0.585654       -15.9364
  28   2.0000      -0.517707       -14.0875
  29   2.0000      -0.517249       -14.0751
  30   2.0000      -0.491914       -13.3857
  31   2.0000      -0.479715       -13.0537
  32   2.0000      -0.444737       -12.1019
  33   2.0000      -0.419162       -11.4060
  34   0.0000       0.025149         0.6843
  35   0.0000       0.041309         1.1241
  36   0.0000       0.047054         1.2804
  37   0.0000       0.061938         1.6854
  38   0.0000       0.067237         1.8296

MULLIKEN ATOMIC CHARGES
-----------------------
   0 C :    0.207016
   1 N :   -0.955409
   2 C :    0.786663
   3 C :    0.207016
   4 C :    0.786663
   5 Cl:    0.440029
   6 H :    0.003992
   7 H :    0.004000
   8 H :    0.003992
   9 H :    0.004000
  10 O :   -0.743981
  11 O :   -0.743981
Sum of atomic charges:    0.0000000

LOEWDIN ATOMIC CHARGES
----------------------
   0 C :    0.079043
   1 N :   -0.378082
   2 C :   -0.329879
   3 C :    0.079043
   4 C :   -0.329879
   5 Cl:    0.649959
   6 H :    0.029759
   7 H :    0.029759
   8 H :    0.029759
   9 H :    0.029759
  10 O :    0.055379
  11 O :    0.055379

  Mayer bond orders larger than 0.100000
B(  0-C ,  3-C ) :   1.4149 B(  0-C ,  4-C ) :   0.8395 B(  0-C ,  8-H ) :   0.8352
B(  0-C ,  9-H ) :   0.8352 B(  1-N ,  2-C ) :   1.0201 B(  1-N ,  4-C ) :   1.0201
B(  1-N ,  5-Cl) :   0.8878 B(  2-C ,  3-C ) :   0.8395 B(  2-C ,  4-C ) :   0.1051
B(  2-C , 10-O ) :   1.4493 B(  3-C ,  6-H ) :   0.8352 B(  3-C ,  7-H ) :   0.8352
B(  4-C , 11-O ) :   1.4493 B(  6-H ,  7-H ) :  -0.1006 B(  8-H ,  9-H ) :  -0.1006

MP2 TOTAL ENERGY:     -818.761878372 Eh
FINAL SINGLE POINT ENERGY      -818.761878372327

DIPOLE MOMENT
-------------
                                X             Y             Z
Electronic contribution:      0.00017      10.29278      -0.00000
Nuclear contribution   :     -0.00020     -11.80511       0.00000
                        -----------------------------------------
Total Dipole Moment    :     -0.00002      -1.51233      -0.00000
                        -----------------------------------------
Magnitude (a.u.)       :      1.51233
Magnitude (Debye)      :      3.84404

Rotational constants in cm-1:     0.074714     0.064746     0.035135
Rotational constants in MHz :  2239.863554  1941.037351  1053.316277

                             ****ORCA TERMINATED NORMALLY****
TOTAL RUN TIME: 0 days 0 hours 0 minutes 42 seconds 835 msec
