                         Program Version 5.0.3 -  RELEASE  -
|  1> !ri-mp2 aug-cc-pvdz aug-cc-pvdz/c tightscf
|  2> %pal nprocs 16 end
|  3>
|  4> * xyz 0 1
|  5> C     0.000000     1.265036   -0.119107
|  6> C     0.000000    -1.265036   -0.119107
|  7> C     0.000000     2.401004    0.887119
|  8> C     0.000000    -2.401004    0.887119
|  9> N     0.000000     0.000000    0.490686
| 10> O     0.000000     1.434626   -1.309734
| 11> O     0.000000    -1.434626   -1.309734
| 12> H     0.000000     3.342860    0.347946
| 13> H    -0.882484     2.352586    1.527823
| 14> H     0.882484     2.352586    1.527823
| 15> H    -0.882484    -2.352586    1.527823
| 16> H     0.882484    -2.352586    1.527823
| 17> H     0.000000    -3.342860    0.347946
| 18> H     0.000000     0.000000    1.497619
| 19> *
| 20>
| 21>                          ****END OF INPUT****

CARTESIAN COORDINATES (ANGSTROEM)
---------------------------------
  C      0.000000    1.265036   -0.119107
  C      0.000000   -1.265036   -0.119107
  C      0.000000    2.401004    0.887119
  C      0.000000   -2.401004    0.887119
  N      0.000000    0.000000    0.490686
  O      0.000000    1.434626   -1.309734
  O      0.000000   -1.434626   -1.309734
  H      0.000000    3.342860    0.347946
  H     -0.882484    2.352586    1.527823
  H      0.882484    2.352586    1.527823
  H     -0.882484   -2.352586    1.527823
  H      0.882484   -2.352586    1.527823
  H      0.000000   -3.342860    0.347946
  H      0.000000    0.000000    1.497619

 Total Charge           Charge          ....    0
 Multiplicity           Mult            ....    1
 Number of Electrons    NEL             ....   54
 Basis Dimension        Dim             ....  224

ORBITAL ENERGIES
----------------

  NO   OCC          E(Eh)            E(eV)
   0   2.0000     -20.551645      -559.2387
   1   2.0000     -20.551644      -559.2387
   2   2.0000     -15.621852      -425.0922
   3   2.0000     -11.379362      -309.6482
   4   2.0000     -11.379342      -309.6476
   5   2.0000     -11.258474      -306.3586
   6   2.0000     -11.258473      -306.3586
   7   2.0000      -1.420576       -38.6558
   8   2.0000      -1.395495       -37.9734
   9   2.0000      -1.251721       -34.0611
  10   2.0000      -1.043995       -28.4085
  11   2.0000      -1.007887       -27.4260
  12   2.0000      -0.857477       -23.3331
  13   2.0000      -0.779961       -21.2238
  14   2.0000      -0.706467       -19.2239
  15   2.0000      -0.678111       -18.4523
  16   2.0000      -0.648125       -17.6364
  17   2.0000      -0.622783       -16.9468
  18   2.0000      -0.613121       -16.6839
  19   2.0000      -0.606542       -16.5049
  20   2.0000      -0.589475       -16.0404
  21   2.0000      -0.567726       -15.4486
  22   2.0000      -0.551492       -15.0068
  23   2.0000      -0.506536       -13.7835
  24   2.0000      -0.464879       -12.6500
  25   2.0000      -0.427352       -11.6288
  26   2.0000      -0.415575       -11.3084
  27   0.0000       0.020422         0.5557
  28   0.0000       0.038293         1.0420
  29   0.0000       0.041746         1.1360
  30   0.0000       0.049971         1.3598
  31   0.0000       0.063067         1.7161

MULLIKEN ATOMIC CHARGES
-----------------------
   0 C :    0.739940
   1 C :    0.739940
   2 C :    0.292731
   3 C :    0.292731
   4 N :   -0.595840
   5 O :   -0.696989
   6 O :   -0.696989
   7 H :   -0.070330
   8 H :    0.031486
   9 H :    0.031486
  10 H :    0.031486
  11 H :    0.031486
  12 H :   -0.070330
  13 H :   -0.060808
Sum of atomic charges:   -0.0000000

LOEWDIN ATOMIC CHARGES
----------------------
   0 C :   -0.321238
   1 C :   -0.321238
   2 C :    0.207860
   3 C :    0.207860
   4 N :    0.130257
   5 O :    0.068376
   6 O :    0.068376
   7 H :   -0.005842
   8 H :   -0.007850
   9 H :   -0.007850
  10 H :   -0.007850
  11 H :   -0.007850
  12 H :   -0.005842
  13 H :    0.002830

  Mayer bond orders larger than 0.100000
B(  0-C ,  2-C ) :   1.0160 B(  0-C ,  4-N ) :   0.9114 B(  0-C ,  5-O ) :   1.5745
B(  0-C ,  7-H ) :   0.1194 B(  1-C ,  3-C ) :   1.0160 B(  1-C ,  4-N ) :   0.9114
B(  1-C ,  6-O ) :   1.5745 B(  1-C , 12-H ) :   0.1194 B(  2-C ,  7-H ) :   0.8719
B(  2-C ,  8-H ) :   0.9611 B(  2-C ,  9-H ) :   0.9611 B(  3-C , 10-H ) :   0.9611
B(  3-C , 11-H ) :   0.9611 B(  3-C , 12-H ) :   0.8719 B(  4-N , 13-H ) :   1.0552

MP2 TOTAL ENERGY:     -360.920116546 Eh
FINAL SINGLE POINT ENERGY      -360.920116545715

DIPOLE MOMENT
-------------
                                X             Y             Z
Electronic contribution:      0.00000      -0.00000      -5.55646
Nuclear contribution   :      0.00000      -0.00000       8.29181
                        -----------------------------------------
Total Dipole Moment    :      0.00000      -0.00000       2.73535
                        -----------------------------------------
Magnitude (a.u.)       :      2.73535
Magnitude (Debye)      :      6.95270

Rotational constants in cm-1:     0.183441     0.057977     0.044789
Rotational constants in MHz :  5499.434760  1738.096583  1342.728037

                             ****ORCA TERMINATED NORMALLY****
TOTAL RUN TIME: 0 days 0 hours 0 minutes 34 seconds 967 msec
