                         Program Version 5.0.3 -  RELEASE  -
|  1> !ri-mp2 aug-cc-pvdz aug-cc-pvdz/c tightscf
|  2> %pal nprocs 16 end
|  3>
|  4> * xyz 0 1
|  5> Cl   -3.060401   -0.655123   -0.000036
|  6> O    -1.695936    1.586291    0.000019
|  7> O     4.467584   -0.178785   -0.000057
|  8> N     2.105957   -0.328874    0.000063
|  9> C    -0.315239   -0.391161    0.000014
| 10> C     0.924008    0.501299    0.000045
| 11> C    -1.585387    0.409377    0.000004
| 12> C     3.297525   -0.188848   -0.000003
| 13> H    -0.325259   -1.048562    0.871003
| 14> H    -0.325232   -1.048540   -0.870992
| 15> H     0.918478    1.146124    0.879487
| 16> H     0.918511    1.146144   -0.879383
| 17> *
| 18>
| 19>                          ****END OF INPUT****

CARTESIAN COORDINATES (ANGSTROEM)
---------------------------------
  Cl    -3.060401   -0.655123   -0.000036
  O     -1.695936    1.586291    0.000019
  O      4.467584   -0.178785   -0.000057
  N      2.105957   -0.328874    0.000063
  C     -0.315239   -0.391161    0.000014
  C      0.924008    0.501299    0.000045
  C     -1.585387    0.409377    0.000004
  C      3.297525   -0.188848   -0.000003
  H     -0.325259   -1.048562    0.871003
  H     -0.325232   -1.048540   -0.870992
  H      0.918478    1.146124    0.879487
  H      0.918511    1.146144   -0.879383

 Total Charge           Charge          ....    0
 Multiplicity           Mult            ....    1
 Number of Electrons    NEL             ....   68
 Basis Dimension        Dim             ....  224

ORBITAL ENERGIES
----------------

  NO   OCC          E(Eh)            E(eV)
   0   2.0000    -104.854861     -2853.2458
   1   2.0000     -20.627401      -561.3001
   2   2.0000     -20.622819      -561.1754
   3   2.0000     -15.610196      -424.7750
   4   2.0000     -11.434580      -311.1507
   5   2.0000     -11.423951      -310.8615
   6   2.0000     -11.326805      -308.2180
   7   2.0000     -11.293418      -307.3095
   8   2.0000     -10.581301      -287.9319
   9   2.0000      -8.048752      -219.0177
  10   2.0000      -8.045664      -218.9336
  11   2.0000      -8.045505      -218.9293
  12   2.0000      -1.474770       -40.1305
  13   2.0000      -1.474214       -40.1154
  14   2.0000      -1.294057       -35.2131
  15   2.0000      -1.147424       -31.2230
  16   2.0000      -1.096834       -29.8464
  17   2.0000      -0.959789       -26.1172
  18   2.0000      -0.789026       -21.4705
  19   2.0000      -0.765220       -20.8227
  20   2.0000      -0.727726       -19.8024
  21   2.0000      -0.705962       -19.2102
  22   2.0000      -0.687556       -18.7093
  23   2.0000      -0.671259       -18.2659
  24   2.0000      -0.656309       -17.8591
  25   2.0000      -0.649244       -17.6668
  26   2.0000      -0.606406       -16.5012
  27   2.0000      -0.581100       -15.8125
  28   2.0000      -0.551103       -14.9963
  29   2.0000      -0.483139       -13.1469
  30   2.0000      -0.476988       -12.9795
  31   2.0000      -0.468699       -12.7540
  32   2.0000      -0.451282       -12.2800
  33   2.0000      -0.435750       -11.8573
  34   0.0000       0.029886         0.8132
  35   0.0000       0.043829         1.1927
  36   0.0000       0.044743         1.2175
  37   0.0000       0.066032         1.7968
  38   0.0000       0.067122         1.8265

MULLIKEN ATOMIC CHARGES
-----------------------
   0 Cl:   -0.164191
   1 O :   -0.600654
   2 O :   -0.466926
   3 N :   -0.217616
   4 C :    0.238545
   5 C :    1.165462
   6 C :    0.200513
   7 C :    0.009716
   8 H :    0.068119
   9 H :    0.068119
  10 H :   -0.150540
  11 H :   -0.150547
Sum of atomic charges:    0.0000000

LOEWDIN ATOMIC CHARGES
----------------------
   0 Cl:    0.479566
   1 O :    0.050133
   2 O :    0.096005
   3 N :    0.055335
   4 C :   -0.034075
   5 C :   -0.012039
   6 C :   -0.559061
   7 C :   -0.177302
   8 H :    0.026299
   9 H :    0.026299
  10 H :    0.024419
  11 H :    0.024419

  Mayer bond orders larger than 0.100000
B(  0-Cl,  6-C ) :   1.1337 B(  1-O ,  6-C ) :   1.6631 B(  2-O ,  7-C ) :   1.9925
B(  3-N ,  4-C ) :  -0.1307 B(  3-N ,  5-C ) :   0.6676 B(  3-N ,  7-C ) :   2.0271
B(  4-C ,  5-C ) :   1.2004 B(  4-C ,  6-C ) :   0.9353 B(  4-C ,  8-H ) :   0.9699
B(  4-C ,  9-H ) :   0.9699 B(  5-C ,  6-C ) :  -0.1618 B(  5-C ,  7-C ) :  -0.1172
B(  5-C , 10-H ) :   0.8735 B(  5-C , 11-H ) :   0.8735

MP2 TOTAL ENERGY:     -818.781147704 Eh
FINAL SINGLE POINT ENERGY      -818.781147704383

DIPOLE MOMENT
-------------
                                X             Y             Z
Electronic contribution:     -5.48981      -1.32423      -0.00015
Nuclear contribution   :      5.37573       1.10240       0.00016
                        -----------------------------------------
Total Dipole Moment    :     -0.11408      -0.22183       0.00001
                        -----------------------------------------
Magnitude (a.u.)       :      0.24945
Magnitude (Debye)      :      0.63404

Rotational constants in cm-1:     0.231746     0.018000     0.016806
Rotational constants in MHz :  6947.576555   539.628661   503.819360

                             ****ORCA TERMINATED NORMALLY****
TOTAL RUN TIME: 0 days 0 hours 0 minutes 40 seconds 394 msec
