                         Program Version 5.0.3 -  RELEASE  -
|  1> !ri-mp2 aug-cc-pvdz aug-cc-pvdz/c tightscf
|  2> %pal nprocs 16 end
|  3>
|  4> * xyz 0 1
|  5> C     -2.061141    1.167898    0.047427
|  6> C      2.042644    1.195619   -0.057100
|  7> N     -0.984023    0.568342   -0.743304
|  8> N      1.205917    0.297792    0.735190
|  9> O     -0.706460   -1.214268    1.093487
| 10> O      0.585495   -1.313495   -1.089732
| 11> S      0.003297   -0.568296    0.006116
| 12> H     -2.593209    1.870367   -0.591540
| 13> H     -1.635479    1.730384    0.877392
| 14> H     -2.760962    0.433271    0.448081
| 15> H      1.506342    2.078498   -0.412353
| 16> H      2.430424    0.647758   -0.912276
| 17> H      2.883696    1.505789    0.560159
| 18> H     -1.279673    0.182618   -1.630608
| 19> H      0.921539    0.622114    1.648067
| 20> *
| 21>
| 22>                          ****END OF INPUT****

CARTESIAN COORDINATES (ANGSTROEM)
---------------------------------
  C     -2.061141    1.167898    0.047427
  C      2.042644    1.195619   -0.057100
  N     -0.984023    0.568342   -0.743304
  N      1.205917    0.297792    0.735190
  O     -0.706460   -1.214268    1.093487
  O      0.585495   -1.313495   -1.089732
  S      0.003297   -0.568296    0.006116
  H     -2.593209    1.870367   -0.591540
  H     -1.635479    1.730384    0.877392
  H     -2.760962    0.433271    0.448081
  H      1.506342    2.078498   -0.412353
  H      2.430424    0.647758   -0.912276
  H      2.883696    1.505789    0.560159
  H     -1.279673    0.182618   -1.630608
  H      0.921539    0.622114    1.648067

 Total Charge           Charge          ....    0
 Multiplicity           Mult            ....    1
 Number of Electrons    NEL             ....   66
 Basis Dimension        Dim             ....  237

ORBITAL ENERGIES
----------------

  NO   OCC          E(Eh)            E(eV)
   0   2.0000     -92.241550     -2510.0202
   1   2.0000     -20.559975      -559.4654
   2   2.0000     -20.559111      -559.4419
   3   2.0000     -15.610437      -424.7816
   4   2.0000     -15.610136      -424.7734
   5   2.0000     -11.285194      -307.0857
   6   2.0000     -11.281906      -306.9963
   7   2.0000      -9.206867      -250.5316
   8   2.0000      -6.892860      -187.5642
   9   2.0000      -6.891872      -187.5374
  10   2.0000      -6.891547      -187.5285
  11   2.0000      -1.480886       -40.2969
  12   2.0000      -1.353096       -36.8196
  13   2.0000      -1.248773       -33.9808
  14   2.0000      -1.227520       -33.4025
  15   2.0000      -0.977523       -26.5997
  16   2.0000      -0.950485       -25.8640
  17   2.0000      -0.843224       -22.9453
  18   2.0000      -0.747194       -20.3322
  19   2.0000      -0.712405       -19.3855
  20   2.0000      -0.686566       -18.6824
  21   2.0000      -0.655524       -17.8377
  22   2.0000      -0.639079       -17.3902
  23   2.0000      -0.615935       -16.7604
  24   2.0000      -0.603747       -16.4288
  25   2.0000      -0.573910       -15.6169
  26   2.0000      -0.567275       -15.4363
  27   2.0000      -0.514617       -14.0034
  28   2.0000      -0.498504       -13.5650
  29   2.0000      -0.492481       -13.4011
  30   2.0000      -0.474765       -12.9190
  31   2.0000      -0.443157       -12.0589
  32   2.0000      -0.421430       -11.4677
  33   0.0000       0.026892         0.7318
  34   0.0000       0.037503         1.0205
  35   0.0000       0.044957         1.2234
  36   0.0000       0.052697         1.4339
  37   0.0000       0.063907         1.7390

MULLIKEN ATOMIC CHARGES
-----------------------
   0 C :    0.782353
   1 C :    0.786689
   2 N :   -0.869326
   3 N :   -0.795686
   4 O :   -1.064312
   5 O :   -1.068380
   6 S :    3.072237
   7 H :   -0.182028
   8 H :   -0.127824
   9 H :   -0.075913
  10 H :   -0.068595
  11 H :   -0.095151
  12 H :   -0.179826
  13 H :   -0.034427
  14 H :   -0.079812
Sum of atomic charges:    0.0000000

LOEWDIN ATOMIC CHARGES
----------------------
   0 C :    0.112850
   1 C :    0.127863
   2 N :   -0.118733
   3 N :   -0.120171
   4 O :   -0.366681
   5 O :   -0.362017
   6 S :    0.928484
   7 H :   -0.017966
   8 H :   -0.022209
   9 H :   -0.021567
  10 H :   -0.023605
  11 H :   -0.018897
  12 H :   -0.017492
  13 H :   -0.042325
  14 H :   -0.037533

  Mayer bond orders larger than 0.100000
B(  0-C ,  2-N ) :   0.8382 B(  0-C ,  7-H ) :   1.0086 B(  0-C ,  8-H ) :   0.9733
B(  0-C ,  9-H ) :   0.9177 B(  1-C ,  3-N ) :   0.8211 B(  1-C , 10-H ) :   0.9006
B(  1-C , 11-H ) :   0.9739 B(  1-C , 12-H ) :   0.9965 B(  2-N ,  4-O ) :   0.1986
B(  2-N ,  6-S ) :   0.6616 B(  2-N , 13-H ) :   1.1739 B(  3-N ,  6-S ) :   0.9127
B(  3-N , 14-H ) :   1.1440 B(  4-O ,  6-S ) :   0.7662 B(  5-O ,  6-S ) :   0.8823

MP2 TOTAL ENERGY:     -737.713573314 Eh
FINAL SINGLE POINT ENERGY      -737.713573314439

DIPOLE MOMENT
-------------
                                X             Y             Z
Electronic contribution:      0.26581      -7.01297       0.03338
Nuclear contribution   :     -0.52715       9.03861      -0.01323
                        -----------------------------------------
Total Dipole Moment    :     -0.26134       2.02564       0.02015
                        -----------------------------------------
Magnitude (a.u.)       :      2.04253
Magnitude (Debye)      :      5.19169

Rotational constants in cm-1:     0.095782     0.068414     0.056326
Rotational constants in MHz :  2871.458515  2051.011251  1688.615707

                             ****ORCA TERMINATED NORMALLY****
TOTAL RUN TIME: 0 days 0 hours 0 minutes 41 seconds 47 msec
