                         Program Version 5.0.3 -  RELEASE  -
|  1> !ri-mp2 aug-cc-pvdz aug-cc-pvdz/c tightscf
|  2> %pal nprocs 16 end
|  3> %maxcore 3800
|  4>
|  5> * xyz 0 1
|  6> C     -2.727109   -0.326483        0.000000
|  7> C     -2.375260    1.038390        0.000000
|  8> C      1.957686   -1.557474        0.000000
|  9> C     -1.750278   -1.286970        0.000000
| 10> C     -1.055155    1.409855        0.000000
| 11> C      0.638110   -1.927342        0.000000
| 12> C      2.326734   -0.200714        0.000000
| 13> C     -0.376443   -0.941789        0.000000
| 14> C     -0.019952    0.443553        0.000000
| 15> C      1.365002    0.779883        0.000000
| 16> O      1.794772    2.076411        0.000000
| 17> H     -3.770509   -0.611247        0.000000
| 18> H     -3.148862    1.793966        0.000000
| 19> H      2.733146   -2.311550        0.000000
| 20> H     -2.017573   -2.335991        0.000000
| 21> H     -0.825143    2.468776        0.000000
| 22> H      0.356325   -2.971639        0.000000
| 23> H      3.367436    0.091086        0.000000
| 24> H      1.046996    2.679866        0.000001
| 25> *
| 26>
| 27>                          ****END OF INPUT****

CARTESIAN COORDINATES (ANGSTROEM)
---------------------------------
  C     -2.727109   -0.326483    0.000000
  C     -2.375260    1.038390    0.000000
  C      1.957686   -1.557474    0.000000
  C     -1.750278   -1.286970    0.000000
  C     -1.055155    1.409855    0.000000
  C      0.638110   -1.927342    0.000000
  C      2.326734   -0.200714    0.000000
  C     -0.376443   -0.941789    0.000000
  C     -0.019952    0.443553    0.000000
  C      1.365002    0.779883    0.000000
  O      1.794772    2.076411    0.000000
  H     -3.770509   -0.611247    0.000000
  H     -3.148862    1.793966    0.000000
  H      2.733146   -2.311550    0.000000
  H     -2.017573   -2.335991    0.000000
  H     -0.825143    2.468776    0.000000
  H      0.356325   -2.971639    0.000000
  H      3.367436    0.091086    0.000000
  H      1.046996    2.679866    0.000001

 Total Charge           Charge          ....    0
 Multiplicity           Mult            ....    1
 Number of Electrons    NEL             ....   76
 Basis Dimension        Dim             ....  325

ORBITAL ENERGIES
----------------

  NO   OCC          E(Eh)            E(eV)
   0   2.0000     -20.602844      -560.6319
   1   2.0000     -11.312620      -307.8320
   2   2.0000     -11.256755      -306.3119
   3   2.0000     -11.256173      -306.2960
   4   2.0000     -11.255113      -306.2672
   5   2.0000     -11.249556      -306.1160
   6   2.0000     -11.248418      -306.0850
   7   2.0000     -11.247085      -306.0487
   8   2.0000     -11.246102      -306.0220
   9   2.0000     -11.234145      -305.6966
  10   2.0000     -11.232077      -305.6403
  11   2.0000      -1.413473       -38.4625
  12   2.0000      -1.183280       -32.1987
  13   2.0000      -1.118332       -30.4313
  14   2.0000      -1.052999       -28.6536
  15   2.0000      -1.020369       -27.7657
  16   2.0000      -0.988510       -26.8987
  17   2.0000      -0.865047       -23.5391
  18   2.0000      -0.856415       -23.3042
  19   2.0000      -0.816220       -22.2105
  20   2.0000      -0.751839       -20.4586
  21   2.0000      -0.719783       -19.5863
  22   2.0000      -0.687156       -18.6985
  23   2.0000      -0.667475       -18.1629
  24   2.0000      -0.634774       -17.2731
  25   2.0000      -0.612205       -16.6589
  26   2.0000      -0.600229       -16.3331
  27   2.0000      -0.596496       -16.2315
  28   2.0000      -0.574087       -15.6217
  29   2.0000      -0.560144       -15.2423
  30   2.0000      -0.538758       -14.6603
  31   2.0000      -0.522938       -14.2299
  32   2.0000      -0.493754       -13.4357
  33   2.0000      -0.492613       -13.4047
  34   2.0000      -0.448433       -12.2025
  35   2.0000      -0.378933       -10.3113
  36   2.0000      -0.327509        -8.9120
  37   2.0000      -0.282771        -7.6946
  38   0.0000       0.031850         0.8667
  39   0.0000       0.037215         1.0127
  40   0.0000       0.039844         1.0842
  41   0.0000       0.051108         1.3907
  42   0.0000       0.052582         1.4308

MULLIKEN ATOMIC CHARGES
-----------------------
   0 C :    0.053469
   1 C :   -0.160480
   2 C :    0.301548
   3 C :    0.468680
   4 C :    0.652620
   5 C :    0.565370
   6 C :    0.374384
   7 C :    0.804774
   8 C :    1.321639
   9 C :    0.166987
  10 O :   -0.881504
  11 H :   -0.475734
  12 H :   -0.483020
  13 H :   -0.470137
  14 H :   -0.597504
  15 H :   -0.667596
  16 H :   -0.604745
  17 H :   -0.521287
  18 H :    0.152536
Sum of atomic charges:    0.0000000

LOEWDIN ATOMIC CHARGES
----------------------
   0 C :    0.016065
   1 C :    0.015604
   2 C :    0.013580
   3 C :    0.055653
   4 C :    0.054683
   5 C :    0.039879
   6 C :    0.051772
   7 C :   -0.135885
   8 C :   -0.086936
   9 C :   -0.176271
  10 O :    0.200663
  11 H :    0.001862
  12 H :    0.001200
  13 H :    0.003951
  14 H :    0.009125
  15 H :   -0.003604
  16 H :    0.002441
  17 H :    0.007284
  18 H :   -0.071065

  Mayer bond orders larger than 0.100000
B(  0-C ,  1-C ) :   2.0313 B(  0-C ,  2-C ) :   0.4067 B(  0-C ,  3-C ) :   1.5689
B(  0-C ,  4-C ) :   0.2431 B(  0-C ,  5-C ) :   0.3156 B(  0-C ,  6-C ) :   0.3732
B(  0-C ,  7-C ) :  -0.7578 B(  0-C ,  8-C ) :  -0.2995 B(  0-C ,  9-C ) :  -0.1088
B(  0-C , 11-H ) :   0.1064 B(  0-C , 12-H ) :   0.1260 B(  0-C , 14-H ) :   0.3851
B(  0-C , 15-H ) :  -0.1514 B(  1-C ,  2-C ) :   0.3343 B(  1-C ,  3-C ) :   0.2275
B(  1-C ,  4-C ) :   1.3037 B(  1-C ,  5-C ) :  -0.2486 B(  1-C ,  6-C ) :   0.2306
B(  1-C ,  7-C ) :  -0.4452 B(  1-C ,  8-C ) :  -0.4510 B(  1-C ,  9-C ) :   0.5086
B(  1-C , 11-H ) :   0.1242 B(  1-C , 12-H ) :   0.1191 B(  1-C , 14-H ) :  -0.1067
B(  1-C , 15-H ) :   0.2517 B(  2-C ,  3-C ) :   0.3868 B(  2-C ,  4-C ) :  -0.1559
B(  2-C ,  5-C ) :   1.2408 B(  2-C ,  6-C ) :   1.9357 B(  2-C ,  7-C ) :  -0.6152
B(  2-C ,  8-C ) :   0.2306 B(  2-C , 13-H ) :   0.1098 B(  2-C , 16-H ) :   0.3193
B(  3-C ,  4-C ) :   0.4973 B(  3-C ,  5-C ) :  -1.9880 B(  3-C ,  7-C ) :   1.7507
B(  3-C ,  8-C ) :  -1.6294 B(  3-C ,  9-C ) :   0.1087 B(  3-C , 11-H ) :   0.4844
B(  3-C , 14-H ) :  -0.4324 B(  3-C , 15-H ) :   0.1452 B(  3-C , 16-H ) :  -0.2260
B(  4-C ,  5-C ) :   0.3376 B(  4-C ,  6-C ) :   0.4702 B(  4-C ,  7-C ) :  -1.7562
B(  4-C ,  8-C ) :   1.4859 B(  4-C ,  9-C ) :  -2.0639 B(  4-C , 12-H ) :   0.4780
B(  4-C , 15-H ) :  -0.7293 B(  4-C , 17-H ) :   0.1182 B(  5-C ,  6-C ) :   0.4975
B(  5-C ,  7-C ) :   1.7292 B(  5-C ,  8-C ) :  -1.2086 B(  5-C , 13-H ) :   0.4257
B(  5-C , 14-H ) :  -0.2781 B(  5-C , 16-H ) :  -0.4742 B(  5-C , 17-H ) :  -0.1409
B(  6-C ,  7-C ) :  -0.6700 B(  6-C ,  8-C ) :  -0.5369 B(  6-C ,  9-C ) :   1.5573
B(  6-C , 10-O ) :  -0.2000 B(  6-C , 13-H ) :   0.1616 B(  6-C , 17-H ) :  -0.4819
B(  7-C ,  8-C ) :   3.4300 B(  7-C ,  9-C ) :  -1.3492 B(  7-C , 11-H ) :   0.1408
B(  7-C , 13-H ) :   0.1350 B(  7-C , 14-H ) :   0.9845 B(  7-C , 16-H ) :   0.9960
B(  8-C ,  9-C ) :   0.9258 B(  8-C , 10-O ) :   0.5820 B(  8-C , 12-H ) :   0.1640
B(  8-C , 15-H ) :   1.2340 B(  8-C , 17-H ) :   0.1132 B(  9-C , 10-O ) :  -0.3761
B(  9-C , 17-H ) :   1.2085 B(  9-C , 18-H ) :  -0.1094 B( 10-O , 18-H ) :   1.0546

MP2 TOTAL ENERGY:     -459.804955706 Eh
FINAL SINGLE POINT ENERGY      -459.804955706357

DIPOLE MOMENT
-------------
                                X             Y             Z
Electronic contribution:      1.58955       1.17518      -0.00000
Nuclear contribution   :     -2.20763      -1.15238       0.00000
                        -----------------------------------------
Total Dipole Moment    :     -0.61808       0.02280       0.00000
                        -----------------------------------------
Magnitude (a.u.)       :      0.61850
Magnitude (Debye)      :      1.57210

Rotational constants in cm-1:     0.065288     0.037610     0.023863
Rotational constants in MHz :  1957.289786  1127.512574   715.400401

                             ****ORCA TERMINATED NORMALLY****
TOTAL RUN TIME: 0 days 0 hours 2 minutes 35 seconds 930 msec
