                         Program Version 5.0.3 -  RELEASE  -
|  1> !ri-mp2 aug-cc-pvdz aug-cc-pvdz/c tightscf
|  2> %pal nprocs 16 end
|  3>
|  4> * xyz 0 1
|  5> C      0.975299    0.827111   -0.352809
|  6> C      1.037330   -0.681581   -0.465009
|  7> C      1.707835    0.013482    0.686561
|  8> C     -0.339639    1.518890    0.000186
|  9> C     -0.218086   -1.511099   -0.270848
| 10> C     -1.568408    0.613209   -0.153427
| 11> C     -1.336768   -0.765176    0.466692
| 12> H      1.606840    1.375880   -1.039268
| 13> H      1.707047   -1.069245   -1.223026
| 14> H      2.788502    0.048694    0.705499
| 15> H      1.251515   -0.062096    1.665475
| 16> H     -0.295481    1.889223    1.028594
| 17> H     -0.460026    2.400340   -0.631932
| 18> H     -0.593963   -1.797410   -1.258217
| 19> H      0.025275   -2.442322    0.248361
| 20> H     -2.438162    1.095924    0.297128
| 21> H     -1.797265    0.485618   -1.216378
| 22> H     -2.251524   -1.359759    0.428994
| 23> H     -1.088138   -0.653867    1.526702
| 24> *
| 25>
| 26>                          ****END OF INPUT****

CARTESIAN COORDINATES (ANGSTROEM)
---------------------------------
  C      0.975299    0.827111   -0.352809
  C      1.037330   -0.681581   -0.465009
  C      1.707835    0.013482    0.686561
  C     -0.339639    1.518890    0.000186
  C     -0.218086   -1.511099   -0.270848
  C     -1.568408    0.613209   -0.153427
  C     -1.336768   -0.765176    0.466692
  H      1.606840    1.375880   -1.039268
  H      1.707047   -1.069245   -1.223026
  H      2.788502    0.048694    0.705499
  H      1.251515   -0.062096    1.665475
  H     -0.295481    1.889223    1.028594
  H     -0.460026    2.400340   -0.631932
  H     -0.593963   -1.797410   -1.258217
  H      0.025275   -2.442322    0.248361
  H     -2.438162    1.095924    0.297128
  H     -1.797265    0.485618   -1.216378
  H     -2.251524   -1.359759    0.428994
  H     -1.088138   -0.653867    1.526702

 Total Charge           Charge          ....    0
 Multiplicity           Mult            ....    1
 Number of Electrons    NEL             ....   54
 Basis Dimension        Dim             ....  269

ORBITAL ENERGIES
----------------

  NO   OCC          E(Eh)            E(eV)
   0   2.0000     -11.226236      -305.4814
   1   2.0000     -11.225248      -305.4545
   2   2.0000     -11.220997      -305.3389
   3   2.0000     -11.220311      -305.3202
   4   2.0000     -11.219156      -305.2887
   5   2.0000     -11.218099      -305.2600
   6   2.0000     -11.217932      -305.2555
   7   2.0000      -1.156125       -31.4598
   8   2.0000      -1.053578       -28.6693
   9   2.0000      -1.000379       -27.2217
  10   2.0000      -0.882533       -24.0149
  11   2.0000      -0.823269       -22.4023
  12   2.0000      -0.788076       -21.4446
  13   2.0000      -0.714952       -19.4548
  14   2.0000      -0.675299       -18.3758
  15   2.0000      -0.613788       -16.7020
  16   2.0000      -0.597279       -16.2528
  17   2.0000      -0.588065       -16.0021
  18   2.0000      -0.571799       -15.5594
  19   2.0000      -0.524857       -14.2821
  20   2.0000      -0.510536       -13.8924
  21   2.0000      -0.490180       -13.3385
  22   2.0000      -0.467918       -12.7327
  23   2.0000      -0.463932       -12.6242
  24   2.0000      -0.436875       -11.8880
  25   2.0000      -0.390803       -10.6343
  26   2.0000      -0.381540       -10.3822
  27   0.0000       0.036384         0.9901
  28   0.0000       0.043287         1.1779
  29   0.0000       0.045095         1.2271
  30   0.0000       0.046115         1.2549
  31   0.0000       0.061940         1.6855

MULLIKEN ATOMIC CHARGES
-----------------------
   0 C :    0.449065
   1 C :    0.343572
   2 C :    0.702472
   3 C :    0.147668
   4 C :    0.247571
   5 C :    0.462334
   6 C :    0.311146
   7 H :   -0.432477
   8 H :   -0.442455
   9 H :   -0.399117
  10 H :   -0.416541
  11 H :   -0.105052
  12 H :   -0.132450
  13 H :   -0.086517
  14 H :   -0.098935
  15 H :   -0.126813
  16 H :   -0.146229
  17 H :   -0.137300
  18 H :   -0.139941
Sum of atomic charges:   -0.0000000

LOEWDIN ATOMIC CHARGES
----------------------
   0 C :   -0.106519
   1 C :   -0.125220
   2 C :    0.089399
   3 C :    0.007733
   4 C :    0.003404
   5 C :   -0.020736
   6 C :   -0.023160
   7 H :    0.022891
   8 H :    0.028009
   9 H :   -0.002009
  10 H :    0.001068
  11 H :    0.016498
  12 H :    0.012992
  13 H :    0.017883
  14 H :    0.018026
  15 H :    0.013641
  16 H :    0.018919
  17 H :    0.014142
  18 H :    0.013040

  Mayer bond orders larger than 0.100000
B(  0-C ,  1-C ) :   0.9121 B(  0-C ,  2-C ) :   0.9679 B(  0-C ,  3-C ) :   1.1383
B(  0-C ,  7-H ) :   0.3976 B(  0-C ,  8-H ) :   0.1213 B(  0-C , 12-H ) :   0.1343
B(  1-C ,  2-C ) :   1.0264 B(  1-C ,  4-C ) :   1.2676 B(  1-C ,  8-H ) :   0.4399
B(  1-C , 13-H ) :   0.1506 B(  2-C ,  7-H ) :   0.1250 B(  2-C ,  8-H ) :   0.1248
B(  2-C ,  9-H ) :   0.7270 B(  2-C , 10-H ) :   0.6901 B(  3-C ,  4-C ) :   0.1020
B(  3-C ,  5-C ) :   1.2577 B(  3-C , 10-H ) :   0.1224 B(  3-C , 11-H ) :   0.8215
B(  3-C , 12-H ) :   0.7203 B(  4-C ,  6-C ) :   1.2259 B(  4-C , 13-H ) :   0.6867
B(  4-C , 14-H ) :   0.8029 B(  5-C ,  6-C ) :   1.2015 B(  5-C , 15-H ) :   0.7597
B(  5-C , 16-H ) :   0.7750 B(  6-C , 10-H ) :   0.1005 B(  6-C , 17-H ) :   0.7770
B(  6-C , 18-H ) :   0.7977 B(  9-H , 10-H ) :  -0.2245 B( 11-H , 12-H ) :  -0.1408
B( 13-H , 14-H ) :  -0.1319 B( 15-H , 16-H ) :  -0.1464 B( 17-H , 18-H ) :  -0.1589

MP2 TOTAL ENERGY:     -273.080329323 Eh
FINAL SINGLE POINT ENERGY      -273.080329323153

DIPOLE MOMENT
-------------
                                X             Y             Z
Electronic contribution:      1.58035       0.09571      -0.61332
Nuclear contribution   :     -1.62963      -0.09387       0.56093
                        -----------------------------------------
Total Dipole Moment    :     -0.04927       0.00184      -0.05239
                        -----------------------------------------
Magnitude (a.u.)       :      0.07195
Magnitude (Debye)      :      0.18287

Rotational constants in cm-1:     0.127098     0.099072     0.067577
Rotational constants in MHz :  3810.299717  2970.089867  2025.916656

                             ****ORCA TERMINATED NORMALLY****
TOTAL RUN TIME: 0 days 0 hours 1 minutes 23 seconds 698 msec
