                         Program Version 5.0.3 -  RELEASE  -
|  1> !ri-mp2 aug-cc-pvdz aug-cc-pvdz/c tightscf
|  2> %pal nprocs 16 end
|  3>
|  4> * xyz 0 1
|  5> C      2.348792   -0.536780    0.248659
|  6> C     -2.054949   -0.747002    0.633612
|  7> N      0.953152   -0.827439   -0.095931
|  8> N     -1.433378   -0.277244   -0.614256
|  9> O      0.101328    1.411281    0.730744
| 10> S      0.030842    0.587441   -0.500901
| 11> H      2.820782   -1.466819    0.562554
| 12> H      2.364292    0.153252    1.088342
| 13> H      2.932278   -0.107281   -0.573544
| 14> H     -2.298120    0.067754    1.317861
| 15> H     -1.373670   -1.430882    1.131354
| 16> H     -2.964289   -1.286453    0.373636
| 17> H      0.877511   -1.467415   -0.879936
| 18> H     -2.064357    0.284026   -1.174130
| 19> *
| 20>
| 21>                          ****END OF INPUT****

CARTESIAN COORDINATES (ANGSTROEM)
---------------------------------
  C      2.348792   -0.536780    0.248659
  C     -2.054949   -0.747002    0.633612
  N      0.953152   -0.827439   -0.095931
  N     -1.433378   -0.277244   -0.614256
  O      0.101328    1.411281    0.730744
  S      0.030842    0.587441   -0.500901
  H      2.820782   -1.466819    0.562554
  H      2.364292    0.153252    1.088342
  H      2.932278   -0.107281   -0.573544
  H     -2.298120    0.067754    1.317861
  H     -1.373670   -1.430882    1.131354
  H     -2.964289   -1.286453    0.373636
  H      0.877511   -1.467415   -0.879936
  H     -2.064357    0.284026   -1.174130

 Total Charge           Charge          ....    0
 Multiplicity           Mult            ....    1
 Number of Electrons    NEL             ....   58
 Basis Dimension        Dim             ....  214

ORBITAL ENERGIES
----------------

  NO   OCC          E(Eh)            E(eV)
   0   2.0000     -92.125455     -2506.8611
   1   2.0000     -20.526971      -558.5673
   2   2.0000     -15.597338      -424.4251
   3   2.0000     -15.590940      -424.2511
   4   2.0000     -11.264808      -306.5310
   5   2.0000     -11.263988      -306.5087
   6   2.0000      -9.106300      -247.7950
   7   2.0000      -6.788854      -184.7341
   8   2.0000      -6.787993      -184.7107
   9   2.0000      -6.785469      -184.6420
  10   2.0000      -1.375526       -37.4300
  11   2.0000      -1.230261       -33.4771
  12   2.0000      -1.194110       -32.4934
  13   2.0000      -0.968967       -26.3669
  14   2.0000      -0.917498       -24.9664
  15   2.0000      -0.828755       -22.5516
  16   2.0000      -0.695665       -18.9300
  17   2.0000      -0.683501       -18.5990
  18   2.0000      -0.640313       -17.4238
  19   2.0000      -0.615312       -16.7435
  20   2.0000      -0.601324       -16.3629
  21   2.0000      -0.579005       -15.7555
  22   2.0000      -0.546674       -14.8758
  23   2.0000      -0.544841       -14.8259
  24   2.0000      -0.535180       -14.5630
  25   2.0000      -0.457777       -12.4567
  26   2.0000      -0.440525       -11.9873
  27   2.0000      -0.413865       -11.2618
  28   2.0000      -0.364890        -9.9292
  29   0.0000       0.032379         0.8811
  30   0.0000       0.039987         1.0881
  31   0.0000       0.047825         1.3014
  32   0.0000       0.055162         1.5010
  33   0.0000       0.061703         1.6790

MULLIKEN ATOMIC CHARGES
-----------------------
   0 C :    0.771002
   1 C :    0.788414
   2 N :   -0.810555
   3 N :   -0.800719
   4 O :   -1.115765
   5 S :    1.960829
   6 H :   -0.186875
   7 H :   -0.127583
   8 H :   -0.080926
   9 H :   -0.070415
  10 H :   -0.105852
  11 H :   -0.184743
  12 H :    0.011570
  13 H :   -0.048381
Sum of atomic charges:   -0.0000000

LOEWDIN ATOMIC CHARGES
----------------------
   0 C :    0.077582
   1 C :    0.099486
   2 N :   -0.194322
   3 N :   -0.221024
   4 O :   -0.523932
   5 S :    1.059308
   6 H :   -0.024370
   7 H :   -0.032844
   8 H :   -0.027595
   9 H :   -0.025064
  10 H :   -0.030375
  11 H :   -0.023981
  12 H :   -0.063597
  13 H :   -0.069270

  Mayer bond orders larger than 0.100000
B(  0-C ,  2-N ) :   0.9047 B(  0-C ,  6-H ) :   1.0031 B(  0-C ,  7-H ) :   0.9893
B(  0-C ,  8-H ) :   0.8946 B(  1-C ,  3-N ) :   0.8623 B(  1-C ,  9-H ) :   0.9123
B(  1-C , 10-H ) :   0.9875 B(  1-C , 11-H ) :   0.9912 B(  2-N ,  3-N ) :  -0.1038
B(  2-N ,  4-O ) :   0.1183 B(  2-N ,  5-S ) :   0.8317 B(  2-N , 12-H ) :   1.1475
B(  3-N ,  4-O ) :   0.1168 B(  3-N ,  5-S ) :   0.7804 B(  3-N , 13-H ) :   1.1388
B(  4-O ,  5-S ) :   0.8551

MP2 TOTAL ENERGY:     -662.657113007 Eh
FINAL SINGLE POINT ENERGY      -662.657113006920

DIPOLE MOMENT
-------------
                                X             Y             Z
Electronic contribution:     -0.48028       4.32963      -2.73953
Nuclear contribution   :      0.29433      -5.29356       1.88224
                        -----------------------------------------
Total Dipole Moment    :     -0.18595      -0.96393      -0.85729
                        -----------------------------------------
Magnitude (a.u.)       :      1.30334
Magnitude (Debye)      :      3.31282

Rotational constants in cm-1:     0.158416     0.071186     0.061536
Rotational constants in MHz :  4749.199398  2134.108071  1844.798801

                             ****ORCA TERMINATED NORMALLY****
TOTAL RUN TIME: 0 days 0 hours 0 minutes 34 seconds 96 msec
