                         Program Version 5.0.3 -  RELEASE  -
|  1> !ri-mp2 aug-cc-pvdz aug-cc-pvdz/c tightscf
|  2> %pal nprocs 16 end
|  3> %maxcore 3800
|  4>
|  5> * xyz 0 1
|  6> C     -2.810255    0.874015        0.000000
|  7> C     -2.014183    2.040128        0.000000
|  8> C     -2.216594   -0.361309        0.000000
|  9> C     -0.646606    1.950634        0.000000
| 10> C     -0.160779   -1.748178        0.000000
| 11> C      1.205234   -1.842363        0.000000
| 12> C      1.407649    0.566607        0.000000
| 13> C     -0.807166   -0.489734        0.000000
| 14> C      0.000000    0.689037        0.000000
| 15> C      1.997415   -0.671969        0.000000
| 16> O      3.364255   -0.741235        0.000000
| 17> H     -3.888286    0.960491        0.000000
| 18> H     -2.491116    3.011227        0.000000
| 19> H     -2.821658   -1.259354        0.000000
| 20> H     -0.040456    2.847562        0.000000
| 21> H     -0.762742   -2.647866        0.000000
| 22> H      1.687194   -2.813217        0.000000
| 23> H      2.030075    1.451183        0.000000
| 24> H      3.644668   -1.661357        0.000000
| 25> *
| 26>
| 27>                          ****END OF INPUT****

CARTESIAN COORDINATES (ANGSTROEM)
---------------------------------
  C     -2.810255    0.874015    0.000000
  C     -2.014183    2.040128    0.000000
  C     -2.216594   -0.361309    0.000000
  C     -0.646606    1.950634    0.000000
  C     -0.160779   -1.748178    0.000000
  C      1.205234   -1.842363    0.000000
  C      1.407649    0.566607    0.000000
  C     -0.807166   -0.489734    0.000000
  C      0.000000    0.689037    0.000000
  C      1.997415   -0.671969    0.000000
  O      3.364255   -0.741235    0.000000
  H     -3.888286    0.960491    0.000000
  H     -2.491116    3.011227    0.000000
  H     -2.821658   -1.259354    0.000000
  H     -0.040456    2.847562    0.000000
  H     -0.762742   -2.647866    0.000000
  H      1.687194   -2.813217    0.000000
  H      2.030075    1.451183    0.000000
  H      3.644668   -1.661357    0.000000

 Total Charge           Charge          ....    0
 Multiplicity           Mult            ....    1
 Number of Electrons    NEL             ....   76
 Basis Dimension        Dim             ....  325

ORBITAL ENERGIES
----------------

  NO   OCC          E(Eh)            E(eV)
   0   2.0000     -20.602828      -560.6315
   1   2.0000     -11.311163      -307.7924
   2   2.0000     -11.254021      -306.2375
   3   2.0000     -11.253051      -306.2111
   4   2.0000     -11.247439      -306.0584
   5   2.0000     -11.245051      -305.9934
   6   2.0000     -11.243773      -305.9586
   7   2.0000     -11.242810      -305.9324
   8   2.0000     -11.238421      -305.8130
   9   2.0000     -11.237413      -305.7856
  10   2.0000     -11.231373      -305.6212
  11   2.0000      -1.411598       -38.4115
  12   2.0000      -1.181223       -32.1427
  13   2.0000      -1.112737       -30.2791
  14   2.0000      -1.056435       -28.7471
  15   2.0000      -1.010368       -27.4935
  16   2.0000      -0.987551       -26.8726
  17   2.0000      -0.864102       -23.5134
  18   2.0000      -0.847022       -23.0487
  19   2.0000      -0.818732       -22.2788
  20   2.0000      -0.751876       -20.4596
  21   2.0000      -0.708637       -19.2830
  22   2.0000      -0.690880       -18.7998
  23   2.0000      -0.659139       -17.9361
  24   2.0000      -0.628543       -17.1035
  25   2.0000      -0.602702       -16.4004
  26   2.0000      -0.597801       -16.2670
  27   2.0000      -0.593488       -16.1496
  28   2.0000      -0.582572       -15.8526
  29   2.0000      -0.568400       -15.4670
  30   2.0000      -0.526960       -14.3393
  31   2.0000      -0.524916       -14.2837
  32   2.0000      -0.501402       -13.6439
  33   2.0000      -0.479784       -13.0556
  34   2.0000      -0.437961       -11.9175
  35   2.0000      -0.386264       -10.5108
  36   2.0000      -0.315575        -8.5872
  37   2.0000      -0.284552        -7.7431
  38   0.0000       0.030583         0.8322
  39   0.0000       0.036736         0.9996
  40   0.0000       0.040072         1.0904
  41   0.0000       0.050673         1.3789
  42   0.0000       0.053763         1.4630

MULLIKEN ATOMIC CHARGES
-----------------------
   0 C :    0.124504
   1 C :   -0.023022
   2 C :    0.561172
   3 C :    0.467319
   4 C :    0.491644
   5 C :    0.050085
   6 C :    0.763195
   7 C :    0.741118
   8 C :    1.080949
   9 C :    0.410202
  10 O :   -0.919574
  11 H :   -0.481383
  12 H :   -0.482862
  13 H :   -0.593467
  14 H :   -0.589896
  15 H :   -0.600925
  16 H :   -0.615325
  17 H :   -0.568919
  18 H :    0.185183
Sum of atomic charges:    0.0000000

LOEWDIN ATOMIC CHARGES
----------------------
   0 C :    0.007771
   1 C :    0.013044
   2 C :    0.049028
   3 C :    0.050834
   4 C :    0.058432
   5 C :    0.050541
   6 C :    0.090651
   7 C :   -0.141148
   8 C :   -0.135269
   9 C :   -0.222790
  10 O :    0.184168
  11 H :   -0.002494
  12 H :    0.001032
  13 H :    0.007292
  14 H :    0.006252
  15 H :    0.010965
  16 H :    0.001937
  17 H :    0.013458
  18 H :   -0.043703

  Mayer bond orders larger than 0.100000
B(  0-C ,  1-C ) :   1.9722 B(  0-C ,  2-C ) :   1.5722 B(  0-C ,  3-C ) :   0.1428
B(  0-C ,  4-C ) :   0.5337 B(  0-C ,  5-C ) :   0.3966 B(  0-C ,  6-C ) :  -0.1780
B(  0-C ,  7-C ) :  -0.4978 B(  0-C ,  8-C ) :  -0.3982 B(  0-C ,  9-C ) :   0.2543
B(  0-C , 12-H ) :   0.1271 B(  0-C , 13-H ) :   0.3153 B(  1-C ,  2-C ) :   0.1836
B(  1-C ,  3-C ) :   1.6334 B(  1-C ,  4-C ) :  -0.1581 B(  1-C ,  5-C ) :   0.2891
B(  1-C ,  6-C ) :   0.5092 B(  1-C ,  7-C ) :  -0.1224 B(  1-C ,  8-C ) :  -0.7378
B(  1-C ,  9-C ) :   0.2700 B(  1-C , 11-H ) :   0.1495 B(  1-C , 12-H ) :   0.1265
B(  1-C , 13-H ) :  -0.1245 B(  1-C , 14-H ) :   0.3815 B(  2-C ,  3-C ) :   0.5715
B(  2-C ,  4-C ) :  -1.8099 B(  2-C ,  5-C ) :   0.4994 B(  2-C ,  6-C ) :   0.4082
B(  2-C ,  7-C ) :   1.6816 B(  2-C ,  8-C ) :  -1.5785 B(  2-C ,  9-C ) :  -0.1981
B(  2-C , 11-H ) :   0.4641 B(  2-C , 13-H ) :  -0.4318 B(  2-C , 15-H ) :  -0.1881
B(  3-C ,  4-C ) :   0.2261 B(  3-C ,  6-C ) :  -1.8967 B(  3-C ,  7-C ) :  -1.7893
B(  3-C ,  8-C ) :   1.6083 B(  3-C ,  9-C ) :   0.4336 B(  3-C , 12-H ) :   0.4620
B(  3-C , 14-H ) :  -0.4427 B(  3-C , 17-H ) :  -0.1257 B(  4-C ,  5-C ) :   1.9198
B(  4-C ,  6-C ) :   0.1182 B(  4-C ,  7-C ) :   1.8661 B(  4-C ,  8-C ) :  -1.7975
B(  4-C ,  9-C ) :   0.1793 B(  4-C , 10-O ) :   0.1018 B(  4-C , 13-H ) :  -0.1730
B(  4-C , 15-H ) :  -0.5808 B(  4-C , 16-H ) :   0.5085 B(  5-C ,  6-C ) :   0.1542
B(  5-C ,  7-C ) :  -0.8370 B(  5-C ,  9-C ) :   1.5579 B(  5-C , 10-O ) :   0.1780
B(  5-C , 15-H ) :   0.3853 B(  5-C , 16-H ) :  -0.2564 B(  6-C ,  7-C ) :  -1.6247
B(  6-C ,  8-C ) :   2.3060 B(  6-C ,  9-C ) :   0.8656 B(  6-C , 14-H ) :  -0.1835
B(  6-C , 15-H ) :   0.1229 B(  6-C , 17-H ) :  -0.4959 B(  7-C ,  8-C ) :   3.8459
B(  7-C ,  9-C ) :   0.1285 B(  7-C , 11-H ) :   0.1935 B(  7-C , 13-H ) :   0.9821
B(  7-C , 15-H ) :   1.1083 B(  8-C ,  9-C ) :  -0.5280 B(  8-C , 11-H ) :  -0.1259
B(  8-C , 12-H ) :   0.1624 B(  8-C , 14-H ) :   0.9350 B(  8-C , 17-H ) :   0.8749
B(  9-C , 10-O ) :  -0.1159 B(  9-C , 15-H ) :  -0.2187 B(  9-C , 16-H ) :   0.4783
B(  9-C , 17-H ) :   0.4450 B(  9-C , 18-H ) :  -0.1493 B( 10-O , 18-H ) :   1.0600

MP2 TOTAL ENERGY:     -459.805795245 Eh
FINAL SINGLE POINT ENERGY      -459.805795244986

DIPOLE MOMENT
-------------
                                X             Y             Z
Electronic contribution:      2.41891      -0.50408       0.00000
Nuclear contribution   :     -2.56344      -0.12179       0.00000
                        -----------------------------------------
Total Dipole Moment    :     -0.14453      -0.62587       0.00000
                        -----------------------------------------
Magnitude (a.u.)       :      0.64234
Magnitude (Debye)      :      1.63270

Rotational constants in cm-1:     0.095536     0.027618     0.021425
Rotational constants in MHz :  2864.089635   827.972612   642.293553

                             ****ORCA TERMINATED NORMALLY****
TOTAL RUN TIME: 0 days 0 hours 2 minutes 38 seconds 550 msec
