                         Program Version 5.0.3 -  RELEASE  -
|  1> !ri-mp2 aug-cc-pvdz aug-cc-pvdz/c tightscf
|  2> %pal nprocs 16 end
|  3>
|  4> * xyz 0 1
|  5> C     -0.252099   -1.864578    0.000000
|  6> C      0.698505   -0.690619    0.000000
|  7> N      0.000000    0.657769    0.000000
|  8> O      0.728213    1.635752    0.000000
|  9> O     -1.217324    0.683616    0.000000
| 10> H     -0.889475   -1.861633    0.881474
| 11> H     -0.889475   -1.861633   -0.881474
| 12> H      0.333046   -2.784908    0.000000
| 13> H      1.340180   -0.659983   -0.878434
| 14> H      1.340180   -0.659983    0.878434
| 15> *
| 16>
| 17>                          ****END OF INPUT****

CARTESIAN COORDINATES (ANGSTROEM)
---------------------------------
  C     -0.252099   -1.864578    0.000000
  C      0.698505   -0.690619    0.000000
  N      0.000000    0.657769    0.000000
  O      0.728213    1.635752    0.000000
  O     -1.217324    0.683616    0.000000
  H     -0.889475   -1.861633    0.881474
  H     -0.889475   -1.861633   -0.881474
  H      0.333046   -2.784908    0.000000
  H      1.340180   -0.659983   -0.878434
  H      1.340180   -0.659983    0.878434

 Total Charge           Charge          ....    0
 Multiplicity           Mult            ....    1
 Number of Electrons    NEL             ....   40
 Basis Dimension        Dim             ....  160

ORBITAL ENERGIES
----------------

  NO   OCC          E(Eh)            E(eV)
   0   2.0000     -20.616799      -561.0116
   1   2.0000     -20.610743      -560.8468
   2   2.0000     -15.854203      -431.4148
   3   2.0000     -11.319197      -308.0110
   4   2.0000     -11.256141      -306.2952
   5   2.0000      -1.613182       -43.8969
   6   2.0000      -1.408191       -38.3188
   7   2.0000      -1.121772       -30.5250
   8   2.0000      -0.968397       -26.3514
   9   2.0000      -0.841386       -22.8953
  10   2.0000      -0.755226       -20.5507
  11   2.0000      -0.738709       -20.1013
  12   2.0000      -0.728645       -19.8274
  13   2.0000      -0.634011       -17.2523
  14   2.0000      -0.595548       -16.2057
  15   2.0000      -0.564374       -15.3574
  16   2.0000      -0.537275       -14.6200
  17   2.0000      -0.494402       -13.4534
  18   2.0000      -0.483835       -13.1658
  19   2.0000      -0.454648       -12.3716
  20   0.0000       0.028148         0.7659
  21   0.0000       0.043483         1.1832
  22   0.0000       0.045991         1.2515
  23   0.0000       0.055395         1.5074
  24   0.0000       0.073545         2.0012

MULLIKEN ATOMIC CHARGES
-----------------------
   0 C :    0.355089
   1 C :    0.760465
   2 N :    0.772737
   3 O :   -0.818174
   4 O :   -0.771836
   5 H :    0.002306
   6 H :    0.002306
   7 H :   -0.026323
   8 H :   -0.138286
   9 H :   -0.138286
Sum of atomic charges:   -0.0000000

LOEWDIN ATOMIC CHARGES
----------------------
   0 C :    0.147586
   1 C :    0.050398
   2 N :   -0.367295
   3 O :    0.068844
   4 O :    0.084361
   5 H :   -0.011175
   6 H :   -0.011175
   7 H :   -0.009796
   8 H :    0.024127
   9 H :    0.024127

  Mayer bond orders larger than 0.100000
B(  0-C ,  1-C ) :   1.2451 B(  0-C ,  5-H ) :   0.9433 B(  0-C ,  6-H ) :   0.9433
B(  0-C ,  7-H ) :   0.9169 B(  1-C ,  2-N ) :   0.5998 B(  1-C ,  8-H ) :   0.8794
B(  1-C ,  9-H ) :   0.8794 B(  2-N ,  3-O ) :   1.1026 B(  2-N ,  4-O ) :   1.2166
B(  3-O ,  4-O ) :   0.1773

MP2 TOTAL ENERGY:     -283.627636310 Eh
FINAL SINGLE POINT ENERGY      -283.627636309875

DIPOLE MOMENT
-------------
                                X             Y             Z
Electronic contribution:     -0.61263       6.20804      -0.00000
Nuclear contribution   :      1.22766      -7.79352       0.00000
                        -----------------------------------------
Total Dipole Moment    :      0.61502      -1.58548      -0.00000
                        -----------------------------------------
Magnitude (a.u.)       :      1.70059
Magnitude (Debye)      :      4.32255

Rotational constants in cm-1:     0.360892     0.137755     0.103522
Rotational constants in MHz : 10819.259661  4129.790579  3103.513304

                             ****ORCA TERMINATED NORMALLY****
TOTAL RUN TIME: 0 days 0 hours 0 minutes 53 seconds 614 msec
