                         Program Version 5.0.3 -  RELEASE  -
|  1> !ri-mp2 aug-cc-pvdz aug-cc-pvdz/c tightscf
|  2> %pal nprocs 16 end
|  3>
|  4> * xyz 0 1
|  5> S     -0.977841    0.897750    0.426091
|  6> S     -2.081995   -0.635586   -0.451951
|  7> O      1.307860   -0.949315    1.030107
|  8> N      0.582338    0.797816   -0.241341
|  9> C      1.521372   -0.149599    0.148699
| 10> C      2.812887   -0.107552   -0.640961
| 11> H     -1.741791   -1.618901    0.408674
| 12> H      0.761070    1.334091   -1.076406
| 13> H      2.715102   -0.758963   -1.511499
| 14> H      3.614677   -0.492310   -0.016893
| 15> H      3.063516    0.894181   -0.987999
| 16> *
| 17>
| 18>                          ****END OF INPUT****

CARTESIAN COORDINATES (ANGSTROEM)
---------------------------------
  S     -0.977841    0.897750    0.426091
  S     -2.081995   -0.635586   -0.451951
  O      1.307860   -0.949315    1.030107
  N      0.582338    0.797816   -0.241341
  C      1.521372   -0.149599    0.148699
  C      2.812887   -0.107552   -0.640961
  H     -1.741791   -1.618901    0.408674
  H      0.761070    1.334091   -1.076406
  H      2.715102   -0.758963   -1.511499
  H      3.614677   -0.492310   -0.016893
  H      3.063516    0.894181   -0.987999

 Total Charge           Charge          ....    0
 Multiplicity           Mult            ....    1
 Number of Electrons    NEL             ....   64
 Basis Dimension        Dim             ....  191

ORBITAL ENERGIES
----------------

  NO   OCC          E(Eh)            E(eV)
   0   2.0000     -92.026474     -2504.1677
   1   2.0000     -91.989736     -2503.1680
   2   2.0000     -20.550350      -559.2035
   3   2.0000     -15.626878      -425.2290
   4   2.0000     -11.378641      -309.6286
   5   2.0000     -11.258000      -306.3457
   6   2.0000      -9.022047      -245.5024
   7   2.0000      -8.990519      -244.6445
   8   2.0000      -6.703926      -182.4231
   9   2.0000      -6.701848      -182.3665
  10   2.0000      -6.699347      -182.2985
  11   2.0000      -6.672313      -181.5629
  12   2.0000      -6.670769      -181.5208
  13   2.0000      -6.668618      -181.4623
  14   2.0000      -1.408518       -38.3277
  15   2.0000      -1.250066       -34.0160
  16   2.0000      -1.055657       -28.7259
  17   2.0000      -1.007671       -27.4201
  18   2.0000      -0.889336       -24.2001
  19   2.0000      -0.798441       -21.7267
  20   2.0000      -0.700250       -19.0548
  21   2.0000      -0.658673       -17.9234
  22   2.0000      -0.635352       -17.2888
  23   2.0000      -0.604397       -16.4465
  24   2.0000      -0.577717       -15.7205
  25   2.0000      -0.556571       -15.1451
  26   2.0000      -0.543318       -14.7844
  27   2.0000      -0.488689       -13.2979
  28   2.0000      -0.445855       -12.1323
  29   2.0000      -0.415624       -11.3097
  30   2.0000      -0.390336       -10.6216
  31   2.0000      -0.378735       -10.3059
  32   0.0000       0.028828         0.7844
  33   0.0000       0.046354         1.2613
  34   0.0000       0.047790         1.3004
  35   0.0000       0.058211         1.5840
  36   0.0000       0.064608         1.7581

MULLIKEN ATOMIC CHARGES
-----------------------
   0 S :    0.366557
   1 S :   -0.186065
   2 O :   -0.753086
   3 N :   -0.631109
   4 C :    0.770499
   5 C :    0.289817
   6 H :    0.225839
   7 H :   -0.079519
   8 H :    0.065454
   9 H :   -0.006960
  10 H :   -0.061426
Sum of atomic charges:   -0.0000000

LOEWDIN ATOMIC CHARGES
----------------------
   0 S :    0.526494
   1 S :    0.332135
   2 O :    0.015318
   3 N :   -0.287848
   4 C :   -0.442163
   5 C :    0.203046
   6 H :   -0.266640
   7 H :   -0.055305
   8 H :   -0.002728
   9 H :   -0.005779
  10 H :   -0.016530

  Mayer bond orders larger than 0.100000
B(  0-S ,  1-S ) :   1.1582 B(  0-S ,  3-N ) :   0.8256 B(  1-S ,  6-H ) :   0.8983
B(  2-O ,  4-C ) :   1.4385 B(  3-N ,  4-C ) :   0.8746 B(  3-N ,  7-H ) :   1.1371
B(  4-C ,  5-C ) :   1.0590 B(  5-C ,  8-H ) :   0.9087 B(  5-C ,  9-H ) :   0.9042
B(  5-C , 10-H ) :   0.9873

MP2 TOTAL ENERGY:    -1003.994175609 Eh
FINAL SINGLE POINT ENERGY     -1003.994175609221

DIPOLE MOMENT
-------------
                                X             Y             Z
Electronic contribution:     -7.62748       1.18081       2.00949
Nuclear contribution   :      8.32387      -0.64424      -3.09156
                        -----------------------------------------
Total Dipole Moment    :      0.69639       0.53657      -1.08208
                        -----------------------------------------
Magnitude (a.u.)       :      1.39418
Magnitude (Debye)      :      3.54373

Rotational constants in cm-1:     0.155759     0.042409     0.039510
Rotational constants in MHz :  4669.550005  1271.395852  1184.486894

                             ****ORCA TERMINATED NORMALLY****
TOTAL RUN TIME: 0 days 0 hours 0 minutes 30 seconds 909 msec
