                         Program Version 5.0.3 -  RELEASE  -
|  1> !ri-mp2 aug-cc-pvdz aug-cc-pvdz/c tightscf
|  2> %pal nprocs 16 end
|  3>
|  4> * xyz 0 1
|  5> C     -1.074952   -0.423350    0.000000
|  6> N      0.000000    0.548631    0.000000
|  7> C      1.187443    0.128587    0.000000
|  8> H     -0.726044   -1.464229    0.000000
|  9> H     -1.702940   -0.256326    0.876539
| 10> H     -1.702940   -0.256326   -0.876539
| 11> H      1.449451   -0.937256    0.000000
| 12> H      2.007530    0.842294    0.000000
| 13> *
| 14>
| 15>                          ****END OF INPUT****

CARTESIAN COORDINATES (ANGSTROEM)
---------------------------------
  C     -1.074952   -0.423350    0.000000
  N      0.000000    0.548631    0.000000
  C      1.187443    0.128587    0.000000
  H     -0.726044   -1.464229    0.000000
  H     -1.702940   -0.256326    0.876539
  H     -1.702940   -0.256326   -0.876539
  H      1.449451   -0.937256    0.000000
  H      2.007530    0.842294    0.000000

 Total Charge           Charge          ....    0
 Multiplicity           Mult            ....    1
 Number of Electrons    NEL             ....   24
 Basis Dimension        Dim             ....  114

ORBITAL ENERGIES
----------------

  NO   OCC          E(Eh)            E(eV)
   0   2.0000     -15.573963      -423.7891
   1   2.0000     -11.279887      -306.9413
   2   2.0000     -11.255611      -306.2807
   3   2.0000      -1.233324       -33.5604
   4   2.0000      -0.962371       -26.1874
   5   2.0000      -0.795469       -21.6458
   6   2.0000      -0.656944       -17.8764
   7   2.0000      -0.631339       -17.1796
   8   2.0000      -0.590359       -16.0645
   9   2.0000      -0.532311       -14.4849
  10   2.0000      -0.420498       -11.4423
  11   2.0000      -0.407259       -11.0821
  12   0.0000       0.035990         0.9793
  13   0.0000       0.048732         1.3261
  14   0.0000       0.053796         1.4639
  15   0.0000       0.059598         1.6217
  16   0.0000       0.075907         2.0655

MULLIKEN ATOMIC CHARGES
-----------------------
   0 C :    0.691146
   1 N :   -0.609945
   2 C :    0.601047
   3 H :   -0.114083
   4 H :   -0.106313
   5 H :   -0.106313
   6 H :   -0.148729
   7 H :   -0.206810
Sum of atomic charges:   -0.0000000

LOEWDIN ATOMIC CHARGES
----------------------
   0 C :    0.091860
   1 N :   -0.058828
   2 C :    0.114058
   3 H :   -0.028784
   4 H :   -0.025529
   5 H :   -0.025529
   6 H :   -0.028745
   7 H :   -0.038502

  Mayer bond orders larger than 0.100000
B(  0-C ,  1-N ) :   0.8433 B(  0-C ,  3-H ) :   0.9554 B(  0-C ,  4-H ) :   0.9708
B(  0-C ,  5-H ) :   0.9708 B(  1-N ,  2-C ) :   1.9188 B(  2-C ,  6-H ) :   0.8638
B(  2-C ,  7-H ) :   1.0159 B(  6-H ,  7-H ) :  -0.1391

MP2 TOTAL ENERGY:     -133.542195265 Eh
FINAL SINGLE POINT ENERGY      -133.542195265229

DIPOLE MOMENT
-------------
                                X             Y             Z
Electronic contribution:      0.93811       1.51917       0.00000
Nuclear contribution   :     -0.70636      -2.16491       0.00000
                        -----------------------------------------
Total Dipole Moment    :      0.23175      -0.64574       0.00000
                        -----------------------------------------
Magnitude (a.u.)       :      0.68606
Magnitude (Debye)      :      1.74383

Rotational constants in cm-1:     1.803826     0.355063     0.313773
Rotational constants in MHz : 54077.333074 10644.513031  9406.686089

                             ****ORCA TERMINATED NORMALLY****
TOTAL RUN TIME: 0 days 0 hours 0 minutes 19 seconds 612 msec
