                         Program Version 5.0.3 -  RELEASE  -
|  1> !ri-mp2 aug-cc-pvdz aug-cc-pvdz/c tightscf
|  2> %pal nprocs 16 end
|  3>
|  4> * xyz 0 1
|  5> N     -1.545214    0.875722    0.000075
|  6> H     -2.543731    0.764446    0.000029
|  7> H     -1.130576    1.791761    0.000310
|  8> O      1.533181   -0.905280    0.000099
|  9> H      2.449443   -0.589400    0.000108
| 10> O     -1.138031   -1.371045   -0.000085
| 11> O      1.125097    1.307223   -0.000114
| 12> C      0.739014    0.164691   -0.000013
| 13> C     -0.759117   -0.222031   -0.000015
| 14> *
| 15>
| 16>                          ****END OF INPUT****

CARTESIAN COORDINATES (ANGSTROEM)
---------------------------------
  N     -1.545214    0.875722    0.000075
  H     -2.543731    0.764446    0.000029
  H     -1.130576    1.791761    0.000310
  O      1.533181   -0.905280    0.000099
  H      2.449443   -0.589400    0.000108
  O     -1.138031   -1.371045   -0.000085
  O      1.125097    1.307223   -0.000114
  C      0.739014    0.164691   -0.000013
  C     -0.759117   -0.222031   -0.000015

 Total Charge           Charge          ....    0
 Multiplicity           Mult            ....    1
 Number of Electrons    NEL             ....   46
 Basis Dimension        Dim             ....  165

ORBITAL ENERGIES
----------------

  NO   OCC          E(Eh)            E(eV)
   0   2.0000     -20.647137      -561.8372
   1   2.0000     -20.596532      -560.4601
   2   2.0000     -20.563288      -559.5555
   3   2.0000     -15.614102      -424.8813
   4   2.0000     -11.427875      -310.9683
   5   2.0000     -11.394619      -310.0633
   6   2.0000      -1.503111       -40.9017
   7   2.0000      -1.415351       -38.5137
   8   2.0000      -1.401076       -38.1252
   9   2.0000      -1.241308       -33.7777
  10   2.0000      -0.957422       -26.0528
  11   2.0000      -0.830451       -22.5977
  12   2.0000      -0.773631       -21.0516
  13   2.0000      -0.734006       -19.9733
  14   2.0000      -0.695977       -18.9385
  15   2.0000      -0.667231       -18.1563
  16   2.0000      -0.663325       -18.0500
  17   2.0000      -0.609690       -16.5905
  18   2.0000      -0.585847       -15.9417
  19   2.0000      -0.530641       -14.4395
  20   2.0000      -0.510328       -13.8867
  21   2.0000      -0.442915       -12.0523
  22   2.0000      -0.433933       -11.8079
  23   0.0000       0.030943         0.8420
  24   0.0000       0.037075         1.0089
  25   0.0000       0.060252         1.6395
  26   0.0000       0.081806         2.2261
  27   0.0000       0.096257         2.6193

MULLIKEN ATOMIC CHARGES
-----------------------
   0 N :   -0.215915
   1 H :    0.014339
   2 H :    0.036689
   3 O :   -0.628808
   4 H :    0.213247
   5 O :   -0.698357
   6 O :   -0.710861
   7 C :    1.108400
   8 C :    0.881266
Sum of atomic charges:    0.0000000

LOEWDIN ATOMIC CHARGES
----------------------
   0 N :    0.289158
   1 H :    0.001402
   2 H :   -0.023666
   3 O :    0.229535
   4 H :   -0.007977
   5 O :    0.044983
   6 O :    0.051266
   7 C :   -0.271075
   8 C :   -0.313626

  Mayer bond orders larger than 0.100000
B(  0-N ,  1-H ) :   1.1030 B(  0-N ,  2-H ) :   1.0784 B(  0-N ,  8-C ) :   0.9606
B(  3-O ,  4-H ) :   1.0092 B(  3-O ,  7-C ) :   0.6070 B(  3-O ,  8-C ) :   0.1439
B(  5-O ,  8-C ) :   1.3812 B(  6-O ,  7-C ) :   1.4248 B(  7-C ,  8-C ) :   0.9279

MP2 TOTAL ENERGY:     -357.630524530 Eh
FINAL SINGLE POINT ENERGY      -357.630524530180

DIPOLE MOMENT
-------------
                                X             Y             Z
Electronic contribution:      1.25360      -0.96703      -0.00017
Nuclear contribution   :     -1.17384       1.89825       0.00043
                        -----------------------------------------
Total Dipole Moment    :      0.07976       0.93123       0.00026
                        -----------------------------------------
Magnitude (a.u.)       :      0.93464
Magnitude (Debye)      :      2.37565

Rotational constants in cm-1:     0.196531     0.120506     0.074702
Rotational constants in MHz :  5891.844854  3612.676977  2239.495343

                             ****ORCA TERMINATED NORMALLY****
TOTAL RUN TIME: 0 days 0 hours 0 minutes 50 seconds 82 msec
