                         Program Version 5.0.3 -  RELEASE  -
|  1> !ri-mp2 aug-cc-pvdz aug-cc-pvdz/c tightscf
|  2> %pal nprocs 16 end
|  3>
|  4> * xyz 0 1
|  5> C     -0.718651   -0.816155        0.000000
|  6> C      0.000000    0.539124        0.000000
|  7> O      1.331696    0.432025        0.000000
|  8> O     -0.618671    1.571383        0.000000
|  9> O     -0.159963   -1.873970        0.000000
| 10> H     -1.815745   -0.700767        0.000000
| 11> H      1.703152    1.327452        0.000000
| 12> *
| 13>
| 14>                          ****END OF INPUT****

CARTESIAN COORDINATES (ANGSTROEM)
---------------------------------
  C     -0.718651   -0.816155    0.000000
  C      0.000000    0.539124    0.000000
  O      1.331696    0.432025    0.000000
  O     -0.618671    1.571383    0.000000
  O     -0.159963   -1.873970    0.000000
  H     -1.815745   -0.700767    0.000000
  H      1.703152    1.327452    0.000000

 Total Charge           Charge          ....    0
 Multiplicity           Mult            ....    1
 Number of Electrons    NEL             ....   38
 Basis Dimension        Dim             ....  133

ORBITAL ENERGIES
----------------

  NO   OCC          E(Eh)            E(eV)
   0   2.0000     -20.651226      -561.9484
   1   2.0000     -20.618705      -561.0635
   2   2.0000     -20.601295      -560.5897
   3   2.0000     -11.428017      -310.9721
   4   2.0000     -11.380146      -309.6695
   5   2.0000      -1.505289       -40.9610
   6   2.0000      -1.445019       -39.3210
   7   2.0000      -1.404179       -38.2097
   8   2.0000      -0.977132       -26.5891
   9   2.0000      -0.844153       -22.9706
  10   2.0000      -0.741336       -20.1728
  11   2.0000      -0.727838       -19.8055
  12   2.0000      -0.690589       -18.7919
  13   2.0000      -0.666731       -18.1427
  14   2.0000      -0.630208       -17.1488
  15   2.0000      -0.562839       -15.3156
  16   2.0000      -0.530050       -14.4234
  17   2.0000      -0.512331       -13.9412
  18   2.0000      -0.454139       -12.3578
  19   0.0000       0.031838         0.8664
  20   0.0000       0.044391         1.2079
  21   0.0000       0.047186         1.2840
  22   0.0000       0.085405         2.3240
  23   0.0000       0.097779         2.6607

MULLIKEN ATOMIC CHARGES
-----------------------
   0 C :    0.762531
   1 C :    0.892697
   2 O :   -0.603636
   3 O :   -0.661606
   4 O :   -0.575612
   5 H :   -0.019043
   6 H :    0.204669
Sum of atomic charges:    0.0000000

LOEWDIN ATOMIC CHARGES
----------------------
   0 C :   -0.013004
   1 C :   -0.330377
   2 O :    0.216102
   3 O :    0.049551
   4 O :    0.069739
   5 H :    0.016950
   6 H :   -0.008961

  Mayer bond orders larger than 0.100000
B(  0-C ,  1-C ) :   1.0171 B(  0-C ,  2-O ) :   0.1044 B(  0-C ,  4-O ) :   1.6671
B(  0-C ,  5-H ) :   0.8281 B(  1-C ,  2-O ) :   0.6707 B(  1-C ,  3-O ) :   1.4794
B(  2-O ,  6-H ) :   0.9939

MP2 TOTAL ENERGY:     -302.373392848 Eh
FINAL SINGLE POINT ENERGY      -302.373392847879

DIPOLE MOMENT
-------------
                                X             Y             Z
Electronic contribution:      0.18084      -0.13336       0.00000
Nuclear contribution   :     -0.10013       0.60607       0.00000
                        -----------------------------------------
Total Dipole Moment    :      0.08071       0.47270       0.00000
                        -----------------------------------------
Magnitude (a.u.)       :      0.47954
Magnitude (Debye)      :      1.21890

Rotational constants in cm-1:     0.365517     0.148303     0.105499
Rotational constants in MHz : 10957.920703  4446.018600  3162.770140

                             ****ORCA TERMINATED NORMALLY****
TOTAL RUN TIME: 0 days 0 hours 0 minutes 37 seconds 419 msec
