                         Program Version 5.0.3 -  RELEASE  -
|  1> !ri-mp2 aug-cc-pvdz aug-cc-pvdz/c tightscf
|  2> %pal nprocs 16 end
|  3>
|  4> * xyz 0 1
|  5> C      0.752140   -0.876732        0.000000
|  6> C     -0.594330   -0.964738        0.000000
|  7> C      0.000000    1.101527        0.000000
|  8> N      1.118628    0.463667        0.000000
|  9> O     -1.098400    0.308078        0.000000
| 10> H      1.482368   -1.666223        0.000000
| 11> H     -1.305329   -1.768953        0.000000
| 12> H     -0.167090    2.164537        0.000000
| 13> *
| 14>
| 15>                          ****END OF INPUT****

CARTESIAN COORDINATES (ANGSTROEM)
---------------------------------
  C      0.752140   -0.876732    0.000000
  C     -0.594330   -0.964738    0.000000
  C      0.000000    1.101527    0.000000
  N      1.118628    0.463667    0.000000
  O     -1.098400    0.308078    0.000000
  H      1.482368   -1.666223    0.000000
  H     -1.305329   -1.768953    0.000000
  H     -0.167090    2.164537    0.000000

 Total Charge           Charge          ....    0
 Multiplicity           Mult            ....    1
 Number of Electrons    NEL             ....   36
 Basis Dimension        Dim             ....  142

ORBITAL ENERGIES
----------------

  NO   OCC          E(Eh)            E(eV)
   0   2.0000     -20.653320      -562.0054
   1   2.0000     -15.579797      -423.9478
   2   2.0000     -11.345985      -308.7400
   3   2.0000     -11.305604      -307.6411
   4   2.0000     -11.272771      -306.7477
   5   2.0000      -1.496178       -40.7131
   6   2.0000      -1.242531       -33.8110
   7   2.0000      -1.042599       -28.3706
   8   2.0000      -0.847638       -23.0654
   9   2.0000      -0.826108       -22.4796
  10   2.0000      -0.757183       -20.6040
  11   2.0000      -0.662534       -18.0285
  12   2.0000      -0.632385       -17.2081
  13   2.0000      -0.600921       -16.3519
  14   2.0000      -0.583640       -15.8816
  15   2.0000      -0.466768       -12.7014
  16   2.0000      -0.458059       -12.4644
  17   2.0000      -0.350632        -9.5412
  18   0.0000       0.034388         0.9357
  19   0.0000       0.042857         1.1662
  20   0.0000       0.049153         1.3375
  21   0.0000       0.084015         2.2862
  22   0.0000       0.095334         2.5942

MULLIKEN ATOMIC CHARGES
-----------------------
   0 C :    0.438296
   1 C :    0.795905
   2 C :    0.801435
   3 N :   -0.719409
   4 O :   -0.763416
   5 H :   -0.177892
   6 H :   -0.245105
   7 H :   -0.129814
Sum of atomic charges:    0.0000000

LOEWDIN ATOMIC CHARGES
----------------------
   0 C :   -0.046865
   1 C :    0.018203
   2 C :   -0.034365
   3 N :    0.008972
   4 O :    0.072402
   5 H :   -0.011074
   6 H :   -0.011944
   7 H :    0.004672

  Mayer bond orders larger than 0.100000
B(  0-C ,  1-C ) :   1.7151 B(  0-C ,  3-N ) :   0.8586 B(  0-C ,  4-O ) :   0.2731
B(  0-C ,  5-H ) :   0.9959 B(  1-C ,  4-O ) :   0.4420 B(  1-C ,  5-H ) :  -0.1040
B(  1-C ,  6-H ) :   1.0185 B(  2-C ,  3-N ) :   1.6823 B(  2-C ,  4-O ) :   0.8060
B(  2-C ,  7-H ) :   1.0194

MP2 TOTAL ENERGY:     -245.429428900 Eh
FINAL SINGLE POINT ENERGY      -245.429428899715

DIPOLE MOMENT
-------------
                                X             Y             Z
Electronic contribution:     -0.50343       0.95337       0.00000
Nuclear contribution   :     -0.00078      -1.23650       0.00000
                        -----------------------------------------
Total Dipole Moment    :     -0.50421      -0.28313       0.00000
                        -----------------------------------------
Magnitude (a.u.)       :      0.57827
Magnitude (Debye)      :      1.46984

Rotational constants in cm-1:     0.336360     0.324952     0.165279
Rotational constants in MHz : 10083.804769  9741.808145  4954.928347

                             ****ORCA TERMINATED NORMALLY****
TOTAL RUN TIME: 0 days 0 hours 0 minutes 36 seconds 768 msec
