                         Program Version 5.0.3 -  RELEASE  -
|  1> !ri-mp2 aug-cc-pvdz aug-cc-pvdz/c tightscf
|  2> %pal nprocs 16 end
|  3> %maxcore 3800
|  4>
|  5> * xyz 0 1
|  6> C      2.934682    0.194779   -0.004319
|  7> C      4.206745   -0.627668    0.015541
|  8> C     -4.735634    0.345804    0.007764
|  9> C      1.629987   -0.583788   -0.011871
| 10> C     -3.474297   -0.516071   -0.008273
| 11> C      0.371967    0.276168    0.007321
| 12> C     -2.183074    0.302813    0.008272
| 13> C     -0.914399   -0.550257   -0.008442
| 14> O      2.963972    1.405012   -0.011805
| 15> H      5.073473    0.025936   -0.034823
| 16> H      4.252724   -1.223691    0.929740
| 17> H      4.223317   -1.329172   -0.820869
| 18> H     -4.771299    1.007919   -0.859773
| 19> H     -4.773151    0.972598    0.901088
| 20> H     -5.638271   -0.266633   -0.005463
| 21> H      1.647676   -1.270090    0.842461
| 22> H      1.642249   -1.235279   -0.893437
| 23> H     -3.483287   -1.191182    0.852863
| 24> H     -3.482233   -1.157183   -0.895044
| 25> H      0.388911    0.953592   -0.849010
| 26> H      0.390148    0.917782    0.891046
| 27> H     -2.174223    0.979058   -0.852885
| 28> H     -2.174641    0.944692    0.895375
| 29> H     -0.924559   -1.192399   -0.895918
| 30> H     -0.924462   -1.226723    0.853135
| 31> *
| 32>
| 33>                          ****END OF INPUT****

CARTESIAN COORDINATES (ANGSTROEM)
---------------------------------
  C      2.934682    0.194779   -0.004319
  C      4.206745   -0.627668    0.015541
  C     -4.735634    0.345804    0.007764
  C      1.629987   -0.583788   -0.011871
  C     -3.474297   -0.516071   -0.008273
  C      0.371967    0.276168    0.007321
  C     -2.183074    0.302813    0.008272
  C     -0.914399   -0.550257   -0.008442
  O      2.963972    1.405012   -0.011805
  H      5.073473    0.025936   -0.034823
  H      4.252724   -1.223691    0.929740
  H      4.223317   -1.329172   -0.820869
  H     -4.771299    1.007919   -0.859773
  H     -4.773151    0.972598    0.901088
  H     -5.638271   -0.266633   -0.005463
  H      1.647676   -1.270090    0.842461
  H      1.642249   -1.235279   -0.893437
  H     -3.483287   -1.191182    0.852863
  H     -3.482233   -1.157183   -0.895044
  H      0.388911    0.953592   -0.849010
  H      0.390148    0.917782    0.891046
  H     -2.174223    0.979058   -0.852885
  H     -2.174641    0.944692    0.895375
  H     -0.924559   -1.192399   -0.895918
  H     -0.924462   -1.226723    0.853135

 Total Charge           Charge          ....    0
 Multiplicity           Mult            ....    1
 Number of Electrons    NEL             ....   72
 Basis Dimension        Dim             ....  351

ORBITAL ENERGIES
----------------

  NO   OCC          E(Eh)            E(eV)
   0   2.0000     -20.553326      -559.2844
   1   2.0000     -11.335610      -308.4576
   2   2.0000     -11.241462      -305.8957
   3   2.0000     -11.239667      -305.8469
   4   2.0000     -11.224600      -305.4369
   5   2.0000     -11.224000      -305.4206
   6   2.0000     -11.222619      -305.3830
   7   2.0000     -11.220537      -305.3263
   8   2.0000     -11.216985      -305.2297
   9   2.0000      -1.390126       -37.8273
  10   2.0000      -1.095050       -29.7978
  11   2.0000      -1.058111       -28.7927
  12   2.0000      -1.016403       -27.6577
  13   2.0000      -0.970111       -26.3981
  14   2.0000      -0.891476       -24.2583
  15   2.0000      -0.814246       -22.1568
  16   2.0000      -0.789497       -21.4833
  17   2.0000      -0.733107       -19.9489
  18   2.0000      -0.659783       -17.9536
  19   2.0000      -0.650659       -17.7053
  20   2.0000      -0.630046       -17.1444
  21   2.0000      -0.624847       -17.0029
  22   2.0000      -0.593962       -16.1625
  23   2.0000      -0.583754       -15.8847
  24   2.0000      -0.566599       -15.4179
  25   2.0000      -0.557496       -15.1702
  26   2.0000      -0.540177       -14.6990
  27   2.0000      -0.526915       -14.3381
  28   2.0000      -0.509966       -13.8769
  29   2.0000      -0.489267       -13.3136
  30   2.0000      -0.486129       -13.2282
  31   2.0000      -0.470944       -12.8150
  32   2.0000      -0.463069       -12.6008
  33   2.0000      -0.460406       -12.5283
  34   2.0000      -0.453522       -12.3410
  35   2.0000      -0.404854       -11.0166
  36   0.0000       0.031723         0.8632
  37   0.0000       0.037012         1.0072
  38   0.0000       0.043483         1.1832
  39   0.0000       0.045914         1.2494
  40   0.0000       0.051253         1.3947

MULLIKEN ATOMIC CHARGES
-----------------------
   0 C :    0.237822
   1 C :    0.477446
   2 C :    0.567556
   3 C :    0.113059
   4 C :    0.493744
   5 C :    0.431586
   6 C :    0.227620
   7 C :    0.371945
   8 O :   -0.813989
   9 H :   -0.081749
  10 H :    0.041019
  11 H :    0.028923
  12 H :   -0.090808
  13 H :   -0.091539
  14 H :   -0.078627
  15 H :   -0.067132
  16 H :   -0.057216
  17 H :   -0.192254
  18 H :   -0.193574
  19 H :   -0.200487
  20 H :   -0.205968
  21 H :   -0.222958
  22 H :   -0.221714
  23 H :   -0.234162
  24 H :   -0.238543
Sum of atomic charges:   -0.0000000

LOEWDIN ATOMIC CHARGES
----------------------
   0 C :   -0.301765
   1 C :    0.195363
   2 C :    0.130627
   3 C :    0.010616
   4 C :   -0.073235
   5 C :   -0.024993
   6 C :   -0.040195
   7 C :   -0.034359
   8 O :    0.046843
   9 H :   -0.009673
  10 H :   -0.008614
  11 H :   -0.009944
  12 H :   -0.020061
  13 H :   -0.020066
  14 H :   -0.022341
  15 H :    0.025226
  16 H :    0.025453
  17 H :    0.010480
  18 H :    0.010500
  19 H :    0.021460
  20 H :    0.021896
  21 H :    0.017390
  22 H :    0.017386
  23 H :    0.016012
  24 H :    0.015993

  Mayer bond orders larger than 0.100000
B(  0-C ,  1-C ) :   1.0346 B(  0-C ,  3-C ) :   1.1314 B(  0-C ,  5-C ) :  -0.1182
B(  0-C ,  8-O ) :   1.3627 B(  0-C ,  9-H ) :   0.1337 B(  1-C ,  9-H ) :   0.8331
B(  1-C , 10-H ) :   0.9186 B(  1-C , 11-H ) :   0.9260 B(  2-C ,  4-C ) :   1.1854
B(  2-C , 12-H ) :   0.9075 B(  2-C , 13-H ) :   0.9074 B(  2-C , 14-H ) :   0.9132
B(  3-C ,  5-C ) :   1.2792 B(  3-C ,  7-C ) :  -0.1343 B(  3-C , 15-H ) :   0.8600
B(  3-C , 16-H ) :   0.8821 B(  4-C ,  6-C ) :   1.2370 B(  4-C ,  7-C ) :  -0.1316
B(  4-C , 17-H ) :   0.7067 B(  4-C , 18-H ) :   0.7066 B(  5-C ,  7-C ) :   1.3962
B(  5-C , 19-H ) :   0.7601 B(  5-C , 20-H ) :   0.7638 B(  6-C ,  7-C ) :   1.3623
B(  6-C , 21-H ) :   0.7264 B(  6-C , 22-H ) :   0.7239 B(  7-C , 23-H ) :   0.7341
B(  7-C , 24-H ) :   0.7249

MP2 TOTAL ENERGY:     -388.553310409 Eh
FINAL SINGLE POINT ENERGY      -388.553310408741

DIPOLE MOMENT
-------------
                                X             Y             Z
Electronic contribution:     11.16087       3.25271      -0.05214
Nuclear contribution   :    -11.26456      -4.50188       0.06148
                        -----------------------------------------
Total Dipole Moment    :     -0.10369      -1.24918       0.00935
                        -----------------------------------------
Magnitude (a.u.)       :      1.25351
Magnitude (Debye)      :      3.18617

Rotational constants in cm-1:     0.212149     0.014489     0.013803
Rotational constants in MHz :  6360.062841   434.372864   413.792742

                             ****ORCA TERMINATED NORMALLY****
TOTAL RUN TIME: 0 days 0 hours 1 minutes 53 seconds 813 msec
