                         Program Version 5.0.3 -  RELEASE  -
|  1> !ri-mp2 aug-cc-pvdz aug-cc-pvdz/c tightscf
|  2> %pal nprocs 16 end
|  3>
|  4> * xyz 0 1
|  5> C     0.000000     0.693498    1.952555
|  6> C     0.000000    -0.693498    1.952555
|  7> C     0.000000     1.377876    0.743109
|  8> C     0.000000    -1.377876    0.743109
|  9> C     0.000000     0.703110   -0.476273
| 10> C     0.000000    -0.703110   -0.476273
| 11> C     0.000000     1.477433   -1.768050
| 12> C     0.000000    -1.477433   -1.768050
| 13> H     0.000000     1.241957    2.885153
| 14> H     0.000000    -1.241957    2.885153
| 15> H     0.000000     2.461031    0.743277
| 16> H     0.000000    -2.461031    0.743277
| 17> H     0.876446     1.245249   -2.378000
| 18> H    -0.876446     1.245249   -2.378000
| 19> H     0.000000     2.550074   -1.580471
| 20> H     0.876446    -1.245249   -2.378000
| 21> H     0.000000    -2.550074   -1.580471
| 22> H    -0.876446    -1.245249   -2.378000
| 23> *
| 24>
| 25>                          ****END OF INPUT****

CARTESIAN COORDINATES (ANGSTROEM)
---------------------------------
  C      0.000000    0.693498    1.952555
  C      0.000000   -0.693498    1.952555
  C      0.000000    1.377876    0.743109
  C      0.000000   -1.377876    0.743109
  C      0.000000    0.703110   -0.476273
  C      0.000000   -0.703110   -0.476273
  C      0.000000    1.477433   -1.768050
  C      0.000000   -1.477433   -1.768050
  H      0.000000    1.241957    2.885153
  H      0.000000   -1.241957    2.885153
  H      0.000000    2.461031    0.743277
  H      0.000000   -2.461031    0.743277
  H      0.876446    1.245249   -2.378000
  H     -0.876446    1.245249   -2.378000
  H      0.000000    2.550074   -1.580471
  H      0.876446   -1.245249   -2.378000
  H      0.000000   -2.550074   -1.580471
  H     -0.876446   -1.245249   -2.378000

 Total Charge           Charge          ....    0
 Multiplicity           Mult            ....    1
 Number of Electrons    NEL             ....   58
 Basis Dimension        Dim             ....  274

ORBITAL ENERGIES
----------------

  NO   OCC          E(Eh)            E(eV)
   0   2.0000     -11.240311      -305.8644
   1   2.0000     -11.239181      -305.8337
   2   2.0000     -11.232240      -305.6448
   3   2.0000     -11.231379      -305.6214
   4   2.0000     -11.230514      -305.5978
   5   2.0000     -11.230152      -305.5880
   6   2.0000     -11.228553      -305.5445
   7   2.0000     -11.228545      -305.5442
   8   2.0000      -1.158000       -31.5108
   9   2.0000      -1.052059       -28.6280
  10   2.0000      -1.034244       -28.1432
  11   2.0000      -0.949666       -25.8417
  12   2.0000      -0.917292       -24.9608
  13   2.0000      -0.813284       -22.1306
  14   2.0000      -0.785672       -21.3792
  15   2.0000      -0.678998       -18.4765
  16   2.0000      -0.645885       -17.5754
  17   2.0000      -0.620177       -16.8759
  18   2.0000      -0.591226       -16.0881
  19   2.0000      -0.572965       -15.5912
  20   2.0000      -0.559136       -15.2149
  21   2.0000      -0.550016       -14.9667
  22   2.0000      -0.539078       -14.6691
  23   2.0000      -0.537890       -14.6367
  24   2.0000      -0.480195       -13.0668
  25   2.0000      -0.478827       -13.0295
  26   2.0000      -0.476882       -12.9766
  27   2.0000      -0.327484        -8.9113
  28   2.0000      -0.316565        -8.6142
  29   0.0000       0.036165         0.9841
  30   0.0000       0.040330         1.0974
  31   0.0000       0.040922         1.1135
  32   0.0000       0.053177         1.4470
  33   0.0000       0.057507         1.5648

MULLIKEN ATOMIC CHARGES
-----------------------
   0 C :    0.199195
   1 C :    0.199195
   2 C :    0.686046
   3 C :    0.686045
   4 C :   -0.400162
   5 C :   -0.400162
   6 C :    0.504186
   7 C :    0.504186
   8 H :   -0.458201
   9 H :   -0.458201
  10 H :   -0.611766
  11 H :   -0.611766
  12 H :    0.173313
  13 H :    0.173313
  14 H :   -0.265922
  15 H :    0.173313
  16 H :   -0.265922
  17 H :    0.173313
Sum of atomic charges:   -0.0000000

LOEWDIN ATOMIC CHARGES
----------------------
   0 C :    0.003491
   1 C :    0.003491
   2 C :    0.036101
   3 C :    0.036101
   4 C :   -0.177985
   5 C :   -0.177985
   6 C :    0.172220
   7 C :    0.172220
   8 H :   -0.001924
   9 H :   -0.001924
  10 H :    0.001721
  11 H :    0.001721
  12 H :   -0.008383
  13 H :   -0.008383
  14 H :   -0.016857
  15 H :   -0.008383
  16 H :   -0.016857
  17 H :   -0.008383

  Mayer bond orders larger than 0.100000
B(  0-C ,  1-C ) :   1.8890 B(  0-C ,  2-C ) :   1.3083 B(  0-C ,  3-C ) :   0.1058
B(  0-C ,  4-C ) :   0.1010 B(  0-C ,  5-C ) :   0.1112 B(  0-C ,  6-C ) :   0.3691
B(  0-C ,  8-H ) :   0.2367 B(  0-C ,  9-H ) :   0.2318 B(  0-C , 10-H ) :   0.2155
B(  0-C , 11-H ) :  -0.1413 B(  1-C ,  2-C ) :   0.1058 B(  1-C ,  3-C ) :   1.3083
B(  1-C ,  4-C ) :   0.1112 B(  1-C ,  5-C ) :   0.1010 B(  1-C ,  7-C ) :   0.3691
B(  1-C ,  8-H ) :   0.2318 B(  1-C ,  9-H ) :   0.2367 B(  1-C , 10-H ) :  -0.1413
B(  1-C , 11-H ) :   0.2155 B(  2-C ,  3-C ) :   0.2040 B(  2-C ,  4-C ) :   1.7130
B(  2-C ,  5-C ) :  -0.9358 B(  2-C ,  6-C ) :  -0.4807 B(  2-C ,  8-H ) :   0.1760
B(  2-C , 10-H ) :  -0.3357 B(  3-C ,  4-C ) :  -0.9358 B(  3-C ,  5-C ) :   1.7130
B(  3-C ,  7-C ) :  -0.4807 B(  3-C ,  9-H ) :   0.1760 B(  3-C , 11-H ) :  -0.3357
B(  4-C ,  5-C ) :   2.2291 B(  4-C ,  6-C ) :   1.3725 B(  4-C , 10-H ) :   0.7491
B(  4-C , 12-H ) :   0.1465 B(  4-C , 13-H ) :   0.1465 B(  4-C , 14-H ) :   0.5145
B(  5-C ,  7-C ) :   1.3725 B(  5-C , 11-H ) :   0.7491 B(  5-C , 15-H ) :   0.1465
B(  5-C , 16-H ) :   0.5145 B(  5-C , 17-H ) :   0.1465 B(  6-C ,  7-C ) :  -0.1242
B(  6-C , 12-H ) :   0.8430 B(  6-C , 13-H ) :   0.8430 B(  6-C , 14-H ) :   0.4949
B(  6-C , 15-H ) :  -0.1013 B(  6-C , 17-H ) :  -0.1013 B(  7-C , 12-H ) :  -0.1013
B(  7-C , 13-H ) :  -0.1013 B(  7-C , 15-H ) :   0.8430 B(  7-C , 16-H ) :   0.4949
B(  7-C , 17-H ) :   0.8430

MP2 TOTAL ENERGY:     -309.923630840 Eh
FINAL SINGLE POINT ENERGY      -309.923630839849

DIPOLE MOMENT
-------------
                                X             Y             Z
Electronic contribution:     -0.00000      -0.00000       5.29682
Nuclear contribution   :      0.00000       0.00000      -5.55689
                        -----------------------------------------
Total Dipole Moment    :     -0.00000      -0.00000      -0.26007
                        -----------------------------------------
Magnitude (a.u.)       :      0.26007
Magnitude (Debye)      :      0.66105

Rotational constants in cm-1:     0.105856     0.072058     0.043560
Rotational constants in MHz :  3173.497603  2160.240407  1305.885012

                             ****ORCA TERMINATED NORMALLY****
TOTAL RUN TIME: 0 days 0 hours 1 minutes 9 seconds 476 msec
