                         Program Version 5.0.3 -  RELEASE  -
|  1> !ri-mp2 aug-cc-pvdz aug-cc-pvdz/c tightscf
|  2> %pal nprocs 16 end
|  3>
|  4> * xyz 0 1
|  5> S      1.225174   -0.898935   -0.254228
|  6> O      1.535098    0.658588    0.407850
|  7> O     -2.480973   -0.262291    0.091047
|  8> N     -0.366881   -1.120825    0.191149
|  9> C     -1.293951   -0.078457   -0.057482
| 10> C     -0.684163    1.233340   -0.309598
| 11> C      0.572566    1.541966    0.062753
| 12> H     -1.361545    2.031989   -0.568230
| 13> H     -0.591464   -1.718951    0.976121
| 14> H      0.918677    2.564229    0.156502
| 15> *
| 16>
| 17>                          ****END OF INPUT****

CARTESIAN COORDINATES (ANGSTROEM)
---------------------------------
  S      1.225174   -0.898935   -0.254228
  O      1.535098    0.658588    0.407850
  O     -2.480973   -0.262291    0.091047
  N     -0.366881   -1.120825    0.191149
  C     -1.293951   -0.078457   -0.057482
  C     -0.684163    1.233340   -0.309598
  C      0.572566    1.541966    0.062753
  H     -1.361545    2.031989   -0.568230
  H     -0.591464   -1.718951    0.976121
  H      0.918677    2.564229    0.156502

 Total Charge           Charge          ....    0
 Multiplicity           Mult            ....    1
 Number of Electrons    NEL             ....   60
 Basis Dimension        Dim             ....  192

ORBITAL ENERGIES
----------------

  NO   OCC          E(Eh)            E(eV)
   0   2.0000     -92.070640     -2505.3695
   1   2.0000     -20.650711      -561.9344
   2   2.0000     -20.560919      -559.4910
   3   2.0000     -15.633039      -425.3966
   4   2.0000     -11.389142      -309.9143
   5   2.0000     -11.355938      -309.0108
   6   2.0000     -11.258785      -306.3671
   7   2.0000      -9.062258      -246.5966
   8   2.0000      -6.744200      -183.5190
   9   2.0000      -6.742202      -183.4646
  10   2.0000      -6.739022      -183.3781
  11   2.0000      -1.454943       -39.5910
  12   2.0000      -1.413516       -38.4637
  13   2.0000      -1.258433       -34.2437
  14   2.0000      -1.088735       -29.6260
  15   2.0000      -0.965795       -26.2806
  16   2.0000      -0.893842       -24.3227
  17   2.0000      -0.780553       -21.2399
  18   2.0000      -0.738095       -20.0846
  19   2.0000      -0.720670       -19.6104
  20   2.0000      -0.670203       -18.2372
  21   2.0000      -0.650531       -17.7018
  22   2.0000      -0.621726       -16.9180
  23   2.0000      -0.579758       -15.7760
  24   2.0000      -0.564971       -15.3737
  25   2.0000      -0.549265       -14.9463
  26   2.0000      -0.474658       -12.9161
  27   2.0000      -0.442975       -12.0540
  28   2.0000      -0.386430       -10.5153
  29   2.0000      -0.380213       -10.3461
  30   0.0000       0.031839         0.8664
  31   0.0000       0.042162         1.1473
  32   0.0000       0.052969         1.4414
  33   0.0000       0.059335         1.6146
  34   0.0000       0.071773         1.9530

MULLIKEN ATOMIC CHARGES
-----------------------
   0 S :    0.928697
   1 O :   -0.974507
   2 O :   -0.725495
   3 N :   -0.679870
   4 C :    0.737925
   5 C :    0.476838
   6 C :    0.875134
   7 H :   -0.369470
   8 H :   -0.044579
   9 H :   -0.224672
Sum of atomic charges:   -0.0000000

LOEWDIN ATOMIC CHARGES
----------------------
   0 S :    0.946950
   1 O :   -0.252219
   2 O :    0.041498
   3 N :   -0.239035
   4 C :   -0.395916
   5 C :    0.011698
   6 C :   -0.082461
   7 H :   -0.003011
   8 H :   -0.034748
   9 H :    0.007244

  Mayer bond orders larger than 0.100000
B(  0-S ,  1-O ) :   0.5197 B(  0-S ,  3-N ) :   0.8198 B(  0-S ,  5-C ) :   0.1034
B(  1-O ,  5-C ) :   0.1230 B(  1-O ,  6-C ) :   0.6000 B(  2-O ,  4-C ) :   1.3874
B(  3-N ,  4-C ) :   0.8185 B(  3-N ,  8-H ) :   1.1810 B(  4-C ,  5-C ) :   0.8545
B(  4-C ,  6-C ) :   0.1009 B(  5-C ,  6-C ) :   1.8063 B(  5-C ,  7-H ) :   0.7767
B(  6-C ,  9-H ) :   0.8525

MP2 TOTAL ENERGY:     -718.139549181 Eh
FINAL SINGLE POINT ENERGY      -718.139549180693

DIPOLE MOMENT
-------------
                                X             Y             Z
Electronic contribution:      2.03907      -2.44666      -0.40610
Nuclear contribution   :     -1.04793       2.79462       0.55920
                        -----------------------------------------
Total Dipole Moment    :      0.99113       0.34796       0.15310
                        -----------------------------------------
Magnitude (a.u.)       :      1.06154
Magnitude (Debye)      :      2.69821

Rotational constants in cm-1:     0.140407     0.074331     0.050911
Rotational constants in MHz :  4209.310207  2228.377615  1526.275714

                             ****ORCA TERMINATED NORMALLY****
TOTAL RUN TIME: 0 days 0 hours 0 minutes 50 seconds 228 msec
