                         Program Version 5.0.3 -  RELEASE  -
|  1> !ri-mp2 aug-cc-pvdz aug-cc-pvdz/c tightscf
|  2> %pal nprocs 16 end
|  3>
|  4> * xyz 0 1
|  5> C      0.000000    0.694295   -0.532279
|  6> C      0.000000    1.395728    0.658951
|  7> C      0.000000    0.694955    1.860549
|  8> C      0.000000   -0.694955    1.860549
|  9> C      0.000000   -1.395728    0.658951
| 10> C      0.000000   -0.694295   -0.532279
| 11> F      0.000000   -1.349838   -1.705237
| 12> F      0.000000    1.349838   -1.705237
| 13> H      0.000000    2.476041    0.629411
| 14> H      0.000000    1.238774    2.794390
| 15> H      0.000000   -1.238774    2.794390
| 16> H      0.000000   -2.476041    0.629411
| 17> *
| 18>
| 19>                          ****END OF INPUT****

CARTESIAN COORDINATES (ANGSTROEM)
---------------------------------
  C      0.000000    0.694295   -0.532279
  C      0.000000    1.395728    0.658951
  C      0.000000    0.694955    1.860549
  C      0.000000   -0.694955    1.860549
  C      0.000000   -1.395728    0.658951
  C      0.000000   -0.694295   -0.532279
  F      0.000000   -1.349838   -1.705237
  F      0.000000    1.349838   -1.705237
  H      0.000000    2.476041    0.629411
  H      0.000000    1.238774    2.794390
  H      0.000000   -1.238774    2.794390
  H      0.000000   -2.476041    0.629411

 Total Charge           Charge          ....    0
 Multiplicity           Mult            ....    1
 Number of Electrons    NEL             ....   58
 Basis Dimension        Dim             ....  220

ORBITAL ENERGIES
----------------

  NO   OCC          E(Eh)            E(eV)
   0   2.0000     -26.334612      -716.6012
   1   2.0000     -26.334608      -716.6011
   2   2.0000     -11.349464      -308.8346
   3   2.0000     -11.348243      -308.8014
   4   2.0000     -11.266271      -306.5708
   5   2.0000     -11.266259      -306.5705
   6   2.0000     -11.263285      -306.4896
   7   2.0000     -11.262097      -306.4572
   8   2.0000      -1.650946       -44.9245
   9   2.0000      -1.637039       -44.5461
  10   2.0000      -1.184696       -32.2372
  11   2.0000      -1.050364       -28.5818
  12   2.0000      -1.040664       -28.3179
  13   2.0000      -0.883348       -24.0371
  14   2.0000      -0.865786       -23.5592
  15   2.0000      -0.776329       -21.1250
  16   2.0000      -0.743715       -20.2375
  17   2.0000      -0.735671       -20.0186
  18   2.0000      -0.718389       -19.5484
  19   2.0000      -0.691147       -18.8071
  20   2.0000      -0.667200       -18.1554
  21   2.0000      -0.663242       -18.0477
  22   2.0000      -0.631761       -17.1911
  23   2.0000      -0.602224       -16.3873
  24   2.0000      -0.550862       -14.9897
  25   2.0000      -0.531101       -14.4520
  26   2.0000      -0.519679       -14.1412
  27   2.0000      -0.362639        -9.8679
  28   2.0000      -0.350840        -9.5469
  29   0.0000       0.031313         0.8521
  30   0.0000       0.039064         1.0630
  31   0.0000       0.046873         1.2755
  32   0.0000       0.059630         1.6226
  33   0.0000       0.086243         2.3468

MULLIKEN ATOMIC CHARGES
-----------------------
   0 C :    0.705859
   1 C :    0.362897
   2 C :    0.540653
   3 C :    0.540653
   4 C :    0.362897
   5 C :    0.705859
   6 F :   -0.787727
   7 F :   -0.787727
   8 H :   -0.405368
   9 H :   -0.416314
  10 H :   -0.416314
  11 H :   -0.405368
Sum of atomic charges:   -0.0000000

LOEWDIN ATOMIC CHARGES
----------------------
   0 C :   -0.158841
   1 C :    0.054758
   2 C :    0.011964
   3 C :    0.011964
   4 C :    0.054758
   5 C :   -0.158841
   6 F :    0.076768
   7 F :    0.076768
   8 H :    0.013398
   9 H :    0.001953
  10 H :    0.001953
  11 H :    0.013398

  Mayer bond orders larger than 0.100000
B(  0-C ,  1-C ) :   1.6819 B(  0-C ,  3-C ) :   0.1192 B(  0-C ,  5-C ) :   1.4086
B(  0-C ,  6-F ) :   0.3291 B(  0-C ,  7-F ) :  -0.4223 B(  0-C ,  8-H ) :   0.2294
B(  1-C ,  2-C ) :   1.7455 B(  1-C ,  4-C ) :   0.2625 B(  1-C ,  7-F ) :   0.2547
B(  1-C ,  8-H ) :   0.4606 B(  1-C ,  9-H ) :   0.1477 B(  2-C ,  3-C ) :   1.7092
B(  2-C ,  5-C ) :   0.1192 B(  2-C ,  9-H ) :   0.4346 B(  2-C , 10-H ) :   0.1557
B(  3-C ,  4-C ) :   1.7455 B(  3-C ,  9-H ) :   0.1557 B(  3-C , 10-H ) :   0.4346
B(  4-C ,  5-C ) :   1.6819 B(  4-C ,  6-F ) :   0.2547 B(  4-C , 10-H ) :   0.1477
B(  4-C , 11-H ) :   0.4606 B(  5-C ,  6-F ) :  -0.4223 B(  5-C ,  7-F ) :   0.3291
B(  5-C , 11-H ) :   0.2294

MP2 TOTAL ENERGY:     -429.648786991 Eh
FINAL SINGLE POINT ENERGY      -429.648786991401

DIPOLE MOMENT
-------------
                                X             Y             Z
Electronic contribution:      0.00000       0.00000      -8.54486
Nuclear contribution   :      0.00000       0.00000       9.75322
                        -----------------------------------------
Total Dipole Moment    :      0.00000       0.00000       1.20835
                        -----------------------------------------
Magnitude (a.u.)       :      1.20835
Magnitude (Debye)      :      3.07139

Rotational constants in cm-1:     0.108997     0.074422     0.044225
Rotational constants in MHz :  3267.637147  2231.101732  1325.836898

                             ****ORCA TERMINATED NORMALLY****
TOTAL RUN TIME: 0 days 0 hours 0 minutes 58 seconds 881 msec
