                         Program Version 5.0.3 -  RELEASE  -
|  1> !ri-mp2 aug-cc-pvdz aug-cc-pvdz/c tightscf
|  2> %pal nprocs 16 end
|  3>
|  4> * xyz 0 1
|  5> O     -0.105885   -1.140297   -0.063377
|  6> O     -2.056550   -0.017889   -0.074554
|  7> N      1.295288   -0.679344    0.308891
|  8> N      1.383531    0.622036   -0.219008
|  9> C     -0.862295   -0.019042    0.010796
| 10> C      0.089800    1.168812    0.183518
| 11> H      1.867042   -1.302225   -0.257604
| 12> H      1.412350    0.590975   -1.239324
| 13> H     -0.209208    2.014166   -0.427950
| 14> H      0.112541    1.465110    1.233260
| 15> *
| 16>
| 17>                          ****END OF INPUT****

CARTESIAN COORDINATES (ANGSTROEM)
---------------------------------
  O     -0.105885   -1.140297   -0.063377
  O     -2.056550   -0.017889   -0.074554
  N      1.295288   -0.679344    0.308891
  N      1.383531    0.622036   -0.219008
  C     -0.862295   -0.019042    0.010796
  C      0.089800    1.168812    0.183518
  H      1.867042   -1.302225   -0.257604
  H      1.412350    0.590975   -1.239324
  H     -0.209208    2.014166   -0.427950
  H      0.112541    1.465110    1.233260

 Total Charge           Charge          ....    0
 Multiplicity           Mult            ....    1
 Number of Electrons    NEL             ....   46
 Basis Dimension        Dim             ....  174

ORBITAL ENERGIES
----------------

  NO   OCC          E(Eh)            E(eV)
   0   2.0000     -20.645697      -561.7980
   1   2.0000     -20.566788      -559.6508
   2   2.0000     -15.696090      -427.1123
   3   2.0000     -15.638641      -425.5490
   4   2.0000     -11.400477      -310.2227
   5   2.0000     -11.305797      -307.6464
   6   2.0000      -1.495312       -40.6895
   7   2.0000      -1.400409       -38.1071
   8   2.0000      -1.293813       -35.2064
   9   2.0000      -1.103063       -30.0159
  10   2.0000      -0.945445       -25.7269
  11   2.0000      -0.815961       -22.2034
  12   2.0000      -0.772278       -21.0148
  13   2.0000      -0.724179       -19.7059
  14   2.0000      -0.666950       -18.1486
  15   2.0000      -0.648551       -17.6480
  16   2.0000      -0.628308       -17.0971
  17   2.0000      -0.597611       -16.2618
  18   2.0000      -0.572098       -15.5676
  19   2.0000      -0.534037       -14.5319
  20   2.0000      -0.489022       -13.3070
  21   2.0000      -0.448292       -12.1986
  22   2.0000      -0.416716       -11.3394
  23   0.0000       0.026226         0.7136
  24   0.0000       0.041615         1.1324
  25   0.0000       0.046857         1.2750
  26   0.0000       0.066104         1.7988
  27   0.0000       0.082520         2.2455

MULLIKEN ATOMIC CHARGES
-----------------------
   0 O :   -0.804596
   1 O :   -0.702465
   2 N :    0.069187
   3 N :   -0.297630
   4 C :    0.929985
   5 C :    0.690593
   6 H :    0.142827
   7 H :    0.085758
   8 H :   -0.062754
   9 H :   -0.050906
Sum of atomic charges:   -0.0000000

LOEWDIN ATOMIC CHARGES
----------------------
   0 O :    0.071437
   1 O :    0.045318
   2 N :    0.119732
   3 N :    0.022351
   4 C :   -0.331322
   5 C :    0.053552
   6 H :   -0.021770
   7 H :   -0.011985
   8 H :    0.026848
   9 H :    0.025838

  Mayer bond orders larger than 0.100000
B(  0-O ,  2-N ) :   0.7388 B(  0-O ,  4-C ) :   0.7423 B(  0-O ,  5-C ) :   0.1066
B(  1-O ,  4-C ) :   1.5150 B(  2-N ,  3-N ) :   0.7884 B(  2-N ,  4-C ) :  -0.1013
B(  2-N ,  6-H ) :   0.9587 B(  3-N ,  5-C ) :   0.8326 B(  3-N ,  7-H ) :   0.9827
B(  4-C ,  5-C ) :   0.9688 B(  5-C ,  8-H ) :   0.8725 B(  5-C ,  9-H ) :   0.9290
B(  8-H ,  9-H ) :  -0.1197

MP2 TOTAL ENERGY:     -337.657387612 Eh
FINAL SINGLE POINT ENERGY      -337.657387611864

DIPOLE MOMENT
-------------
                                X             Y             Z
Electronic contribution:     -1.70976      -2.13865       0.07705
Nuclear contribution   :      3.10419       2.69715      -0.68008
                        -----------------------------------------
Total Dipole Moment    :      1.39443       0.55850      -0.60303
                        -----------------------------------------
Magnitude (a.u.)       :      1.61864
Magnitude (Debye)      :      4.11426

Rotational constants in cm-1:     0.266913     0.121643     0.088712
Rotational constants in MHz :  8001.847366  3646.760499  2659.514643

                             ****ORCA TERMINATED NORMALLY****
TOTAL RUN TIME: 0 days 0 hours 0 minutes 44 seconds 540 msec
