                         Program Version 5.0.3 -  RELEASE  -
|  1> !ri-mp2 aug-cc-pvdz aug-cc-pvdz/c tightscf
|  2> %pal nprocs 16 end
|  3> %maxcore 3800
|  4>
|  5> * xyz 0 1
|  6> C      0.107535   -2.168802    0.000000
|  7> C     -0.072713   -1.229601    1.197282
|  8> C     -0.072713   -1.229601   -1.197282
|  9> C      0.643552    0.075590    0.785834
| 10> C     -0.072713    1.375568    1.203592
| 11> C     -0.955423    1.735879    0.000000
| 12> C     -0.072713    1.375568   -1.203592
| 13> C      0.643552    0.075590   -0.785834
| 14> H     -0.591384   -3.006411    0.000000
| 15> H     -0.635977    1.262705   -2.131346
| 16> H     -0.635977    1.262705    2.131346
| 17> H      0.312527   -1.639812   -2.131505
| 18> H     -1.275571    2.778231    0.000000
| 19> H      0.312527   -1.639812    2.131505
| 20> H      1.117840   -2.587719    0.000000
| 21> H     -1.860267    1.122424    0.000000
| 22> H      1.664077    0.059193   -1.169844
| 23> H      0.658197    2.171586   -1.366919
| 24> H      1.664077    0.059193    1.169844
| 25> H     -1.139228   -1.037507    1.348434
| 26> H      0.658197    2.171586    1.366919
| 27> H     -1.139228   -1.037507   -1.348434
| 28> *
| 29>
| 30>                          ****END OF INPUT****

CARTESIAN COORDINATES (ANGSTROEM)
---------------------------------
  C      0.107535   -2.168802    0.000000
  C     -0.072713   -1.229601    1.197282
  C     -0.072713   -1.229601   -1.197282
  C      0.643552    0.075590    0.785834
  C     -0.072713    1.375568    1.203592
  C     -0.955423    1.735879    0.000000
  C     -0.072713    1.375568   -1.203592
  C      0.643552    0.075590   -0.785834
  H     -0.591384   -3.006411    0.000000
  H     -0.635977    1.262705   -2.131346
  H     -0.635977    1.262705    2.131346
  H      0.312527   -1.639812   -2.131505
  H     -1.275571    2.778231    0.000000
  H      0.312527   -1.639812    2.131505
  H      1.117840   -2.587719    0.000000
  H     -1.860267    1.122424    0.000000
  H      1.664077    0.059193   -1.169844
  H      0.658197    2.171586   -1.366919
  H      1.664077    0.059193    1.169844
  H     -1.139228   -1.037507    1.348434
  H      0.658197    2.171586    1.366919
  H     -1.139228   -1.037507   -1.348434

 Total Charge           Charge          ....    0
 Multiplicity           Mult            ....    1
 Number of Electrons    NEL             ....   62
 Basis Dimension        Dim             ....  310

ORBITAL ENERGIES
----------------

  NO   OCC          E(Eh)            E(eV)
   0   2.0000     -11.218086      -305.2596
   1   2.0000     -11.217579      -305.2458
   2   2.0000     -11.216231      -305.2092
   3   2.0000     -11.215900      -305.2002
   4   2.0000     -11.214726      -305.1682
   5   2.0000     -11.214602      -305.1648
   6   2.0000     -11.214476      -305.1614
   7   2.0000     -11.214346      -305.1579
   8   2.0000      -1.141740       -31.0683
   9   2.0000      -1.054738       -28.7009
  10   2.0000      -0.988654       -26.9027
  11   2.0000      -0.930297       -25.3147
  12   2.0000      -0.896365       -24.3913
  13   2.0000      -0.791718       -21.5438
  14   2.0000      -0.765151       -20.8208
  15   2.0000      -0.723435       -19.6857
  16   2.0000      -0.668221       -18.1832
  17   2.0000      -0.621908       -16.9230
  18   2.0000      -0.619243       -16.8504
  19   2.0000      -0.591734       -16.1019
  20   2.0000      -0.578651       -15.7459
  21   2.0000      -0.530529       -14.4364
  22   2.0000      -0.506223       -13.7750
  23   2.0000      -0.475684       -12.9440
  24   2.0000      -0.474438       -12.9101
  25   2.0000      -0.460694       -12.5361
  26   2.0000      -0.445466       -12.1217
  27   2.0000      -0.445352       -12.1186
  28   2.0000      -0.435649       -11.8546
  29   2.0000      -0.435156       -11.8412
  30   2.0000      -0.434106       -11.8126
  31   0.0000       0.036588         0.9956
  32   0.0000       0.043722         1.1897
  33   0.0000       0.044172         1.2020
  34   0.0000       0.044297         1.2054
  35   0.0000       0.060485         1.6459

MULLIKEN ATOMIC CHARGES
-----------------------
   0 C :    0.559720
   1 C :    0.562538
   2 C :    0.562538
   3 C :   -0.413746
   4 C :    0.779079
   5 C :    0.317503
   6 C :    0.779079
   7 C :   -0.413746
   8 H :   -0.131959
   9 H :   -0.209579
  10 H :   -0.209579
  11 H :   -0.138024
  12 H :   -0.153026
  13 H :   -0.138024
  14 H :   -0.218882
  15 H :   -0.222264
  16 H :   -0.245768
  17 H :   -0.174100
  18 H :   -0.245768
  19 H :   -0.235946
  20 H :   -0.174100
  21 H :   -0.235946
Sum of atomic charges:   -0.0000000

LOEWDIN ATOMIC CHARGES
----------------------
   0 C :   -0.011755
   1 C :    0.013137
   2 C :    0.013137
   3 C :   -0.130013
   4 C :    0.015047
   5 C :   -0.008972
   6 C :    0.015047
   7 C :   -0.130013
   8 H :    0.010121
   9 H :    0.012373
  10 H :    0.012373
  11 H :    0.013179
  12 H :    0.009527
  13 H :    0.013179
  14 H :    0.015245
  15 H :    0.010454
  16 H :    0.034098
  17 H :    0.014216
  18 H :    0.034098
  19 H :    0.015653
  20 H :    0.014216
  21 H :    0.015653

  Mayer bond orders larger than 0.100000
B(  0-C ,  1-C ) :   1.1928 B(  0-C ,  2-C ) :   1.1928 B(  0-C ,  8-H ) :   0.7581
B(  0-C , 14-H ) :   0.6808 B(  1-C ,  3-C ) :   1.1051 B(  1-C , 13-H ) :   0.7349
B(  1-C , 19-H ) :   0.6555 B(  2-C ,  7-C ) :   1.1051 B(  2-C , 11-H ) :   0.7349
B(  2-C , 21-H ) :   0.6555 B(  3-C ,  4-C ) :   1.0560 B(  3-C ,  6-C ) :  -0.1242
B(  3-C ,  7-C ) :   1.1409 B(  3-C , 13-H ) :   0.1194 B(  3-C , 16-H ) :   0.1680
B(  3-C , 18-H ) :   0.5159 B(  3-C , 19-H ) :   0.2854 B(  3-C , 20-H ) :   0.1991
B(  4-C ,  5-C ) :   1.1204 B(  4-C ,  7-C ) :  -0.1242 B(  4-C , 10-H ) :   0.7854
B(  4-C , 20-H ) :   0.6734 B(  5-C ,  6-C ) :   1.1204 B(  5-C , 12-H ) :   0.8259
B(  5-C , 15-H ) :   0.7361 B(  6-C ,  7-C ) :   1.0560 B(  6-C ,  9-H ) :   0.7854
B(  6-C , 17-H ) :   0.6734 B(  7-C , 11-H ) :   0.1194 B(  7-C , 16-H ) :   0.5159
B(  7-C , 17-H ) :   0.1991 B(  7-C , 18-H ) :   0.1680 B(  7-C , 21-H ) :   0.2854
B(  8-H , 14-H ) :  -0.1593 B(  9-H , 17-H ) :  -0.1882 B( 10-H , 20-H ) :  -0.1882
B( 11-H , 21-H ) :  -0.1684 B( 12-H , 15-H ) :  -0.1638 B( 13-H , 19-H ) :  -0.1684

MP2 TOTAL ENERGY:     -312.306065365 Eh
FINAL SINGLE POINT ENERGY      -312.306065365157

DIPOLE MOMENT
-------------
                                X             Y             Z
Electronic contribution:      0.98598       0.06770      -0.00000
Nuclear contribution   :     -0.94060      -0.06461      -0.00000
                        -----------------------------------------
Total Dipole Moment    :      0.04538       0.00309      -0.00000
                        -----------------------------------------
Magnitude (a.u.)       :      0.04548
Magnitude (Debye)      :      0.11561

Rotational constants in cm-1:     0.114592     0.065351     0.050172
Rotational constants in MHz :  3435.393338  1959.186889  1504.110983

                             ****ORCA TERMINATED NORMALLY****
TOTAL RUN TIME: 0 days 0 hours 1 minutes 41 seconds 326 msec
