                         Program Version 5.0.3 -  RELEASE  -
|  1> !ri-mp2 aug-cc-pvdz aug-cc-pvdz/c tightscf
|  2> %pal nprocs 16 end
|  3>
|  4> * xyz 0 1
|  5> C     -0.000362   -0.062016    1.039066
|  6> C     -0.000362   -0.062016   -1.039066
|  7> H     -0.886662    1.703368    0.000000
|  8> H      0.886384    1.702690    0.000000
|  9> C     -0.000362    1.073690    0.000000
| 10> H     -0.890999   -0.134448    1.666799
| 11> H      0.889472   -0.133116    1.668112
| 12> H     -0.890999   -0.134448   -1.666799
| 13> H      0.889472   -0.133116   -1.668112
| 14> O      0.001231   -1.071110    0.000000
| 15> *
| 16>
| 17>                          ****END OF INPUT****

CARTESIAN COORDINATES (ANGSTROEM)
---------------------------------
  C     -0.000362   -0.062016    1.039066
  C     -0.000362   -0.062016   -1.039066
  H     -0.886662    1.703368    0.000000
  H      0.886384    1.702690    0.000000
  C     -0.000362    1.073690    0.000000
  H     -0.890999   -0.134448    1.666799
  H      0.889472   -0.133116    1.668112
  H     -0.890999   -0.134448   -1.666799
  H      0.889472   -0.133116   -1.668112
  O      0.001231   -1.071110    0.000000

 Total Charge           Charge          ....    0
 Multiplicity           Mult            ....    1
 Number of Electrons    NEL             ....   32
 Basis Dimension        Dim             ....  146

ORBITAL ENERGIES
----------------

  NO   OCC          E(Eh)            E(eV)
   0   2.0000     -20.554789      -559.3243
   1   2.0000     -11.283648      -307.0437
   2   2.0000     -11.283647      -307.0436
   3   2.0000     -11.236176      -305.7519
   4   2.0000      -1.374866       -37.4120
   5   2.0000      -1.013785       -27.5865
   6   2.0000      -0.934070       -25.4173
   7   2.0000      -0.773834       -21.0571
   8   2.0000      -0.684583       -18.6284
   9   2.0000      -0.667833       -18.1727
  10   2.0000      -0.589762       -16.0482
  11   2.0000      -0.563025       -15.3207
  12   2.0000      -0.537202       -14.6180
  13   2.0000      -0.468898       -12.7594
  14   2.0000      -0.459514       -12.5040
  15   2.0000      -0.410224       -11.1628
  16   0.0000       0.036409         0.9907
  17   0.0000       0.047924         1.3041
  18   0.0000       0.048453         1.3185
  19   0.0000       0.053410         1.4534
  20   0.0000       0.069301         1.8858

MULLIKEN ATOMIC CHARGES
-----------------------
   0 C :    1.038466
   1 C :    1.038466
   2 H :   -0.197076
   3 H :   -0.197121
   4 C :    0.225484
   5 H :   -0.228850
   6 H :   -0.228444
   7 H :   -0.228850
   8 H :   -0.228444
   9 O :   -0.993632
Sum of atomic charges:    0.0000000

LOEWDIN ATOMIC CHARGES
----------------------
   0 C :    0.015136
   1 C :    0.015136
   2 H :   -0.002974
   3 H :   -0.002972
   4 C :    0.023747
   5 H :   -0.004212
   6 H :   -0.004218
   7 H :   -0.004212
   8 H :   -0.004218
   9 O :   -0.031213

  Mayer bond orders larger than 0.100000
B(  0-C ,  4-C ) :   1.1232 B(  0-C ,  5-H ) :   0.8765 B(  0-C ,  6-H ) :   0.8767
B(  0-C ,  9-O ) :   0.6232 B(  1-C ,  4-C ) :   1.1232 B(  1-C ,  7-H ) :   0.8765
B(  1-C ,  8-H ) :   0.8767 B(  1-C ,  9-O ) :   0.6232 B(  2-H ,  3-H ) :  -0.1142
B(  2-H ,  4-C ) :   0.8320 B(  3-H ,  4-C ) :   0.8317 B(  4-C ,  9-O ) :   0.1702

MP2 TOTAL ENERGY:     -192.563886929 Eh
FINAL SINGLE POINT ENERGY      -192.563886929024

DIPOLE MOMENT
-------------
                                X             Y             Z
Electronic contribution:      0.00223      -2.08926       0.00000
Nuclear contribution   :     -0.00343       2.95323       0.00000
                        -----------------------------------------
Total Dipole Moment    :     -0.00120       0.86397       0.00000
                        -----------------------------------------
Magnitude (a.u.)       :      0.86397
Magnitude (Debye)      :      2.19603

Rotational constants in cm-1:     0.402081     0.393368     0.224109
Rotational constants in MHz : 12054.074986 11792.881408  6718.604223

                             ****ORCA TERMINATED NORMALLY****
TOTAL RUN TIME: 0 days 0 hours 0 minutes 33 seconds 412 msec
