                         Program Version 5.0.3 -  RELEASE  -
|  1> !ri-mp2 aug-cc-pvdz aug-cc-pvdz/c tightscf
|  2> %pal nprocs 16 end
|  3>
|  4> * xyz 0 1
|  5> C      0.331694    0.699305   -0.000060
|  6> C     -0.331694   -0.699305   -0.000060
|  7> O     -0.331694    1.722137   -0.000002
|  8> O      0.331694   -1.722137   -0.000002
|  9> N      1.672475    0.623238   -0.000051
| 10> N     -1.672475   -0.623238   -0.000051
| 11> H      2.224941    1.462119    0.000258
| 12> H      2.104637   -0.286302    0.000475
| 13> H     -2.224941   -1.462119    0.000258
| 14> H     -2.104637    0.286302    0.000475
| 15> *
| 16>
| 17>                          ****END OF INPUT****

CARTESIAN COORDINATES (ANGSTROEM)
---------------------------------
  C      0.331694    0.699305   -0.000060
  C     -0.331694   -0.699305   -0.000060
  O     -0.331694    1.722137   -0.000002
  O      0.331694   -1.722137   -0.000002
  N      1.672475    0.623238   -0.000051
  N     -1.672475   -0.623238   -0.000051
  H      2.224941    1.462119    0.000258
  H      2.104637   -0.286302    0.000475
  H     -2.224941   -1.462119    0.000258
  H     -2.104637    0.286302    0.000475

 Total Charge           Charge          ....    0
 Multiplicity           Mult            ....    1
 Number of Electrons    NEL             ....   46
 Basis Dimension        Dim             ....  174

ORBITAL ENERGIES
----------------

  NO   OCC          E(Eh)            E(eV)
   0   2.0000     -20.559429      -559.4505
   1   2.0000     -20.559429      -559.4505
   2   2.0000     -15.609827      -424.7650
   3   2.0000     -15.609827      -424.7650
   4   2.0000     -11.386031      -309.8297
   5   2.0000     -11.385489      -309.8149
   6   2.0000      -1.426872       -38.8272
   7   2.0000      -1.398401       -38.0524
   8   2.0000      -1.243774       -33.8448
   9   2.0000      -1.231772       -33.5182
  10   2.0000      -0.926645       -25.2153
  11   2.0000      -0.808001       -21.9868
  12   2.0000      -0.778399       -21.1813
  13   2.0000      -0.733815       -19.9681
  14   2.0000      -0.674514       -18.3544
  15   2.0000      -0.667007       -18.1502
  16   2.0000      -0.625829       -17.0297
  17   2.0000      -0.609547       -16.5866
  18   2.0000      -0.557851       -15.1799
  19   2.0000      -0.514733       -14.0066
  20   2.0000      -0.442278       -12.0350
  21   2.0000      -0.425329       -11.5738
  22   2.0000      -0.423343       -11.5197
  23   0.0000       0.032757         0.8913
  24   0.0000       0.036282         0.9873
  25   0.0000       0.059139         1.6092
  26   0.0000       0.068864         1.8739
  27   0.0000       0.096559         2.6275

MULLIKEN ATOMIC CHARGES
-----------------------
   0 C :    0.955206
   1 C :    0.955206
   2 O :   -0.779466
   3 O :   -0.779466
   4 N :   -0.201712
   5 N :   -0.201712
   6 H :   -0.003616
   7 H :    0.029587
   8 H :   -0.003616
   9 H :    0.029587
Sum of atomic charges:    0.0000000

LOEWDIN ATOMIC CHARGES
----------------------
   0 C :   -0.302324
   1 C :   -0.302324
   2 O :    0.024122
   3 O :    0.024122
   4 N :    0.295890
   5 N :    0.295890
   6 H :    0.002804
   7 H :   -0.020493
   8 H :    0.002804
   9 H :   -0.020493

  Mayer bond orders larger than 0.100000
B(  0-C ,  1-C ) :   1.0010 B(  0-C ,  2-O ) :   1.3512 B(  0-C ,  4-N ) :   1.0480
B(  1-C ,  3-O ) :   1.3512 B(  1-C ,  5-N ) :   1.0480 B(  4-N ,  6-H ) :   1.1214
B(  4-N ,  7-H ) :   1.0716 B(  5-N ,  8-H ) :   1.1214 B(  5-N ,  9-H ) :   1.0716

MP2 TOTAL ENERGY:     -337.790269554 Eh
FINAL SINGLE POINT ENERGY      -337.790269554366

DIPOLE MOMENT
-------------
                                X             Y             Z
Electronic contribution:     -0.00000       0.00000      -0.00051
Nuclear contribution   :     -0.00000      -0.00000       0.00144
                        -----------------------------------------
Total Dipole Moment    :     -0.00000       0.00000       0.00093
                        -----------------------------------------
Magnitude (a.u.)       :      0.00093
Magnitude (Debye)      :      0.00237

Rotational constants in cm-1:     0.189437     0.123547     0.074778
Rotational constants in MHz :  5679.192346  3703.843326  2241.794611

                             ****ORCA TERMINATED NORMALLY****
TOTAL RUN TIME: 0 days 0 hours 0 minutes 42 seconds 562 msec
