                         Program Version 5.0.3 -  RELEASE  -
|  1> !ri-mp2 aug-cc-pvdz aug-cc-pvdz/c tightscf
|  2> %pal nprocs 16 end
|  3>
|  4> * xyz 0 1
|  5> C    -0.054169     0.770269       0.000000
|  6> C     0.054169    -0.770269       0.000000
|  7> O    -1.121261     1.323096       0.000000
|  8> O     1.121261    -1.323096       0.000000
|  9> O     1.121261     1.380321       0.000000
| 10> O    -1.121261    -1.380321       0.000000
| 11> H     1.811137     0.691631       0.000000
| 12> H    -1.811137    -0.691631       0.000000
| 13> *
| 14>
| 15>                          ****END OF INPUT****

CARTESIAN COORDINATES (ANGSTROEM)
---------------------------------
  C     -0.054169    0.770269    0.000000
  C      0.054169   -0.770269    0.000000
  O     -1.121261    1.323096    0.000000
  O      1.121261   -1.323096    0.000000
  O      1.121261    1.380321    0.000000
  O     -1.121261   -1.380321    0.000000
  H      1.811137    0.691631    0.000000
  H     -1.811137   -0.691631    0.000000

 Total Charge           Charge          ....    0
 Multiplicity           Mult            ....    1
 Number of Electrons    NEL             ....   46
 Basis Dimension        Dim             ....  156

ORBITAL ENERGIES
----------------

  NO   OCC          E(Eh)            E(eV)
   0   2.0000     -20.662475      -562.2545
   1   2.0000     -20.662474      -562.2545
   2   2.0000     -20.614534      -560.9500
   3   2.0000     -20.614534      -560.9500
   4   2.0000     -11.446798      -311.4832
   5   2.0000     -11.446259      -311.4685
   6   2.0000      -1.533362       -41.7249
   7   2.0000      -1.496711       -40.7276
   8   2.0000      -1.436730       -39.0954
   9   2.0000      -1.411304       -38.4035
  10   2.0000      -0.964926       -26.2570
  11   2.0000      -0.864003       -23.5107
  12   2.0000      -0.856336       -23.3021
  13   2.0000      -0.730257       -19.8713
  14   2.0000      -0.700732       -19.0679
  15   2.0000      -0.698132       -18.9971
  16   2.0000      -0.687922       -18.7193
  17   2.0000      -0.645011       -17.5516
  18   2.0000      -0.601360       -16.3638
  19   2.0000      -0.570464       -15.5231
  20   2.0000      -0.527912       -14.3652
  21   2.0000      -0.521936       -14.2026
  22   2.0000      -0.478370       -13.0171
  23   0.0000       0.036244         0.9863
  24   0.0000       0.045508         1.2383
  25   0.0000       0.056908         1.5486
  26   0.0000       0.075863         2.0643
  27   0.0000       0.089926         2.4470

MULLIKEN ATOMIC CHARGES
-----------------------
   0 C :    1.014980
   1 C :    1.014980
   2 O :   -0.628696
   3 O :   -0.628696
   4 O :   -0.636551
   5 O :   -0.636551
   6 H :    0.250268
   7 H :    0.250268
Sum of atomic charges:    0.0000000

LOEWDIN ATOMIC CHARGES
----------------------
   0 C :   -0.278468
   1 C :   -0.278468
   2 O :    0.077281
   3 O :    0.077281
   4 O :    0.240208
   5 O :    0.240208
   6 H :   -0.039021
   7 H :   -0.039021

  Mayer bond orders larger than 0.100000
B(  0-C ,  1-C ) :   0.9162 B(  0-C ,  2-O ) :   1.5404 B(  0-C ,  4-O ) :   0.6186
B(  0-C ,  5-O ) :   0.1205 B(  1-C ,  3-O ) :   1.5404 B(  1-C ,  4-O ) :   0.1205
B(  1-C ,  5-O ) :   0.6186 B(  4-O ,  6-H ) :   0.9676 B(  5-O ,  7-H ) :   0.9676

MP2 TOTAL ENERGY:     -377.479893358 Eh
FINAL SINGLE POINT ENERGY      -377.479893357783

DIPOLE MOMENT
-------------
                                X             Y             Z
Electronic contribution:      0.00000      -0.00000       0.00000
Nuclear contribution   :      0.00000       0.00000       0.00000
                        -----------------------------------------
Total Dipole Moment    :      0.00000      -0.00000       0.00000
                        -----------------------------------------
Magnitude (a.u.)       :      0.00000
Magnitude (Debye)      :      0.00000

Rotational constants in cm-1:     0.194081     0.127247     0.076857
Rotational constants in MHz :  5818.403812  3814.774168  2304.109465

                             ****ORCA TERMINATED NORMALLY****
TOTAL RUN TIME: 0 days 0 hours 0 minutes 46 seconds 526 msec
