                         Program Version 5.0.3 -  RELEASE  -
|  1> !ri-mp2 aug-cc-pvdz aug-cc-pvdz/c tightscf
|  2> %pal nprocs 16 end
|  3>
|  4> * xyz 0 1
|  5> O     -0.485466    0.609325    0.000033
|  6> N     -1.490658   -0.472251   -0.000012
|  7> C      0.723672    0.132472    0.000000
|  8> C      1.867234   -0.225589   -0.000026
|  9> H     -2.052385   -0.232984   -0.814329
| 10> H     -2.052359   -0.233078    0.814350
| 11> H      2.877638   -0.544080   -0.000049
| 12> *
| 13>
| 14>                          ****END OF INPUT****

CARTESIAN COORDINATES (ANGSTROEM)
---------------------------------
  O     -0.485466    0.609325    0.000033
  N     -1.490658   -0.472251   -0.000012
  C      0.723672    0.132472    0.000000
  C      1.867234   -0.225589   -0.000026
  H     -2.052385   -0.232984   -0.814329
  H     -2.052359   -0.233078    0.814350
  H      2.877638   -0.544080   -0.000049

 Total Charge           Charge          ....    0
 Multiplicity           Mult            ....    1
 Number of Electrons    NEL             ....   30
 Basis Dimension        Dim             ....  119

ORBITAL ENERGIES
----------------

  NO   OCC          E(Eh)            E(eV)
   0   2.0000     -20.659192      -562.1652
   1   2.0000     -15.657829      -426.0712
   2   2.0000     -11.297445      -307.4191
   3   2.0000     -11.225579      -305.4635
   4   2.0000      -1.470831       -40.0233
   5   2.0000      -1.155632       -31.4464
   6   2.0000      -1.009348       -27.4658
   7   2.0000      -0.761824       -20.7303
   8   2.0000      -0.732339       -19.9280
   9   2.0000      -0.690606       -18.7923
  10   2.0000      -0.682158       -18.5625
  11   2.0000      -0.582689       -15.8558
  12   2.0000      -0.477607       -12.9963
  13   2.0000      -0.387852       -10.5540
  14   2.0000      -0.368824       -10.0362
  15   0.0000       0.030026         0.8170
  16   0.0000       0.044356         1.2070
  17   0.0000       0.054731         1.4893
  18   0.0000       0.087131         2.3709
  19   0.0000       0.117200         3.1892

MULLIKEN ATOMIC CHARGES
-----------------------
   0 O :   -0.767739
   1 N :    0.081458
   2 C :   -0.074099
   3 C :    0.859910
   4 H :    0.134600
   5 H :    0.134600
   6 H :   -0.368729
Sum of atomic charges:    0.0000000

LOEWDIN ATOMIC CHARGES
----------------------
   0 O :    0.008768
   1 N :    0.262389
   2 C :   -0.228199
   3 C :    0.180263
   4 H :   -0.053787
   5 H :   -0.053787
   6 H :   -0.115647

  Mayer bond orders larger than 0.100000
B(  0-O ,  1-N ) :   0.8199 B(  0-O ,  2-C ) :   1.1006 B(  0-O ,  3-C ) :  -0.2353
B(  1-N ,  2-C ) :  -0.1853 B(  1-N ,  4-H ) :   1.0058 B(  1-N ,  5-H ) :   1.0058
B(  2-C ,  3-C ) :   2.8807 B(  2-C ,  6-H ) :   0.2823 B(  3-C ,  6-H ) :   0.3217

MP2 TOTAL ENERGY:     -207.293914243 Eh
FINAL SINGLE POINT ENERGY      -207.293914242640

DIPOLE MOMENT
-------------
                                X             Y             Z
Electronic contribution:      0.36835       0.94843       0.00004
Nuclear contribution   :     -1.22804      -0.99083      -0.00003
                        -----------------------------------------
Total Dipole Moment    :     -0.85968      -0.04240       0.00001
                        -----------------------------------------
Magnitude (a.u.)       :      0.86073
Magnitude (Debye)      :      2.18780

Rotational constants in cm-1:     1.452059     0.166553     0.153042
Rotational constants in MHz : 43531.633925  4993.121106  4588.068831

                             ****ORCA TERMINATED NORMALLY****
TOTAL RUN TIME: 0 days 0 hours 0 minutes 15 seconds 257 msec
