                         Program Version 5.0.3 -  RELEASE  -
|  1> !ri-mp2 aug-cc-pvdz aug-cc-pvdz/c tightscf
|  2> %pal nprocs 16 end
|  3> %maxcore 3800
|  4>
|  5> * xyz 0 1
|  6> C      3.802531    1.530625    0.000000
|  7> C     -4.637584   -1.541445    0.000000
|  8> C      2.306092    1.687856    0.000000
|  9> C     -3.126767   -1.767415    0.000000
| 10> C      1.512129    0.387412    0.000000
| 11> C     -2.319569   -0.468725    0.000000
| 12> C      0.000000    0.612534    0.000000
| 13> C     -0.806536   -0.686509    0.000000
| 14> O      4.392118    0.479692    0.000000
| 15> H      4.367576    2.486731    0.000000
| 16> H     -4.952565   -0.978042    0.880795
| 17> H     -5.181814   -2.486837    0.000000
| 18> H     -4.952565   -0.978042   -0.880795
| 19> H      2.054742    2.311831   -0.867367
| 20> H      2.054742    2.311831    0.867367
| 21> H     -2.848014   -2.363887   -0.873950
| 22> H     -2.848014   -2.363887    0.873950
| 23> H      1.799348   -0.206318    0.870716
| 24> H      1.799348   -0.206318   -0.870716
| 25> H     -2.599270    0.128270   -0.874711
| 26> H     -2.599270    0.128270    0.874711
| 27> H     -0.279114    1.209821    0.874730
| 28> H     -0.279114    1.209821   -0.874730
| 29> H     -0.527370   -1.283394   -0.874398
| 30> H     -0.527370   -1.283394    0.874398
| 31> *
| 32>
| 33>                          ****END OF INPUT****

CARTESIAN COORDINATES (ANGSTROEM)
---------------------------------
  C      3.802531    1.530625    0.000000
  C     -4.637584   -1.541445    0.000000
  C      2.306092    1.687856    0.000000
  C     -3.126767   -1.767415    0.000000
  C      1.512129    0.387412    0.000000
  C     -2.319569   -0.468725    0.000000
  C      0.000000    0.612534    0.000000
  C     -0.806536   -0.686509    0.000000
  O      4.392118    0.479692    0.000000
  H      4.367576    2.486731    0.000000
  H     -4.952565   -0.978042    0.880795
  H     -5.181814   -2.486837    0.000000
  H     -4.952565   -0.978042   -0.880795
  H      2.054742    2.311831   -0.867367
  H      2.054742    2.311831    0.867367
  H     -2.848014   -2.363887   -0.873950
  H     -2.848014   -2.363887    0.873950
  H      1.799348   -0.206318    0.870716
  H      1.799348   -0.206318   -0.870716
  H     -2.599270    0.128270   -0.874711
  H     -2.599270    0.128270    0.874711
  H     -0.279114    1.209821    0.874730
  H     -0.279114    1.209821   -0.874730
  H     -0.527370   -1.283394   -0.874398
  H     -0.527370   -1.283394    0.874398

 Total Charge           Charge          ....    0
 Multiplicity           Mult            ....    1
 Number of Electrons    NEL             ....   72
 Basis Dimension        Dim             ....  351

ORBITAL ENERGIES
----------------

  NO   OCC          E(Eh)            E(eV)
   0   2.0000     -20.566900      -559.6538
   1   2.0000     -11.339460      -308.5624
   2   2.0000     -11.247667      -306.0646
   3   2.0000     -11.229719      -305.5762
   4   2.0000     -11.227681      -305.5207
   5   2.0000     -11.223175      -305.3981
   6   2.0000     -11.222979      -305.3928
   7   2.0000     -11.221761      -305.3596
   8   2.0000     -11.217866      -305.2537
   9   2.0000      -1.399419       -38.0801
  10   2.0000      -1.100202       -29.9380
  11   2.0000      -1.068488       -29.0750
  12   2.0000      -1.016148       -27.6508
  13   2.0000      -0.947653       -25.7869
  14   2.0000      -0.871910       -23.7259
  15   2.0000      -0.808645       -22.0044
  16   2.0000      -0.790350       -21.5065
  17   2.0000      -0.769173       -20.9303
  18   2.0000      -0.673506       -18.3270
  19   2.0000      -0.663129       -18.0446
  20   2.0000      -0.635653       -17.2970
  21   2.0000      -0.630130       -17.1467
  22   2.0000      -0.593605       -16.1528
  23   2.0000      -0.590290       -16.0626
  24   2.0000      -0.564639       -15.3646
  25   2.0000      -0.545351       -14.8398
  26   2.0000      -0.530268       -14.4293
  27   2.0000      -0.518129       -14.0990
  28   2.0000      -0.507998       -13.8233
  29   2.0000      -0.486806       -13.2467
  30   2.0000      -0.482038       -13.1169
  31   2.0000      -0.468774       -12.7560
  32   2.0000      -0.462236       -12.5781
  33   2.0000      -0.461089       -12.5469
  34   2.0000      -0.451657       -12.2902
  35   2.0000      -0.414066       -11.2673
  36   0.0000       0.032370         0.8808
  37   0.0000       0.036370         0.9897
  38   0.0000       0.043144         1.1740
  39   0.0000       0.044801         1.2191
  40   0.0000       0.049401         1.3443

MULLIKEN ATOMIC CHARGES
-----------------------
   0 C :    1.000346
   1 C :    0.571990
   2 C :    0.097284
   3 C :    0.481182
   4 C :    0.455361
   5 C :    0.262921
   6 C :    0.335766
   7 C :    0.246602
   8 O :   -0.706823
   9 H :   -0.120012
  10 H :   -0.092369
  11 H :   -0.076635
  12 H :   -0.092369
  13 H :   -0.095825
  14 H :   -0.095825
  15 H :   -0.188246
  16 H :   -0.188246
  17 H :   -0.213624
  18 H :   -0.213624
  19 H :   -0.229898
  20 H :   -0.229898
  21 H :   -0.228834
  22 H :   -0.228834
  23 H :   -0.225193
  24 H :   -0.225193
Sum of atomic charges:    0.0000000

LOEWDIN ATOMIC CHARGES
----------------------
   0 C :   -0.088172
   1 C :    0.130237
   2 C :   -0.023005
   3 C :   -0.072728
   4 C :   -0.028350
   5 C :   -0.042076
   6 C :   -0.033890
   7 C :   -0.033134
   8 O :    0.026719
   9 H :    0.013813
  10 H :   -0.020437
  11 H :   -0.022079
  12 H :   -0.020437
  13 H :    0.023342
  14 H :    0.023342
  15 H :    0.011137
  16 H :    0.011137
  17 H :    0.021538
  18 H :    0.021538
  19 H :    0.016075
  20 H :    0.016075
  21 H :    0.016535
  22 H :    0.016535
  23 H :    0.018142
  24 H :    0.018142

  Mayer bond orders larger than 0.100000
B(  0-C ,  2-C ) :   1.1943 B(  0-C ,  4-C ) :  -0.1141 B(  0-C ,  8-O ) :   1.5885
B(  0-C ,  9-H ) :   0.7421 B(  1-C ,  3-C ) :   1.1900 B(  1-C , 10-H ) :   0.9038
B(  1-C , 11-H ) :   0.9134 B(  1-C , 12-H ) :   0.9038 B(  2-C ,  4-C ) :   1.2034
B(  2-C ,  9-H ) :   0.1151 B(  2-C , 13-H ) :   0.8547 B(  2-C , 14-H ) :   0.8547
B(  3-C ,  5-C ) :   1.2428 B(  3-C ,  7-C ) :  -0.1457 B(  3-C , 15-H ) :   0.7103
B(  3-C , 16-H ) :   0.7103 B(  4-C ,  6-C ) :   1.3318 B(  4-C , 17-H ) :   0.7365
B(  4-C , 18-H ) :   0.7365 B(  5-C ,  6-C ) :  -0.1168 B(  5-C ,  7-C ) :   1.3482
B(  5-C , 19-H ) :   0.7251 B(  5-C , 20-H ) :   0.7251 B(  6-C ,  7-C ) :   1.4571
B(  6-C , 21-H ) :   0.7305 B(  6-C , 22-H ) :   0.7305 B(  7-C , 23-H ) :   0.7289
B(  7-C , 24-H ) :   0.7289

MP2 TOTAL ENERGY:     -388.542979026 Eh
FINAL SINGLE POINT ENERGY      -388.542979025659

DIPOLE MOMENT
-------------
                                X             Y             Z
Electronic contribution:     15.46317       3.34525       0.00000
Nuclear contribution   :    -16.29372      -2.48472       0.00000
                        -----------------------------------------
Total Dipole Moment    :     -0.83055       0.86053       0.00000
                        -----------------------------------------
Magnitude (a.u.)       :      1.19596
Magnitude (Debye)      :      3.03988

Rotational constants in cm-1:     0.254916     0.012904     0.012478
Rotational constants in MHz :  7642.185790   386.857801   374.091999

                             ****ORCA TERMINATED NORMALLY****
TOTAL RUN TIME: 0 days 0 hours 1 minutes 54 seconds 401 msec
