                         Program Version 5.0.3 -  RELEASE  -
|  1> !ri-mp2 aug-cc-pvdz aug-cc-pvdz/c tightscf
|  2> %pal nprocs 16 end
|  3>
|  4> * xyz 0 1
|  5> O     0.000000     0.000000    0.854896
|  6> C     0.000000     0.731605   -0.373327
|  7> C     0.000000    -0.731605   -0.373327
|  8> H     0.917863     1.266951   -0.589809
|  9> H    -0.917863     1.266951   -0.589809
| 10> H    -0.917863    -1.266951   -0.589809
| 11> H     0.917863    -1.266951   -0.589809
| 12> *
| 13>
| 14>                          ****END OF INPUT****

CARTESIAN COORDINATES (ANGSTROEM)
---------------------------------
  O      0.000000    0.000000    0.854896
  C      0.000000    0.731605   -0.373327
  C      0.000000   -0.731605   -0.373327
  H      0.917863    1.266951   -0.589809
  H     -0.917863    1.266951   -0.589809
  H     -0.917863   -1.266951   -0.589809
  H      0.917863   -1.266951   -0.589809

 Total Charge           Charge          ....    0
 Multiplicity           Mult            ....    1
 Number of Electrons    NEL             ....   24
 Basis Dimension        Dim             ....  105

ORBITAL ENERGIES
----------------

  NO   OCC          E(Eh)            E(eV)
   0   2.0000     -20.582095      -560.0673
   1   2.0000     -11.293143      -307.3020
   2   2.0000     -11.292348      -307.2804
   3   2.0000      -1.415916       -38.5290
   4   2.0000      -0.936424       -25.4814
   5   2.0000      -0.864337       -23.5198
   6   2.0000      -0.705567       -19.1995
   7   2.0000      -0.662530       -18.0284
   8   2.0000      -0.549026       -14.9398
   9   2.0000      -0.543122       -14.7791
  10   2.0000      -0.452286       -12.3073
  11   2.0000      -0.451235       -12.2787
  12   0.0000       0.036688         0.9983
  13   0.0000       0.048064         1.3079
  14   0.0000       0.048438         1.3181
  15   0.0000       0.070539         1.9195
  16   0.0000       0.086696         2.3591

MULLIKEN ATOMIC CHARGES
-----------------------
   0 O :   -0.819705
   1 C :    0.847855
   2 C :    0.847855
   3 H :   -0.219001
   4 H :   -0.219001
   5 H :   -0.219001
   6 H :   -0.219001
Sum of atomic charges:    0.0000000

LOEWDIN ATOMIC CHARGES
----------------------
   0 O :   -0.015663
   1 C :    0.029620
   2 C :    0.029620
   3 H :   -0.010894
   4 H :   -0.010894
   5 H :   -0.010894
   6 H :   -0.010894

  Mayer bond orders larger than 0.100000
B(  0-O ,  1-C ) :   0.7404 B(  0-O ,  2-C ) :   0.7404 B(  1-C ,  2-C ) :   1.2042
B(  1-C ,  3-H ) :   0.9103 B(  1-C ,  4-H ) :   0.9103 B(  2-C ,  5-H ) :   0.9103
B(  2-C ,  6-H ) :   0.9103 B(  3-H ,  4-H ) :  -0.1139 B(  5-H ,  6-H ) :  -0.1139

MP2 TOTAL ENERGY:     -153.374124391 Eh
FINAL SINGLE POINT ENERGY      -153.374124391203

DIPOLE MOMENT
-------------
                                X             Y             Z
Electronic contribution:     -0.00000      -0.00000       1.52783
Nuclear contribution   :      0.00000       0.00000      -2.40011
                        -----------------------------------------
Total Dipole Moment    :     -0.00000      -0.00000      -0.87228
                        -----------------------------------------
Magnitude (a.u.)       :      0.87228
Magnitude (Debye)      :      2.21716

Rotational constants in cm-1:     0.854982     0.741760     0.472868
Rotational constants in MHz : 25631.728710 22237.404137 14176.221750

                             ****ORCA TERMINATED NORMALLY****
TOTAL RUN TIME: 0 days 0 hours 0 minutes 39 seconds 38 msec
