                         Program Version 5.0.3 -  RELEASE  -
|  1> !ri-mp2 aug-cc-pvdz aug-cc-pvdz/c tightscf
|  2> %pal nprocs 16 end
|  3> %maxcore 3800
|  4>
|  5> * xyz 0 1
|  6> C      5.101251   -0.357927   -0.007494
|  7> C      3.825718    0.482347    0.025964
|  8> C      2.547647   -0.356251   -0.014566
|  9> C      1.264914    0.475125    0.016833
| 10> C     -0.011971   -0.365198   -0.021296
| 11> C     -1.294964    0.466445    0.009286
| 12> C     -2.568842   -0.377394   -0.031588
| 13> C     -3.845971    0.454973    0.002143
| 14> N     -5.033409   -0.402959   -0.068536
| 15> H      5.152333   -0.960610   -0.916686
| 16> H      5.145033   -1.041786    0.842745
| 17> H      5.993780    0.268535    0.025090
| 18> H      3.820683    1.101568    0.928131
| 19> H      3.825838    1.178470   -0.818216
| 20> H      2.553701   -0.977563   -0.916520
| 21> H      2.547940   -1.052494    0.830938
| 22> H      1.260595    1.097575    0.917951
| 23> H      1.264843    1.169787   -0.829777
| 24> H     -0.007756   -0.987992   -0.921778
| 25> H     -0.012300   -1.059295    0.825700
| 26> H     -1.298111    1.089499    0.909813
| 27> H     -1.294044    1.159823   -0.838338
| 28> H     -2.580405   -0.997246   -0.931668
| 29> H     -2.571992   -1.069529    0.818063
| 30> H     -3.867157    1.118505   -0.865912
| 31> H     -3.829717    1.101269    0.891642
| 32> H     -5.881430    0.149049   -0.095245
| 33> H     -5.094663   -0.999577    0.748129
| 34> *
| 35>
| 36>                          ****END OF INPUT****

CARTESIAN COORDINATES (ANGSTROEM)
---------------------------------
  C      5.101251   -0.357927   -0.007494
  C      3.825718    0.482347    0.025964
  C      2.547647   -0.356251   -0.014566
  C      1.264914    0.475125    0.016833
  C     -0.011971   -0.365198   -0.021296
  C     -1.294964    0.466445    0.009286
  C     -2.568842   -0.377394   -0.031588
  C     -3.845971    0.454973    0.002143
  N     -5.033409   -0.402959   -0.068536
  H      5.152333   -0.960610   -0.916686
  H      5.145033   -1.041786    0.842745
  H      5.993780    0.268535    0.025090
  H      3.820683    1.101568    0.928131
  H      3.825838    1.178470   -0.818216
  H      2.553701   -0.977563   -0.916520
  H      2.547940   -1.052494    0.830938
  H      1.260595    1.097575    0.917951
  H      1.264843    1.169787   -0.829777
  H     -0.007756   -0.987992   -0.921778
  H     -0.012300   -1.059295    0.825700
  H     -1.298111    1.089499    0.909813
  H     -1.294044    1.159823   -0.838338
  H     -2.580405   -0.997246   -0.931668
  H     -2.571992   -1.069529    0.818063
  H     -3.867157    1.118505   -0.865912
  H     -3.829717    1.101269    0.891642
  H     -5.881430    0.149049   -0.095245
  H     -5.094663   -0.999577    0.748129

 Total Charge           Charge          ....    0
 Multiplicity           Mult            ....    1
 Number of Electrons    NEL             ....   74
 Basis Dimension        Dim             ....  378

ORBITAL ENERGIES
----------------

  NO   OCC          E(Eh)            E(eV)
   0   2.0000     -15.544279      -422.9813
   1   2.0000     -11.249028      -306.1016
   2   2.0000     -11.220074      -305.3137
   3   2.0000     -11.219586      -305.3005
   4   2.0000     -11.218432      -305.2690
   5   2.0000     -11.217914      -305.2550
   6   2.0000     -11.217375      -305.2403
   7   2.0000     -11.217279      -305.2377
   8   2.0000     -11.215394      -305.1864
   9   2.0000      -1.175410       -31.9845
  10   2.0000      -1.089866       -29.6568
  11   2.0000      -1.055677       -28.7264
  12   2.0000      -1.003073       -27.2950
  13   2.0000      -0.937396       -25.5078
  14   2.0000      -0.866580       -23.5808
  15   2.0000      -0.808686       -22.0055
  16   2.0000      -0.787247       -21.4221
  17   2.0000      -0.784172       -21.3384
  18   2.0000      -0.663772       -18.0621
  19   2.0000      -0.649900       -17.6847
  20   2.0000      -0.631162       -17.1748
  21   2.0000      -0.609564       -16.5871
  22   2.0000      -0.589717       -16.0470
  23   2.0000      -0.577341       -15.7102
  24   2.0000      -0.565532       -15.3889
  25   2.0000      -0.549878       -14.9629
  26   2.0000      -0.531078       -14.4514
  27   2.0000      -0.506896       -13.7933
  28   2.0000      -0.503315       -13.6959
  29   2.0000      -0.489640       -13.3238
  30   2.0000      -0.474517       -12.9123
  31   2.0000      -0.468808       -12.7569
  32   2.0000      -0.459365       -12.5000
  33   2.0000      -0.456338       -12.4176
  34   2.0000      -0.455487       -12.3944
  35   2.0000      -0.431856       -11.7514
  36   2.0000      -0.384780       -10.4704
  37   0.0000       0.035541         0.9671
  38   0.0000       0.037887         1.0310
  39   0.0000       0.043236         1.1765
  40   0.0000       0.045833         1.2472
  41   0.0000       0.049690         1.3521

MULLIKEN ATOMIC CHARGES
-----------------------
   0 C :    0.581255
   1 C :    0.495409
   2 C :    0.257460
   3 C :    0.222547
   4 C :    0.228203
   5 C :    0.289926
   6 C :    0.452416
   7 C :    1.166240
   8 N :   -0.389216
   9 H :   -0.093237
  10 H :   -0.093642
  11 H :   -0.078443
  12 H :   -0.191088
  13 H :   -0.190689
  14 H :   -0.228133
  15 H :   -0.229365
  16 H :   -0.236621
  17 H :   -0.234778
  18 H :   -0.232168
  19 H :   -0.231640
  20 H :   -0.224095
  21 H :   -0.224488
  22 H :   -0.153353
  23 H :   -0.206402
  24 H :   -0.230663
  25 H :   -0.176545
  26 H :   -0.041598
  27 H :   -0.007293
Sum of atomic charges:    0.0000000

LOEWDIN ATOMIC CHARGES
----------------------
   0 C :    0.129691
   1 C :   -0.073442
   2 C :   -0.042379
   3 C :   -0.035334
   4 C :   -0.034094
   5 C :   -0.035262
   6 C :   -0.034892
   7 C :   -0.077853
   8 N :    0.177045
   9 H :   -0.020469
  10 H :   -0.020577
  11 H :   -0.022562
  12 H :    0.010509
  13 H :    0.010575
  14 H :    0.016175
  15 H :    0.015953
  16 H :    0.016469
  17 H :    0.016647
  18 H :    0.017417
  19 H :    0.016679
  20 H :    0.015433
  21 H :    0.016797
  22 H :    0.018799
  23 H :    0.014843
  24 H :    0.009856
  25 H :    0.006079
  26 H :   -0.055987
  27 H :   -0.056116

  Mayer bond orders larger than 0.100000
B(  0-C ,  1-C ) :   1.1924 B(  0-C ,  9-H ) :   0.9025 B(  0-C , 10-H ) :   0.9030
B(  0-C , 11-H ) :   0.9141 B(  1-C ,  2-C ) :   1.2441 B(  1-C ,  3-C ) :  -0.1553
B(  1-C , 12-H ) :   0.7033 B(  1-C , 13-H ) :   0.7028 B(  2-C ,  3-C ) :   1.3397
B(  2-C , 14-H ) :   0.7118 B(  2-C , 15-H ) :   0.7136 B(  3-C ,  4-C ) :   1.5024
B(  3-C ,  5-C ) :  -0.1107 B(  3-C , 16-H ) :   0.7319 B(  3-C , 17-H ) :   0.7302
B(  4-C ,  5-C ) :   1.4486 B(  4-C ,  6-C ) :  -0.1375 B(  4-C , 18-H ) :   0.7213
B(  4-C , 19-H ) :   0.7226 B(  5-C ,  6-C ) :   1.2541 B(  5-C ,  7-C ) :  -0.1398
B(  5-C , 20-H ) :   0.7173 B(  5-C , 21-H ) :   0.7021 B(  6-C ,  7-C ) :   1.2203
B(  6-C , 22-H ) :   0.7451 B(  6-C , 23-H ) :   0.6795 B(  7-C ,  8-N ) :   0.8287
B(  7-C , 24-H ) :   0.7078 B(  7-C , 25-H ) :   0.7858 B(  8-N , 26-H ) :   1.0831
B(  8-N , 27-H ) :   1.0608

MP2 TOTAL ENERGY:     -369.888451766 Eh
FINAL SINGLE POINT ENERGY      -369.888451766414

DIPOLE MOMENT
-------------
                                X             Y             Z
Electronic contribution:     -5.50538      -0.00783      -0.23796
Nuclear contribution   :      5.48140       0.30713       0.64911
                        -----------------------------------------
Total Dipole Moment    :     -0.02397       0.29930       0.41115
                        -----------------------------------------
Magnitude (a.u.)       :      0.50911
Magnitude (Debye)      :      1.29407

Rotational constants in cm-1:     0.324050     0.011441     0.011243
Rotational constants in MHz :  9714.782128   342.994238   337.059753

                             ****ORCA TERMINATED NORMALLY****
TOTAL RUN TIME: 0 days 0 hours 2 minutes 4 seconds 987 msec
