                         Program Version 5.0.3 -  RELEASE  -
|  1> !ri-mp2 aug-cc-pvdz aug-cc-pvdz/c tightscf
|  2> %pal nprocs 16 end
|  3> %maxcore 3800
|  4>
|  5> * xyz 0 1
|  6> C      2.743376    0.386487    0.533004
|  7> C      3.403443   -0.769047   -0.220309
|  8> C      1.628643    1.096455   -0.247194
|  9> C      0.402478    0.244625   -0.603456
| 10> C     -0.402478   -0.244624    0.603457
| 11> C     -1.628643   -1.096455    0.247194
| 12> C     -2.743376   -0.386487   -0.533004
| 13> C     -3.403443    0.769047    0.220308
| 14> H      3.803237   -0.434641   -1.180362
| 15> H      4.230374   -1.189255    0.353881
| 16> H     -3.507182   -1.127157   -0.783972
| 17> H     -4.230374    1.189255   -0.353882
| 18> H     -2.701500    1.579527    0.420693
| 19> H     -3.803238    0.434642    1.180362
| 20> H      2.701500   -1.579527   -0.420694
| 21> H     -0.242366    0.842416   -1.252097
| 22> H      2.055029    1.496389   -1.172579
| 23> H      3.507182    1.127157    0.783972
| 24> H      2.356936    0.024239    1.488923
| 25> H     -1.295689   -1.964325   -0.330509
| 26> H     -2.356936   -0.024240   -1.488923
| 27> H      0.709119   -0.617126   -1.204218
| 28> H      1.295689    1.964325    0.330509
| 29> H      0.242366   -0.842416    1.252098
| 30> H     -0.709119    0.617127    1.204218
| 31> H     -2.055029   -1.496389    1.172580
| 32> *
| 33>
| 34>                          ****END OF INPUT****

CARTESIAN COORDINATES (ANGSTROEM)
---------------------------------
  C      2.743376    0.386487    0.533004
  C      3.403443   -0.769047   -0.220309
  C      1.628643    1.096455   -0.247194
  C      0.402478    0.244625   -0.603456
  C     -0.402478   -0.244624    0.603457
  C     -1.628643   -1.096455    0.247194
  C     -2.743376   -0.386487   -0.533004
  C     -3.403443    0.769047    0.220308
  H      3.803237   -0.434641   -1.180362
  H      4.230374   -1.189255    0.353881
  H     -3.507182   -1.127157   -0.783972
  H     -4.230374    1.189255   -0.353882
  H     -2.701500    1.579527    0.420693
  H     -3.803238    0.434642    1.180362
  H      2.701500   -1.579527   -0.420694
  H     -0.242366    0.842416   -1.252097
  H      2.055029    1.496389   -1.172579
  H      3.507182    1.127157    0.783972
  H      2.356936    0.024239    1.488923
  H     -1.295689   -1.964325   -0.330509
  H     -2.356936   -0.024240   -1.488923
  H      0.709119   -0.617126   -1.204218
  H      1.295689    1.964325    0.330509
  H      0.242366   -0.842416    1.252098
  H     -0.709119    0.617127    1.204218
  H     -2.055029   -1.496389    1.172580

 Total Charge           Charge          ....    0
 Multiplicity           Mult            ....    1
 Number of Electrons    NEL             ....   66
 Basis Dimension        Dim             ....  346

ORBITAL ENERGIES
----------------

  NO   OCC          E(Eh)            E(eV)
   0   2.0000     -11.219303      -305.2928
   1   2.0000     -11.219303      -305.2927
   2   2.0000     -11.218096      -305.2599
   3   2.0000     -11.218083      -305.2596
   4   2.0000     -11.216495      -305.2164
   5   2.0000     -11.215908      -305.2004
   6   2.0000     -11.214637      -305.1658
   7   2.0000     -11.214637      -305.1658
   8   2.0000      -1.091299       -29.6958
   9   2.0000      -1.058392       -28.8003
  10   2.0000      -1.005208       -27.3531
  11   2.0000      -0.949203       -25.8291
  12   2.0000      -0.887303       -24.1447
  13   2.0000      -0.842680       -22.9305
  14   2.0000      -0.781269       -21.2594
  15   2.0000      -0.747958       -20.3530
  16   2.0000      -0.643762       -17.5176
  17   2.0000      -0.625831       -17.0297
  18   2.0000      -0.609805       -16.5936
  19   2.0000      -0.602881       -16.4052
  20   2.0000      -0.568900       -15.4806
  21   2.0000      -0.553434       -15.0597
  22   2.0000      -0.544812       -14.8251
  23   2.0000      -0.537352       -14.6221
  24   2.0000      -0.515014       -14.0143
  25   2.0000      -0.502314       -13.6687
  26   2.0000      -0.489234       -13.3127
  27   2.0000      -0.469972       -12.7886
  28   2.0000      -0.463683       -12.6174
  29   2.0000      -0.457648       -12.4532
  30   2.0000      -0.448149       -12.1947
  31   2.0000      -0.436709       -11.8835
  32   2.0000      -0.431910       -11.7529
  33   0.0000       0.036938         1.0051
  34   0.0000       0.041291         1.1236
  35   0.0000       0.041933         1.1411
  36   0.0000       0.043943         1.1957
  37   0.0000       0.055718         1.5162

MULLIKEN ATOMIC CHARGES
-----------------------
   0 C :    0.239240
   1 C :    0.449164
   2 C :    0.404912
   3 C :    0.234339
   4 C :    0.234341
   5 C :    0.404909
   6 C :    0.239242
   7 C :    0.449162
   8 H :   -0.093576
   9 H :   -0.114388
  10 H :   -0.131547
  11 H :   -0.114389
  12 H :   -0.133380
  13 H :   -0.093574
  14 H :   -0.133380
  15 H :   -0.202362
  16 H :   -0.140893
  17 H :   -0.131547
  18 H :   -0.140001
  19 H :   -0.152826
  20 H :   -0.140002
  21 H :   -0.218683
  22 H :   -0.152825
  23 H :   -0.202360
  24 H :   -0.218685
  25 H :   -0.140891
Sum of atomic charges:   -0.0000000

LOEWDIN ATOMIC CHARGES
----------------------
   0 C :   -0.067301
   1 C :    0.132530
   2 C :   -0.028837
   3 C :   -0.030875
   4 C :   -0.030874
   5 C :   -0.028837
   6 C :   -0.067302
   7 C :    0.132529
   8 H :   -0.016691
   9 H :   -0.020757
  10 H :    0.009631
  11 H :   -0.020757
  12 H :   -0.026774
  13 H :   -0.016690
  14 H :   -0.026774
  15 H :    0.008082
  16 H :    0.013750
  17 H :    0.009631
  18 H :    0.002217
  19 H :    0.014390
  20 H :    0.002217
  21 H :    0.010635
  22 H :    0.014390
  23 H :    0.008082
  24 H :    0.010635
  25 H :    0.013751

  Mayer bond orders larger than 0.100000
B(  0-C ,  1-C ) :   1.2052 B(  0-C ,  2-C ) :   1.2919 B(  0-C ,  3-C ) :  -0.1012
B(  0-C , 17-H ) :   0.7819 B(  0-C , 18-H ) :   0.7722 B(  1-C ,  8-H ) :   0.9249
B(  1-C ,  9-H ) :   0.8922 B(  1-C , 14-H ) :   0.9548 B(  2-C ,  3-C ) :   1.2059
B(  2-C , 16-H ) :   0.7527 B(  2-C , 22-H ) :   0.7998 B(  3-C ,  4-C ) :   1.2008
B(  3-C , 15-H ) :   0.7451 B(  3-C , 16-H ) :   0.1501 B(  3-C , 21-H ) :   0.7964
B(  4-C ,  5-C ) :   1.2059 B(  4-C ,  6-C ) :  -0.1012 B(  4-C , 23-H ) :   0.7451
B(  4-C , 24-H ) :   0.7964 B(  4-C , 25-H ) :   0.1501 B(  5-C ,  6-C ) :   1.2919
B(  5-C , 19-H ) :   0.7998 B(  5-C , 25-H ) :   0.7527 B(  6-C ,  7-C ) :   1.2052
B(  6-C , 10-H ) :   0.7819 B(  6-C , 20-H ) :   0.7722 B(  7-C , 11-H ) :   0.8922
B(  7-C , 12-H ) :   0.9548 B(  7-C , 13-H ) :   0.9249 B( 10-H , 20-H ) :  -0.1151
B( 15-H , 21-H ) :  -0.1102 B( 16-H , 22-H ) :  -0.1474 B( 17-H , 18-H ) :  -0.1151
B( 19-H , 25-H ) :  -0.1474 B( 23-H , 24-H ) :  -0.1102

MP2 TOTAL ENERGY:     -314.673353516 Eh
FINAL SINGLE POINT ENERGY      -314.673353516359

DIPOLE MOMENT
-------------
                                X             Y             Z
Electronic contribution:      0.00000       0.00000      -0.00000
Nuclear contribution   :     -0.00000      -0.00000      -0.00000
                        -----------------------------------------
Total Dipole Moment    :     -0.00000       0.00000      -0.00000
                        -----------------------------------------
Magnitude (a.u.)       :      0.00000
Magnitude (Debye)      :      0.00000

Rotational constants in cm-1:     0.153516     0.024358     0.023122
Rotational constants in MHz :  4602.303940   730.248463   693.179402

                             ****ORCA TERMINATED NORMALLY****
TOTAL RUN TIME: 0 days 0 hours 1 minutes 52 seconds 409 msec
