                         Program Version 5.0.3 -  RELEASE  -
|  1> !ri-mp2 aug-cc-pvdz aug-cc-pvdz/c tightscf
|  2> %pal nprocs 16 end
|  3>
|  4> * xyz 0 1
|  5> S      0.050457   -1.283028    0.254896
|  6> S      1.318484    0.295909   -0.230152
|  7> O     -1.268667   -0.524946   -0.458383
|  8> C      0.011024    1.451390    0.341037
|  9> C     -1.372949    0.839488   -0.008592
| 10> H      0.172355    2.395956   -0.175996
| 11> H      0.109777    1.603307    1.412522
| 12> H     -1.847822    1.369365   -0.831999
| 13> H     -2.016479    0.879572    0.871964
| 14> *
| 15>
| 16>                          ****END OF INPUT****

CARTESIAN COORDINATES (ANGSTROEM)
---------------------------------
  S      0.050457   -1.283028    0.254896
  S      1.318484    0.295909   -0.230152
  O     -1.268667   -0.524946   -0.458383
  C      0.011024    1.451390    0.341037
  C     -1.372949    0.839488   -0.008592
  H      0.172355    2.395956   -0.175996
  H      0.109777    1.603307    1.412522
  H     -1.847822    1.369365   -0.831999
  H     -2.016479    0.879572    0.871964

 Total Charge           Charge          ....    0
 Multiplicity           Mult            ....    1
 Number of Electrons    NEL             ....   56
 Basis Dimension        Dim             ....  159

ORBITAL ENERGIES
----------------

  NO   OCC          E(Eh)            E(eV)
   0   2.0000     -92.029890     -2504.2606
   1   2.0000     -91.986866     -2503.0899
   2   2.0000     -20.611428      -560.8655
   3   2.0000     -11.313447      -307.8545
   4   2.0000     -11.289366      -307.1993
   5   2.0000      -9.024340      -245.5648
   6   2.0000      -8.987554      -244.5638
   7   2.0000      -6.705896      -182.4767
   8   2.0000      -6.704449      -182.4373
   9   2.0000      -6.701182      -182.3484
  10   2.0000      -6.669114      -181.4758
  11   2.0000      -6.667830      -181.4409
  12   2.0000      -6.665212      -181.3696
  13   2.0000      -1.399072       -38.0707
  14   2.0000      -1.082518       -29.4568
  15   2.0000      -1.022433       -27.8218
  16   2.0000      -0.843982       -22.9659
  17   2.0000      -0.832098       -22.6425
  18   2.0000      -0.683680       -18.6039
  19   2.0000      -0.662874       -18.0377
  20   2.0000      -0.611066       -16.6279
  21   2.0000      -0.596514       -16.2320
  22   2.0000      -0.527561       -14.3557
  23   2.0000      -0.508367       -13.8334
  24   2.0000      -0.476869       -12.9763
  25   2.0000      -0.452824       -12.3220
  26   2.0000      -0.403515       -10.9802
  27   2.0000      -0.336059        -9.1446
  28   0.0000       0.033976         0.9245
  29   0.0000       0.046505         1.2655
  30   0.0000       0.049291         1.3413
  31   0.0000       0.067379         1.8335
  32   0.0000       0.072999         1.9864

MULLIKEN ATOMIC CHARGES
-----------------------
   0 S :    0.426232
   1 S :    0.166918
   2 O :   -0.936214
   3 C :   -0.197584
   4 C :    0.889127
   5 H :    0.015018
   6 H :   -0.044392
   7 H :   -0.194637
   8 H :   -0.124468
Sum of atomic charges:    0.0000000

LOEWDIN ATOMIC CHARGES
----------------------
   0 S :    0.480210
   1 S :    0.462402
   2 O :   -0.368207
   3 C :   -0.342883
   4 C :   -0.133361
   5 H :   -0.040473
   6 H :   -0.045575
   7 H :   -0.006502
   8 H :   -0.005611

  Mayer bond orders larger than 0.100000
B(  0-S ,  1-S ) :   1.0385 B(  0-S ,  2-O ) :   0.6140 B(  1-S ,  3-C ) :   1.0431
B(  2-O ,  4-C ) :   0.6232 B(  3-C ,  4-C ) :   1.2789 B(  3-C ,  5-H ) :   0.9293
B(  3-C ,  6-H ) :   0.9578 B(  4-C ,  7-H ) :   0.9502 B(  4-C ,  8-H ) :   0.8730

MP2 TOTAL ENERGY:     -948.734439678 Eh
FINAL SINGLE POINT ENERGY      -948.734439678348

DIPOLE MOMENT
-------------
                                X             Y             Z
Electronic contribution:      3.26630      -5.09038      -0.82709
Nuclear contribution   :     -3.54331       6.09643       1.23331
                        -----------------------------------------
Total Dipole Moment    :     -0.27700       1.00605       0.40622
                        -----------------------------------------
Magnitude (a.u.)       :      1.11977
Magnitude (Debye)      :      2.84622

Rotational constants in cm-1:     0.146879     0.134450     0.077993
Rotational constants in MHz :  4403.312213  4030.724273  2338.183413

                             ****ORCA TERMINATED NORMALLY****
TOTAL RUN TIME: 0 days 0 hours 0 minutes 38 seconds 931 msec
