                         Program Version 5.0.3 -  RELEASE  -
|  1> !ri-mp2 aug-cc-pvdz aug-cc-pvdz/c tightscf
|  2> %pal nprocs 16 end
|  3> %maxcore 3800
|  4>
|  5> * xyz 0 1
|  6> C      4.339193   -0.239943    0.516430
|  7> C      3.327634   -0.231568   -0.343062
|  8> C     -4.298854   -0.403949    0.124866
|  9> C      2.068612    0.568357   -0.199112
| 10> C     -3.042666    0.464354    0.079878
| 11> C      0.803711   -0.301438   -0.153528
| 12> C     -1.749886   -0.346967   -0.014527
| 13> C     -0.486737    0.513029   -0.061371
| 14> H      5.218634   -0.848262    0.352660
| 15> H      4.324601    0.365016    1.415596
| 16> H      3.390219   -0.857805   -1.229651
| 17> H     -4.383423   -1.021698   -0.771594
| 18> H     -4.283461   -1.075093    0.986132
| 19> H     -5.202181    0.203631    0.194727
| 20> H      1.984175    1.258703   -1.046285
| 21> H      2.125947    1.184941    0.701645
| 22> H     -3.101914    1.147047   -0.773197
| 23> H     -3.005278    1.097541    0.971468
| 24> H      0.770340   -0.934721   -1.045813
| 25> H      0.870178   -0.981984    0.700136
| 26> H     -1.788071   -0.982079   -0.905996
| 27> H     -1.691063   -1.029675    0.839789
| 28> H     -0.544961    1.194564   -0.916651
| 29> H     -0.449783    1.148628    0.829586
| 30> *
| 31>
| 32>                          ****END OF INPUT****

CARTESIAN COORDINATES (ANGSTROEM)
---------------------------------
  C      4.339193   -0.239943    0.516430
  C      3.327634   -0.231568   -0.343062
  C     -4.298854   -0.403949    0.124866
  C      2.068612    0.568357   -0.199112
  C     -3.042666    0.464354    0.079878
  C      0.803711   -0.301438   -0.153528
  C     -1.749886   -0.346967   -0.014527
  C     -0.486737    0.513029   -0.061371
  H      5.218634   -0.848262    0.352660
  H      4.324601    0.365016    1.415596
  H      3.390219   -0.857805   -1.229651
  H     -4.383423   -1.021698   -0.771594
  H     -4.283461   -1.075093    0.986132
  H     -5.202181    0.203631    0.194727
  H      1.984175    1.258703   -1.046285
  H      2.125947    1.184941    0.701645
  H     -3.101914    1.147047   -0.773197
  H     -3.005278    1.097541    0.971468
  H      0.770340   -0.934721   -1.045813
  H      0.870178   -0.981984    0.700136
  H     -1.788071   -0.982079   -0.905996
  H     -1.691063   -1.029675    0.839789
  H     -0.544961    1.194564   -0.916651
  H     -0.449783    1.148628    0.829586

 Total Charge           Charge          ....    0
 Multiplicity           Mult            ....    1
 Number of Electrons    NEL             ....   64
 Basis Dimension        Dim             ....  328

ORBITAL ENERGIES
----------------

  NO   OCC          E(Eh)            E(eV)
   0   2.0000     -11.235998      -305.7471
   1   2.0000     -11.228143      -305.5333
   2   2.0000     -11.223604      -305.4098
   3   2.0000     -11.223060      -305.3950
   4   2.0000     -11.221672      -305.3572
   5   2.0000     -11.221125      -305.3423
   6   2.0000     -11.219705      -305.3037
   7   2.0000     -11.216600      -305.2192
   8   2.0000      -1.097703       -29.8700
   9   2.0000      -1.068541       -29.0765
  10   2.0000      -1.019997       -27.7555
  11   2.0000      -0.955661       -26.0049
  12   2.0000      -0.878616       -23.9084
  13   2.0000      -0.806999       -21.9596
  14   2.0000      -0.787834       -21.4381
  15   2.0000      -0.754600       -20.5337
  16   2.0000      -0.657387       -17.8884
  17   2.0000      -0.635463       -17.2918
  18   2.0000      -0.607366       -16.5273
  19   2.0000      -0.590808       -16.0767
  20   2.0000      -0.584609       -15.9080
  21   2.0000      -0.557406       -15.1678
  22   2.0000      -0.541580       -14.7371
  23   2.0000      -0.529025       -14.3955
  24   2.0000      -0.502374       -13.6703
  25   2.0000      -0.495410       -13.4808
  26   2.0000      -0.478903       -13.0316
  27   2.0000      -0.468482       -12.7481
  28   2.0000      -0.460859       -12.5406
  29   2.0000      -0.459181       -12.4949
  30   2.0000      -0.444002       -12.0819
  31   2.0000      -0.357097        -9.7171
  32   0.0000       0.037469         1.0196
  33   0.0000       0.039458         1.0737
  34   0.0000       0.043461         1.1826
  35   0.0000       0.044997         1.2244
  36   0.0000       0.052241         1.4216

MULLIKEN ATOMIC CHARGES
-----------------------
   0 C :    0.490830
   1 C :    0.977668
   2 C :    0.552522
   3 C :    0.531696
   4 C :    0.425231
   5 C :    0.011766
   6 C :    0.184846
   7 C :    0.201526
   8 H :   -0.310192
   9 H :   -0.319628
  10 H :   -0.508512
  11 H :   -0.090924
  12 H :   -0.092178
  13 H :   -0.076595
  14 H :   -0.084643
  15 H :   -0.232087
  16 H :   -0.193702
  17 H :   -0.185279
  18 H :   -0.209779
  19 H :   -0.179729
  20 H :   -0.227498
  21 H :   -0.216648
  22 H :   -0.208963
  23 H :   -0.239731
Sum of atomic charges:    0.0000000

LOEWDIN ATOMIC CHARGES
----------------------
   0 C :    0.157107
   1 C :   -0.068058
   2 C :    0.130084
   3 C :   -0.038715
   4 C :   -0.073243
   5 C :   -0.033699
   6 C :   -0.041979
   7 C :   -0.036169
   8 H :   -0.046377
   9 H :   -0.040744
  10 H :   -0.000491
  11 H :   -0.020429
  12 H :   -0.020361
  13 H :   -0.022374
  14 H :    0.017509
  15 H :    0.015746
  16 H :    0.010676
  17 H :    0.010734
  18 H :    0.015819
  19 H :    0.018307
  20 H :    0.016197
  21 H :    0.016503
  22 H :    0.016714
  23 H :    0.017244

  Mayer bond orders larger than 0.100000
B(  0-C ,  1-C ) :   1.8470 B(  0-C ,  8-H ) :   0.6906 B(  0-C ,  9-H ) :   0.8669
B(  1-C ,  3-C ) :   1.2524 B(  1-C ,  5-C ) :  -0.1186 B(  1-C ,  8-H ) :   0.2075
B(  1-C , 10-H ) :   0.4090 B(  1-C , 15-H ) :  -0.1056 B(  2-C ,  4-C ) :   1.1815
B(  2-C , 11-H ) :   0.9092 B(  2-C , 12-H ) :   0.9110 B(  2-C , 13-H ) :   0.9112
B(  3-C ,  5-C ) :   1.2250 B(  3-C ,  7-C ) :  -0.1694 B(  3-C , 14-H ) :   0.7605
B(  3-C , 15-H ) :   0.6744 B(  3-C , 18-H ) :  -0.1084 B(  3-C , 19-H ) :  -0.1396
B(  4-C ,  6-C ) :   1.2087 B(  4-C ,  7-C ) :  -0.1063 B(  4-C , 16-H ) :   0.7264
B(  4-C , 17-H ) :   0.7276 B(  5-C ,  7-C ) :   1.3851 B(  5-C , 10-H ) :   0.1035
B(  5-C , 15-H ) :   0.2450 B(  5-C , 18-H ) :   0.7542 B(  5-C , 19-H ) :   0.8499
B(  6-C ,  7-C ) :   1.3908 B(  6-C , 20-H ) :   0.7614 B(  6-C , 21-H ) :   0.7587
B(  7-C , 22-H ) :   0.8031 B(  7-C , 23-H ) :   0.7656 B(  8-H ,  9-H ) :  -0.1963

MP2 TOTAL ENERGY:     -313.457256616 Eh
FINAL SINGLE POINT ENERGY      -313.457256615580

DIPOLE MOMENT
-------------
                                X             Y             Z
Electronic contribution:      5.99453       0.18582      -0.37304
Nuclear contribution   :     -6.17611      -0.14058       0.32407
                        -----------------------------------------
Total Dipole Moment    :     -0.18159       0.04524      -0.04897
                        -----------------------------------------
Magnitude (a.u.)       :      0.19344
Magnitude (Debye)      :      0.49168

Rotational constants in cm-1:     0.334871     0.017417     0.017189
Rotational constants in MHz : 10039.190258   522.157121   515.309625

                             ****ORCA TERMINATED NORMALLY****
TOTAL RUN TIME: 0 days 0 hours 1 minutes 16 seconds 266 msec
