                         Program Version 5.0.3 -  RELEASE  -
|  1> !ri-mp2 aug-cc-pvdz aug-cc-pvdz/c tightscf
|  2> %pal nprocs 16 end
|  3> %maxcore 3800
|  4>
|  5> * xyz 0 1
|  6> C     -3.346877   -3.031775    0.000000
|  7> C     -2.834619   -1.946702    0.000000
|  8> C      3.714400    1.932692    0.000000
|  9> C     -2.190041   -0.639220    0.000000
| 10> C      2.187929    1.995002    0.000000
| 11> C     -0.653223   -0.713523    0.000000
| 12> C      1.528109    0.615773    0.000000
| 13> C      0.000000    0.667374    0.000000
| 14> H     -3.805160   -3.988782    0.000000
| 15> H      4.087265    1.405598    0.880672
| 16> H      4.155073    2.930520    0.000000
| 17> H      4.087265    1.405598   -0.880672
| 18> H     -2.527896   -0.075379   -0.874546
| 19> H     -2.527896   -0.075379    0.874546
| 20> H      1.845994    2.557334    0.874089
| 21> H      1.845994    2.557334   -0.874089
| 22> H     -0.326053   -1.280282   -0.874781
| 23> H     -0.326053   -1.280282    0.874781
| 24> H      1.870789    0.052846    0.874570
| 25> H      1.870789    0.052846   -0.874570
| 26> H     -0.342088    1.230153   -0.875038
| 27> H     -0.342088    1.230153    0.875038
| 28> *
| 29>
| 30>                          ****END OF INPUT****

CARTESIAN COORDINATES (ANGSTROEM)
---------------------------------
  C     -3.346877   -3.031775    0.000000
  C     -2.834619   -1.946702    0.000000
  C      3.714400    1.932692    0.000000
  C     -2.190041   -0.639220    0.000000
  C      2.187929    1.995002    0.000000
  C     -0.653223   -0.713523    0.000000
  C      1.528109    0.615773    0.000000
  C      0.000000    0.667374    0.000000
  H     -3.805160   -3.988782    0.000000
  H      4.087265    1.405598    0.880672
  H      4.155073    2.930520    0.000000
  H      4.087265    1.405598   -0.880672
  H     -2.527896   -0.075379   -0.874546
  H     -2.527896   -0.075379    0.874546
  H      1.845994    2.557334    0.874089
  H      1.845994    2.557334   -0.874089
  H     -0.326053   -1.280282   -0.874781
  H     -0.326053   -1.280282    0.874781
  H      1.870789    0.052846    0.874570
  H      1.870789    0.052846   -0.874570
  H     -0.342088    1.230153   -0.875038
  H     -0.342088    1.230153    0.875038

 Total Charge           Charge          ....    0
 Multiplicity           Mult            ....    1
 Number of Electrons    NEL             ....   62
 Basis Dimension        Dim             ....  310

ORBITAL ENERGIES
----------------

  NO   OCC          E(Eh)            E(eV)
   0   2.0000     -11.254812      -306.2590
   1   2.0000     -11.237927      -305.7995
   2   2.0000     -11.232710      -305.6576
   3   2.0000     -11.226989      -305.5019
   4   2.0000     -11.224550      -305.4355
   5   2.0000     -11.224336      -305.4297
   6   2.0000     -11.223570      -305.4089
   7   2.0000     -11.218672      -305.2756
   8   2.0000      -1.103163       -30.0186
   9   2.0000      -1.067982       -29.0613
  10   2.0000      -1.018980       -27.7279
  11   2.0000      -0.966277       -26.2937
  12   2.0000      -0.890803       -24.2400
  13   2.0000      -0.814669       -22.1683
  14   2.0000      -0.792314       -21.5600
  15   2.0000      -0.715292       -19.4641
  16   2.0000      -0.660919       -17.9845
  17   2.0000      -0.633936       -17.2503
  18   2.0000      -0.624127       -16.9834
  19   2.0000      -0.591460       -16.0945
  20   2.0000      -0.570340       -15.5197
  21   2.0000      -0.553698       -15.0669
  22   2.0000      -0.542981       -14.7753
  23   2.0000      -0.514849       -14.0098
  24   2.0000      -0.494086       -13.4448
  25   2.0000      -0.477038       -12.9809
  26   2.0000      -0.466553       -12.6956
  27   2.0000      -0.463365       -12.6088
  28   2.0000      -0.457969       -12.4620
  29   2.0000      -0.381602       -10.3839
  30   2.0000      -0.380217       -10.3462
  31   0.0000       0.036579         0.9954
  32   0.0000       0.038840         1.0569
  33   0.0000       0.042607         1.1594
  34   0.0000       0.045602         1.2409
  35   0.0000       0.049146         1.3373

MULLIKEN ATOMIC CHARGES
-----------------------
   0 C :    0.832521
   1 C :   -0.263048
   2 C :    0.550072
   3 C :    0.255689
   4 C :    0.423463
   5 C :    0.380404
   6 C :    0.138019
   7 C :    0.328987
   8 H :   -0.571745
   9 H :   -0.089302
  10 H :   -0.075804
  11 H :   -0.089302
  12 H :   -0.045959
  13 H :   -0.045959
  14 H :   -0.191575
  15 H :   -0.191575
  16 H :   -0.231085
  17 H :   -0.231085
  18 H :   -0.216218
  19 H :   -0.216218
  20 H :   -0.225139
  21 H :   -0.225139
Sum of atomic charges:    0.0000000

LOEWDIN ATOMIC CHARGES
----------------------
   0 C :    0.200499
   1 C :   -0.105557
   2 C :    0.130932
   3 C :   -0.059184
   4 C :   -0.072724
   5 C :   -0.024045
   6 C :   -0.040636
   7 C :   -0.035117
   8 H :   -0.109119
   9 H :   -0.020047
  10 H :   -0.022031
  11 H :   -0.020047
  12 H :    0.022775
  13 H :    0.022775
  14 H :    0.010928
  15 H :    0.010928
  16 H :    0.020016
  17 H :    0.020016
  18 H :    0.017127
  19 H :    0.017127
  20 H :    0.017691
  21 H :    0.017691

  Mayer bond orders larger than 0.100000
B(  0-C ,  1-C ) :   2.6727 B(  0-C ,  3-C ) :   0.1591 B(  0-C ,  8-H ) :  -0.5236
B(  1-C ,  3-C ) :   1.4502 B(  1-C ,  8-H ) :   0.8404 B(  2-C ,  4-C ) :   1.1800
B(  2-C ,  9-H ) :   0.9101 B(  2-C , 10-H ) :   0.9135 B(  2-C , 11-H ) :   0.9101
B(  3-C ,  5-C ) :   1.3472 B(  3-C ,  7-C ) :  -0.1160 B(  3-C ,  8-H ) :   0.1239
B(  3-C , 12-H ) :   0.7476 B(  3-C , 13-H ) :   0.7476 B(  4-C ,  6-C ) :   1.2227
B(  4-C ,  7-C ) :  -0.1026 B(  4-C , 14-H ) :   0.7328 B(  4-C , 15-H ) :   0.7328
B(  5-C ,  7-C ) :   1.2863 B(  5-C , 16-H ) :   0.7192 B(  5-C , 17-H ) :   0.7192
B(  6-C ,  7-C ) :   1.4123 B(  6-C , 18-H ) :   0.7713 B(  6-C , 19-H ) :   0.7713
B(  7-C , 20-H ) :   0.7580 B(  7-C , 21-H ) :   0.7580

MP2 TOTAL ENERGY:     -312.224588609 Eh
FINAL SINGLE POINT ENERGY      -312.224588609116

DIPOLE MOMENT
-------------
                                X             Y             Z
Electronic contribution:     -9.86661      -6.79646      -0.00000
Nuclear contribution   :     10.10764       7.10295       0.00000
                        -----------------------------------------
Total Dipole Moment    :      0.24103       0.30649      -0.00000
                        -----------------------------------------
Magnitude (a.u.)       :      0.38991
Magnitude (Debye)      :      0.99108

Rotational constants in cm-1:     0.357183     0.018208     0.017661
Rotational constants in MHz : 10708.075325   545.853440   529.470461

                             ****ORCA TERMINATED NORMALLY****
TOTAL RUN TIME: 0 days 0 hours 1 minutes 30 seconds 724 msec
