                         Program Version 5.0.3 -  RELEASE  -
|  1> !ri-mp2 aug-cc-pvdz aug-cc-pvdz/c tightscf
|  2> %pal nprocs 16 end
|  3>
|  4> * xyz 0 1
|  5> C      0.000000    0.694844    2.382562
|  6> C      0.000000   -0.694844    2.382562
|  7> C      0.000000    1.388047    1.181404
|  8> C      0.000000   -1.388047    1.181404
|  9> C      0.000000    0.697332   -0.025757
| 10> C      0.000000   -0.697332   -0.025757
| 11> Cl     0.000000    1.605090   -1.512263
| 12> Cl     0.000000   -1.605090   -1.512263
| 13> H      0.000000    1.242555    3.314599
| 14> H      0.000000   -1.242555    3.314599
| 15> H      0.000000    2.468014    1.164618
| 16> H      0.000000   -2.468014    1.164618
| 17> *
| 18>
| 19>                          ****END OF INPUT****

CARTESIAN COORDINATES (ANGSTROEM)
---------------------------------
  C      0.000000    0.694844    2.382562
  C      0.000000   -0.694844    2.382562
  C      0.000000    1.388047    1.181404
  C      0.000000   -1.388047    1.181404
  C      0.000000    0.697332   -0.025757
  C      0.000000   -0.697332   -0.025757
  Cl     0.000000    1.605090   -1.512263
  Cl     0.000000   -1.605090   -1.512263
  H      0.000000    1.242555    3.314599
  H      0.000000   -1.242555    3.314599
  H      0.000000    2.468014    1.164618
  H      0.000000   -2.468014    1.164618

 Total Charge           Charge          ....    0
 Multiplicity           Mult            ....    1
 Number of Electrons    NEL             ....   74
 Basis Dimension        Dim             ....  228

ORBITAL ENERGIES
----------------

  NO   OCC          E(Eh)            E(eV)
   0   2.0000    -104.848031     -2853.0600
   1   2.0000    -104.848030     -2853.0600
   2   2.0000     -11.325889      -308.1931
   3   2.0000     -11.324700      -308.1608
   4   2.0000     -11.269087      -306.6474
   5   2.0000     -11.269084      -306.6474
   6   2.0000     -11.265510      -306.5501
   7   2.0000     -11.264315      -306.5176
   8   2.0000     -10.574112      -287.7362
   9   2.0000     -10.574095      -287.7358
  10   2.0000      -8.041935      -218.8322
  11   2.0000      -8.041934      -218.8321
  12   2.0000      -8.038481      -218.7382
  13   2.0000      -8.038479      -218.7381
  14   2.0000      -8.038396      -218.7359
  15   2.0000      -8.038396      -218.7359
  16   2.0000      -1.224501       -33.3204
  17   2.0000      -1.142584       -31.0913
  18   2.0000      -1.132494       -30.8167
  19   2.0000      -1.030371       -28.0378
  20   2.0000      -1.001845       -27.2616
  21   2.0000      -0.858576       -23.3630
  22   2.0000      -0.830864       -22.6090
  23   2.0000      -0.713966       -19.4280
  24   2.0000      -0.676225       -18.4010
  25   2.0000      -0.653275       -17.7765
  26   2.0000      -0.609544       -16.5865
  27   2.0000      -0.599209       -16.3053
  28   2.0000      -0.575816       -15.6688
  29   2.0000      -0.533936       -14.5291
  30   2.0000      -0.530902       -14.4466
  31   2.0000      -0.491986       -13.3876
  32   2.0000      -0.475988       -12.9523
  33   2.0000      -0.475097       -12.9280
  34   2.0000      -0.451091       -12.2748
  35   2.0000      -0.357068        -9.7163
  36   2.0000      -0.345292        -9.3959
  37   0.0000       0.031157         0.8478
  38   0.0000       0.039690         1.0800
  39   0.0000       0.049148         1.3374
  40   0.0000       0.061620         1.6768
  41   0.0000       0.079542         2.1644

MULLIKEN ATOMIC CHARGES
-----------------------
   0 C :    0.525567
   1 C :    0.525567
   2 C :    0.653677
   3 C :    0.653677
   4 C :   -0.039141
   5 C :   -0.039141
   6 Cl:   -0.317975
   7 Cl:   -0.317975
   8 H :   -0.428843
   9 H :   -0.428843
  10 H :   -0.393284
  11 H :   -0.393284
Sum of atomic charges:    0.0000000

LOEWDIN ATOMIC CHARGES
----------------------
   0 C :    0.012492
   1 C :    0.012492
   2 C :   -0.018312
   3 C :   -0.018312
   4 C :   -0.576519
   5 C :   -0.576519
   6 Cl:    0.578428
   7 Cl:    0.578428
   8 H :    0.004286
   9 H :    0.004286
  10 H :   -0.000375
  11 H :   -0.000375

  Mayer bond orders larger than 0.100000
B(  0-C ,  1-C ) :   1.7421 B(  0-C ,  2-C ) :   1.7439 B(  0-C ,  8-H ) :   0.3424
B(  0-C ,  9-H ) :   0.1670 B(  1-C ,  3-C ) :   1.7439 B(  1-C ,  8-H ) :   0.1670
B(  1-C ,  9-H ) :   0.3424 B(  2-C ,  3-C ) :   0.3819 B(  2-C ,  4-C ) :   1.5834
B(  2-C ,  5-C ) :  -0.2391 B(  2-C ,  6-Cl) :  -0.3473 B(  2-C ,  8-H ) :   0.2508
B(  2-C , 10-H ) :   0.2472 B(  3-C ,  4-C ) :  -0.2391 B(  3-C ,  5-C ) :   1.5834
B(  3-C ,  7-Cl) :  -0.3473 B(  3-C ,  9-H ) :   0.2508 B(  3-C , 11-H ) :   0.2472
B(  4-C ,  5-C ) :   1.1992 B(  4-C ,  6-Cl) :   1.1409 B(  4-C ,  7-Cl) :  -0.2573
B(  4-C , 10-H ) :   0.4703 B(  5-C ,  6-Cl) :  -0.2573 B(  5-C ,  7-Cl) :   1.1409
B(  5-C , 11-H ) :   0.4703

MP2 TOTAL ENERGY:    -1149.668954546 Eh
FINAL SINGLE POINT ENERGY     -1149.668954545670

DIPOLE MOMENT
-------------
                                X             Y             Z
Electronic contribution:      0.00000       0.00000     -11.39321
Nuclear contribution   :      0.00000       0.00000      12.56008
                        -----------------------------------------
Total Dipole Moment    :      0.00000       0.00000       1.16687
                        -----------------------------------------
Magnitude (a.u.)       :      1.16687
Magnitude (Debye)      :      2.96596

Rotational constants in cm-1:     0.062989     0.047385     0.027042
Rotational constants in MHz :  1888.350229  1420.554028   810.692397

                             ****ORCA TERMINATED NORMALLY****
TOTAL RUN TIME: 0 days 0 hours 1 minutes 14 seconds 30 msec
