                         Program Version 5.0.3 -  RELEASE  -
|  1> !ri-mp2 aug-cc-pvdz aug-cc-pvdz/c tightscf
|  2> %pal nprocs 16 end
|  3>
|  4> * xyz 0 1
|  5> C     -1.885447   -0.818106    0.007501
|  6> C     -1.975051    0.568350   -0.000697
|  7> C     -0.628773   -1.412605    0.008802
|  8> C     -0.822932    1.340246   -0.004708
|  9> C      0.543272   -0.661462    0.000704
| 10> C      0.440882    0.742403   -0.003804
| 11> C      1.892340   -1.326342   -0.010307
| 12> N      1.590034    1.533681   -0.069114
| 13> H     -2.777856   -1.428093    0.012258
| 14> H     -2.942118    1.053384   -0.001815
| 15> H     -0.550201   -2.492945    0.013468
| 16> H     -0.896228    2.421222   -0.012731
| 17> H      2.483420   -1.022758   -0.878512
| 18> H      2.479480   -1.078545    0.880504
| 19> H      1.791171   -2.409860   -0.037583
| 20> H      2.429428    1.133051    0.315391
| 21> H      1.466926    2.493869    0.207873
| 22> *
| 23>
| 24>                          ****END OF INPUT****

CARTESIAN COORDINATES (ANGSTROEM)
---------------------------------
  C     -1.885447   -0.818106    0.007501
  C     -1.975051    0.568350   -0.000697
  C     -0.628773   -1.412605    0.008802
  C     -0.822932    1.340246   -0.004708
  C      0.543272   -0.661462    0.000704
  C      0.440882    0.742403   -0.003804
  C      1.892340   -1.326342   -0.010307
  N      1.590034    1.533681   -0.069114
  H     -2.777856   -1.428093    0.012258
  H     -2.942118    1.053384   -0.001815
  H     -0.550201   -2.492945    0.013468
  H     -0.896228    2.421222   -0.012731
  H      2.483420   -1.022758   -0.878512
  H      2.479480   -1.078545    0.880504
  H      1.791171   -2.409860   -0.037583
  H      2.429428    1.133051    0.315391
  H      1.466926    2.493869    0.207873

 Total Charge           Charge          ....    0
 Multiplicity           Mult            ....    1
 Number of Electrons    NEL             ....   58
 Basis Dimension        Dim             ....  265

ORBITAL ENERGIES
----------------

  NO   OCC          E(Eh)            E(eV)
   0   2.0000     -15.571915      -423.7334
   1   2.0000     -11.277754      -306.8833
   2   2.0000     -11.234043      -305.6938
   3   2.0000     -11.233831      -305.6881
   4   2.0000     -11.232544      -305.6531
   5   2.0000     -11.231108      -305.6140
   6   2.0000     -11.225563      -305.4631
   7   2.0000     -11.220888      -305.3359
   8   2.0000      -1.227630       -33.4055
   9   2.0000      -1.129984       -30.7484
  10   2.0000      -1.043804       -28.4033
  11   2.0000      -0.990217       -26.9452
  12   2.0000      -0.931296       -25.3419
  13   2.0000      -0.824700       -22.4412
  14   2.0000      -0.798088       -21.7171
  15   2.0000      -0.697945       -18.9921
  16   2.0000      -0.691656       -18.8209
  17   2.0000      -0.643664       -17.5150
  18   2.0000      -0.603389       -16.4191
  19   2.0000      -0.591226       -16.0881
  20   2.0000      -0.580336       -15.7918
  21   2.0000      -0.566436       -15.4135
  22   2.0000      -0.542722       -14.7682
  23   2.0000      -0.514963       -14.0129
  24   2.0000      -0.494516       -13.4565
  25   2.0000      -0.481482       -13.1018
  26   2.0000      -0.445370       -12.1191
  27   2.0000      -0.327142        -8.9020
  28   2.0000      -0.288680        -7.8554
  29   0.0000       0.032880         0.8947
  30   0.0000       0.039892         1.0855
  31   0.0000       0.041625         1.1327
  32   0.0000       0.055074         1.4986
  33   0.0000       0.056327         1.5327

MULLIKEN ATOMIC CHARGES
-----------------------
   0 C :    0.208786
   1 C :    0.340489
   2 C :    1.028374
   3 C :    0.793453
   4 C :    0.172918
   5 C :   -0.272439
   6 C :    0.442463
   7 N :   -0.438748
   8 H :   -0.471428
   9 H :   -0.448077
  10 H :   -0.588274
  11 H :   -0.616113
  12 H :    0.110108
  13 H :    0.100463
  14 H :   -0.261864
  15 H :   -0.056635
  16 H :   -0.043473
Sum of atomic charges:   -0.0000000

LOEWDIN ATOMIC CHARGES
----------------------
   0 C :   -0.006157
   1 C :   -0.001224
   2 C :    0.033624
   3 C :    0.043284
   4 C :   -0.172683
   5 C :   -0.199453
   6 C :    0.165970
   7 N :    0.247920
   8 H :   -0.008095
   9 H :   -0.000051
  10 H :    0.003733
  11 H :   -0.000611
  12 H :   -0.004337
  13 H :   -0.009508
  14 H :   -0.016634
  15 H :   -0.046248
  16 H :   -0.029529

  Mayer bond orders larger than 0.100000
B(  0-C ,  1-C ) :   1.8330 B(  0-C ,  2-C ) :   1.2644 B(  0-C ,  3-C ) :   0.1870
B(  0-C ,  6-C ) :   0.3738 B(  0-C ,  8-H ) :   0.2072 B(  0-C ,  9-H ) :   0.2184
B(  0-C , 10-H ) :   0.2071 B(  0-C , 11-H ) :  -0.1574 B(  1-C ,  2-C ) :  -0.1660
B(  1-C ,  3-C ) :   1.8035 B(  1-C ,  4-C ) :   0.3837 B(  1-C ,  5-C ) :  -0.1535
B(  1-C ,  8-H ) :   0.2232 B(  1-C ,  9-H ) :   0.2747 B(  1-C , 10-H ) :  -0.1327
B(  1-C , 11-H ) :   0.2952 B(  2-C ,  4-C ) :   1.7420 B(  2-C ,  5-C ) :  -0.7652
B(  2-C ,  6-C ) :  -0.3429 B(  2-C ,  8-H ) :   0.2604 B(  2-C , 10-H ) :  -0.3396
B(  2-C , 11-H ) :   0.1181 B(  2-C , 14-H ) :  -0.1689 B(  3-C ,  4-C ) :  -0.2493
B(  3-C ,  5-C ) :   1.6317 B(  3-C ,  6-C ) :   0.1444 B(  3-C ,  9-H ) :   0.2753
B(  3-C , 10-H ) :   0.1100 B(  3-C , 11-H ) :  -0.5845 B(  4-C ,  5-C ) :   1.0372
B(  4-C ,  6-C ) :   1.4218 B(  4-C , 10-H ) :   0.7699 B(  4-C , 11-H ) :  -0.1182
B(  4-C , 12-H ) :   0.1774 B(  4-C , 13-H ) :   0.2102 B(  4-C , 14-H ) :   0.4632
B(  5-C ,  6-C ) :  -0.3569 B(  5-C ,  7-N ) :   0.8248 B(  5-C , 10-H ) :  -0.1074
B(  5-C , 11-H ) :   1.0564 B(  6-C , 12-H ) :   0.8183 B(  6-C , 13-H ) :   0.7826
B(  6-C , 14-H ) :   0.6711 B(  7-N , 11-H ) :  -0.1086 B(  7-N , 15-H ) :   1.0968
B(  7-N , 16-H ) :   1.0897 B( 12-H , 13-H ) :  -0.1020

MP2 TOTAL ENERGY:     -325.955029708 Eh
FINAL SINGLE POINT ENERGY      -325.955029707745

DIPOLE MOMENT
-------------
                                X             Y             Z
Electronic contribution:     -3.10296       1.53623      -0.15120
Nuclear contribution   :      3.55113      -1.34353       0.50669
                        -----------------------------------------
Total Dipole Moment    :      0.44817       0.19270       0.35549
                        -----------------------------------------
Magnitude (a.u.)       :      0.60363
Magnitude (Debye)      :      1.53429

Rotational constants in cm-1:     0.108041     0.073325     0.044083
Rotational constants in MHz :  3238.984698  2198.213545  1321.579237

                             ****ORCA TERMINATED NORMALLY****
TOTAL RUN TIME: 0 days 0 hours 1 minutes 21 seconds 541 msec
