                         Program Version 5.0.3 -  RELEASE  -
|  1> !ri-mp2 aug-cc-pvdz aug-cc-pvdz/c tightscf
|  2> %pal nprocs 16 end
|  3>
|  4> * xyz 0 1
|  5> O     -0.749026   -0.493037        0.000000
|  6> C      0.778446   -0.240644        0.000000
|  7> C      0.000000    0.750804        0.000000
|  8> H      1.619799   -0.896149        0.000000
|  9> H     -0.298263    1.779489        0.000000
| 10> *
| 11>
| 12>                          ****END OF INPUT****

CARTESIAN COORDINATES (ANGSTROEM)
---------------------------------
  O     -0.749026   -0.493037    0.000000
  C      0.778446   -0.240644    0.000000
  C      0.000000    0.750804    0.000000
  H      1.619799   -0.896149    0.000000
  H     -0.298263    1.779489    0.000000

 Total Charge           Charge          ....    0
 Multiplicity           Mult            ....    1
 Number of Electrons    NEL             ....   22
 Basis Dimension        Dim             ....   87

ORBITAL ENERGIES
----------------

  NO   OCC          E(Eh)            E(eV)
   0   2.0000     -20.580413      -560.0215
   1   2.0000     -11.323968      -308.1408
   2   2.0000     -11.314874      -307.8934
   3   2.0000      -1.385592       -37.7039
   4   2.0000      -0.973360       -26.4865
   5   2.0000      -0.821549       -22.3555
   6   2.0000      -0.724242       -19.7076
   7   2.0000      -0.584138       -15.8952
   8   2.0000      -0.539429       -14.6786
   9   2.0000      -0.500713       -13.6251
  10   2.0000      -0.343705        -9.3527
  11   0.0000       0.033469         0.9107
  12   0.0000       0.037598         1.0231
  13   0.0000       0.083903         2.2831
  14   0.0000       0.092781         2.5247
  15   0.0000       0.105934         2.8826

MULLIKEN ATOMIC CHARGES
-----------------------
   0 O :   -0.800212
   1 C :    0.577310
   2 C :    0.584770
   3 H :   -0.211861
   4 H :   -0.150007
Sum of atomic charges:    0.0000000

LOEWDIN ATOMIC CHARGES
----------------------
   0 O :   -0.090053
   1 C :    0.128381
   2 C :    0.032586
   3 H :   -0.043127
   4 H :   -0.027786

  Mayer bond orders larger than 0.100000
B(  0-O ,  1-C ) :   0.6650 B(  0-O ,  2-C ) :   0.6956 B(  1-C ,  2-C ) :   2.2488
B(  1-C ,  3-H ) :   0.7525 B(  2-C ,  4-H ) :   0.7901

MP2 TOTAL ENERGY:     -152.075305000 Eh
FINAL SINGLE POINT ENERGY      -152.075305000083

DIPOLE MOMENT
-------------
                                X             Y             Z
Electronic contribution:     -0.43360      -0.24366      -0.00000
Nuclear contribution   :      1.28731       0.86058       0.00000
                        -----------------------------------------
Total Dipole Moment    :      0.85371       0.61692      -0.00000
                        -----------------------------------------
Magnitude (a.u.)       :      1.05329
Magnitude (Debye)      :      2.67724

Rotational constants in cm-1:     1.146038     0.861057     0.491658
Rotational constants in MHz : 34357.349940 25813.834950 14739.529598

                             ****ORCA TERMINATED NORMALLY****
TOTAL RUN TIME: 0 days 0 hours 0 minutes 41 seconds 198 msec
