                         Program Version 5.0.3 -  RELEASE  -
|  1> !ri-mp2 aug-cc-pvdz aug-cc-pvdz/c tightscf
|  2> %pal nprocs 16 end
|  3>
|  4> * xyz 0 1
|  5> C      0.863078   -0.004934   -0.012038
|  6> C     -1.345484    0.742595    0.139382
|  7> C     -1.296433   -0.772693   -0.105039
|  8> N      0.032123    1.081398   -0.166734
|  9> O      2.061521   -0.022202    0.030559
| 10> O      0.084494   -1.127510    0.081246
| 11> H     -2.049443    1.241627   -0.524845
| 12> H     -1.609416    0.978619    1.174750
| 13> H     -1.897195   -1.346525    0.595247
| 14> H     -1.584158   -1.025162   -1.126673
| 15> H      0.420261    1.989541    0.020394
| 16> *
| 17>
| 18>                          ****END OF INPUT****

CARTESIAN COORDINATES (ANGSTROEM)
---------------------------------
  C      0.863078   -0.004934   -0.012038
  C     -1.345484    0.742595    0.139382
  C     -1.296433   -0.772693   -0.105039
  N      0.032123    1.081398   -0.166734
  O      2.061521   -0.022202    0.030559
  O      0.084494   -1.127510    0.081246
  H     -2.049443    1.241627   -0.524845
  H     -1.609416    0.978619    1.174750
  H     -1.897195   -1.346525    0.595247
  H     -1.584158   -1.025162   -1.126673
  H      0.420261    1.989541    0.020394

 Total Charge           Charge          ....    0
 Multiplicity           Mult            ....    1
 Number of Electrons    NEL             ....   46
 Basis Dimension        Dim             ....  183

ORBITAL ENERGIES
----------------

  NO   OCC          E(Eh)            E(eV)
   0   2.0000     -20.614865      -560.9590
   1   2.0000     -20.539656      -558.9125
   2   2.0000     -15.606057      -424.6624
   3   2.0000     -11.412821      -310.5586
   4   2.0000     -11.317849      -307.9743
   5   2.0000     -11.300874      -307.5124
   6   2.0000      -1.474030       -40.1104
   7   2.0000      -1.370516       -37.2936
   8   2.0000      -1.249233       -33.9933
   9   2.0000      -1.037180       -28.2231
  10   2.0000      -0.892059       -24.2742
  11   2.0000      -0.834226       -22.7005
  12   2.0000      -0.724406       -19.7121
  13   2.0000      -0.720644       -19.6097
  14   2.0000      -0.669291       -18.2123
  15   2.0000      -0.623136       -16.9564
  16   2.0000      -0.604905       -16.4603
  17   2.0000      -0.596067       -16.2198
  18   2.0000      -0.583542       -15.8790
  19   2.0000      -0.532733       -14.4964
  20   2.0000      -0.461123       -12.5478
  21   2.0000      -0.455053       -12.3826
  22   2.0000      -0.415313       -11.3012
  23   0.0000       0.025489         0.6936
  24   0.0000       0.040133         1.0921
  25   0.0000       0.042270         1.1502
  26   0.0000       0.053029         1.4430
  27   0.0000       0.065585         1.7847

MULLIKEN ATOMIC CHARGES
-----------------------
   0 C :    1.190072
   1 C :    0.646017
   2 C :    0.956621
   3 N :   -0.468676
   4 O :   -0.688238
   5 O :   -0.848876
   6 H :   -0.126178
   7 H :   -0.201153
   8 H :   -0.165966
   9 H :   -0.184863
  10 H :   -0.108761
Sum of atomic charges:   -0.0000000

LOEWDIN ATOMIC CHARGES
----------------------
   0 C :   -0.375557
   1 C :    0.022244
   2 C :    0.048361
   3 N :    0.108902
   4 O :    0.038910
   5 O :    0.088696
   6 H :    0.013711
   7 H :    0.014927
   8 H :    0.009399
   9 H :    0.012185
  10 H :    0.018223

  Mayer bond orders larger than 0.100000
B(  0-C ,  3-N ) :   1.0741 B(  0-C ,  4-O ) :   1.5739 B(  0-C ,  5-O ) :   0.7543
B(  1-C ,  2-C ) :   1.2623 B(  1-C ,  3-N ) :   0.8037 B(  1-C ,  5-O ) :   0.1179
B(  1-C ,  6-H ) :   0.9397 B(  1-C ,  7-H ) :   0.8072 B(  1-C ,  9-H ) :   0.1049
B(  2-C ,  5-O ) :   0.5692 B(  2-C ,  8-H ) :   0.9119 B(  2-C ,  9-H ) :   0.8474
B(  3-N , 10-H ) :   1.1576

MP2 TOTAL ENERGY:     -321.726286714 Eh
FINAL SINGLE POINT ENERGY      -321.726286713677

DIPOLE MOMENT
-------------
                                X             Y             Z
Electronic contribution:      4.51666      -0.98272      -0.03926
Nuclear contribution   :     -6.63321       1.81192       0.13856
                        -----------------------------------------
Total Dipole Moment    :     -2.11655       0.82920       0.09930
                        -----------------------------------------
Magnitude (a.u.)       :      2.27535
Magnitude (Debye)      :      5.78349

Rotational constants in cm-1:     0.263172     0.124089     0.087998
Rotational constants in MHz :  7889.688132  3720.100699  2638.107895

                             ****ORCA TERMINATED NORMALLY****
TOTAL RUN TIME: 0 days 0 hours 0 minutes 40 seconds 246 msec
