                         Program Version 5.0.3 -  RELEASE  -
|  1> !ri-mp2 aug-cc-pvdz aug-cc-pvdz/c tightscf
|  2> %pal nprocs 16 end
|  3>
|  4> * xyz 0 1
|  5> C      1.183630   -1.657236    0.000000
|  6> C      1.978197   -0.519415    0.000000
|  7> C     -0.201692   -1.524488    0.000000
|  8> C      1.385481    0.737927    0.000000
|  9> C     -0.822901   -0.278622    0.000000
| 10> C      0.000000    0.854617    0.000000
| 11> C     -2.318300   -0.130060    0.000000
| 12> O     -0.625320    2.075643    0.000000
| 13> H      1.634666   -2.639701    0.000000
| 14> H      3.056498   -0.602769    0.000000
| 15> H     -0.822640   -2.411682    0.000000
| 16> H      1.999453    1.631427    0.000000
| 17> H     -2.661652    0.425255    0.874779
| 18> H     -2.661652    0.425255   -0.874779
| 19> H     -2.803146   -1.104999    0.000000
| 20> H      0.034538    2.775735    0.000000
| 21> *
| 22>
| 23>                          ****END OF INPUT****

CARTESIAN COORDINATES (ANGSTROEM)
---------------------------------
  C      1.183630   -1.657236    0.000000
  C      1.978197   -0.519415    0.000000
  C     -0.201692   -1.524488    0.000000
  C      1.385481    0.737927    0.000000
  C     -0.822901   -0.278622    0.000000
  C      0.000000    0.854617    0.000000
  C     -2.318300   -0.130060    0.000000
  O     -0.625320    2.075643    0.000000
  H      1.634666   -2.639701    0.000000
  H      3.056498   -0.602769    0.000000
  H     -0.822640   -2.411682    0.000000
  H      1.999453    1.631427    0.000000
  H     -2.661652    0.425255    0.874779
  H     -2.661652    0.425255   -0.874779
  H     -2.803146   -1.104999    0.000000
  H      0.034538    2.775735    0.000000

 Total Charge           Charge          ....    0
 Multiplicity           Mult            ....    1
 Number of Electrons    NEL             ....   58
 Basis Dimension        Dim             ....  256

ORBITAL ENERGIES
----------------

  NO   OCC          E(Eh)            E(eV)
   0   2.0000     -20.599644      -560.5448
   1   2.0000     -11.303469      -307.5830
   2   2.0000     -11.241900      -305.9077
   3   2.0000     -11.240308      -305.8643
   4   2.0000     -11.238420      -305.8129
   5   2.0000     -11.237560      -305.7896
   6   2.0000     -11.230248      -305.5906
   7   2.0000     -11.224461      -305.4331
   8   2.0000      -1.408026       -38.3143
   9   2.0000      -1.153349       -31.3842
  10   2.0000      -1.049843       -28.5677
  11   2.0000      -1.007990       -27.4288
  12   2.0000      -0.933059       -25.3898
  13   2.0000      -0.846969       -23.0472
  14   2.0000      -0.803009       -21.8510
  15   2.0000      -0.731327       -19.9004
  16   2.0000      -0.676075       -18.3969
  17   2.0000      -0.653103       -17.7718
  18   2.0000      -0.604499       -16.4493
  19   2.0000      -0.599949       -16.3255
  20   2.0000      -0.583203       -15.8698
  21   2.0000      -0.563243       -15.3266
  22   2.0000      -0.550346       -14.9757
  23   2.0000      -0.541958       -14.7474
  24   2.0000      -0.502371       -13.6702
  25   2.0000      -0.486786       -13.2461
  26   2.0000      -0.477293       -12.9878
  27   2.0000      -0.334393        -9.0993
  28   2.0000      -0.309814        -8.4305
  29   0.0000       0.032400         0.8817
  30   0.0000       0.040222         1.0945
  31   0.0000       0.041924         1.1408
  32   0.0000       0.054617         1.4862
  33   0.0000       0.058726         1.5980

MULLIKEN ATOMIC CHARGES
-----------------------
   0 C :    0.138473
   1 C :    0.306409
   2 C :    1.079473
   3 C :    0.529020
   4 C :   -0.411879
   5 C :    0.793383
   6 C :    0.487230
   7 O :   -0.972774
   8 H :   -0.462370
   9 H :   -0.434738
  10 H :   -0.573502
  11 H :   -0.629755
  12 H :    0.077245
  13 H :    0.077245
  14 H :   -0.198803
  15 H :    0.195344
Sum of atomic charges:    0.0000000

LOEWDIN ATOMIC CHARGES
----------------------
   0 C :   -0.001698
   1 C :    0.001231
   2 C :    0.040301
   3 C :    0.038512
   4 C :   -0.180135
   5 C :   -0.191059
   6 C :    0.176325
   7 O :    0.186734
   8 H :   -0.005234
   9 H :    0.000018
  10 H :    0.004926
  11 H :   -0.000321
  12 H :   -0.006169
  13 H :   -0.006169
  14 H :   -0.017063
  15 H :   -0.040198

  Mayer bond orders larger than 0.100000
B(  0-C ,  1-C ) :   1.8827 B(  0-C ,  2-C ) :   1.2264 B(  0-C ,  3-C ) :   0.1854
B(  0-C ,  6-C ) :   0.3323 B(  0-C ,  8-H ) :   0.2493 B(  0-C ,  9-H ) :   0.2121
B(  0-C , 10-H ) :   0.2000 B(  0-C , 11-H ) :  -0.1730 B(  1-C ,  2-C ) :  -0.1816
B(  1-C ,  3-C ) :   1.9807 B(  1-C ,  4-C ) :   0.3619 B(  1-C ,  5-C ) :  -0.2986
B(  1-C ,  8-H ) :   0.2320 B(  1-C ,  9-H ) :   0.3206 B(  1-C , 10-H ) :  -0.1015
B(  1-C , 11-H ) :   0.2405 B(  2-C ,  4-C ) :   1.9985 B(  2-C ,  5-C ) :  -0.6413
B(  2-C ,  6-C ) :  -0.3425 B(  2-C ,  8-H ) :   0.2253 B(  2-C , 10-H ) :  -0.1838
B(  2-C , 11-H ) :   0.1107 B(  2-C , 14-H ) :  -0.1981 B(  3-C ,  4-C ) :  -0.1310
B(  3-C ,  5-C ) :   1.5498 B(  3-C ,  6-C ) :   0.1958 B(  3-C ,  7-O ) :   0.1716
B(  3-C ,  9-H ) :   0.2168 B(  3-C , 11-H ) :  -0.3761 B(  3-C , 15-H ) :   0.1119
B(  4-C ,  5-C ) :   1.7349 B(  4-C ,  6-C ) :   1.4660 B(  4-C ,  7-O ) :   0.3216
B(  4-C , 10-H ) :   0.6340 B(  4-C , 12-H ) :   0.1792 B(  4-C , 13-H ) :   0.1792
B(  4-C , 14-H ) :   0.4749 B(  5-C ,  6-C ) :  -0.3132 B(  5-C ,  7-O ) :  -0.3077
B(  5-C , 11-H ) :   0.8950 B(  5-C , 15-H ) :  -0.1434 B(  6-C , 12-H ) :   0.8160
B(  6-C , 13-H ) :   0.8160 B(  6-C , 14-H ) :   0.6356 B(  7-O , 15-H ) :   1.0280

MP2 TOTAL ENERGY:     -345.802514983 Eh
FINAL SINGLE POINT ENERGY      -345.802514983403

DIPOLE MOMENT
-------------
                                X             Y             Z
Electronic contribution:      2.60524       1.67450       0.00000
Nuclear contribution   :     -2.25007      -1.47946       0.00000
                        -----------------------------------------
Total Dipole Moment    :      0.35516       0.19504       0.00000
                        -----------------------------------------
Magnitude (a.u.)       :      0.40519
Magnitude (Debye)      :      1.02991

Rotational constants in cm-1:     0.109448     0.073564     0.044351
Rotational constants in MHz :  3281.171262  2205.403046  1329.617708

                             ****ORCA TERMINATED NORMALLY****
TOTAL RUN TIME: 0 days 0 hours 1 minutes 26 seconds 704 msec
