                         Program Version 5.0.3 -  RELEASE  -
|  1> !ri-mp2 aug-cc-pvdz aug-cc-pvdz/c tightscf
|  2> %pal nprocs 16 end
|  3>
|  4> * xyz 0 1
|  5> C     -0.903175    0.001036   -0.006994
|  6> C      0.005478    1.220666    0.132987
|  7> C      1.412127    0.693606   -0.180358
|  8> C      1.324994   -0.815730    0.127683
|  9> N     -0.088155   -1.094127   -0.072504
| 10> O     -2.116544   -0.011504   -0.038990
| 11> H     -0.330880    2.020914   -0.521866
| 12> H     -0.083303    1.580279    1.160742
| 13> H      1.635799    0.834612   -1.237813
| 14> H      2.197405    1.180877    0.393609
| 15> H      1.945173   -1.412323   -0.541075
| 16> H      1.632814   -1.032529    1.156074
| 17> H     -0.484123   -2.018367   -0.030135
| 18> *
| 19>
| 20>                          ****END OF INPUT****

CARTESIAN COORDINATES (ANGSTROEM)
---------------------------------
  C     -0.903175    0.001036   -0.006994
  C      0.005478    1.220666    0.132987
  C      1.412127    0.693606   -0.180358
  C      1.324994   -0.815730    0.127683
  N     -0.088155   -1.094127   -0.072504
  O     -2.116544   -0.011504   -0.038990
  H     -0.330880    2.020914   -0.521866
  H     -0.083303    1.580279    1.160742
  H      1.635799    0.834612   -1.237813
  H      2.197405    1.180877    0.393609
  H      1.945173   -1.412323   -0.541075
  H      1.632814   -1.032529    1.156074
  H     -0.484123   -2.018367   -0.030135

 Total Charge           Charge          ....    0
 Multiplicity           Mult            ....    1
 Number of Electrons    NEL             ....   46
 Basis Dimension        Dim             ....  201

ORBITAL ENERGIES
----------------

  NO   OCC          E(Eh)            E(eV)
   0   2.0000     -20.524496      -558.4999
   1   2.0000     -15.589639      -424.2156
   2   2.0000     -11.352291      -308.9115
   3   2.0000     -11.284247      -307.0600
   4   2.0000     -11.249872      -306.1246
   5   2.0000     -11.246020      -306.0198
   6   2.0000      -1.380985       -37.5785
   7   2.0000      -1.252298       -34.0767
   8   2.0000      -1.062192       -28.9037
   9   2.0000      -0.976624       -26.5753
  10   2.0000      -0.837671       -22.7942
  11   2.0000      -0.792870       -21.5751
  12   2.0000      -0.690372       -18.7860
  13   2.0000      -0.678255       -18.4563
  14   2.0000      -0.622253       -16.9324
  15   2.0000      -0.589388       -16.0381
  16   2.0000      -0.575789       -15.6680
  17   2.0000      -0.560165       -15.2429
  18   2.0000      -0.552978       -15.0473
  19   2.0000      -0.508068       -13.8252
  20   2.0000      -0.482553       -13.1309
  21   2.0000      -0.410776       -11.1778
  22   2.0000      -0.389796       -10.6069
  23   0.0000       0.029380         0.7995
  24   0.0000       0.041816         1.1379
  25   0.0000       0.043055         1.1716
  26   0.0000       0.050272         1.3680
  27   0.0000       0.065669         1.7870

MULLIKEN ATOMIC CHARGES
-----------------------
   0 C :    0.719607
   1 C :    0.170095
   2 C :    0.292617
   3 C :    0.914170
   4 N :   -0.466888
   5 O :   -0.799742
   6 H :   -0.045975
   7 H :   -0.027904
   8 H :   -0.162009
   9 H :   -0.072394
  10 H :   -0.158906
  11 H :   -0.196667
  12 H :   -0.166005
Sum of atomic charges:    0.0000000

LOEWDIN ATOMIC CHARGES
----------------------
   0 C :   -0.329614
   1 C :    0.065289
   2 C :    0.014845
   3 C :    0.019893
   4 N :    0.104584
   5 O :    0.009068
   6 H :    0.021645
   7 H :    0.025504
   8 H :    0.014690
   9 H :    0.011657
  10 H :    0.010907
  11 H :    0.012116
  12 H :    0.019414

  Mayer bond orders larger than 0.100000
B(  0-C ,  1-C ) :   0.9901 B(  0-C ,  4-N ) :   1.1138 B(  0-C ,  5-O ) :   1.3332
B(  1-C ,  2-C ) :   1.2765 B(  1-C ,  6-H ) :   0.7938 B(  1-C ,  7-H ) :   0.8458
B(  2-C ,  3-C ) :   1.2195 B(  2-C ,  8-H ) :   0.7949 B(  2-C ,  9-H ) :   0.8128
B(  3-C ,  4-N ) :   0.7634 B(  3-C , 10-H ) :   0.8863 B(  3-C , 11-H ) :   0.7755
B(  3-C , 12-H ) :  -0.1037 B(  4-N , 12-H ) :   1.1951 B(  6-H ,  7-H ) :  -0.1064
B(  8-H ,  9-H ) :  -0.1144

MP2 TOTAL ENERGY:     -285.848782951 Eh
FINAL SINGLE POINT ENERGY      -285.848782950827

DIPOLE MOMENT
-------------
                                X             Y             Z
Electronic contribution:     -4.77613      -1.34880      -0.23501
Nuclear contribution   :      6.57686       1.16418       0.38421
                        -----------------------------------------
Total Dipole Moment    :      1.80072      -0.18462       0.14920
                        -----------------------------------------
Magnitude (a.u.)       :      1.81630
Magnitude (Debye)      :      4.61667

Rotational constants in cm-1:     0.240045     0.115131     0.082271
Rotational constants in MHz :  7196.363915  3451.549469  2466.409291

                             ****ORCA TERMINATED NORMALLY****
TOTAL RUN TIME: 0 days 0 hours 0 minutes 44 seconds 859 msec
