                         Program Version 5.0.3 -  RELEASE  -
|  1> !ri-mp2 aug-cc-pvdz aug-cc-pvdz/c tightscf
|  2> %pal nprocs 16 end
|  3> %maxcore 3800
|  4>
|  5> * xyz 0 1
|  6> N     -1.339042    1.450654   -0.784825
|  7> C     -1.389756    0.054525   -0.330039
|  8> C     -2.841838   -0.324033    0.031390
|  9> O     -3.133850   -1.336349    0.609477
| 10> O     -3.754709    0.560078   -0.391499
| 11> H     -3.240979    1.282550   -0.814313
| 12> C     -0.428785   -0.303489    0.819231
| 13> C      1.025254   -0.197841    0.432381
| 14> C      1.621881   -1.185950   -0.355385
| 15> C      2.953581   -1.088667   -0.737089
| 16> C      3.718469    0.001996   -0.335343
| 17> C      3.141002    0.988624    0.453392
| 18> C      1.805840    0.886727    0.832293
| 19> H     -1.147606   -0.573924   -1.190629
| 20> H     -0.639640    0.355030    1.665991
| 21> H     -0.667999   -1.315484    1.143917
| 22> H      1.040607   -2.046855   -0.662923
| 23> H      3.397501   -1.868361   -1.341580
| 24> H      4.756749    0.076482   -0.628637
| 25> H      3.729078    1.836137    0.779435
| 26> H      1.370663    1.654866    1.459995
| 27> H     -1.109294    2.078090   -0.023130
| 28> H     -0.641205    1.585711   -1.503173
| 29> *
| 30>
| 31>                          ****END OF INPUT****

CARTESIAN COORDINATES (ANGSTROEM)
---------------------------------
  N     -1.339042    1.450654   -0.784825
  C     -1.389756    0.054525   -0.330039
  C     -2.841838   -0.324033    0.031390
  O     -3.133850   -1.336349    0.609477
  O     -3.754709    0.560078   -0.391499
  H     -3.240979    1.282550   -0.814313
  C     -0.428785   -0.303489    0.819231
  C      1.025254   -0.197841    0.432381
  C      1.621881   -1.185950   -0.355385
  C      2.953581   -1.088667   -0.737089
  C      3.718469    0.001996   -0.335343
  C      3.141002    0.988624    0.453392
  C      1.805840    0.886727    0.832293
  H     -1.147606   -0.573924   -1.190629
  H     -0.639640    0.355030    1.665991
  H     -0.667999   -1.315484    1.143917
  H      1.040607   -2.046855   -0.662923
  H      3.397501   -1.868361   -1.341580
  H      4.756749    0.076482   -0.628637
  H      3.729078    1.836137    0.779435
  H      1.370663    1.654866    1.459995
  H     -1.109294    2.078090   -0.023130
  H     -0.641205    1.585711   -1.503173

 Total Charge           Charge          ....    0
 Multiplicity           Mult            ....    1
 Number of Electrons    NEL             ....   88
 Basis Dimension        Dim             ....  375

ORBITAL ENERGIES
----------------

  NO   OCC          E(Eh)            E(eV)
   0   2.0000     -20.605745      -560.7108
   1   2.0000     -20.547751      -559.1327
   2   2.0000     -15.591218      -424.2586
   3   2.0000     -11.384852      -309.7976
   4   2.0000     -11.301656      -307.5337
   5   2.0000     -11.260131      -306.4037
   6   2.0000     -11.253160      -306.2140
   7   2.0000     -11.253021      -306.2103
   8   2.0000     -11.252688      -306.2012
   9   2.0000     -11.250653      -306.1458
  10   2.0000     -11.249464      -306.1135
  11   2.0000     -11.249119      -306.1041
  12   2.0000      -1.456589       -39.6358
  13   2.0000      -1.361504       -37.0484
  14   2.0000      -1.227338       -33.3976
  15   2.0000      -1.171533       -31.8790
  16   2.0000      -1.073292       -29.2058
  17   2.0000      -1.030412       -28.0389
  18   2.0000      -1.000786       -27.2328
  19   2.0000      -0.909292       -24.7431
  20   2.0000      -0.843132       -22.9428
  21   2.0000      -0.817170       -22.2363
  22   2.0000      -0.802973       -21.8500
  23   2.0000      -0.744489       -20.2586
  24   2.0000      -0.710399       -19.3309
  25   2.0000      -0.692425       -18.8418
  26   2.0000      -0.667920       -18.1750
  27   2.0000      -0.651119       -17.7179
  28   2.0000      -0.646973       -17.6050
  29   2.0000      -0.625869       -17.0308
  30   2.0000      -0.613331       -16.6896
  31   2.0000      -0.599365       -16.3095
  32   2.0000      -0.591089       -16.0843
  33   2.0000      -0.574352       -15.6289
  34   2.0000      -0.554397       -15.0859
  35   2.0000      -0.529123       -14.3982
  36   2.0000      -0.507951       -13.8220
  37   2.0000      -0.500113       -13.6088
  38   2.0000      -0.498667       -13.5694
  39   2.0000      -0.467336       -12.7169
  40   2.0000      -0.463187       -12.6040
  41   2.0000      -0.421524       -11.4702
  42   2.0000      -0.349997        -9.5239
  43   2.0000      -0.341188        -9.2842
  44   0.0000       0.025218         0.6862
  45   0.0000       0.033630         0.9151
  46   0.0000       0.038045         1.0353
  47   0.0000       0.044676         1.2157
  48   0.0000       0.051304         1.3960

MULLIKEN ATOMIC CHARGES
-----------------------
   0 N :   -0.573143
   1 C :   -0.176343
   2 C :    1.301875
   3 O :   -0.766726
   4 O :   -0.703405
   5 H :    0.283828
   6 C :    0.516680
   7 C :    1.281766
   8 C :    0.482234
   9 C :    0.052759
  10 C :    0.612565
  11 C :    0.210224
  12 C :    0.446045
  13 H :   -0.036275
  14 H :   -0.191055
  15 H :   -0.196251
  16 H :   -0.660592
  17 H :   -0.466018
  18 H :   -0.443819
  19 H :   -0.466741
  20 H :   -0.650967
  21 H :    0.068624
  22 H :    0.074734
Sum of atomic charges:   -0.0000000

LOEWDIN ATOMIC CHARGES
----------------------
   0 N :    0.227212
   1 C :   -0.149464
   2 C :   -0.309465
   3 O :    0.048188
   4 O :    0.214152
   5 H :   -0.092670
   6 C :    0.046125
   7 C :   -0.176754
   8 C :    0.046614
   9 C :    0.013446
  10 C :    0.007731
  11 C :    0.011445
  12 C :    0.039114
  13 H :    0.051379
  14 H :    0.028426
  15 H :    0.024474
  16 H :    0.011321
  17 H :    0.002189
  18 H :   -0.000222
  19 H :    0.001201
  20 H :    0.004266
  21 H :   -0.023222
  22 H :   -0.025486

  Mayer bond orders larger than 0.100000
B(  0-N ,  1-C ) :   0.6435 B(  0-N , 21-H ) :   1.1077 B(  0-N , 22-H ) :   1.0325
B(  1-C ,  2-C ) :   1.0338 B(  1-C ,  4-O ) :   0.2059 B(  1-C ,  6-C ) :   1.1069
B(  1-C ,  7-C ) :  -0.1696 B(  1-C , 13-H ) :   0.9173 B(  1-C , 14-H ) :   0.1980
B(  2-C ,  3-O ) :   1.4596 B(  2-C ,  4-O ) :   0.4048 B(  4-O ,  5-H ) :   0.9382
B(  6-C ,  7-C ) :   1.5529 B(  6-C ,  8-C ) :  -0.5894 B(  6-C ,  9-C ) :   0.3568
B(  6-C , 11-C ) :   0.3012 B(  6-C , 12-C ) :  -0.4126 B(  6-C , 14-H ) :   0.6286
B(  6-C , 15-H ) :   0.8242 B(  7-C ,  8-C ) :   1.7553 B(  7-C ,  9-C ) :  -0.5044
B(  7-C , 10-C ) :   0.3108 B(  7-C , 11-C ) :  -0.4378 B(  7-C , 12-C ) :   1.6866
B(  7-C , 16-H ) :   0.5221 B(  7-C , 20-H ) :   0.6083 B(  8-C ,  9-C ) :   1.9895
B(  8-C , 10-C ) :  -0.1434 B(  8-C , 11-C ) :   0.1243 B(  8-C , 12-C ) :  -0.7789
B(  8-C , 16-H ) :  -0.2957 B(  8-C , 17-H ) :   0.4179 B(  9-C , 10-C ) :   1.7927
B(  9-C , 16-H ) :   0.4325 B(  9-C , 17-H ) :   0.1866 B(  9-C , 18-H ) :   0.2484
B( 10-C , 11-C ) :   1.7937 B( 10-C , 17-H ) :   0.1402 B( 10-C , 18-H ) :   0.2411
B( 10-C , 19-H ) :   0.1431 B( 10-C , 20-H ) :  -0.1023 B( 11-C , 12-C ) :   1.7572
B( 11-C , 17-H ) :  -0.1072 B( 11-C , 18-H ) :   0.2542 B( 11-C , 19-H ) :   0.2204
B( 11-C , 20-H ) :   0.2998 B( 12-C , 16-H ) :  -0.1104 B( 12-C , 19-H ) :   0.3619
B( 12-C , 20-H ) :  -0.3341

MP2 TOTAL ENERGY:     -553.298099415 Eh
FINAL SINGLE POINT ENERGY      -553.298099414971

DIPOLE MOMENT
-------------
                                X             Y             Z
Electronic contribution:     -4.90819      -1.89025       0.51402
Nuclear contribution   :      6.73462       3.06197      -1.11675
                        -----------------------------------------
Total Dipole Moment    :      1.82643       1.17172      -0.60273
                        -----------------------------------------
Magnitude (a.u.)       :      2.25212
Magnitude (Debye)      :      5.72444

Rotational constants in cm-1:     0.082009     0.014903     0.013914
Rotational constants in MHz :  2458.576575   446.794215   417.120275

                             ****ORCA TERMINATED NORMALLY****
TOTAL RUN TIME: 0 days 0 hours 2 minutes 35 seconds 855 msec
