                         Program Version 5.0.3 -  RELEASE  -
|  1> !ri-mp2 aug-cc-pvdz aug-cc-pvdz/c tightscf
|  2> %pal nprocs 16 end
|  3>
|  4> * xyz 0 1
|  5> O     -1.140757    1.067901   -0.000039
|  6> O     -1.122638   -1.159311   -0.000036
|  7> C     -0.509953   -0.131001   -0.000019
|  8> C      0.939527   -0.050347    0.000023
|  9> C      2.137587    0.000371    0.000080
| 10> H     -0.495557    1.786680   -0.000024
| 11> H      3.199749    0.030461    0.000128
| 12> *
| 13>
| 14>                          ****END OF INPUT****

CARTESIAN COORDINATES (ANGSTROEM)
---------------------------------
  O     -1.140757    1.067901   -0.000039
  O     -1.122638   -1.159311   -0.000036
  C     -0.509953   -0.131001   -0.000019
  C      0.939527   -0.050347    0.000023
  C      2.137587    0.000371    0.000080
  H     -0.495557    1.786680   -0.000024
  H      3.199749    0.030461    0.000128

 Total Charge           Charge          ....    0
 Multiplicity           Mult            ....    1
 Number of Electrons    NEL             ....   36
 Basis Dimension        Dim             ....  133

ORBITAL ENERGIES
----------------

  NO   OCC          E(Eh)            E(eV)
   0   2.0000     -20.641256      -561.6771
   1   2.0000     -20.580384      -560.0207
   2   2.0000     -11.434765      -311.1558
   3   2.0000     -11.295429      -307.3643
   4   2.0000     -11.284730      -307.0731
   5   2.0000      -1.486215       -40.4420
   6   2.0000      -1.392539       -37.8929
   7   2.0000      -1.088207       -29.6116
   8   2.0000      -0.917600       -24.9692
   9   2.0000      -0.827421       -22.5153
  10   2.0000      -0.749308       -20.3897
  11   2.0000      -0.684900       -18.6371
  12   2.0000      -0.652238       -17.7483
  13   2.0000      -0.620353       -16.8807
  14   2.0000      -0.506514       -13.7830
  15   2.0000      -0.493584       -13.4311
  16   2.0000      -0.443797       -12.0763
  17   2.0000      -0.442693       -12.0463
  18   0.0000       0.025051         0.6817
  19   0.0000       0.040187         1.0936
  20   0.0000       0.068561         1.8656
  21   0.0000       0.084749         2.3061
  22   0.0000       0.095737         2.6051

MULLIKEN ATOMIC CHARGES
-----------------------
   0 O :   -0.653845
   1 O :   -0.674261
   2 C :    1.135274
   3 C :   -0.313552
   4 C :    0.720520
   5 H :    0.217149
   6 H :   -0.431285
Sum of atomic charges:    0.0000000

LOEWDIN ATOMIC CHARGES
----------------------
   0 O :    0.210035
   1 O :    0.073534
   2 C :   -0.396477
   3 C :   -0.015825
   4 C :    0.249358
   5 H :   -0.033426
   6 H :   -0.087199

  Mayer bond orders larger than 0.100000
B(  0-O ,  2-C ) :   0.4758 B(  0-O ,  3-C ) :   0.1508 B(  0-O ,  5-H ) :   0.9841
B(  1-O ,  2-C ) :   1.5430 B(  2-C ,  3-C ) :   1.0183 B(  2-C ,  4-C ) :   0.1043
B(  3-C ,  4-C ) :   2.8100 B(  3-C ,  6-H ) :   0.1753 B(  4-C ,  6-H ) :   0.2971

MP2 TOTAL ENERGY:     -265.240935228 Eh
FINAL SINGLE POINT ENERGY      -265.240935227698

DIPOLE MOMENT
-------------
                                X             Y             Z
Electronic contribution:     -1.02260      -0.61416      -0.00005
Nuclear contribution   :      2.57570       1.75255       0.00010
                        -----------------------------------------
Total Dipole Moment    :      1.55310       1.13839       0.00005
                        -----------------------------------------
Magnitude (a.u.)       :      1.92562
Magnitude (Debye)      :      4.89455

Rotational constants in cm-1:     0.390673     0.140404     0.103285
Rotational constants in MHz : 11712.069850  4209.212230  3096.395592

                             ****ORCA TERMINATED NORMALLY****
TOTAL RUN TIME: 0 days 0 hours 0 minutes 39 seconds 687 msec
