                         Program Version 5.0.3 -  RELEASE  -
|  1> !ri-mp2 aug-cc-pvdz aug-cc-pvdz/c tightscf
|  2> %pal nprocs 16 end
|  3>
|  4> * xyz 0 1
|  5> C      0.968305   -1.191866   -0.005659
|  6> C      1.297498    1.177941   -0.005925
|  7> C     -0.412677   -1.004932   -0.001215
|  8> C     -0.072135    1.370804   -0.000176
|  9> C      1.845461   -0.110566   -0.007083
| 10> C     -0.943492    0.281050    0.001739
| 11> C     -3.203619   -0.496341    0.002648
| 12> N      3.234655   -0.299516   -0.075261
| 13> O     -2.281512    0.577362    0.007741
| 14> H      1.361714   -2.200914   -0.013324
| 15> H      1.955088    2.038508   -0.014741
| 16> H     -1.054456   -1.872710    0.000780
| 17> H     -0.487426    2.369078    0.002544
| 18> H     -3.093299   -1.125308    0.890843
| 19> H     -3.093184   -1.116539   -0.891616
| 20> H     -4.192458   -0.045145    0.004971
| 21> H      3.556642   -1.185853    0.280103
| 22> H      3.780840    0.460055    0.299362
| 23> *
| 24>
| 25>                          ****END OF INPUT****

CARTESIAN COORDINATES (ANGSTROEM)
---------------------------------
  C      0.968305   -1.191866   -0.005659
  C      1.297498    1.177941   -0.005925
  C     -0.412677   -1.004932   -0.001215
  C     -0.072135    1.370804   -0.000176
  C      1.845461   -0.110566   -0.007083
  C     -0.943492    0.281050    0.001739
  C     -3.203619   -0.496341    0.002648
  N      3.234655   -0.299516   -0.075261
  O     -2.281512    0.577362    0.007741
  H      1.361714   -2.200914   -0.013324
  H      1.955088    2.038508   -0.014741
  H     -1.054456   -1.872710    0.000780
  H     -0.487426    2.369078    0.002544
  H     -3.093299   -1.125308    0.890843
  H     -3.093184   -1.116539   -0.891616
  H     -4.192458   -0.045145    0.004971
  H      3.556642   -1.185853    0.280103
  H      3.780840    0.460055    0.299362

 Total Charge           Charge          ....    0
 Multiplicity           Mult            ....    1
 Number of Electrons    NEL             ....   66
 Basis Dimension        Dim             ....  288

ORBITAL ENERGIES
----------------

  NO   OCC          E(Eh)            E(eV)
   0   2.0000     -20.584445      -560.1312
   1   2.0000     -15.568054      -423.6283
   2   2.0000     -11.289846      -307.2123
   3   2.0000     -11.286093      -307.1102
   4   2.0000     -11.273573      -306.7695
   5   2.0000     -11.235951      -305.7458
   6   2.0000     -11.233696      -305.6844
   7   2.0000     -11.232322      -305.6470
   8   2.0000     -11.232134      -305.6419
   9   2.0000      -1.402436       -38.1622
  10   2.0000      -1.221146       -33.2291
  11   2.0000      -1.127693       -30.6861
  12   2.0000      -1.019942       -27.7540
  13   2.0000      -0.997735       -27.1497
  14   2.0000      -0.931111       -25.3368
  15   2.0000      -0.840520       -22.8717
  16   2.0000      -0.802297       -21.8316
  17   2.0000      -0.716397       -19.4942
  18   2.0000      -0.695819       -18.9342
  19   2.0000      -0.677819       -18.4444
  20   2.0000      -0.647619       -17.6226
  21   2.0000      -0.630693       -17.1620
  22   2.0000      -0.617018       -16.7899
  23   2.0000      -0.586367       -15.9559
  24   2.0000      -0.566987       -15.4285
  25   2.0000      -0.552297       -15.0288
  26   2.0000      -0.531931       -14.4746
  27   2.0000      -0.512748       -13.9526
  28   2.0000      -0.495318       -13.4783
  29   2.0000      -0.476886       -12.9767
  30   2.0000      -0.424516       -11.5517
  31   2.0000      -0.339297        -9.2327
  32   2.0000      -0.277292        -7.5455
  33   0.0000       0.032811         0.8928
  34   0.0000       0.038230         1.0403
  35   0.0000       0.042234         1.1492
  36   0.0000       0.054503         1.4831
  37   0.0000       0.056474         1.5367

MULLIKEN ATOMIC CHARGES
-----------------------
   0 C :    0.760730
   1 C :    0.991476
   2 C :    0.475454
   3 C :    0.516469
   4 C :    0.048478
   5 C :    0.936470
   6 C :    0.844267
   7 N :   -0.412798
   8 O :   -1.096475
   9 H :   -0.577635
  10 H :   -0.586106
  11 H :   -0.778612
  12 H :   -0.556417
  13 H :   -0.074687
  14 H :   -0.074175
  15 H :   -0.321674
  16 H :   -0.049423
  17 H :   -0.045341
Sum of atomic charges:   -0.0000000

LOEWDIN ATOMIC CHARGES
----------------------
   0 C :    0.047193
   1 C :    0.050376
   2 C :    0.037127
   3 C :    0.051079
   4 C :   -0.245494
   5 C :   -0.214135
   6 C :    0.144742
   7 N :    0.231835
   8 O :    0.024426
   9 H :    0.001893
  10 H :    0.003684
  11 H :   -0.011684
  12 H :    0.010065
  13 H :   -0.017573
  14 H :   -0.017253
  15 H :   -0.024341
  16 H :   -0.035772
  17 H :   -0.036168

  Mayer bond orders larger than 0.100000
B(  0-C ,  1-C ) :  -0.1225 B(  0-C ,  2-C ) :   1.8967 B(  0-C ,  3-C ) :   0.2823
B(  0-C ,  4-C ) :   1.7518 B(  0-C ,  5-C ) :  -0.2423 B(  0-C ,  6-C ) :   0.1179
B(  0-C ,  9-H ) :  -0.3467 B(  0-C , 11-H ) :   0.4155 B(  1-C ,  2-C ) :   0.3742
B(  1-C ,  3-C ) :   1.9763 B(  1-C ,  4-C ) :   1.5219 B(  1-C ,  5-C ) :  -0.1811
B(  1-C , 10-H ) :  -0.3678 B(  1-C , 11-H ) :   0.1123 B(  1-C , 12-H ) :   0.2733
B(  2-C ,  3-C ) :  -0.1405 B(  2-C ,  5-C ) :   1.3528 B(  2-C ,  8-O ) :   0.1456
B(  2-C ,  9-H ) :   0.3985 B(  2-C , 11-H ) :  -0.3638 B(  3-C ,  4-C ) :  -0.1889
B(  3-C ,  5-C ) :   2.0331 B(  3-C ,  6-C ) :  -0.1050 B(  3-C ,  8-O ) :   0.1263
B(  3-C , 10-H ) :   0.1849 B(  3-C , 12-H ) :  -0.3610 B(  4-C ,  5-C ) :   0.2012
B(  4-C ,  7-N ) :   0.7662 B(  4-C ,  9-H ) :   0.6639 B(  4-C , 10-H ) :   0.8613
B(  4-C , 11-H ) :  -0.1697 B(  4-C , 12-H ) :  -0.1661 B(  5-C ,  8-O ) :  -0.2258
B(  5-C , 10-H ) :  -0.2047 B(  5-C , 11-H ) :   0.4941 B(  5-C , 12-H ) :   0.7823
B(  6-C ,  8-O ) :   0.7475 B(  6-C , 13-H ) :   0.9724 B(  6-C , 14-H ) :   0.9717
B(  6-C , 15-H ) :   1.0044 B(  7-N , 16-H ) :   1.1093 B(  7-N , 17-H ) :   1.1167
B( 13-H , 15-H ) :  -0.1020 B( 14-H , 15-H ) :  -0.1029

MP2 TOTAL ENERGY:     -400.997785035 Eh
FINAL SINGLE POINT ENERGY      -400.997785035121

DIPOLE MOMENT
-------------
                                X             Y             Z
Electronic contribution:      1.47242       2.18422      -0.15771
Nuclear contribution   :     -1.29183      -2.68879       0.56222
                        -----------------------------------------
Total Dipole Moment    :      0.18058      -0.50457       0.40451
                        -----------------------------------------
Magnitude (a.u.)       :      0.67144
Magnitude (Debye)      :      1.70667

Rotational constants in cm-1:     0.163371     0.032959     0.027591
Rotational constants in MHz :  4897.743129   988.071284   827.157882

                             ****ORCA TERMINATED NORMALLY****
TOTAL RUN TIME: 0 days 0 hours 1 minutes 44 seconds 838 msec
