                         Program Version 5.0.3 -  RELEASE  -
|  1> !ri-mp2 aug-cc-pvdz aug-cc-pvdz/c tightscf
|  2> %pal nprocs 16 end
|  3>
|  4> * xyz 0 1
|  5> C     -1.391545    0.000201   -0.000002
|  6> C     -2.595600    0.000392   -0.000004
|  7> C      2.836362   -0.000147    0.000002
|  8> C      2.137248    1.202242    0.000001
|  9> C      2.137077   -1.202403    0.000001
| 10> C      0.750328    1.206082   -0.000001
| 11> C      0.750116   -1.206050   -0.000001
| 12> C      0.034638    0.000067   -0.000002
| 13> C     -4.050167   -0.000024    0.000003
| 14> H      3.918041   -0.000216    0.000003
| 15> H      2.674572    2.141336    0.000001
| 16> H      2.674269   -2.141571    0.000002
| 17> H      0.206696    2.140516   -0.000001
| 18> H      0.206275   -2.140361   -0.000001
| 19> H     -4.443661   -0.509666    0.881896
| 20> H     -4.443259    1.018099   -0.000365
| 21> H     -4.443669   -0.510309   -0.881514
| 22> *
| 23>
| 24>                          ****END OF INPUT****

CARTESIAN COORDINATES (ANGSTROEM)
---------------------------------
  C     -1.391545    0.000201   -0.000002
  C     -2.595600    0.000392   -0.000004
  C      2.836362   -0.000147    0.000002
  C      2.137248    1.202242    0.000001
  C      2.137077   -1.202403    0.000001
  C      0.750328    1.206082   -0.000001
  C      0.750116   -1.206050   -0.000001
  C      0.034638    0.000067   -0.000002
  C     -4.050167   -0.000024    0.000003
  H      3.918041   -0.000216    0.000003
  H      2.674572    2.141336    0.000001
  H      2.674269   -2.141571    0.000002
  H      0.206696    2.140516   -0.000001
  H      0.206275   -2.140361   -0.000001
  H     -4.443661   -0.509666    0.881896
  H     -4.443259    1.018099   -0.000365
  H     -4.443669   -0.510309   -0.881514

 Total Charge           Charge          ....    0
 Multiplicity           Mult            ....    1
 Number of Electrons    NEL             ....   62
 Basis Dimension        Dim             ....  279

ORBITAL ENERGIES
----------------

  NO   OCC          E(Eh)            E(eV)
   0   2.0000     -11.264383      -306.5194
   1   2.0000     -11.254904      -306.2615
   2   2.0000     -11.245288      -305.9999
   3   2.0000     -11.245282      -305.9997
   4   2.0000     -11.244407      -305.9759
   5   2.0000     -11.242762      -305.9311
   6   2.0000     -11.242347      -305.9198
   7   2.0000     -11.236498      -305.7607
   8   2.0000     -11.228048      -305.5307
   9   2.0000      -1.165679       -31.7197
  10   2.0000      -1.073521       -29.2120
  11   2.0000      -1.030120       -28.0310
  12   2.0000      -1.023105       -27.8401
  13   2.0000      -0.951682       -25.8966
  14   2.0000      -0.843812       -22.9613
  15   2.0000      -0.832949       -22.6657
  16   2.0000      -0.731371       -19.9016
  17   2.0000      -0.671870       -18.2825
  18   2.0000      -0.634075       -17.2541
  19   2.0000      -0.630784       -17.1645
  20   2.0000      -0.602497       -16.3948
  21   2.0000      -0.591757       -16.1025
  22   2.0000      -0.588666       -16.0184
  23   2.0000      -0.587687       -15.9918
  24   2.0000      -0.518076       -14.0976
  25   2.0000      -0.513632       -13.9766
  26   2.0000      -0.499827       -13.6010
  27   2.0000      -0.415048       -11.2940
  28   2.0000      -0.376997       -10.2586
  29   2.0000      -0.341451        -9.2914
  30   2.0000      -0.309005        -8.4085
  31   0.0000       0.034245         0.9319
  32   0.0000       0.035888         0.9766
  33   0.0000       0.042783         1.1642
  34   0.0000       0.051711         1.4071
  35   0.0000       0.055608         1.5132

MULLIKEN ATOMIC CHARGES
-----------------------
   0 C :    0.698863
   1 C :   -1.054058
   2 C :    0.259708
   3 C :    0.088110
   4 C :    0.123799
   5 C :    0.365391
   6 C :    0.401081
   7 C :    0.935757
   8 C :    0.335945
   9 H :   -0.443255
  10 H :   -0.458272
  11 H :   -0.456362
  12 H :   -0.567021
  13 H :   -0.564606
  14 H :    0.118814
  15 H :    0.097308
  16 H :    0.118797
Sum of atomic charges:    0.0000000

LOEWDIN ATOMIC CHARGES
----------------------
   0 C :    0.005746
   1 C :   -0.036368
   2 C :    0.009788
   3 C :    0.010242
   4 C :    0.010221
   5 C :    0.055096
   6 C :    0.055197
   7 C :   -0.222925
   8 C :    0.120231
   9 H :   -0.000429
  10 H :    0.000715
  11 H :    0.000712
  12 H :    0.009985
  13 H :    0.009920
  14 H :   -0.009305
  15 H :   -0.009523
  16 H :   -0.009306

  Mayer bond orders larger than 0.100000
B(  0-C ,  1-C ) :   2.5114 B(  0-C ,  5-C ) :  -0.4593 B(  0-C ,  6-C ) :  -0.4447
B(  0-C ,  7-C ) :   1.9839 B(  0-C ,  8-C ) :   0.2027 B(  0-C , 12-H ) :  -0.2629
B(  0-C , 13-H ) :  -0.2364 B(  1-C ,  2-C ) :  -0.1289 B(  1-C ,  3-C ) :   0.1002
B(  1-C ,  6-C ) :  -0.1503 B(  1-C ,  7-C ) :   0.6254 B(  1-C ,  8-C ) :   1.2262
B(  1-C , 12-H ) :   0.1177 B(  1-C , 13-H ) :   0.1003 B(  1-C , 14-H ) :   0.3265
B(  1-C , 15-H ) :   0.3321 B(  1-C , 16-H ) :   0.3265 B(  2-C ,  3-C ) :   1.9082
B(  2-C ,  4-C ) :   1.8998 B(  2-C ,  7-C ) :   0.2201 B(  2-C ,  9-H ) :   0.3237
B(  2-C , 10-H ) :   0.2460 B(  2-C , 11-H ) :   0.2472 B(  3-C ,  5-C ) :   2.0330
B(  3-C ,  6-C ) :   0.1179 B(  3-C ,  7-C ) :  -0.3580 B(  3-C ,  9-H ) :   0.2117
B(  3-C , 10-H ) :   0.2690 B(  3-C , 12-H ) :   0.4062 B(  4-C ,  5-C ) :   0.1333
B(  4-C ,  6-C ) :   2.0348 B(  4-C ,  7-C ) :  -0.3707 B(  4-C ,  9-H ) :   0.2087
B(  4-C , 11-H ) :   0.2697 B(  4-C , 13-H ) :   0.3930 B(  5-C ,  6-C ) :  -0.7490
B(  5-C ,  7-C ) :   1.6375 B(  5-C , 10-H ) :   0.2496 B(  6-C ,  7-C ) :   1.5894
B(  6-C , 11-H ) :   0.2484 B(  7-C ,  8-C ) :   0.1563 B(  7-C , 12-H ) :   0.5144
B(  7-C , 13-H ) :   0.4988 B(  8-C , 14-H ) :   0.7596 B(  8-C , 15-H ) :   0.7735
B(  8-C , 16-H ) :   0.7596

MP2 TOTAL ENERGY:     -346.664845108 Eh
FINAL SINGLE POINT ENERGY      -346.664845108488

DIPOLE MOMENT
-------------
                                X             Y             Z
Electronic contribution:      3.51387       0.00227      -0.00002
Nuclear contribution   :     -3.65946      -0.00218       0.00002
                        -----------------------------------------
Total Dipole Moment    :     -0.14559       0.00010       0.00000
                        -----------------------------------------
Magnitude (a.u.)       :      0.14559
Magnitude (Debye)      :      0.37006

Rotational constants in cm-1:     0.184669     0.027535     0.024069
Rotational constants in MHz :  5536.240898   825.474886   721.579014

                             ****ORCA TERMINATED NORMALLY****
TOTAL RUN TIME: 0 days 0 hours 1 minutes 39 seconds 619 msec
