                         Program Version 5.0.3 -  RELEASE  -
|  1> !ri-mp2 aug-cc-pvdz aug-cc-pvdz/c tightscf
|  2> %pal nprocs 16 end
|  3>
|  4> * xyz 0 1
|  5> C     0.000000     2.488837    0.088743
|  6> C     0.000000    -2.488837    0.088743
|  7> C     0.000000     1.264960   -0.705030
|  8> C     0.000000    -1.264960   -0.705030
|  9> C     0.000000     0.000000    0.168023
| 10> N     0.000000     3.444883    0.727024
| 11> N     0.000000    -3.444883    0.727024
| 12> H    -0.877475     1.279493   -1.355740
| 13> H     0.877475     1.279493   -1.355740
| 14> H     0.877475    -1.279493   -1.355740
| 15> H    -0.877475    -1.279493   -1.355740
| 16> H    -0.875721     0.000000    0.815966
| 17> H     0.875721     0.000000    0.815966
| 18> *
| 19>
| 20>                          ****END OF INPUT****

CARTESIAN COORDINATES (ANGSTROEM)
---------------------------------
  C      0.000000    2.488837    0.088743
  C      0.000000   -2.488837    0.088743
  C      0.000000    1.264960   -0.705030
  C      0.000000   -1.264960   -0.705030
  C      0.000000    0.000000    0.168023
  N      0.000000    3.444883    0.727024
  N      0.000000   -3.444883    0.727024
  H     -0.877475    1.279493   -1.355740
  H      0.877475    1.279493   -1.355740
  H      0.877475   -1.279493   -1.355740
  H     -0.877475   -1.279493   -1.355740
  H     -0.875721    0.000000    0.815966
  H      0.875721    0.000000    0.815966

 Total Charge           Charge          ....    0
 Multiplicity           Mult            ....    1
 Number of Electrons    NEL             ....   50
 Basis Dimension        Dim             ....  215

ORBITAL ENERGIES
----------------

  NO   OCC          E(Eh)            E(eV)
   0   2.0000     -15.593968      -424.3335
   1   2.0000     -15.593968      -424.3334
   2   2.0000     -11.312756      -307.8358
   3   2.0000     -11.312753      -307.8357
   4   2.0000     -11.296165      -307.3843
   5   2.0000     -11.296164      -307.3843
   6   2.0000     -11.292055      -307.2724
   7   2.0000      -1.242324       -33.8054
   8   2.0000      -1.240126       -33.7455
   9   2.0000      -1.141357       -31.0579
  10   2.0000      -1.047352       -28.4999
  11   2.0000      -0.902809       -24.5667
  12   2.0000      -0.750609       -20.4251
  13   2.0000      -0.709096       -19.2955
  14   2.0000      -0.688098       -18.7241
  15   2.0000      -0.635944       -17.3049
  16   2.0000      -0.618876       -16.8405
  17   2.0000      -0.577369       -15.7110
  18   2.0000      -0.563637       -15.3373
  19   2.0000      -0.561017       -15.2660
  20   2.0000      -0.550983       -14.9930
  21   2.0000      -0.482905       -13.1405
  22   2.0000      -0.475728       -12.9452
  23   2.0000      -0.472618       -12.8606
  24   2.0000      -0.466245       -12.6872
  25   0.0000       0.020317         0.5529
  26   0.0000       0.035130         0.9559
  27   0.0000       0.044719         1.2169
  28   0.0000       0.045735         1.2445
  29   0.0000       0.065699         1.7878

MULLIKEN ATOMIC CHARGES
-----------------------
   0 C :   -0.347382
   1 C :   -0.347382
   2 C :    0.870909
   3 C :    0.870909
   4 C :    0.121984
   5 N :   -0.295753
   6 N :   -0.295753
   7 H :   -0.044938
   8 H :   -0.044938
   9 H :   -0.044938
  10 H :   -0.044938
  11 H :   -0.198888
  12 H :   -0.198888
Sum of atomic charges:   -0.0000000

LOEWDIN ATOMIC CHARGES
----------------------
   0 C :   -0.140999
   1 C :   -0.140999
   2 C :   -0.025971
   3 C :   -0.025971
   4 C :   -0.004025
   5 N :    0.079337
   6 N :    0.079337
   7 H :    0.030450
   8 H :    0.030450
   9 H :    0.030450
  10 H :    0.030450
  11 H :    0.028744
  12 H :    0.028744

  Mayer bond orders larger than 0.100000
B(  0-C ,  2-C ) :   0.5984 B(  0-C ,  5-N ) :   2.6990 B(  1-C ,  3-C ) :   0.5984
B(  1-C ,  6-N ) :   2.6990 B(  2-C ,  4-C ) :   1.1982 B(  2-C ,  5-N ) :  -0.1235
B(  2-C ,  7-H ) :   0.7968 B(  2-C ,  8-H ) :   0.7968 B(  3-C ,  4-C ) :   1.1982
B(  3-C ,  6-N ) :  -0.1235 B(  3-C ,  9-H ) :   0.7968 B(  3-C , 10-H ) :   0.7968
B(  4-C , 11-H ) :   0.8385 B(  4-C , 12-H ) :   0.8385

MP2 TOTAL ENERGY:     -302.768682216 Eh
FINAL SINGLE POINT ENERGY      -302.768682216230

DIPOLE MOMENT
-------------
                                X             Y             Z
Electronic contribution:     -0.00000       0.00000       2.10501
Nuclear contribution   :      0.00000       0.00000      -3.77392
                        -----------------------------------------
Total Dipole Moment    :     -0.00000       0.00000      -1.66891
                        -----------------------------------------
Magnitude (a.u.)       :      1.66891
Magnitude (Debye)      :      4.24203

Rotational constants in cm-1:     0.415934     0.031751     0.029987
Rotational constants in MHz : 12469.394487   951.862507   898.986197

                             ****ORCA TERMINATED NORMALLY****
TOTAL RUN TIME: 0 days 0 hours 1 minutes 2 seconds 213 msec
