                         Program Version 5.0.3 -  RELEASE  -
|  1> !ri-mp2 aug-cc-pvdz aug-cc-pvdz/c tightscf
|  2> %pal nprocs 16 end
|  3>
|  4> * xyz 0 1
|  5> C      0.000000    0.000000    1.363040
|  6> C      0.000000    0.000000   -1.363040
|  7> C      0.000000    1.211776    0.695210
|  8> C      0.000000   -1.211776    0.695210
|  9> C      0.000000   -1.211776   -0.695210
| 10> C      0.000000    1.211776   -0.695210
| 11> F      0.000000    0.000000    2.715276
| 12> F      0.000000    0.000000   -2.715276
| 13> H      0.000000    2.134857    1.256229
| 14> H      0.000000   -2.134857    1.256229
| 15> H      0.000000   -2.134857   -1.256229
| 16> H      0.000000    2.134857   -1.256229
| 17> *
| 18>
| 19>                          ****END OF INPUT****

CARTESIAN COORDINATES (ANGSTROEM)
---------------------------------
  C      0.000000    0.000000    1.363040
  C      0.000000    0.000000   -1.363040
  C      0.000000    1.211776    0.695210
  C      0.000000   -1.211776    0.695210
  C      0.000000   -1.211776   -0.695210
  C      0.000000    1.211776   -0.695210
  F      0.000000    0.000000    2.715276
  F      0.000000    0.000000   -2.715276
  H      0.000000    2.134857    1.256229
  H      0.000000   -2.134857    1.256229
  H      0.000000   -2.134857   -1.256229
  H      0.000000    2.134857   -1.256229

 Total Charge           Charge          ....    0
 Multiplicity           Mult            ....    1
 Number of Electrons    NEL             ....   58
 Basis Dimension        Dim             ....  220

ORBITAL ENERGIES
----------------

  NO   OCC          E(Eh)            E(eV)
   0   2.0000     -26.328027      -716.4220
   1   2.0000     -26.328025      -716.4220
   2   2.0000     -11.342906      -308.6562
   3   2.0000     -11.342883      -308.6555
   4   2.0000     -11.268269      -306.6252
   5   2.0000     -11.268224      -306.6240
   6   2.0000     -11.267038      -306.5917
   7   2.0000     -11.267033      -306.5916
   8   2.0000      -1.636269       -44.5251
   9   2.0000      -1.636121       -44.5211
  10   2.0000      -1.186034       -32.2736
  11   2.0000      -1.056090       -28.7377
  12   2.0000      -1.036762       -28.2117
  13   2.0000      -0.887093       -24.1390
  14   2.0000      -0.860208       -23.4074
  15   2.0000      -0.760501       -20.6943
  16   2.0000      -0.750478       -20.4215
  17   2.0000      -0.740984       -20.1632
  18   2.0000      -0.701810       -19.0972
  19   2.0000      -0.696927       -18.9644
  20   2.0000      -0.667386       -18.1605
  21   2.0000      -0.644998       -17.5513
  22   2.0000      -0.624396       -16.9907
  23   2.0000      -0.597634       -16.2624
  24   2.0000      -0.589394       -16.0382
  25   2.0000      -0.524315       -14.2673
  26   2.0000      -0.519851       -14.1459
  27   2.0000      -0.368770       -10.0348
  28   2.0000      -0.346947        -9.4409
  29   0.0000       0.034813         0.9473
  30   0.0000       0.038351         1.0436
  31   0.0000       0.046799         1.2735
  32   0.0000       0.057543         1.5658
  33   0.0000       0.085613         2.3297

MULLIKEN ATOMIC CHARGES
-----------------------
   0 C :    0.776949
   1 C :    0.776949
   2 C :    0.399234
   3 C :    0.399234
   4 C :    0.399234
   5 C :    0.399234
   6 F :   -0.800280
   7 F :   -0.800280
   8 H :   -0.387568
   9 H :   -0.387568
  10 H :   -0.387568
  11 H :   -0.387568
Sum of atomic charges:    0.0000000

LOEWDIN ATOMIC CHARGES
----------------------
   0 C :   -0.195819
   1 C :   -0.195819
   2 C :    0.056855
   3 C :    0.056855
   4 C :    0.056855
   5 C :    0.056855
   6 F :    0.056028
   7 F :    0.056028
   8 H :    0.013041
   9 H :    0.013041
  10 H :    0.013041
  11 H :    0.013041

  Mayer bond orders larger than 0.100000
B(  0-C ,  2-C ) :   1.5358 B(  0-C ,  3-C ) :   1.5358 B(  0-C ,  6-F ) :  -0.4000
B(  0-C ,  8-H ) :   0.2392 B(  0-C ,  9-H ) :   0.2392 B(  1-C ,  4-C ) :   1.5358
B(  1-C ,  5-C ) :   1.5358 B(  1-C ,  7-F ) :  -0.4000 B(  1-C , 10-H ) :   0.2392
B(  1-C , 11-H ) :   0.2392 B(  2-C ,  4-C ) :   0.2326 B(  2-C ,  5-C ) :   1.8887
B(  2-C ,  6-F ) :   0.2711 B(  2-C ,  8-H ) :   0.4502 B(  3-C ,  4-C ) :   1.8887
B(  3-C ,  5-C ) :   0.2326 B(  3-C ,  6-F ) :   0.2711 B(  3-C ,  9-H ) :   0.4502
B(  4-C ,  7-F ) :   0.2711 B(  4-C , 10-H ) :   0.4502 B(  5-C ,  7-F ) :   0.2711
B(  5-C , 11-H ) :   0.4502

MP2 TOTAL ENERGY:     -429.653804094 Eh
FINAL SINGLE POINT ENERGY      -429.653804093536

DIPOLE MOMENT
-------------
                                X             Y             Z
Electronic contribution:      0.00000      -0.00000       0.00000
Nuclear contribution   :      0.00000       0.00000       0.00000
                        -----------------------------------------
Total Dipole Moment    :      0.00000      -0.00000       0.00000
                        -----------------------------------------
Magnitude (a.u.)       :      0.00000
Magnitude (Debye)      :      0.00000

Rotational constants in cm-1:     0.189573     0.047574     0.038030
Rotational constants in MHz :  5683.263867  1426.226085  1140.112614

                             ****ORCA TERMINATED NORMALLY****
TOTAL RUN TIME: 0 days 0 hours 0 minutes 46 seconds 414 msec
