                         Program Version 5.0.3 -  RELEASE  -
|  1> !ri-mp2 aug-cc-pvdz aug-cc-pvdz/c tightscf
|  2> %pal nprocs 16 end
|  3>
|  4> * xyz 0 1
|  5> C     -0.013757   -1.316234    0.197329
|  6> C      0.083647    1.251840    0.325748
|  7> C      0.646705   -0.029651   -0.312805
|  8> N     -1.467041   -1.338650   -0.018105
|  9> N     -1.231706    1.613642   -0.202973
| 10> N      2.093096   -0.186523   -0.116420
| 11> H      0.508805   -2.160172   -0.265080
| 12> H      0.158200   -1.387214    1.276005
| 13> H      0.104816    1.127108    1.421032
| 14> H      0.771050    2.067989    0.090551
| 15> H      0.474190    0.042447   -1.391124
| 16> H     -1.874954   -2.159342    0.411086
| 17> H     -1.678612   -1.389398   -1.008104
| 18> H     -1.536048    2.505919    0.164381
| 19> H     -1.910296    0.908416    0.058611
| 20> H      2.324036   -0.198746    0.871269
| 21> H      2.598800    0.587978   -0.527778
| 22> *
| 23>
| 24>                          ****END OF INPUT****

CARTESIAN COORDINATES (ANGSTROEM)
---------------------------------
  C     -0.013757   -1.316234    0.197329
  C      0.083647    1.251840    0.325748
  C      0.646705   -0.029651   -0.312805
  N     -1.467041   -1.338650   -0.018105
  N     -1.231706    1.613642   -0.202973
  N      2.093096   -0.186523   -0.116420
  H      0.508805   -2.160172   -0.265080
  H      0.158200   -1.387214    1.276005
  H      0.104816    1.127108    1.421032
  H      0.771050    2.067989    0.090551
  H      0.474190    0.042447   -1.391124
  H     -1.874954   -2.159342    0.411086
  H     -1.678612   -1.389398   -1.008104
  H     -1.536048    2.505919    0.164381
  H     -1.910296    0.908416    0.058611
  H      2.324036   -0.198746    0.871269
  H      2.598800    0.587978   -0.527778

 Total Charge           Charge          ....    0
 Multiplicity           Mult            ....    1
 Number of Electrons    NEL             ....   50
 Basis Dimension        Dim             ....  237

ORBITAL ENERGIES
----------------

  NO   OCC          E(Eh)            E(eV)
   0   2.0000     -15.551682      -423.1828
   1   2.0000     -15.546358      -423.0379
   2   2.0000     -15.531529      -422.6344
   3   2.0000     -11.253137      -306.2134
   4   2.0000     -11.251456      -306.1677
   5   2.0000     -11.245207      -305.9976
   6   2.0000      -1.205280       -32.7973
   7   2.0000      -1.165717       -31.7208
   8   2.0000      -1.153905       -31.3994
   9   2.0000      -0.968307       -26.3490
  10   2.0000      -0.886832       -24.1319
  11   2.0000      -0.785602       -21.3773
  12   2.0000      -0.675644       -18.3852
  13   2.0000      -0.662832       -18.0366
  14   2.0000      -0.656334       -17.8598
  15   2.0000      -0.607122       -16.5206
  16   2.0000      -0.603925       -16.4336
  17   2.0000      -0.559393       -15.2219
  18   2.0000      -0.548560       -14.9271
  19   2.0000      -0.538106       -14.6426
  20   2.0000      -0.496015       -13.4972
  21   2.0000      -0.469740       -12.7823
  22   2.0000      -0.399118       -10.8605
  23   2.0000      -0.388340       -10.5673
  24   2.0000      -0.370461       -10.0808
  25   0.0000       0.035805         0.9743
  26   0.0000       0.041450         1.1279
  27   0.0000       0.047051         1.2803
  28   0.0000       0.048769         1.3271
  29   0.0000       0.065649         1.7864

MULLIKEN ATOMIC CHARGES
-----------------------
   0 C :    1.052578
   1 C :    0.985708
   2 C :   -0.242964
   3 N :   -0.510116
   4 N :   -0.373468
   5 N :   -0.395036
   6 H :   -0.029288
   7 H :   -0.163351
   8 H :   -0.060540
   9 H :   -0.122772
  10 H :   -0.198231
  11 H :   -0.021789
  12 H :    0.042524
  13 H :   -0.034150
  14 H :    0.078733
  15 H :    0.037024
  16 H :   -0.044863
Sum of atomic charges:    0.0000000

LOEWDIN ATOMIC CHARGES
----------------------
   0 C :   -0.037267
   1 C :   -0.044612
   2 C :   -0.245766
   3 N :    0.192939
   4 N :    0.184343
   5 N :    0.200849
   6 H :    0.009787
   7 H :    0.013327
   8 H :    0.012106
   9 H :    0.006413
  10 H :    0.039946
  11 H :   -0.050202
  12 H :   -0.039841
  13 H :   -0.056017
  14 H :   -0.090808
  15 H :   -0.046847
  16 H :   -0.048351

  Mayer bond orders larger than 0.100000
B(  0-C ,  1-C ) :  -0.1150 B(  0-C ,  2-C ) :   1.3674 B(  0-C ,  3-N ) :   0.7988
B(  0-C ,  5-N ) :  -0.1190 B(  0-C ,  6-H ) :   0.8060 B(  0-C ,  7-H ) :   0.8109
B(  1-C ,  2-C ) :   1.2961 B(  1-C ,  4-N ) :   0.8945 B(  1-C ,  8-H ) :   0.7993
B(  1-C ,  9-H ) :   0.8089 B(  2-C ,  5-N ) :   0.9875 B(  2-C ,  6-H ) :   0.1242
B(  2-C ,  7-H ) :   0.1756 B(  2-C ,  8-H ) :   0.1237 B(  2-C , 10-H ) :   0.6766
B(  3-N , 11-H ) :   1.0734 B(  3-N , 12-H ) :   1.0756 B(  4-N , 13-H ) :   1.0633
B(  4-N , 14-H ) :   1.0132 B(  5-N , 15-H ) :   1.0367 B(  5-N , 16-H ) :   1.0526
B(  6-H ,  7-H ) :  -0.1223 B(  8-H ,  9-H ) :  -0.1246

MP2 TOTAL ENERGY:     -284.380989622 Eh
FINAL SINGLE POINT ENERGY      -284.380989621945

DIPOLE MOMENT
-------------
                                X             Y             Z
Electronic contribution:      0.00936      -0.04690      -0.67491
Nuclear contribution   :     -0.06696      -0.05741       1.15757
                        -----------------------------------------
Total Dipole Moment    :     -0.05761      -0.10431       0.48265
                        -----------------------------------------
Magnitude (a.u.)       :      0.49715
Magnitude (Debye)      :      1.26364

Rotational constants in cm-1:     0.120876     0.108304     0.062014
Rotational constants in MHz :  3623.779238  3246.869086  1859.139616

                             ****ORCA TERMINATED NORMALLY****
TOTAL RUN TIME: 0 days 0 hours 1 minutes 2 seconds 787 msec
