                         Program Version 5.0.3 -  RELEASE  -
|  1> !ri-mp2 aug-cc-pvdz aug-cc-pvdz/c tightscf
|  2> %pal nprocs 16 end
|  3>
|  4> * xyz 0 1
|  5> C      0.000000    0.710696   -0.980035
|  6> C      0.000000   -0.710696   -0.980035
|  7> C      0.000000    1.121982    0.330484
|  8> C      0.000000   -1.121982    0.330484
|  9> N      0.000000    0.000000    1.118833
| 10> H      0.000000    1.356378   -1.841340
| 11> H      0.000000   -1.356378   -1.841340
| 12> H      0.000000    2.107246    0.761724
| 13> H      0.000000   -2.107246    0.761724
| 14> H      0.000000    0.000000    2.121999
| 15> *
| 16>
| 17>                          ****END OF INPUT****

CARTESIAN COORDINATES (ANGSTROEM)
---------------------------------
  C      0.000000    0.710696   -0.980035
  C      0.000000   -0.710696   -0.980035
  C      0.000000    1.121982    0.330484
  C      0.000000   -1.121982    0.330484
  N      0.000000    0.000000    1.118833
  H      0.000000    1.356378   -1.841340
  H      0.000000   -1.356378   -1.841340
  H      0.000000    2.107246    0.761724
  H      0.000000   -2.107246    0.761724
  H      0.000000    0.000000    2.121999

 Total Charge           Charge          ....    0
 Multiplicity           Mult            ....    1
 Number of Electrons    NEL             ....   36
 Basis Dimension        Dim             ....  160

ORBITAL ENERGIES
----------------

  NO   OCC          E(Eh)            E(eV)
   0   2.0000     -15.612747      -424.8444
   1   2.0000     -11.257944      -306.3442
   2   2.0000     -11.257900      -306.3430
   3   2.0000     -11.215064      -305.1774
   4   2.0000     -11.214040      -305.1495
   5   2.0000      -1.294821       -35.2339
   6   2.0000      -1.045153       -28.4401
   7   2.0000      -0.980216       -26.6730
   8   2.0000      -0.794743       -21.6260
   9   2.0000      -0.768891       -20.9226
  10   2.0000      -0.737807       -20.0767
  11   2.0000      -0.593510       -16.1502
  12   2.0000      -0.583191       -15.8694
  13   2.0000      -0.566858       -15.4250
  14   2.0000      -0.548396       -14.9226
  15   2.0000      -0.528459       -14.3801
  16   2.0000      -0.346420        -9.4266
  17   2.0000      -0.298274        -8.1165
  18   0.0000       0.031653         0.8613
  19   0.0000       0.043635         1.1874
  20   0.0000       0.046165         1.2562
  21   0.0000       0.060746         1.6530
  22   0.0000       0.064581         1.7573

MULLIKEN ATOMIC CHARGES
-----------------------
   0 C :    0.432624
   1 C :    0.432624
   2 C :    0.476452
   3 C :    0.476452
   4 N :   -0.490116
   5 H :   -0.330718
   6 H :   -0.330718
   7 H :   -0.279259
   8 H :   -0.279259
   9 H :   -0.108082
Sum of atomic charges:    0.0000000

LOEWDIN ATOMIC CHARGES
----------------------
   0 C :   -0.017616
   1 C :   -0.017616
   2 C :    0.008586
   3 C :    0.008586
   4 N :    0.051507
   5 H :   -0.017061
   6 H :   -0.017061
   7 H :   -0.010093
   8 H :   -0.010093
   9 H :    0.020862

  Mayer bond orders larger than 0.100000
B(  0-C ,  1-C ) :   1.6494 B(  0-C ,  2-C ) :   1.5446 B(  0-C ,  5-H ) :   0.6551
B(  0-C ,  6-H ) :   0.1050 B(  0-C ,  7-H ) :  -0.1268 B(  1-C ,  3-C ) :   1.5446
B(  1-C ,  5-H ) :   0.1050 B(  1-C ,  6-H ) :   0.6551 B(  1-C ,  8-H ) :  -0.1268
B(  2-C ,  4-N ) :   0.9608 B(  2-C ,  7-H ) :   0.9565 B(  2-C ,  9-H ) :  -0.1326
B(  3-C ,  4-N ) :   0.9608 B(  3-C ,  8-H ) :   0.9565 B(  3-C ,  9-H ) :  -0.1326
B(  4-N ,  9-H ) :   1.2389

MP2 TOTAL ENERGY:     -209.561226967 Eh
FINAL SINGLE POINT ENERGY      -209.561226966819

DIPOLE MOMENT
-------------
                                X             Y             Z
Electronic contribution:     -0.00000      -0.00000       0.76196
Nuclear contribution   :      0.00000       0.00000      -0.03090
                        -----------------------------------------
Total Dipole Moment    :     -0.00000      -0.00000       0.73106
                        -----------------------------------------
Magnitude (a.u.)       :      0.73106
Magnitude (Debye)      :      1.85821

Rotational constants in cm-1:     0.306312     0.302250     0.152134
Rotational constants in MHz :  9183.013936  9061.239325  4560.860113

                             ****ORCA TERMINATED NORMALLY****
TOTAL RUN TIME: 0 days 0 hours 0 minutes 40 seconds 596 msec
