                         Program Version 5.0.3 -  RELEASE  -
|  1> !ri-mp2 aug-cc-pvdz aug-cc-pvdz/c tightscf
|  2> %pal nprocs 16 end
|  3>
|  4> * xyz 0 1
|  5> C     -0.854017   -2.053209    0.000000
|  6> C      0.913211    2.739799    0.000000
|  7> C      0.331799   -1.126885    0.000000
|  8> C      1.244470    1.248574    0.000000
|  9> C      0.000000    0.360098    0.000000
| 10> O     -2.008076   -1.706587    0.000000
| 11> H     -0.596414   -3.133487    0.000000
| 12> H      1.818200    3.348531    0.000000
| 13> H      0.328751    3.013404    0.880532
| 14> H      0.328751    3.013404   -0.880532
| 15> H      0.945985   -1.401209    0.867354
| 16> H      0.945985   -1.401209   -0.867354
| 17> H      1.858867    1.012250    0.874251
| 18> H      1.858867    1.012250   -0.874251
| 19> H     -0.618581    0.589247   -0.870767
| 20> H     -0.618581    0.589247    0.870767
| 21> *
| 22>
| 23>                          ****END OF INPUT****

CARTESIAN COORDINATES (ANGSTROEM)
---------------------------------
  C     -0.854017   -2.053209    0.000000
  C      0.913211    2.739799    0.000000
  C      0.331799   -1.126885    0.000000
  C      1.244470    1.248574    0.000000
  C      0.000000    0.360098    0.000000
  O     -2.008076   -1.706587    0.000000
  H     -0.596414   -3.133487    0.000000
  H      1.818200    3.348531    0.000000
  H      0.328751    3.013404    0.880532
  H      0.328751    3.013404   -0.880532
  H      0.945985   -1.401209    0.867354
  H      0.945985   -1.401209   -0.867354
  H      1.858867    1.012250    0.874251
  H      1.858867    1.012250   -0.874251
  H     -0.618581    0.589247   -0.870767
  H     -0.618581    0.589247    0.870767

 Total Charge           Charge          ....    0
 Multiplicity           Mult            ....    1
 Number of Electrons    NEL             ....   48
 Basis Dimension        Dim             ....  228

ORBITAL ENERGIES
----------------

  NO   OCC          E(Eh)            E(eV)
   0   2.0000     -20.567260      -559.6636
   1   2.0000     -11.339866      -308.5734
   2   2.0000     -11.248142      -306.0775
   3   2.0000     -11.230928      -305.6091
   4   2.0000     -11.230119      -305.5871
   5   2.0000     -11.221738      -305.3590
   6   2.0000      -1.399824       -38.0911
   7   2.0000      -1.091366       -29.6976
   8   2.0000      -1.018160       -27.7055
   9   2.0000      -0.911202       -24.7951
  10   2.0000      -0.814305       -22.1584
  11   2.0000      -0.771272       -20.9874
  12   2.0000      -0.673737       -18.3333
  13   2.0000      -0.655600       -17.8398
  14   2.0000      -0.630122       -17.1465
  15   2.0000      -0.596581       -16.2338
  16   2.0000      -0.585754       -15.9392
  17   2.0000      -0.534506       -14.5446
  18   2.0000      -0.526893       -14.3375
  19   2.0000      -0.493716       -13.4347
  20   2.0000      -0.488291       -13.2871
  21   2.0000      -0.477903       -13.0044
  22   2.0000      -0.470793       -12.8109
  23   2.0000      -0.416622       -11.3369
  24   0.0000       0.032667         0.8889
  25   0.0000       0.039526         1.0756
  26   0.0000       0.045956         1.2505
  27   0.0000       0.049919         1.3584
  28   0.0000       0.059139         1.6093

MULLIKEN ATOMIC CHARGES
-----------------------
   0 C :    0.895018
   1 C :    0.483273
   2 C :   -0.053184
   3 C :    0.343170
   4 C :    0.264696
   5 O :   -0.698900
   6 H :   -0.113285
   7 H :   -0.067293
   8 H :   -0.079826
   9 H :   -0.079826
  10 H :   -0.074399
  11 H :   -0.074399
  12 H :   -0.182057
  13 H :   -0.182057
  14 H :   -0.190466
  15 H :   -0.190466
Sum of atomic charges:   -0.0000000

LOEWDIN ATOMIC CHARGES
----------------------
   0 C :   -0.088463
   1 C :    0.133344
   2 C :   -0.024729
   3 C :   -0.073457
   4 C :   -0.036900
   5 O :    0.026657
   6 H :    0.013831
   7 H :   -0.021381
   8 H :   -0.018654
   9 H :   -0.018654
  10 H :    0.023086
  11 H :    0.023086
  12 H :    0.010427
  13 H :    0.010427
  14 H :    0.020689
  15 H :    0.020689

  Mayer bond orders larger than 0.100000
B(  0-C ,  2-C ) :   1.2057 B(  0-C ,  5-O ) :   1.6046 B(  0-C ,  6-H ) :   0.7714
B(  1-C ,  3-C ) :   1.1819 B(  1-C ,  7-H ) :   0.8946 B(  1-C ,  8-H ) :   0.9274
B(  1-C ,  9-H ) :   0.9274 B(  2-C ,  4-C ) :   1.1945 B(  2-C ,  6-H ) :   0.1442
B(  2-C , 10-H ) :   0.8818 B(  2-C , 11-H ) :   0.8818 B(  3-C ,  4-C ) :   1.2029
B(  3-C ,  7-H ) :   0.1018 B(  3-C , 12-H ) :   0.7738 B(  3-C , 13-H ) :   0.7738
B(  4-C , 14-H ) :   0.8385 B(  4-C , 15-H ) :   0.8385

MP2 TOTAL ENERGY:     -270.979913570 Eh
FINAL SINGLE POINT ENERGY      -270.979913570200

DIPOLE MOMENT
-------------
                                X             Y             Z
Electronic contribution:     -5.28574      -7.00055       0.00000
Nuclear contribution   :      6.51001       6.92378       0.00000
                        -----------------------------------------
Total Dipole Moment    :      1.22427      -0.07676       0.00000
                        -----------------------------------------
Magnitude (a.u.)       :      1.22668
Magnitude (Debye)      :      3.11796

Rotational constants in cm-1:     0.352280     0.048258     0.043800
Rotational constants in MHz : 10561.091558  1446.752332  1313.101794

                             ****ORCA TERMINATED NORMALLY****
TOTAL RUN TIME: 0 days 0 hours 0 minutes 53 seconds 640 msec
