                         Program Version 5.0.3 -  RELEASE  -
|  1> !ri-mp2 aug-cc-pvdz aug-cc-pvdz/c tightscf
|  2> %pal nprocs 16 end
|  3>
|  4> * xyz 0 1
|  5> O     -1.069401   -1.177081   -0.114653
|  6> O     -1.069399    1.177108   -0.114381
|  7> C     -0.471048   -0.000047    0.382369
|  8> C      0.979054   -0.000017    0.143241
|  9> C      2.155246    0.000008   -0.089537
| 10> H     -0.691133   -1.390931   -0.974818
| 11> H     -0.691105    1.391185   -0.974478
| 12> H     -0.685912   -0.000169    1.449763
| 13> H      3.199039    0.000030   -0.284622
| 14> *
| 15>
| 16>                          ****END OF INPUT****

CARTESIAN COORDINATES (ANGSTROEM)
---------------------------------
  O     -1.069401   -1.177081   -0.114653
  O     -1.069399    1.177108   -0.114381
  C     -0.471048   -0.000047    0.382369
  C      0.979054   -0.000017    0.143241
  C      2.155246    0.000008   -0.089537
  H     -0.691133   -1.390931   -0.974818
  H     -0.691105    1.391185   -0.974478
  H     -0.685912   -0.000169    1.449763
  H      3.199039    0.000030   -0.284622

 Total Charge           Charge          ....    0
 Multiplicity           Mult            ....    1
 Number of Electrons    NEL             ....   38
 Basis Dimension        Dim             ....  151

ORBITAL ENERGIES
----------------

  NO   OCC          E(Eh)            E(eV)
   0   2.0000     -20.590703      -560.3015
   1   2.0000     -20.590683      -560.3010
   2   2.0000     -11.381302      -309.7010
   3   2.0000     -11.263442      -306.4938
   4   2.0000     -11.259448      -306.3852
   5   2.0000      -1.428299       -38.8660
   6   2.0000      -1.354934       -36.8696
   7   2.0000      -1.065280       -28.9877
   8   2.0000      -0.947103       -25.7720
   9   2.0000      -0.790011       -21.4973
  10   2.0000      -0.723598       -19.6901
  11   2.0000      -0.717798       -19.5323
  12   2.0000      -0.675130       -18.3712
  13   2.0000      -0.593838       -16.1591
  14   2.0000      -0.543947       -14.8016
  15   2.0000      -0.513039       -13.9605
  16   2.0000      -0.493146       -13.4192
  17   2.0000      -0.419326       -11.4104
  18   2.0000      -0.418374       -11.3845
  19   0.0000       0.029572         0.8047
  20   0.0000       0.041787         1.1371
  21   0.0000       0.051882         1.4118
  22   0.0000       0.058476         1.5912
  23   0.0000       0.093067         2.5325

MULLIKEN ATOMIC CHARGES
-----------------------
   0 O :   -0.718227
   1 O :   -0.718235
   2 C :    1.455010
   3 C :   -0.668069
   4 C :    1.042228
   5 H :    0.141353
   6 H :    0.141358
   7 H :   -0.191807
   8 H :   -0.483612
Sum of atomic charges:   -0.0000000

LOEWDIN ATOMIC CHARGES
----------------------
   0 O :    0.147315
   1 O :    0.147313
   2 C :   -0.285203
   3 C :   -0.053748
   4 C :    0.220303
   5 H :   -0.052869
   6 H :   -0.052871
   7 H :    0.028032
   8 H :   -0.098271

  Mayer bond orders larger than 0.100000
B(  0-O ,  1-O ) :   0.1192 B(  0-O ,  2-C ) :   0.4599 B(  0-O ,  3-C ) :   0.1266
B(  0-O ,  5-H ) :   1.0812 B(  1-O ,  2-C ) :   0.4599 B(  1-O ,  3-C ) :   0.1266
B(  1-O ,  6-H ) :   1.0812 B(  2-C ,  3-C ) :   1.1546 B(  2-C ,  4-C ) :   0.1696
B(  2-C ,  7-H ) :   0.8076 B(  2-C ,  8-H ) :   0.1175 B(  3-C ,  4-C ) :   2.6535
B(  3-C ,  8-H ) :   0.5141 B(  4-C ,  8-H ) :  -0.1257

MP2 TOTAL ENERGY:     -266.417133579 Eh
FINAL SINGLE POINT ENERGY      -266.417133578744

DIPOLE MOMENT
-------------
                                X             Y             Z
Electronic contribution:     -0.12755      -0.00003       0.14511
Nuclear contribution   :      1.08657       0.00011      -0.78016
                        -----------------------------------------
Total Dipole Moment    :      0.95902       0.00008      -0.63505
                        -----------------------------------------
Magnitude (a.u.)       :      1.15022
Magnitude (Debye)      :      2.92363

Rotational constants in cm-1:     0.307294     0.134942     0.101223
Rotational constants in MHz :  9212.453849  4045.449334  3034.601794

                             ****ORCA TERMINATED NORMALLY****
TOTAL RUN TIME: 0 days 0 hours 0 minutes 37 seconds 65 msec
