                         Program Version 5.0.3 -  RELEASE  -
|  1> !ri-mp2 aug-cc-pvdz aug-cc-pvdz/c tightscf
|  2> %pal nprocs 16 end
|  3>
|  4> * xyz 0 1
|  5> N      0.000000    0.000000    1.892411
|  6> C      0.000000    0.000000    0.737350
|  7> C      0.000000    0.000000   -0.631058
|  8> C      0.000000    0.000000   -1.831727
|  9> H      0.000000    0.000000   -2.894266
| 10> *
| 11>
| 12>                          ****END OF INPUT****

CARTESIAN COORDINATES (ANGSTROEM)
---------------------------------
  N      0.000000    0.000000    1.892411
  C      0.000000    0.000000    0.737350
  C      0.000000    0.000000   -0.631058
  C      0.000000    0.000000   -1.831727
  H      0.000000    0.000000   -2.894266

 Total Charge           Charge          ....    0
 Multiplicity           Mult            ....    1
 Number of Electrons    NEL             ....   26
 Basis Dimension        Dim             ....  101

ORBITAL ENERGIES
----------------

  NO   OCC          E(Eh)            E(eV)
   0   2.0000     -15.617975      -424.9867
   1   2.0000     -11.322216      -308.0932
   2   2.0000     -11.310918      -307.7857
   3   2.0000     -11.306455      -307.6643
   4   2.0000      -1.254402       -34.1340
   5   2.0000      -1.101697       -29.9787
   6   2.0000      -0.911650       -24.8072
   7   2.0000      -0.757415       -20.6103
   8   2.0000      -0.590410       -16.0659
   9   2.0000      -0.549601       -14.9554
  10   2.0000      -0.549601       -14.9554
  11   2.0000      -0.429322       -11.6824
  12   2.0000      -0.429322       -11.6824
  13   0.0000       0.025796         0.7019
  14   0.0000       0.066587         1.8119
  15   0.0000       0.066587         1.8119
  16   0.0000       0.070125         1.9082
  17   0.0000       0.096067         2.6141

MULLIKEN ATOMIC CHARGES
-----------------------
   0 N :   -0.407731
   1 C :   -0.348916
   2 C :    0.698636
   3 C :    0.539786
   4 H :   -0.481774
Sum of atomic charges:    0.0000000

LOEWDIN ATOMIC CHARGES
----------------------
   0 N :    0.106344
   1 C :   -0.201175
   2 C :   -0.102492
   3 C :    0.277822
   4 H :   -0.080499

  Mayer bond orders larger than 0.100000
B(  0-N ,  1-C ) :   2.8100 B(  0-N ,  2-C ) :  -0.4491 B(  0-N ,  3-C ) :   0.2916
B(  1-C ,  2-C ) :   1.1767 B(  1-C ,  3-C ) :   0.1181 B(  2-C ,  3-C ) :   2.3849
B(  3-C ,  4-H ) :   0.5072

MP2 TOTAL ENERGY:     -169.107648319 Eh
FINAL SINGLE POINT ENERGY      -169.107648319283

DIPOLE MOMENT
-------------
                                X             Y             Z
Electronic contribution:     -0.00000       0.00000       1.11972
Nuclear contribution   :      0.00000       0.00000      -2.75788
                        -----------------------------------------
Total Dipole Moment    :     -0.00000       0.00000      -1.63817
                        -----------------------------------------
Magnitude (a.u.)       :      1.63817
Magnitude (Debye)      :      4.16389

Rotational constants in cm-1:     0.000000     0.153170     0.153170
Rotational constants in MHz :     0.000000  4591.934458  4591.934458

                             ****ORCA TERMINATED NORMALLY****
TOTAL RUN TIME: 0 days 0 hours 0 minutes 34 seconds 369 msec
