                         Program Version 5.0.3 -  RELEASE  -
|  1> !ri-mp2 aug-cc-pvdz aug-cc-pvdz/c tightscf
|  2> %pal nprocs 16 end
|  3>
|  4> * xyz 0 1
|  5> N     -1.521190   -0.514806   -0.120022
|  6> C     -0.579874    0.602125    0.038950
|  7> C      0.805281    0.144140   -0.003594
|  8> C      1.943561   -0.232193   -0.014649
|  9> H     -1.375309   -1.207070    0.604410
| 10> H     -2.473718   -0.181419   -0.036708
| 11> H     -0.745639    1.300834   -0.784742
| 12> H     -0.721665    1.172303    0.967186
| 13> H      2.950856   -0.565445   -0.034238
| 14> *
| 15>
| 16>                          ****END OF INPUT****

CARTESIAN COORDINATES (ANGSTROEM)
---------------------------------
  N     -1.521190   -0.514806   -0.120022
  C     -0.579874    0.602125    0.038950
  C      0.805281    0.144140   -0.003594
  C      1.943561   -0.232193   -0.014649
  H     -1.375309   -1.207070    0.604410
  H     -2.473718   -0.181419   -0.036708
  H     -0.745639    1.300834   -0.784742
  H     -0.721665    1.172303    0.967186
  H      2.950856   -0.565445   -0.034238

 Total Charge           Charge          ....    0
 Multiplicity           Mult            ....    1
 Number of Electrons    NEL             ....   30
 Basis Dimension        Dim             ....  137

ORBITAL ENERGIES
----------------

  NO   OCC          E(Eh)            E(eV)
   0   2.0000     -15.561881      -423.4603
   1   2.0000     -11.289609      -307.2059
   2   2.0000     -11.241740      -305.9033
   3   2.0000     -11.231904      -305.6357
   4   2.0000      -1.195335       -32.5267
   5   2.0000      -1.039889       -28.2968
   6   2.0000      -0.929397       -25.2902
   7   2.0000      -0.726841       -19.7784
   8   2.0000      -0.682914       -18.5830
   9   2.0000      -0.636927       -17.3317
  10   2.0000      -0.604206       -16.4413
  11   2.0000      -0.566544       -15.4164
  12   2.0000      -0.414915       -11.2904
  13   2.0000      -0.394255       -10.7282
  14   2.0000      -0.381821       -10.3899
  15   0.0000       0.033507         0.9118
  16   0.0000       0.041059         1.1173
  17   0.0000       0.052341         1.4243
  18   0.0000       0.055958         1.5227
  19   0.0000       0.069155         1.8818

MULLIKEN ATOMIC CHARGES
-----------------------
   0 N :   -0.407740
   1 C :    0.582811
   2 C :   -0.560571
   3 C :    0.964738
   4 H :    0.021181
   5 H :   -0.013244
   6 H :   -0.065801
   7 H :   -0.013234
   8 H :   -0.508138
Sum of atomic charges:   -0.0000000

LOEWDIN ATOMIC CHARGES
----------------------
   0 N :    0.184829
   1 C :   -0.105170
   2 C :   -0.100737
   3 C :    0.203194
   4 H :   -0.050687
   5 H :   -0.051181
   6 H :    0.014803
   7 H :    0.012069
   8 H :   -0.107120

  Mayer bond orders larger than 0.100000
B(  0-N ,  1-C ) :   0.9231 B(  0-N ,  4-H ) :   1.0590 B(  0-N ,  5-H ) :   1.0747
B(  1-C ,  2-C ) :   1.2563 B(  1-C ,  3-C ) :   0.2242 B(  1-C ,  6-H ) :   0.8091
B(  1-C ,  7-H ) :   0.8258 B(  1-C ,  8-H ) :   0.1215 B(  2-C ,  3-C ) :   2.7298
B(  2-C ,  6-H ) :   0.1109 B(  2-C ,  7-H ) :   0.1198 B(  2-C ,  8-H ) :   0.5346
B(  3-C ,  8-H ) :  -0.1833

MP2 TOTAL ENERGY:     -171.494288371 Eh
FINAL SINGLE POINT ENERGY      -171.494288370590

DIPOLE MOMENT
-------------
                                X             Y             Z
Electronic contribution:      2.10203      -0.26172      -0.25062
Nuclear contribution   :     -2.42881       0.52801       0.73159
                        -----------------------------------------
Total Dipole Moment    :     -0.32678       0.26629       0.48098
                        -----------------------------------------
Magnitude (a.u.)       :      0.63956
Magnitude (Debye)      :      1.62563

Rotational constants in cm-1:     1.054091     0.153827     0.138909
Rotational constants in MHz : 31600.842316  4611.614958  4164.372862

                             ****ORCA TERMINATED NORMALLY****
TOTAL RUN TIME: 0 days 0 hours 0 minutes 47 seconds 56 msec
