                         Program Version 5.0.3 -  RELEASE  -
|  1> !ri-mp2 aug-cc-pvdz aug-cc-pvdz/c tightscf
|  2> %pal nprocs 16 end
|  3>
|  4> * xyz 0 1
|  5> C      0.000000    1.138944    0.719367
|  6> N      0.000000    0.000000    1.412722
|  7> C      0.000000    1.193219   -0.669712
|  8> C      0.000000   -1.138944    0.719367
|  9> C      0.000000   -1.193219   -0.669712
| 10> C      0.000000    0.000000   -1.378970
| 11> H      0.000000   -2.147907   -1.177548
| 12> H      0.000000    2.053255    1.302467
| 13> H      0.000000    2.147907   -1.177548
| 14> H      0.000000   -2.053255    1.302467
| 15> H      0.000000    0.000000   -2.460925
| 16> *
| 17>
| 18>                          ****END OF INPUT****

CARTESIAN COORDINATES (ANGSTROEM)
---------------------------------
  C      0.000000    1.138944    0.719367
  N      0.000000    0.000000    1.412722
  C      0.000000    1.193219   -0.669712
  C      0.000000   -1.138944    0.719367
  C      0.000000   -1.193219   -0.669712
  C      0.000000    0.000000   -1.378970
  H      0.000000   -2.147907   -1.177548
  H      0.000000    2.053255    1.302467
  H      0.000000    2.147907   -1.177548
  H      0.000000   -2.053255    1.302467
  H      0.000000    0.000000   -2.460925

 Total Charge           Charge          ....    0
 Multiplicity           Mult            ....    1
 Number of Electrons    NEL             ....   42
 Basis Dimension        Dim             ....  183

ORBITAL ENERGIES
----------------

  NO   OCC          E(Eh)            E(eV)
   0   2.0000     -15.573687      -423.7816
   1   2.0000     -11.280872      -306.9681
   2   2.0000     -11.280853      -306.9676
   3   2.0000     -11.265475      -306.5492
   4   2.0000     -11.247855      -306.0697
   5   2.0000     -11.247801      -306.0682
   6   2.0000      -1.264005       -34.3953
   7   2.0000      -1.093926       -29.7672
   8   2.0000      -1.037792       -28.2398
   9   2.0000      -0.861134       -23.4327
  10   2.0000      -0.859621       -23.3915
  11   2.0000      -0.723679       -19.6923
  12   2.0000      -0.663629       -18.0583
  13   2.0000      -0.654479       -17.8093
  14   2.0000      -0.599626       -16.3167
  15   2.0000      -0.577330       -15.7100
  16   2.0000      -0.543297       -14.7839
  17   2.0000      -0.520888       -14.1741
  18   2.0000      -0.417744       -11.3674
  19   2.0000      -0.384772       -10.4702
  20   2.0000      -0.348347        -9.4790
  21   0.0000       0.032063         0.8725
  22   0.0000       0.040433         1.1002
  23   0.0000       0.045420         1.2360
  24   0.0000       0.058657         1.5961
  25   0.0000       0.064158         1.7458

MULLIKEN ATOMIC CHARGES
-----------------------
   0 C :    0.362784
   1 N :   -0.580427
   2 C :    0.856492
   3 C :    0.362784
   4 C :    0.856492
   5 C :   -0.020896
   6 H :   -0.406249
   7 H :   -0.319255
   8 H :   -0.406249
   9 H :   -0.319255
  10 H :   -0.386220
Sum of atomic charges:    0.0000000

LOEWDIN ATOMIC CHARGES
----------------------
   0 C :   -0.035904
   1 N :    0.026561
   2 C :    0.013600
   3 C :   -0.035904
   4 C :    0.013600
   5 C :    0.014416
   6 H :   -0.002187
   7 H :    0.000694
   8 H :   -0.002187
   9 H :    0.000694
  10 H :    0.006615

  Mayer bond orders larger than 0.100000
B(  0-C ,  1-N ) :   1.2813 B(  0-C ,  2-C ) :   1.1885 B(  0-C ,  3-C ) :   0.2239
B(  0-C ,  4-C ) :  -0.1067 B(  0-C ,  5-C ) :   0.2942 B(  0-C ,  7-H ) :   0.9164
B(  1-N ,  3-C ) :   1.2813 B(  2-C ,  3-C ) :  -0.1067 B(  2-C ,  5-C ) :   1.4940
B(  2-C ,  8-H ) :   0.5988 B(  3-C ,  4-C ) :   1.1885 B(  3-C ,  5-C ) :   0.2942
B(  3-C ,  9-H ) :   0.9164 B(  4-C ,  5-C ) :   1.4940 B(  4-C ,  6-H ) :   0.5988
B(  5-C ,  6-H ) :   0.1531 B(  5-C ,  8-H ) :   0.1531 B(  5-C , 10-H ) :   0.6801

MP2 TOTAL ENERGY:     -247.562094124 Eh
FINAL SINGLE POINT ENERGY      -247.562094123552

DIPOLE MOMENT
-------------
                                X             Y             Z
Electronic contribution:      0.00000       0.00000       1.28421
Nuclear contribution   :      0.00000      -0.00000      -2.19659
                        -----------------------------------------
Total Dipole Moment    :      0.00000       0.00000      -0.91238
                        -----------------------------------------
Magnitude (a.u.)       :      0.91238
Magnitude (Debye)      :      2.31908

Rotational constants in cm-1:     0.202706     0.195430     0.099501
Rotational constants in MHz :  6076.974175  5858.840487  2982.957037

                             ****ORCA TERMINATED NORMALLY****
TOTAL RUN TIME: 0 days 0 hours 0 minutes 45 seconds 401 msec
