                         Program Version 5.0.3 -  RELEASE  -
|  1> !ri-mp2 aug-cc-pvdz aug-cc-pvdz/c tightscf
|  2> %pal nprocs 16 end
|  3>
|  4> * xyz 0 1
|  5> C     -1.381391   -1.674027    0.000000
|  6> C      1.469740    2.485294    0.000000
|  7> C     -0.027455   -1.130038    0.000000
|  8> C      1.425482    0.958648    0.000000
|  9> C      0.000000    0.407830    0.000000
| 10> N     -2.455764   -2.084510    0.000000
| 11> H      0.971625    2.894129    0.880933
| 12> H      2.497069    2.850311    0.000000
| 13> H      0.971625    2.894129   -0.880933
| 14> H      0.496473   -1.517892   -0.876678
| 15> H      0.496473   -1.517892    0.876678
| 16> H      1.960400    0.577288   -0.874787
| 17> H      1.960400    0.577288    0.874787
| 18> H     -0.540986    0.773987   -0.875086
| 19> H     -0.540986    0.773987    0.875086
| 20> *
| 21>
| 22>                          ****END OF INPUT****

CARTESIAN COORDINATES (ANGSTROEM)
---------------------------------
  C     -1.381391   -1.674027    0.000000
  C      1.469740    2.485294    0.000000
  C     -0.027455   -1.130038    0.000000
  C      1.425482    0.958648    0.000000
  C      0.000000    0.407830    0.000000
  N     -2.455764   -2.084510    0.000000
  H      0.971625    2.894129    0.880933
  H      2.497069    2.850311    0.000000
  H      0.971625    2.894129   -0.880933
  H      0.496473   -1.517892   -0.876678
  H      0.496473   -1.517892    0.876678
  H      1.960400    0.577288   -0.874787
  H      1.960400    0.577288    0.874787
  H     -0.540986    0.773987   -0.875086
  H     -0.540986    0.773987    0.875086

 Total Charge           Charge          ....    0
 Multiplicity           Mult            ....    1
 Number of Electrons    NEL             ....   46
 Basis Dimension        Dim             ....  219

ORBITAL ENERGIES
----------------

  NO   OCC          E(Eh)            E(eV)
   0   2.0000     -15.575744      -423.8375
   1   2.0000     -11.286881      -307.1317
   2   2.0000     -11.279094      -306.9197
   3   2.0000     -11.254909      -306.2617
   4   2.0000     -11.245466      -306.0047
   5   2.0000     -11.233479      -305.6785
   6   2.0000      -1.223470       -33.2923
   7   2.0000      -1.110270       -30.2120
   8   2.0000      -1.031581       -28.0707
   9   2.0000      -0.914186       -24.8763
  10   2.0000      -0.821244       -22.3472
  11   2.0000      -0.696191       -18.9443
  12   2.0000      -0.676608       -18.4114
  13   2.0000      -0.614595       -16.7240
  14   2.0000      -0.612342       -16.6627
  15   2.0000      -0.563656       -15.3379
  16   2.0000      -0.551643       -15.0110
  17   2.0000      -0.536075       -14.5874
  18   2.0000      -0.512114       -13.9353
  19   2.0000      -0.494456       -13.4548
  20   2.0000      -0.488878       -13.3031
  21   2.0000      -0.455981       -12.4079
  22   2.0000      -0.451126       -12.2758
  23   0.0000       0.029802         0.8110
  24   0.0000       0.040188         1.0936
  25   0.0000       0.042054         1.1443
  26   0.0000       0.046223         1.2578
  27   0.0000       0.063037         1.7153

MULLIKEN ATOMIC CHARGES
-----------------------
   0 C :   -0.331979
   1 C :    0.467682
   2 C :    0.790608
   3 C :    0.355608
   4 C :    0.122622
   5 N :   -0.316509
   6 H :   -0.072000
   7 H :   -0.066549
   8 H :   -0.072000
   9 H :   -0.048579
  10 H :   -0.048579
  11 H :   -0.175776
  12 H :   -0.175776
  13 H :   -0.214386
  14 H :   -0.214386
Sum of atomic charges:   -0.0000000

LOEWDIN ATOMIC CHARGES
----------------------
   0 C :   -0.146687
   1 C :    0.137387
   2 C :   -0.031970
   3 C :   -0.070181
   4 C :   -0.027343
   5 N :    0.067005
   6 H :   -0.017366
   7 H :   -0.019095
   8 H :   -0.017366
   9 H :    0.027596
  10 H :    0.027596
  11 H :    0.013281
  12 H :    0.013281
  13 H :    0.021931
  14 H :    0.021931

  Mayer bond orders larger than 0.100000
B(  0-C ,  2-C ) :   0.6091 B(  0-C ,  5-N ) :   2.6760 B(  1-C ,  3-C ) :   1.2056
B(  1-C ,  6-H ) :   0.9272 B(  1-C ,  7-H ) :   0.9032 B(  1-C ,  8-H ) :   0.9272
B(  2-C ,  4-C ) :   1.2013 B(  2-C ,  5-N ) :  -0.1099 B(  2-C ,  9-H ) :   0.7938
B(  2-C , 10-H ) :   0.7938 B(  3-C ,  4-C ) :   1.2070 B(  3-C , 11-H ) :   0.7685
B(  3-C , 12-H ) :   0.7685 B(  4-C , 13-H ) :   0.8256 B(  4-C , 14-H ) :   0.8256

MP2 TOTAL ENERGY:     -249.943068639 Eh
FINAL SINGLE POINT ENERGY      -249.943068638817

DIPOLE MOMENT
-------------
                                X             Y             Z
Electronic contribution:     -6.95501      -7.81132       0.00000
Nuclear contribution   :      8.58123       8.61804       0.00000
                        -----------------------------------------
Total Dipole Moment    :      1.62622       0.80671       0.00000
                        -----------------------------------------
Magnitude (a.u.)       :      1.81532
Magnitude (Debye)      :      4.61418

Rotational constants in cm-1:     0.511851     0.044211     0.041952
Rotational constants in MHz : 15344.894692  1325.412457  1257.683732

                             ****ORCA TERMINATED NORMALLY****
TOTAL RUN TIME: 0 days 0 hours 0 minutes 55 seconds 550 msec
