                         Program Version 5.0.3 -  RELEASE  -
|  1> !ri-mp2 aug-cc-pvdz aug-cc-pvdz/c tightscf
|  2> %pal nprocs 16 end
|  3>
|  4> * xyz 0 1
|  5> C      0.644121    1.194052   -0.006494
|  6> C      0.662041   -1.191017   -0.006314
|  7> C     -0.747351    1.189109   -0.001233
|  8> C     -0.724096   -1.215100   -0.001196
|  9> C      1.376677    0.009928   -0.007134
| 10> C     -1.435402   -0.018408    0.002343
| 11> C      2.883482    0.016860    0.008658
| 12> O     -2.803606   -0.093184    0.005561
| 13> H      1.164240    2.143785   -0.011774
| 14> H      1.201078   -2.130513   -0.011627
| 15> H     -1.293225    2.125496   -0.002769
| 16> H     -1.266997   -2.150003   -0.002681
| 17> H      3.293415   -0.687622   -0.716746
| 18> H      3.277225    1.005159   -0.226732
| 19> H      3.273067   -0.266943    0.989489
| 20> H     -3.176785    0.793560    0.006570
| 21> *
| 22>
| 23>                          ****END OF INPUT****

CARTESIAN COORDINATES (ANGSTROEM)
---------------------------------
  C      0.644121    1.194052   -0.006494
  C      0.662041   -1.191017   -0.006314
  C     -0.747351    1.189109   -0.001233
  C     -0.724096   -1.215100   -0.001196
  C      1.376677    0.009928   -0.007134
  C     -1.435402   -0.018408    0.002343
  C      2.883482    0.016860    0.008658
  O     -2.803606   -0.093184    0.005561
  H      1.164240    2.143785   -0.011774
  H      1.201078   -2.130513   -0.011627
  H     -1.293225    2.125496   -0.002769
  H     -1.266997   -2.150003   -0.002681
  H      3.293415   -0.687622   -0.716746
  H      3.277225    1.005159   -0.226732
  H      3.273067   -0.266943    0.989489
  H     -3.176785    0.793560    0.006570

 Total Charge           Charge          ....    0
 Multiplicity           Mult            ....    1
 Number of Electrons    NEL             ....   58
 Basis Dimension        Dim             ....  256

ORBITAL ENERGIES
----------------

  NO   OCC          E(Eh)            E(eV)
   0   2.0000     -20.597612      -560.4895
   1   2.0000     -11.303673      -307.5886
   2   2.0000     -11.241459      -305.8956
   3   2.0000     -11.240016      -305.8564
   4   2.0000     -11.237846      -305.7973
   5   2.0000     -11.237456      -305.7867
   6   2.0000     -11.232704      -305.6574
   7   2.0000     -11.228892      -305.5537
   8   2.0000      -1.405655       -38.2498
   9   2.0000      -1.155041       -31.4303
  10   2.0000      -1.040744       -28.3201
  11   2.0000      -1.021187       -27.7879
  12   2.0000      -0.930507       -25.3204
  13   2.0000      -0.847409       -23.0592
  14   2.0000      -0.805677       -21.9236
  15   2.0000      -0.733888       -19.9701
  16   2.0000      -0.672779       -18.3072
  17   2.0000      -0.644424       -17.5357
  18   2.0000      -0.607097       -16.5199
  19   2.0000      -0.589489       -16.0408
  20   2.0000      -0.588266       -16.0075
  21   2.0000      -0.575599       -15.6628
  22   2.0000      -0.570191       -15.5157
  23   2.0000      -0.532118       -14.4797
  24   2.0000      -0.504626       -13.7316
  25   2.0000      -0.487019       -13.2525
  26   2.0000      -0.470774       -12.8104
  27   2.0000      -0.341092        -9.2816
  28   2.0000      -0.305606        -8.3160
  29   0.0000       0.032728         0.8906
  30   0.0000       0.039068         1.0631
  31   0.0000       0.043743         1.1903
  32   0.0000       0.053828         1.4647
  33   0.0000       0.059321         1.6142

MULLIKEN ATOMIC CHARGES
-----------------------
   0 C :    0.651176
   1 C :    0.907010
   2 C :    0.105954
   3 C :    0.300817
   4 C :   -0.011788
   5 C :    0.675620
   6 C :    0.446424
   7 O :   -0.903758
   8 H :   -0.568038
   9 H :   -0.602308
  10 H :   -0.585124
  11 H :   -0.492057
  12 H :   -0.001364
  13 H :   -0.167679
  14 H :    0.079618
  15 H :    0.165497
Sum of atomic charges:   -0.0000000

LOEWDIN ATOMIC CHARGES
----------------------
   0 C :    0.037536
   1 C :    0.043864
   2 C :    0.040997
   3 C :    0.052480
   4 C :   -0.225216
   5 C :   -0.233028
   6 C :    0.167674
   7 O :    0.178360
   8 H :    0.004767
   9 H :    0.009070
  10 H :   -0.000510
  11 H :    0.007514
  12 H :   -0.013168
  13 H :   -0.017814
  14 H :   -0.009501
  15 H :   -0.043025

  Mayer bond orders larger than 0.100000
B(  0-C ,  1-C ) :  -0.7233 B(  0-C ,  2-C ) :   1.7240 B(  0-C ,  3-C ) :  -0.1234
B(  0-C ,  4-C ) :   2.1653 B(  0-C ,  5-C ) :  -0.2040 B(  0-C ,  6-C ) :  -0.4168
B(  0-C ,  8-H ) :  -0.1011 B(  0-C , 10-H ) :   0.2348 B(  0-C , 13-H ) :  -0.1395
B(  1-C ,  2-C ) :   0.2653 B(  1-C ,  3-C ) :   2.2213 B(  1-C ,  4-C ) :   1.7952
B(  1-C ,  5-C ) :  -0.2607 B(  1-C ,  6-C ) :  -0.6777 B(  1-C ,  9-H ) :  -0.2512
B(  1-C , 11-H ) :   0.2414 B(  2-C ,  3-C ) :   0.2630 B(  2-C ,  4-C ) :  -0.3881
B(  2-C ,  5-C ) :   1.4409 B(  2-C ,  6-C ) :   0.4082 B(  2-C ,  7-O ) :   0.1719
B(  2-C ,  8-H ) :   0.1963 B(  3-C ,  4-C ) :  -0.6567 B(  3-C ,  5-C ) :   1.7209
B(  3-C ,  6-C ) :   0.3278 B(  3-C ,  9-H ) :   0.3696 B(  3-C , 11-H ) :  -0.1780
B(  4-C ,  5-C ) :   0.5498 B(  4-C ,  6-C ) :   1.6430 B(  4-C ,  8-H ) :   0.5553
B(  4-C ,  9-H ) :   0.5752 B(  4-C , 10-H ) :  -0.1075 B(  4-C , 11-H ) :  -0.1302
B(  4-C , 12-H ) :   0.2317 B(  4-C , 13-H ) :   0.3841 B(  4-C , 14-H ) :   0.2177
B(  5-C ,  8-H ) :  -0.1344 B(  5-C ,  9-H ) :  -0.2168 B(  5-C , 10-H ) :   0.4301
B(  5-C , 11-H ) :   0.6465 B(  5-C , 15-H ) :  -0.1280 B(  6-C , 12-H ) :   0.8309
B(  6-C , 13-H ) :   0.6754 B(  6-C , 14-H ) :   0.8537 B(  7-O , 15-H ) :   1.0662

MP2 TOTAL ENERGY:     -345.800233050 Eh
FINAL SINGLE POINT ENERGY      -345.800233050151

DIPOLE MOMENT
-------------
                                X             Y             Z
Electronic contribution:     -6.23887      -0.32070      -0.01783
Nuclear contribution   :      6.47467       0.83751       0.02399
                        -----------------------------------------
Total Dipole Moment    :      0.23580       0.51681       0.00616
                        -----------------------------------------
Magnitude (a.u.)       :      0.56810
Magnitude (Debye)      :      1.44400

Rotational constants in cm-1:     0.184880     0.048659     0.038797
Rotational constants in MHz :  5542.548324  1458.756747  1163.109589

                             ****ORCA TERMINATED NORMALLY****
TOTAL RUN TIME: 0 days 0 hours 1 minutes 18 seconds 895 msec
