                         Program Version 5.0.3 -  RELEASE  -
|  1> !ri-mp2 aug-cc-pvdz aug-cc-pvdz/c tightscf
|  2> %pal nprocs 16 end
|  3>
|  4> * xyz 0 1
|  5> C     0.000000     0.000000    0.584601
|  6> C     0.000000     1.273888   -0.259060
|  7> C     0.000000    -1.273888   -0.259060
|  8> H     0.880629     1.318580   -0.903482
|  9> H    -0.880629     1.318580   -0.903482
| 10> H    -0.880629    -1.318580   -0.903482
| 11> H     0.000000     2.168536    0.365318
| 12> H     0.880629    -1.318580   -0.903482
| 13> H     0.000000    -2.168536    0.365318
| 14> H     0.873365     0.000000    1.242204
| 15> H    -0.873365     0.000000    1.242204
| 16> *
| 17>
| 18>                          ****END OF INPUT****

CARTESIAN COORDINATES (ANGSTROEM)
---------------------------------
  C      0.000000    0.000000    0.584601
  C      0.000000    1.273888   -0.259060
  C      0.000000   -1.273888   -0.259060
  H      0.880629    1.318580   -0.903482
  H     -0.880629    1.318580   -0.903482
  H     -0.880629   -1.318580   -0.903482
  H      0.000000    2.168536    0.365318
  H      0.880629   -1.318580   -0.903482
  H      0.000000   -2.168536    0.365318
  H      0.873365    0.000000    1.242204
  H     -0.873365    0.000000    1.242204

 Total Charge           Charge          ....    0
 Multiplicity           Mult            ....    1
 Number of Electrons    NEL             ....   26
 Basis Dimension        Dim             ....  141

ORBITAL ENERGIES
----------------

  NO   OCC          E(Eh)            E(eV)
   0   2.0000     -11.222752      -305.3866
   1   2.0000     -11.215841      -305.1986
   2   2.0000     -11.215801      -305.1975
   3   2.0000      -1.052986       -28.6532
   4   2.0000      -0.926078       -25.1999
   5   2.0000      -0.800363       -21.7790
   6   2.0000      -0.622228       -16.9317
   7   2.0000      -0.596165       -16.2225
   8   2.0000      -0.549091       -14.9415
   9   2.0000      -0.529577       -14.4105
  10   2.0000      -0.474904       -12.9228
  11   2.0000      -0.474046       -12.8994
  12   2.0000      -0.466313       -12.6890
  13   0.0000       0.038541         1.0487
  14   0.0000       0.048540         1.3208
  15   0.0000       0.050080         1.3628
  16   0.0000       0.051457         1.4002
  17   0.0000       0.074225         2.0198

MULLIKEN ATOMIC CHARGES
-----------------------
   0 C :   -0.012772
   1 C :    0.365489
   2 C :    0.365489
   3 H :   -0.078030
   4 H :   -0.078030
   5 H :   -0.078030
   6 H :   -0.098044
   7 H :   -0.078030
   8 H :   -0.098044
   9 H :   -0.104999
  10 H :   -0.104999
Sum of atomic charges:   -0.0000000

LOEWDIN ATOMIC CHARGES
----------------------
   0 C :   -0.115664
   1 C :    0.120176
   2 C :    0.120176
   3 H :   -0.021582
   4 H :   -0.021582
   5 H :   -0.021582
   6 H :   -0.023192
   7 H :   -0.021582
   8 H :   -0.023192
   9 H :    0.004013
  10 H :    0.004013

  Mayer bond orders larger than 0.100000
B(  0-C ,  1-C ) :   1.2650 B(  0-C ,  2-C ) :   1.2650 B(  0-C ,  9-H ) :   0.8385
B(  0-C , 10-H ) :   0.8385 B(  1-C ,  3-H ) :   0.9391 B(  1-C ,  4-H ) :   0.9391
B(  1-C ,  6-H ) :   0.9034 B(  2-C ,  5-H ) :   0.9391 B(  2-C ,  7-H ) :   0.9391
B(  2-C ,  8-H ) :   0.9034

MP2 TOTAL ENERGY:     -118.737883271 Eh
FINAL SINGLE POINT ENERGY      -118.737883270629

DIPOLE MOMENT
-------------
                                X             Y             Z
Electronic contribution:      0.00000      -0.00000       0.47509
Nuclear contribution   :      0.00000      -0.00000      -0.44170
                        -----------------------------------------
Total Dipole Moment    :      0.00000      -0.00000       0.03340
                        -----------------------------------------
Magnitude (a.u.)       :      0.03340
Magnitude (Debye)      :      0.08489

Rotational constants in cm-1:     0.988767     0.280317     0.248426
Rotational constants in MHz : 29642.476322  8403.684274  7447.620398

                             ****ORCA TERMINATED NORMALLY****
TOTAL RUN TIME: 0 days 0 hours 0 minutes 33 seconds 40 msec
