                         Program Version 5.0.3 -  RELEASE  -
|  1> !ri-mp2 aug-cc-pvdz aug-cc-pvdz/c tightscf
|  2> %pal nprocs 16 end
|  3>
|  4> * xyz 0 1
|  5> C      1.264505    0.437243        0.000000
|  6> C     -1.134314    0.204052        0.000000
|  7> C      1.405404   -0.941236        0.000000
|  8> C     -1.007552   -1.169144        0.000000
|  9> C      0.000000    1.026568        0.000000
| 10> C      0.266706   -1.745847        0.000000
| 11> C     -0.123034    2.491555        0.000000
| 12> O     -1.167015    3.105905        0.000000
| 13> O      0.332247   -3.103791        0.000000
| 14> H      2.146215    1.066352        0.000000
| 15> H     -2.110754    0.668386        0.000000
| 16> H      2.389487   -1.394063        0.000000
| 17> H     -1.872992   -1.816544        0.000000
| 18> H      0.845206    3.032775        0.000000
| 19> H      1.250697   -3.392963        0.000000
| 20> *
| 21>
| 22>                          ****END OF INPUT****

CARTESIAN COORDINATES (ANGSTROEM)
---------------------------------
  C      1.264505    0.437243    0.000000
  C     -1.134314    0.204052    0.000000
  C      1.405404   -0.941236    0.000000
  C     -1.007552   -1.169144    0.000000
  C      0.000000    1.026568    0.000000
  C      0.266706   -1.745847    0.000000
  C     -0.123034    2.491555    0.000000
  O     -1.167015    3.105905    0.000000
  O      0.332247   -3.103791    0.000000
  H      2.146215    1.066352    0.000000
  H     -2.110754    0.668386    0.000000
  H      2.389487   -1.394063    0.000000
  H     -1.872992   -1.816544    0.000000
  H      0.845206    3.032775    0.000000
  H      1.250697   -3.392963    0.000000

 Total Charge           Charge          ....    0
 Multiplicity           Mult            ....    1
 Number of Electrons    NEL             ....   64
 Basis Dimension        Dim             ....  261

ORBITAL ENERGIES
----------------

  NO   OCC          E(Eh)            E(eV)
   0   2.0000     -20.622682      -561.1717
   1   2.0000     -20.560025      -559.4667
   2   2.0000     -11.339996      -308.5770
   3   2.0000     -11.337085      -308.4978
   4   2.0000     -11.275216      -306.8142
   5   2.0000     -11.266125      -306.5668
   6   2.0000     -11.257385      -306.3290
   7   2.0000     -11.250830      -306.1507
   8   2.0000     -11.250059      -306.1297
   9   2.0000      -1.434183       -39.0261
  10   2.0000      -1.391656       -37.8689
  11   2.0000      -1.177307       -32.0362
  12   2.0000      -1.050279       -28.5795
  13   2.0000      -1.044523       -28.4229
  14   2.0000      -0.900124       -24.4936
  15   2.0000      -0.864523       -23.5249
  16   2.0000      -0.805983       -21.9319
  17   2.0000      -0.759010       -20.6537
  18   2.0000      -0.696790       -18.9606
  19   2.0000      -0.691728       -18.8229
  20   2.0000      -0.642383       -17.4801
  21   2.0000      -0.627023       -17.0621
  22   2.0000      -0.614337       -16.7170
  23   2.0000      -0.612362       -16.6632
  24   2.0000      -0.589138       -16.0313
  25   2.0000      -0.563116       -15.3232
  26   2.0000      -0.549789       -14.9605
  27   2.0000      -0.512041       -13.9334
  28   2.0000      -0.488182       -13.2841
  29   2.0000      -0.424876       -11.5615
  30   2.0000      -0.364119        -9.9082
  31   2.0000      -0.334899        -9.1131
  32   0.0000       0.024040         0.6541
  33   0.0000       0.037764         1.0276
  34   0.0000       0.043156         1.1743
  35   0.0000       0.054930         1.4947
  36   0.0000       0.063756         1.7349

MULLIKEN ATOMIC CHARGES
-----------------------
   0 C :    0.256013
   1 C :    0.405999
   2 C :    0.185441
   3 C :    0.541182
   4 C :    1.121449
   5 C :    0.507598
   6 C :    0.926849
   7 O :   -0.770237
   8 O :   -0.881545
   9 H :   -0.568587
  10 H :   -0.589165
  11 H :   -0.577923
  12 H :   -0.476155
  13 H :   -0.262923
  14 H :    0.182005
Sum of atomic charges:   -0.0000000

LOEWDIN ATOMIC CHARGES
----------------------
   0 C :    0.050059
   1 C :    0.076233
   2 C :    0.049458
   3 C :    0.066624
   4 C :   -0.189586
   5 C :   -0.212583
   6 C :   -0.075808
   7 O :    0.017021
   8 O :    0.194872
   9 H :    0.011645
  10 H :    0.018221
  11 H :    0.001622
  12 H :    0.010768
  13 H :    0.015134
  14 H :   -0.033680

  Mayer bond orders larger than 0.100000
B(  0-C ,  1-C ) :  -1.0194 B(  0-C ,  2-C ) :   1.9164 B(  0-C ,  4-C ) :   2.1131
B(  0-C , 11-H ) :   0.2272 B(  1-C ,  2-C ) :   0.1898 B(  1-C ,  3-C ) :   2.3060
B(  1-C ,  4-C ) :   1.8723 B(  1-C ,  5-C ) :  -0.1305 B(  1-C ,  6-C ) :  -0.6926
B(  1-C , 12-H ) :   0.2742 B(  2-C ,  3-C ) :   0.2183 B(  2-C ,  4-C ) :  -0.6613
B(  2-C ,  5-C ) :   1.4369 B(  2-C ,  6-C ) :   0.2439 B(  2-C ,  8-O ) :   0.1458
B(  2-C ,  9-H ) :   0.1896 B(  2-C , 13-H ) :   0.1191 B(  3-C ,  4-C ) :  -0.7200
B(  3-C ,  5-C ) :   1.5225 B(  3-C ,  6-C ) :   0.1273 B(  3-C , 10-H ) :   0.3400
B(  3-C , 12-H ) :  -0.1751 B(  4-C ,  5-C ) :   0.3656 B(  4-C ,  6-C ) :   1.1080
B(  4-C ,  9-H ) :   0.5621 B(  4-C , 10-H ) :   0.3763 B(  4-C , 11-H ) :  -0.1093
B(  4-C , 12-H ) :  -0.1429 B(  4-C , 13-H ) :   0.1457 B(  5-C ,  9-H ) :  -0.1317
B(  5-C , 10-H ) :  -0.1730 B(  5-C , 11-H ) :   0.4504 B(  5-C , 12-H ) :   0.6225
B(  5-C , 14-H ) :  -0.1223 B(  6-C ,  7-O ) :   1.4637 B(  6-C , 13-H ) :   0.6055
B(  8-O , 14-H ) :   1.0542

MP2 TOTAL ENERGY:     -419.672609091 Eh
FINAL SINGLE POINT ENERGY      -419.672609090884

DIPOLE MOMENT
-------------
                                X             Y             Z
Electronic contribution:     -1.11643       0.64638       0.00000
Nuclear contribution   :      2.59314      -1.80706       0.00000
                        -----------------------------------------
Total Dipole Moment    :      1.47671      -1.16068       0.00000
                        -----------------------------------------
Magnitude (a.u.)       :      1.87826
Magnitude (Debye)      :      4.77415

Rotational constants in cm-1:     0.171126     0.033237     0.027831
Rotational constants in MHz :  5130.218801   996.407384   834.356094

                             ****ORCA TERMINATED NORMALLY****
TOTAL RUN TIME: 0 days 0 hours 1 minutes 13 seconds 477 msec
