                         Program Version 5.0.3 -  RELEASE  -
|  1> !ri-mp2 aug-cc-pvdz aug-cc-pvdz/c tightscf
|  2> %pal nprocs 16 end
|  3>
|  4> * xyz 0 1
|  5> C     -0.006126    0.695514    1.193928
|  6> C      0.006126   -0.695514    1.193928
|  7> C     -0.005956    0.693932   -1.191741
|  8> C      0.005956   -0.693932   -1.191741
|  9> C     -0.010665    1.417282    0.002438
| 10> C      0.010665   -1.417282    0.002438
| 11> C      0.005956    2.923660   -0.002240
| 12> C     -0.005956   -2.923660   -0.002240
| 13> H     -0.011287    1.226083    2.138293
| 14> H      0.011287   -1.226083    2.138293
| 15> H     -0.010880    1.224834   -2.136140
| 16> H      0.010880   -1.224834   -2.136140
| 17> H     -0.642816    3.326662   -0.780885
| 18> H     -0.324391    3.327444    0.954402
| 19> H      1.012311    3.306699   -0.189982
| 20> H      0.642816   -3.326662   -0.780885
| 21> H      0.324391   -3.327444    0.954402
| 22> H     -1.012311   -3.306699   -0.189982
| 23> *
| 24>
| 25>                          ****END OF INPUT****

CARTESIAN COORDINATES (ANGSTROEM)
---------------------------------
  C     -0.006126    0.695514    1.193928
  C      0.006126   -0.695514    1.193928
  C     -0.005956    0.693932   -1.191741
  C      0.005956   -0.693932   -1.191741
  C     -0.010665    1.417282    0.002438
  C      0.010665   -1.417282    0.002438
  C      0.005956    2.923660   -0.002240
  C     -0.005956   -2.923660   -0.002240
  H     -0.011287    1.226083    2.138293
  H      0.011287   -1.226083    2.138293
  H     -0.010880    1.224834   -2.136140
  H      0.010880   -1.224834   -2.136140
  H     -0.642816    3.326662   -0.780885
  H     -0.324391    3.327444    0.954402
  H      1.012311    3.306699   -0.189982
  H      0.642816   -3.326662   -0.780885
  H      0.324391   -3.327444    0.954402
  H     -1.012311   -3.306699   -0.189982

 Total Charge           Charge          ....    0
 Multiplicity           Mult            ....    1
 Number of Electrons    NEL             ....   58
 Basis Dimension        Dim             ....  274

ORBITAL ENERGIES
----------------

  NO   OCC          E(Eh)            E(eV)
   0   2.0000     -11.239039      -305.8298
   1   2.0000     -11.239028      -305.8295
   2   2.0000     -11.231725      -305.6308
   3   2.0000     -11.231319      -305.6197
   4   2.0000     -11.230492      -305.5972
   5   2.0000     -11.230120      -305.5871
   6   2.0000     -11.227339      -305.5114
   7   2.0000     -11.227338      -305.5114
   8   2.0000      -1.156589       -31.4724
   9   2.0000      -1.062728       -28.9183
  10   2.0000      -1.010655       -27.5013
  11   2.0000      -0.973735       -26.4967
  12   2.0000      -0.896021       -24.3820
  13   2.0000      -0.826816       -22.4988
  14   2.0000      -0.782519       -21.2934
  15   2.0000      -0.668077       -18.1793
  16   2.0000      -0.644158       -17.5284
  17   2.0000      -0.625244       -17.0138
  18   2.0000      -0.577855       -15.7242
  19   2.0000      -0.576585       -15.6897
  20   2.0000      -0.567045       -15.4301
  21   2.0000      -0.553658       -15.0658
  22   2.0000      -0.548249       -14.9186
  23   2.0000      -0.522372       -14.2145
  24   2.0000      -0.481066       -13.0905
  25   2.0000      -0.477420       -12.9913
  26   2.0000      -0.474639       -12.9156
  27   2.0000      -0.331844        -9.0299
  28   2.0000      -0.311939        -8.4883
  29   0.0000       0.036675         0.9980
  30   0.0000       0.038416         1.0454
  31   0.0000       0.042838         1.1657
  32   0.0000       0.053659         1.4601
  33   0.0000       0.056312         1.5323

MULLIKEN ATOMIC CHARGES
-----------------------
   0 C :    0.320566
   1 C :    0.320566
   2 C :    0.261172
   3 C :    0.261172
   4 C :    0.192015
   5 C :    0.192015
   6 C :    0.487689
   7 C :    0.487689
   8 H :   -0.615039
   9 H :   -0.615039
  10 H :   -0.624060
  11 H :   -0.624060
  12 H :   -0.005800
  13 H :   -0.130333
  14 H :    0.113789
  15 H :   -0.005800
  16 H :   -0.130333
  17 H :    0.113789
Sum of atomic charges:    0.0000000

LOEWDIN ATOMIC CHARGES
----------------------
   0 C :    0.039610
   1 C :    0.039610
   2 C :    0.040677
   3 C :    0.040677
   4 C :   -0.221288
   5 C :   -0.221288
   6 C :    0.170656
   7 C :    0.170656
   8 H :    0.003138
   9 H :    0.003138
  10 H :    0.005607
  11 H :    0.005607
  12 H :   -0.013602
  13 H :   -0.016758
  14 H :   -0.008040
  15 H :   -0.013602
  16 H :   -0.016758
  17 H :   -0.008040

  Mayer bond orders larger than 0.100000
B(  0-C ,  1-C ) :   2.4320 B(  0-C ,  2-C ) :  -0.5296 B(  0-C ,  3-C ) :   0.4922
B(  0-C ,  4-C ) :   1.8259 B(  0-C ,  5-C ) :  -0.4781 B(  0-C ,  6-C ) :  -0.2760
B(  0-C ,  7-C ) :   0.2120 B(  0-C ,  8-H ) :  -0.3895 B(  0-C ,  9-H ) :   0.3157
B(  0-C , 13-H ) :  -0.1256 B(  1-C ,  2-C ) :   0.4922 B(  1-C ,  3-C ) :  -0.5296
B(  1-C ,  4-C ) :  -0.4781 B(  1-C ,  5-C ) :   1.8259 B(  1-C ,  6-C ) :   0.2120
B(  1-C ,  7-C ) :  -0.2760 B(  1-C ,  8-H ) :   0.3157 B(  1-C ,  9-H ) :  -0.3895
B(  1-C , 16-H ) :  -0.1256 B(  2-C ,  3-C ) :   3.0560 B(  2-C ,  4-C ) :   1.4379
B(  2-C ,  5-C ) :  -0.6945 B(  2-C ,  6-C ) :  -0.4794 B(  2-C ,  7-C ) :   0.1577
B(  2-C , 10-H ) :  -0.3449 B(  2-C , 11-H ) :   0.3868 B(  2-C , 12-H ) :  -0.1074
B(  3-C ,  4-C ) :  -0.6945 B(  3-C ,  5-C ) :   1.4379 B(  3-C ,  6-C ) :   0.1577
B(  3-C ,  7-C ) :  -0.4794 B(  3-C , 10-H ) :   0.3868 B(  3-C , 11-H ) :  -0.3449
B(  3-C , 15-H ) :  -0.1074 B(  4-C ,  5-C ) :   0.8395 B(  4-C ,  6-C ) :   1.5014
B(  4-C ,  8-H ) :   0.6988 B(  4-C ,  9-H ) :  -0.1721 B(  4-C , 10-H ) :   0.6379
B(  4-C , 11-H ) :  -0.1965 B(  4-C , 12-H ) :   0.2919 B(  4-C , 13-H ) :   0.4099
B(  4-C , 14-H ) :   0.1873 B(  5-C ,  7-C ) :   1.5014 B(  5-C ,  8-H ) :  -0.1721
B(  5-C ,  9-H ) :   0.6988 B(  5-C , 10-H ) :  -0.1965 B(  5-C , 11-H ) :   0.6379
B(  5-C , 15-H ) :   0.2919 B(  5-C , 16-H ) :   0.4099 B(  5-C , 17-H ) :   0.1873
B(  6-C , 12-H ) :   0.7952 B(  6-C , 13-H ) :   0.6541 B(  6-C , 14-H ) :   0.9218
B(  7-C , 15-H ) :   0.7952 B(  7-C , 16-H ) :   0.6541 B(  7-C , 17-H ) :   0.9218

MP2 TOTAL ENERGY:     -309.922382781 Eh
FINAL SINGLE POINT ENERGY      -309.922382781013

DIPOLE MOMENT
-------------
                                X             Y             Z
Electronic contribution:      0.00000      -0.00000       0.01466
Nuclear contribution   :      0.00000       0.00000      -0.02937
                        -----------------------------------------
Total Dipole Moment    :      0.00000      -0.00000      -0.01470
                        -----------------------------------------
Magnitude (a.u.)       :      0.01470
Magnitude (Debye)      :      0.03737

Rotational constants in cm-1:     0.181202     0.047806     0.038363
Rotational constants in MHz :  5432.305035  1433.202698  1150.103636

                             ****ORCA TERMINATED NORMALLY****
TOTAL RUN TIME: 0 days 0 hours 1 minutes 35 seconds 172 msec
