                         Program Version 5.0.3 -  RELEASE  -
|  1> !ri-mp2 aug-cc-pvdz aug-cc-pvdz/c tightscf
|  2> %pal nprocs 16 end
|  3>
|  4> * xyz 0 1
|  5> O     -2.423172   -0.167625    0.000000
|  6> N     -1.229268    0.011793   -0.000004
|  7> C     -0.078874    0.155417   -0.000002
|  8> C      1.300610    0.480348    0.000003
|  9> C      2.286856   -0.419406    0.000002
| 10> H      1.529592    1.540379    0.000009
| 11> H      2.091078   -1.482044   -0.000004
| 12> H      3.318032   -0.098033    0.000007
| 13> *
| 14>
| 15>                          ****END OF INPUT****

CARTESIAN COORDINATES (ANGSTROEM)
---------------------------------
  O     -2.423172   -0.167625    0.000000
  N     -1.229268    0.011793   -0.000004
  C     -0.078874    0.155417   -0.000002
  C      1.300610    0.480348    0.000003
  C      2.286856   -0.419406    0.000002
  H      1.529592    1.540379    0.000009
  H      2.091078   -1.482044   -0.000004
  H      3.318032   -0.098033    0.000007

 Total Charge           Charge          ....    0
 Multiplicity           Mult            ....    1
 Number of Electrons    NEL             ....   36
 Basis Dimension        Dim             ....  142

ORBITAL ENERGIES
----------------

  NO   OCC          E(Eh)            E(eV)
   0   2.0000     -20.580382      -560.0207
   1   2.0000     -15.749953      -428.5780
   2   2.0000     -11.321822      -308.0824
   3   2.0000     -11.308725      -307.7260
   4   2.0000     -11.290078      -307.2186
   5   2.0000      -1.498818       -40.7849
   6   2.0000      -1.228413       -33.4268
   7   2.0000      -1.107141       -30.1268
   8   2.0000      -0.895965       -24.3805
   9   2.0000      -0.743114       -20.2211
  10   2.0000      -0.717425       -19.5221
  11   2.0000      -0.680849       -18.5268
  12   2.0000      -0.669569       -18.2199
  13   2.0000      -0.643147       -17.5009
  14   2.0000      -0.578337       -15.7373
  15   2.0000      -0.474354       -12.9078
  16   2.0000      -0.393045       -10.6953
  17   2.0000      -0.360341        -9.8054
  18   0.0000       0.024366         0.6630
  19   0.0000       0.040573         1.1040
  20   0.0000       0.048421         1.3176
  21   0.0000       0.059598         1.6218
  22   0.0000       0.090521         2.4632

MULLIKEN ATOMIC CHARGES
-----------------------
   0 O :   -0.850734
   1 N :    0.461476
   2 C :   -0.482154
   3 C :    1.268755
   4 C :    0.486740
   5 H :   -0.380534
   6 H :   -0.267006
   7 H :   -0.236543
Sum of atomic charges:    0.0000000

LOEWDIN ATOMIC CHARGES
----------------------
   0 O :   -0.021305
   1 N :   -0.189401
   2 C :    0.107378
   3 C :   -0.067861
   4 C :    0.219745
   5 H :    0.002684
   6 H :   -0.023747
   7 H :   -0.027494

  Mayer bond orders larger than 0.100000
B(  0-O ,  1-N ) :   1.0439 B(  1-N ,  2-C ) :   2.5545 B(  1-N ,  3-C ) :  -0.2637
B(  1-N ,  4-C ) :   0.1199 B(  2-C ,  3-C ) :   0.3118 B(  2-C ,  5-H ) :   0.1735
B(  3-C ,  4-C ) :   1.7716 B(  3-C ,  5-H ) :   0.7312 B(  4-C ,  5-H ) :  -0.1248
B(  4-C ,  6-H ) :   1.0129 B(  4-C ,  7-H ) :   0.8370 B(  6-H ,  7-H ) :  -0.1601

MP2 TOTAL ENERGY:     -245.334465116 Eh
FINAL SINGLE POINT ENERGY      -245.334465116185

DIPOLE MOMENT
-------------
                                X             Y             Z
Electronic contribution:     -4.63220       0.24465      -0.00001
Nuclear contribution   :      6.74832      -0.04138       0.00001
                        -----------------------------------------
Total Dipole Moment    :      2.11612       0.20327       0.00000
                        -----------------------------------------
Magnitude (a.u.)       :      2.12586
Magnitude (Debye)      :      5.40351

Rotational constants in cm-1:     1.646950     0.078224     0.074677
Rotational constants in MHz : 49374.304000  2345.105002  2238.771276

                             ****ORCA TERMINATED NORMALLY****
TOTAL RUN TIME: 0 days 0 hours 0 minutes 46 seconds 980 msec
