                         Program Version 5.0.3 -  RELEASE  -
|  1> !ri-mp2 aug-cc-pvdz aug-cc-pvdz/c tightscf
|  2> %pal nprocs 16 end
|  3> %maxcore 3800
|  4>
|  5> * xyz 0 1
|  6> O      1.182952    0.463928    2.029051
|  7> S      0.000000    0.000000    1.311979
|  8> O     -1.182952   -0.463928    2.029051
|  9> C     -0.520392    1.327106    0.212950
| 10> C      0.409097    2.277935   -0.192069
| 11> C      0.000000    3.304743   -1.033775
| 12> C     -1.322848    3.373603   -1.458638
| 13> C     -2.245249    2.421077   -1.037808
| 14> C     -1.847361    1.389895   -0.196106
| 15> C      0.520392   -1.327106    0.212950
| 16> C     -0.409097   -2.277935   -0.192069
| 17> C      0.000000   -3.304743   -1.033775
| 18> C      1.322848   -3.373603   -1.458638
| 19> C      2.245249   -2.421077   -1.037808
| 20> C      1.847361   -1.389895   -0.196106
| 21> H      1.426580    2.222201    0.166269
| 22> H      0.711915    4.054300   -1.350886
| 23> H     -1.637459    4.175977   -2.112088
| 24> H     -3.276080    2.484727   -1.358041
| 25> H     -2.555114    0.655284    0.159175
| 26> H     -1.426580   -2.222201    0.166269
| 27> H     -0.711915   -4.054300   -1.350886
| 28> H      1.637459   -4.175977   -2.112088
| 29> H      3.276080   -2.484727   -1.358041
| 30> H      2.555114   -0.655284    0.159175
| 31> *
| 32>
| 33>                          ****END OF INPUT****

CARTESIAN COORDINATES (ANGSTROEM)
---------------------------------
  O      1.182952    0.463928    2.029051
  S      0.000000    0.000000    1.311979
  O     -1.182952   -0.463928    2.029051
  C     -0.520392    1.327106    0.212950
  C      0.409097    2.277935   -0.192069
  C      0.000000    3.304743   -1.033775
  C     -1.322848    3.373603   -1.458638
  C     -2.245249    2.421077   -1.037808
  C     -1.847361    1.389895   -0.196106
  C      0.520392   -1.327106    0.212950
  C     -0.409097   -2.277935   -0.192069
  C      0.000000   -3.304743   -1.033775
  C      1.322848   -3.373603   -1.458638
  C      2.245249   -2.421077   -1.037808
  C      1.847361   -1.389895   -0.196106
  H      1.426580    2.222201    0.166269
  H      0.711915    4.054300   -1.350886
  H     -1.637459    4.175977   -2.112088
  H     -3.276080    2.484727   -1.358041
  H     -2.555114    0.655284    0.159175
  H     -1.426580   -2.222201    0.166269
  H     -0.711915   -4.054300   -1.350886
  H      1.637459   -4.175977   -2.112088
  H      3.276080   -2.484727   -1.358041
  H      2.555114   -0.655284    0.159175

 Total Charge           Charge          ....    0
 Multiplicity           Mult            ....    1
 Number of Electrons    NEL             ....  114
 Basis Dimension        Dim             ....  439

ORBITAL ENERGIES
----------------

  NO   OCC          E(Eh)            E(eV)
   0   2.0000     -92.202351     -2508.9535
   1   2.0000     -20.552437      -559.2602
   2   2.0000     -20.552419      -559.2598
   3   2.0000     -11.283158      -307.0303
   4   2.0000     -11.283143      -307.0299
   5   2.0000     -11.269334      -306.6542
   6   2.0000     -11.269333      -306.6541
   7   2.0000     -11.269263      -306.6522
   8   2.0000     -11.269261      -306.6522
   9   2.0000     -11.266563      -306.5788
  10   2.0000     -11.266562      -306.5787
  11   2.0000     -11.261087      -306.4297
  12   2.0000     -11.261086      -306.4297
  13   2.0000     -11.260944      -306.4259
  14   2.0000     -11.260944      -306.4259
  15   2.0000      -9.174100      -249.6400
  16   2.0000      -6.859634      -186.6601
  17   2.0000      -6.858310      -186.6241
  18   2.0000      -6.857767      -186.6093
  19   2.0000      -1.450705       -39.4757
  20   2.0000      -1.338405       -36.4199
  21   2.0000      -1.187089       -32.3023
  22   2.0000      -1.183213       -32.1969
  23   2.0000      -1.070014       -29.1166
  24   2.0000      -1.047380       -28.5007
  25   2.0000      -1.045058       -28.4375
  26   2.0000      -1.044320       -28.4174
  27   2.0000      -0.928478       -25.2652
  28   2.0000      -0.857418       -23.3315
  29   2.0000      -0.855599       -23.2820
  30   2.0000      -0.853782       -23.2326
  31   2.0000      -0.803544       -21.8655
  32   2.0000      -0.747246       -20.3336
  33   2.0000      -0.726895       -19.7798
  34   2.0000      -0.682311       -18.5666
  35   2.0000      -0.666144       -18.1267
  36   2.0000      -0.665952       -18.1215
  37   2.0000      -0.652219       -17.7478
  38   2.0000      -0.640561       -17.4306
  39   2.0000      -0.637176       -17.3384
  40   2.0000      -0.619718       -16.8634
  41   2.0000      -0.615722       -16.7546
  42   2.0000      -0.613049       -16.6819
  43   2.0000      -0.547274       -14.8921
  44   2.0000      -0.545837       -14.8530
  45   2.0000      -0.537853       -14.6357
  46   2.0000      -0.522137       -14.2081
  47   2.0000      -0.520807       -14.1719
  48   2.0000      -0.520117       -14.1531
  49   2.0000      -0.495696       -13.4886
  50   2.0000      -0.487115       -13.2551
  51   2.0000      -0.467564       -12.7231
  52   2.0000      -0.434330       -11.8187
  53   2.0000      -0.382886       -10.4189
  54   2.0000      -0.361974        -9.8498
  55   2.0000      -0.356792        -9.7088
  56   2.0000      -0.352802        -9.6002
  57   0.0000       0.028158         0.7662
  58   0.0000       0.031609         0.8601
  59   0.0000       0.035599         0.9687
  60   0.0000       0.044531         1.2118
  61   0.0000       0.045917         1.2495

MULLIKEN ATOMIC CHARGES
-----------------------
   0 O :   -1.300877
   1 S :    3.209232
   2 O :   -1.300877
   3 C :    0.805959
   4 C :    0.024866
   5 C :    0.514730
   6 C :    0.395343
   7 C :    0.515136
   8 C :    0.025406
   9 C :    0.805966
  10 C :    0.024857
  11 C :    0.514731
  12 C :    0.395337
  13 C :    0.515142
  14 C :    0.025408
  15 H :   -0.616989
  16 H :   -0.456429
  17 H :   -0.438875
  18 H :   -0.456433
  19 H :   -0.616455
  20 H :   -0.616989
  21 H :   -0.456430
  22 H :   -0.438874
  23 H :   -0.456431
  24 H :   -0.616455
Sum of atomic charges:   -0.0000000

LOEWDIN ATOMIC CHARGES
----------------------
   0 O :   -0.376085
   1 S :    0.994975
   2 O :   -0.376085
   3 C :   -0.246609
   4 C :    0.018784
   5 C :    0.021607
   6 C :    0.025509
   7 C :    0.021611
   8 C :    0.018816
   9 C :   -0.246609
  10 C :    0.018784
  11 C :    0.021607
  12 C :    0.025509
  13 C :    0.021611
  14 C :    0.018816
  15 H :    0.002549
  16 H :    0.003899
  17 H :    0.005892
  18 H :    0.003900
  19 H :    0.002640
  20 H :    0.002549
  21 H :    0.003899
  22 H :    0.005892
  23 H :    0.003900
  24 H :    0.002640

  Mayer bond orders larger than 0.100000
B(  0-O ,  1-S ) :   0.3333 B(  0-O ,  2-O ) :   0.1171 B(  0-O ,  3-C ) :   0.4274
B(  0-O ,  8-C ) :  -0.1429 B(  0-O ,  9-C ) :   0.4272 B(  0-O , 10-C ) :  -0.1426
B(  1-S ,  2-O ) :   0.3333 B(  1-S ,  3-C ) :   1.0727 B(  1-S ,  4-C ) :  -0.1949
B(  1-S ,  8-C ) :  -0.1961 B(  1-S ,  9-C ) :   1.0727 B(  1-S , 10-C ) :  -0.1949
B(  1-S , 14-C ) :  -0.1961 B(  2-O ,  3-C ) :   0.4272 B(  2-O ,  4-C ) :  -0.1426
B(  2-O ,  9-C ) :   0.4274 B(  2-O , 14-C ) :  -0.1429 B(  3-C ,  4-C ) :   1.2201
B(  3-C ,  5-C ) :  -0.3791 B(  3-C ,  7-C ) :  -0.3786 B(  3-C ,  8-C ) :   1.2189
B(  3-C , 10-C ) :  -0.1721 B(  3-C , 14-C ) :  -0.1731 B(  3-C , 15-H ) :   0.4401
B(  3-C , 19-H ) :   0.4410 B(  4-C ,  5-C ) :   2.0736 B(  4-C ,  6-C ) :   0.1540
B(  4-C ,  7-C ) :   0.2232 B(  4-C ,  8-C ) :  -0.3884 B(  4-C ,  9-C ) :  -0.1721
B(  4-C , 10-C ) :   0.2569 B(  4-C , 11-C ) :  -0.1319 B(  4-C , 13-C ) :  -0.1039
B(  4-C , 14-C ) :   0.2864 B(  4-C , 16-H ) :   0.3363 B(  5-C ,  6-C ) :   1.7001
B(  5-C ,  7-C ) :  -0.1788 B(  5-C ,  8-C ) :   0.2244 B(  5-C , 10-C ) :  -0.1319
B(  5-C , 11-C ) :   0.1381 B(  5-C , 13-C ) :   0.1086 B(  5-C , 14-C ) :  -0.1039
B(  5-C , 15-H ) :   0.3106 B(  5-C , 16-H ) :   0.2116 B(  5-C , 17-H ) :   0.1974
B(  5-C , 18-H ) :  -0.1010 B(  6-C ,  7-C ) :   1.6995 B(  6-C ,  8-C ) :   0.1539
B(  6-C , 16-H ) :   0.1469 B(  6-C , 17-H ) :   0.3378 B(  6-C , 18-H ) :   0.1467
B(  7-C ,  8-C ) :   2.0737 B(  7-C , 10-C ) :  -0.1039 B(  7-C , 11-C ) :   0.1086
B(  7-C , 13-C ) :   0.1372 B(  7-C , 14-C ) :  -0.1312 B(  7-C , 16-H ) :  -0.1011
B(  7-C , 17-H ) :   0.1976 B(  7-C , 18-H ) :   0.2119 B(  7-C , 19-H ) :   0.3097
B(  8-C ,  9-C ) :  -0.1731 B(  8-C , 10-C ) :   0.2864 B(  8-C , 11-C ) :  -0.1039
B(  8-C , 13-C ) :  -0.1312 B(  8-C , 14-C ) :   0.2563 B(  8-C , 18-H ) :   0.3359
B(  9-C , 10-C ) :   1.2201 B(  9-C , 11-C ) :  -0.3791 B(  9-C , 13-C ) :  -0.3786
B(  9-C , 14-C ) :   1.2189 B(  9-C , 20-H ) :   0.4400 B(  9-C , 24-H ) :   0.4410
B( 10-C , 11-C ) :   2.0736 B( 10-C , 12-C ) :   0.1540 B( 10-C , 13-C ) :   0.2232
B( 10-C , 14-C ) :  -0.3884 B( 10-C , 21-H ) :   0.3363 B( 11-C , 12-C ) :   1.7001
B( 11-C , 13-C ) :  -0.1788 B( 11-C , 14-C ) :   0.2244 B( 11-C , 20-H ) :   0.3106
B( 11-C , 21-H ) :   0.2116 B( 11-C , 22-H ) :   0.1974 B( 11-C , 23-H ) :  -0.1010
B( 12-C , 13-C ) :   1.6995 B( 12-C , 14-C ) :   0.1539 B( 12-C , 21-H ) :   0.1469
B( 12-C , 22-H ) :   0.3378 B( 12-C , 23-H ) :   0.1467 B( 13-C , 14-C ) :   2.0737
B( 13-C , 21-H ) :  -0.1011 B( 13-C , 22-H ) :   0.1976 B( 13-C , 23-H ) :   0.2119
B( 13-C , 24-H ) :   0.3097 B( 14-C , 23-H ) :   0.3359

MP2 TOTAL ENERGY:    -1009.655314916 Eh
FINAL SINGLE POINT ENERGY     -1009.655314916107

DIPOLE MOMENT
-------------
                                X             Y             Z
Electronic contribution:     -0.00000      -0.00000       6.45815
Nuclear contribution   :      0.00000      -0.00000      -8.79634
                        -----------------------------------------
Total Dipole Moment    :     -0.00000      -0.00000      -2.33819
                        -----------------------------------------
Magnitude (a.u.)       :      2.33819
Magnitude (Debye)      :      5.94320

Rotational constants in cm-1:     0.031346     0.012636     0.011926
Rotational constants in MHz :   939.719137   378.811425   357.527925

                             ****ORCA TERMINATED NORMALLY****
TOTAL RUN TIME: 0 days 0 hours 4 minutes 19 seconds 152 msec
