                         Program Version 5.0.3 -  RELEASE  -
|  1> !ri-mp2 aug-cc-pvdz aug-cc-pvdz/c tightscf
|  2> %pal nprocs 16 end
|  3>
|  4> * xyz 0 1
|  5> S     -1.415690   -0.626525   -0.000006
|  6> O     -0.221616    1.707573    0.000000
|  7> C     -0.028547    0.519090    0.000000
|  8> C      1.281666   -0.084082    0.000004
|  9> C      2.374298   -0.580157    0.000009
| 10> H     -0.687542   -1.757741   -0.000004
| 11> H      3.347002   -1.007548    0.000013
| 12> *
| 13>
| 14>                          ****END OF INPUT****

CARTESIAN COORDINATES (ANGSTROEM)
---------------------------------
  S     -1.415690   -0.626525   -0.000006
  O     -0.221616    1.707573    0.000000
  C     -0.028547    0.519090    0.000000
  C      1.281666   -0.084082    0.000004
  C      2.374298   -0.580157    0.000009
  H     -0.687542   -1.757741   -0.000004
  H      3.347002   -1.007548    0.000013

 Total Charge           Charge          ....    0
 Multiplicity           Mult            ....    1
 Number of Electrons    NEL             ....   44
 Basis Dimension        Dim             ....  137

ORBITAL ENERGIES
----------------

  NO   OCC          E(Eh)            E(eV)
   0   2.0000     -91.999083     -2503.4223
   1   2.0000     -20.594470      -560.4040
   2   2.0000     -11.413760      -310.5842
   3   2.0000     -11.291398      -307.2546
   4   2.0000     -11.281585      -306.9875
   5   2.0000      -9.001521      -244.9438
   6   2.0000      -6.683270      -181.8610
   7   2.0000      -6.681986      -181.8261
   8   2.0000      -6.679912      -181.7697
   9   2.0000      -1.435399       -39.0592
  10   2.0000      -1.098043       -29.8793
  11   2.0000      -1.034939       -28.1621
  12   2.0000      -0.888617       -24.1805
  13   2.0000      -0.752725       -20.4827
  14   2.0000      -0.710584       -19.3360
  15   2.0000      -0.655336       -17.8326
  16   2.0000      -0.594096       -16.1662
  17   2.0000      -0.543363       -14.7856
  18   2.0000      -0.455182       -12.3861
  19   2.0000      -0.438866       -11.9422
  20   2.0000      -0.435293       -11.8449
  21   2.0000      -0.403115       -10.9693
  22   0.0000       0.027999         0.7619
  23   0.0000       0.043847         1.1931
  24   0.0000       0.055502         1.5103
  25   0.0000       0.078834         2.1452
  26   0.0000       0.085089         2.3154

MULLIKEN ATOMIC CHARGES
-----------------------
   0 S :    0.194794
   1 O :   -0.721206
   2 C :    0.375367
   3 C :   -0.070028
   4 C :    0.517451
   5 H :    0.111825
   6 H :   -0.408202
Sum of atomic charges:    0.0000000

LOEWDIN ATOMIC CHARGES
----------------------
   0 S :    0.807624
   1 O :    0.007523
   2 C :   -0.660505
   3 C :   -0.100783
   4 C :    0.242248
   5 H :   -0.207807
   6 H :   -0.088300

  Mayer bond orders larger than 0.100000
B(  0-S ,  2-C ) :   0.9721 B(  0-S ,  3-C ) :   0.1199 B(  0-S ,  5-H ) :   0.9904
B(  1-O ,  2-C ) :   1.4653 B(  2-C ,  3-C ) :   1.1160 B(  3-C ,  4-C ) :   2.7544
B(  4-C ,  6-H ) :   0.4108

MP2 TOTAL ENERGY:     -587.831508349 Eh
FINAL SINGLE POINT ENERGY      -587.831508348775

DIPOLE MOMENT
-------------
                                X             Y             Z
Electronic contribution:     -1.78465       1.22077      -0.00001
Nuclear contribution   :      2.59077      -2.60938       0.00001
                        -----------------------------------------
Total Dipole Moment    :      0.80612      -1.38861       0.00000
                        -----------------------------------------
Magnitude (a.u.)       :      1.60564
Magnitude (Debye)      :      4.08120

Rotational constants in cm-1:     0.238789     0.102647     0.071788
Rotational constants in MHz :  7158.703903  3077.285482  2152.149124

                             ****ORCA TERMINATED NORMALLY****
TOTAL RUN TIME: 0 days 0 hours 0 minutes 38 seconds 955 msec
