                         Program Version 5.0.3 -  RELEASE  -
|  1> !ri-mp2 aug-cc-pvdz aug-cc-pvdz/c tightscf
|  2> %pal nprocs 16 end
|  3>
|  4> * xyz 0 1
|  5> C      0.000000    0.000000    0.712293
|  6> N      0.000000    1.158741    1.413954
|  7> N      0.000000   -1.158741    1.413954
|  8> C      0.000000   -2.261085    0.709672
|  9> C      0.000000    2.261085    0.709672
| 10> C      0.000000   -2.261085   -0.709672
| 11> N      0.000000   -1.158741   -1.413954
| 12> C      0.000000    0.000000   -0.712293
| 13> N      0.000000    1.158741   -1.413954
| 14> C      0.000000    2.261085   -0.709672
| 15> H      0.000000    3.201418   -1.250194
| 16> H      0.000000   -3.201418    1.250194
| 17> H      0.000000    3.201418    1.250194
| 18> H      0.000000   -3.201418   -1.250194
| 19> *
| 20>
| 21>                          ****END OF INPUT****

CARTESIAN COORDINATES (ANGSTROEM)
---------------------------------
  C      0.000000    0.000000    0.712293
  N      0.000000    1.158741    1.413954
  N      0.000000   -1.158741    1.413954
  C      0.000000   -2.261085    0.709672
  C      0.000000    2.261085    0.709672
  C      0.000000   -2.261085   -0.709672
  N      0.000000   -1.158741   -1.413954
  C      0.000000    0.000000   -0.712293
  N      0.000000    1.158741   -1.413954
  C      0.000000    2.261085   -0.709672
  H      0.000000    3.201418   -1.250194
  H      0.000000   -3.201418    1.250194
  H      0.000000    3.201418    1.250194
  H      0.000000   -3.201418   -1.250194

 Total Charge           Charge          ....    0
 Multiplicity           Mult            ....    1
 Number of Electrons    NEL             ....   68
 Basis Dimension        Dim             ....  266

ORBITAL ENERGIES
----------------

  NO   OCC          E(Eh)            E(eV)
   0   2.0000     -15.610915      -424.7946
   1   2.0000     -15.610898      -424.7941
   2   2.0000     -15.610895      -424.7941
   3   2.0000     -15.610886      -424.7938
   4   2.0000     -11.331980      -308.3589
   5   2.0000     -11.330940      -308.3306
   6   2.0000     -11.310702      -307.7799
   7   2.0000     -11.310702      -307.7798
   8   2.0000     -11.309669      -307.7517
   9   2.0000     -11.309667      -307.7517
  10   2.0000      -1.360167       -37.0120
  11   2.0000      -1.288252       -35.0551
  12   2.0000      -1.274739       -34.6874
  13   2.0000      -1.208688       -32.8901
  14   2.0000      -1.070542       -29.1309
  15   2.0000      -0.959249       -26.1025
  16   2.0000      -0.931587       -25.3498
  17   2.0000      -0.888227       -24.1699
  18   2.0000      -0.797074       -21.6895
  19   2.0000      -0.763134       -20.7659
  20   2.0000      -0.747792       -20.3485
  21   2.0000      -0.672186       -18.2911
  22   2.0000      -0.650660       -17.7053
  23   2.0000      -0.642820       -17.4920
  24   2.0000      -0.627804       -17.0834
  25   2.0000      -0.575650       -15.6642
  26   2.0000      -0.529446       -14.4070
  27   2.0000      -0.523417       -14.2429
  28   2.0000      -0.499115       -13.5816
  29   2.0000      -0.496446       -13.5090
  30   2.0000      -0.465364       -12.6632
  31   2.0000      -0.402472       -10.9518
  32   2.0000      -0.400746       -10.9049
  33   2.0000      -0.351549        -9.5661
  34   0.0000       0.019367         0.5270
  35   0.0000       0.031478         0.8566
  36   0.0000       0.033287         0.9058
  37   0.0000       0.048676         1.3245
  38   0.0000       0.051157         1.3921

MULLIKEN ATOMIC CHARGES
-----------------------
   0 C :    0.722778
   1 N :   -0.713560
   2 N :   -0.713560
   3 C :    0.649535
   4 C :    0.649534
   5 C :    0.649535
   6 N :   -0.713560
   7 C :    0.722778
   8 N :   -0.713560
   9 C :    0.649535
  10 H :   -0.297363
  11 H :   -0.297363
  12 H :   -0.297363
  13 H :   -0.297363
Sum of atomic charges:    0.0000000

LOEWDIN ATOMIC CHARGES
----------------------
   0 C :   -0.221017
   1 N :    0.099638
   2 N :    0.099638
   3 C :    0.004380
   4 C :    0.004380
   5 C :    0.004380
   6 N :    0.099638
   7 C :   -0.221017
   8 N :    0.099638
   9 C :    0.004380
  10 H :    0.006490
  11 H :    0.006490
  12 H :    0.006490
  13 H :    0.006490

  Mayer bond orders larger than 0.100000
B(  0-C ,  1-N ) :   1.0992 B(  0-C ,  2-N ) :   1.0992 B(  0-C ,  3-C ) :  -0.1444
B(  0-C ,  4-C ) :  -0.1444 B(  0-C ,  6-N ) :  -0.1252 B(  0-C ,  7-C ) :   1.2587
B(  0-C ,  8-N ) :  -0.1252 B(  0-C , 11-H ) :   0.1574 B(  0-C , 12-H ) :   0.1574
B(  1-N ,  2-N ) :  -0.1197 B(  1-N ,  4-C ) :   1.5377 B(  1-N ,  7-C ) :  -0.1252
B(  2-N ,  3-C ) :   1.5377 B(  2-N ,  7-C ) :  -0.1252 B(  3-C ,  5-C ) :   1.0812
B(  3-C , 11-H ) :   0.8675 B(  4-C ,  9-C ) :   1.0812 B(  4-C , 12-H ) :   0.8675
B(  5-C ,  6-N ) :   1.5377 B(  5-C ,  7-C ) :  -0.1444 B(  5-C , 13-H ) :   0.8675
B(  6-N ,  7-C ) :   1.0992 B(  6-N ,  8-N ) :  -0.1197 B(  7-C ,  8-N ) :   1.0992
B(  7-C ,  9-C ) :  -0.1444 B(  7-C , 10-H ) :   0.1574 B(  7-C , 13-H ) :   0.1574
B(  8-N ,  9-C ) :   1.5377 B(  9-C , 10-H ) :   0.8675

MP2 TOTAL ENERGY:     -448.825206688 Eh
FINAL SINGLE POINT ENERGY      -448.825206688215

DIPOLE MOMENT
-------------
                                X             Y             Z
Electronic contribution:      0.00000      -0.00000      -0.00000
Nuclear contribution   :      0.00000       0.00000      -0.00000
                        -----------------------------------------
Total Dipole Moment    :      0.00000      -0.00000      -0.00000
                        -----------------------------------------
Magnitude (a.u.)       :      0.00000
Magnitude (Debye)      :      0.00000

Rotational constants in cm-1:     0.108969     0.046545     0.032614
Rotational constants in MHz :  3266.808893  1395.392854   977.753008

                             ****ORCA TERMINATED NORMALLY****
TOTAL RUN TIME: 0 days 0 hours 1 minutes 42 seconds 390 msec
