                         Program Version 5.0.3 -  RELEASE  -
|  1> !ri-mp2 aug-cc-pvdz aug-cc-pvdz/c tightscf
|  2> %pal nprocs 16 end
|  3>
|  4> * xyz 0 1
|  5> C      0.136653   -2.474879        0.000000
|  6> C     -1.086113   -1.807655        0.000000
|  7> C      1.225830   -0.491905        0.000000
|  8> C      0.000000    0.176466        0.000000
|  9> C     -0.001608    1.673965        0.000000
| 10> N      1.295696   -1.820586        0.000000
| 11> N     -1.158456   -0.482162        0.000000
| 12> O      1.008915    2.334974        0.000000
| 13> O     -1.233924    2.207653        0.000000
| 14> H      0.179099   -3.557509        0.000000
| 15> H     -2.020706   -2.355520        0.000000
| 16> H      2.152353    0.065708        0.000000
| 17> H     -1.119931    3.169586        0.000000
| 18> *
| 19>
| 20>                          ****END OF INPUT****

CARTESIAN COORDINATES (ANGSTROEM)
---------------------------------
  C      0.136653   -2.474879    0.000000
  C     -1.086113   -1.807655    0.000000
  C      1.225830   -0.491905    0.000000
  C      0.000000    0.176466    0.000000
  C     -0.001608    1.673965    0.000000
  N      1.295696   -1.820586    0.000000
  N     -1.158456   -0.482162    0.000000
  O      1.008915    2.334974    0.000000
  O     -1.233924    2.207653    0.000000
  H      0.179099   -3.557509    0.000000
  H     -2.020706   -2.355520    0.000000
  H      2.152353    0.065708    0.000000
  H     -1.119931    3.169586    0.000000

 Total Charge           Charge          ....    0
 Multiplicity           Mult            ....    1
 Number of Electrons    NEL             ....   64
 Basis Dimension        Dim             ....  243

ORBITAL ENERGIES
----------------

  NO   OCC          E(Eh)            E(eV)
   0   2.0000     -20.631740      -561.4182
   1   2.0000     -20.573529      -559.8342
   2   2.0000     -15.621710      -425.0883
   3   2.0000     -15.613520      -424.8655
   4   2.0000     -11.413210      -310.5692
   5   2.0000     -11.312625      -307.8322
   6   2.0000     -11.311009      -307.7882
   7   2.0000     -11.308654      -307.7241
   8   2.0000     -11.304119      -307.6007
   9   2.0000      -1.483840       -40.3773
  10   2.0000      -1.379964       -37.5507
  11   2.0000      -1.332789       -36.2670
  12   2.0000      -1.243717       -33.8433
  13   2.0000      -1.086645       -29.5691
  14   2.0000      -0.953393       -25.9431
  15   2.0000      -0.919858       -25.0306
  16   2.0000      -0.849922       -23.1275
  17   2.0000      -0.751542       -20.4505
  18   2.0000      -0.737494       -20.0682
  19   2.0000      -0.708492       -19.2790
  20   2.0000      -0.702313       -19.1109
  21   2.0000      -0.652596       -17.7581
  22   2.0000      -0.650547       -17.7023
  23   2.0000      -0.609485       -16.5849
  24   2.0000      -0.587557       -15.9882
  25   2.0000      -0.575554       -15.6616
  26   2.0000      -0.513860       -13.9828
  27   2.0000      -0.497436       -13.5359
  28   2.0000      -0.480096       -13.0641
  29   2.0000      -0.453439       -12.3387
  30   2.0000      -0.423083       -11.5127
  31   2.0000      -0.375225       -10.2104
  32   0.0000       0.029986         0.8160
  33   0.0000       0.039298         1.0694
  34   0.0000       0.046689         1.2705
  35   0.0000       0.047363         1.2888
  36   0.0000       0.055264         1.5038

MULLIKEN ATOMIC CHARGES
-----------------------
   0 C :    0.503282
   1 C :    0.847542
   2 C :    0.473502
   3 C :    0.703031
   4 C :    1.185886
   5 N :   -0.652720
   6 N :   -0.920380
   7 O :   -0.767379
   8 O :   -0.762982
   9 H :   -0.254691
  10 H :   -0.293730
  11 H :   -0.340751
  12 H :    0.279391
Sum of atomic charges:   -0.0000000

LOEWDIN ATOMIC CHARGES
----------------------
   0 C :    0.001818
   1 C :   -0.002356
   2 C :    0.049375
   3 C :   -0.164142
   4 C :   -0.313472
   5 N :    0.057793
   6 N :    0.096452
   7 O :    0.046780
   8 O :    0.217432
   9 H :    0.006603
  10 H :    0.004045
  11 H :    0.013291
  12 H :   -0.013621

  Mayer bond orders larger than 0.100000
B(  0-C ,  1-C ) :   1.1654 B(  0-C ,  2-C ) :  -0.1329 B(  0-C ,  4-C ) :   0.1034
B(  0-C ,  5-N ) :   1.3505 B(  0-C ,  9-H ) :   1.0202 B(  1-C ,  3-C ) :  -0.1063
B(  1-C ,  6-N ) :   1.2738 B(  1-C ,  9-H ) :  -0.1110 B(  1-C , 10-H ) :   0.9113
B(  2-C ,  3-C ) :   0.7841 B(  2-C ,  4-C ) :   0.2879 B(  2-C ,  5-N ) :   1.1861
B(  2-C , 11-H ) :   1.1083 B(  3-C ,  4-C ) :   0.5581 B(  3-C ,  6-N ) :   1.1524
B(  3-C ,  8-O ) :   0.3199 B(  3-C , 11-H ) :  -0.2028 B(  4-C ,  7-O ) :   1.3077
B(  4-C ,  8-O ) :   0.1748 B(  7-O ,  8-O ) :   0.1377 B(  8-O , 12-H ) :   0.9359

MP2 TOTAL ENERGY:     -451.742341050 Eh
FINAL SINGLE POINT ENERGY      -451.742341049959

DIPOLE MOMENT
-------------
                                X             Y             Z
Electronic contribution:      0.16619       1.96088       0.00000
Nuclear contribution   :     -0.78639      -2.53727       0.00000
                        -----------------------------------------
Total Dipole Moment    :     -0.62020      -0.57638       0.00000
                        -----------------------------------------
Magnitude (a.u.)       :      0.84668
Magnitude (Debye)      :      2.15209

Rotational constants in cm-1:     0.135676     0.042754     0.032510
Rotational constants in MHz :  4067.459624  1281.740308   974.618077

                             ****ORCA TERMINATED NORMALLY****
TOTAL RUN TIME: 0 days 0 hours 1 minutes 26 seconds 504 msec
