                         Program Version 5.0.3 -  RELEASE  -
|  1> !ri-mp2 aug-cc-pvdz aug-cc-pvdz/c tightscf
|  2> %pal nprocs 16 end
|  3>
|  4> * xyz 0 1
|  5> C      0.771682   -0.432622    0.000000
|  6> C     -1.515437    0.563249    0.000000
|  7> C      0.000000    0.807103    0.000000
|  8> N      1.364991   -1.417770    0.000000
|  9> H     -1.819793    0.002200    0.881973
| 10> H     -2.041098    1.517131    0.000000
| 11> H     -1.819793    0.002200   -0.881973
| 12> H      0.294138    1.388238    0.876058
| 13> H      0.294138    1.388238   -0.876058
| 14> *
| 15>
| 16>                          ****END OF INPUT****

CARTESIAN COORDINATES (ANGSTROEM)
---------------------------------
  C      0.771682   -0.432622    0.000000
  C     -1.515437    0.563249    0.000000
  C      0.000000    0.807103    0.000000
  N      1.364991   -1.417770    0.000000
  H     -1.819793    0.002200    0.881973
  H     -2.041098    1.517131    0.000000
  H     -1.819793    0.002200   -0.881973
  H      0.294138    1.388238    0.876058
  H      0.294138    1.388238   -0.876058

 Total Charge           Charge          ....    0
 Multiplicity           Mult            ....    1
 Number of Electrons    NEL             ....   30
 Basis Dimension        Dim             ....  137

ORBITAL ENERGIES
----------------

  NO   OCC          E(Eh)            E(eV)
   0   2.0000     -15.577747      -423.8921
   1   2.0000     -11.292027      -307.2717
   2   2.0000     -11.280819      -306.9667
   3   2.0000     -11.255829      -306.2867
   4   2.0000      -1.225284       -33.3417
   5   2.0000      -1.085136       -29.5280
   6   2.0000      -0.915067       -24.9002
   7   2.0000      -0.703367       -19.1396
   8   2.0000      -0.658379       -17.9154
   9   2.0000      -0.590395       -16.0655
  10   2.0000      -0.562986       -15.3196
  11   2.0000      -0.543229       -14.7820
  12   2.0000      -0.540607       -14.7107
  13   2.0000      -0.458290       -12.4707
  14   2.0000      -0.457868       -12.4592
  15   0.0000       0.027895         0.7591
  16   0.0000       0.044641         1.2148
  17   0.0000       0.046221         1.2577
  18   0.0000       0.055407         1.5077
  19   0.0000       0.072236         1.9656

MULLIKEN ATOMIC CHARGES
-----------------------
   0 C :   -0.163354
   1 C :    0.378921
   2 C :    0.252207
   3 N :   -0.344389
   4 H :   -0.053010
   5 H :   -0.063836
   6 H :   -0.053010
   7 H :    0.023235
   8 H :    0.023235
Sum of atomic charges:    0.0000000

LOEWDIN ATOMIC CHARGES
----------------------
   0 C :   -0.153619
   1 C :    0.152988
   2 C :   -0.069903
   3 N :    0.064928
   4 H :   -0.012176
   5 H :   -0.014814
   6 H :   -0.012176
   7 H :    0.022386
   8 H :    0.022386

  Mayer bond orders larger than 0.100000
B(  0-C ,  2-C ) :   0.8008 B(  0-C ,  3-N ) :   2.7005 B(  1-C ,  2-C ) :   1.2922
B(  1-C ,  4-H ) :   0.9390 B(  1-C ,  5-H ) :   0.9090 B(  1-C ,  6-H ) :   0.9390
B(  2-C ,  7-H ) :   0.8575 B(  2-C ,  8-H ) :   0.8575

MP2 TOTAL ENERGY:     -171.567436873 Eh
FINAL SINGLE POINT ENERGY      -171.567436873265

DIPOLE MOMENT
-------------
                                X             Y             Z
Electronic contribution:      4.22228      -2.97210       0.00000
Nuclear contribution   :     -5.20091       4.38799       0.00000
                        -----------------------------------------
Total Dipole Moment    :     -0.97863       1.41589       0.00000
                        -----------------------------------------
Magnitude (a.u.)       :      1.72118
Magnitude (Debye)      :      4.37489

Rotational constants in cm-1:     0.940156     0.156620     0.141265
Rotational constants in MHz : 28185.154270  4695.353194  4235.007188

                             ****ORCA TERMINATED NORMALLY****
TOTAL RUN TIME: 0 days 0 hours 0 minutes 47 seconds 848 msec
