                         Program Version 5.0.3 -  RELEASE  -
|  1> !ri-mp2 aug-cc-pvdz aug-cc-pvdz/c tightscf
|  2> %pal nprocs 16 end
|  3>
|  4> * xyz 0 1
|  5> F      1.053714    1.101216    0.000007
|  6> O      1.153455   -1.111284    0.000013
|  7> C      0.490920   -0.130271   -0.000038
|  8> C     -0.939398   -0.040028   -0.000063
|  9> C     -2.136840   -0.004245    0.000046
| 10> H     -3.199160    0.026597    0.000161
| 11> *
| 12>
| 13>                          ****END OF INPUT****

CARTESIAN COORDINATES (ANGSTROEM)
---------------------------------
  F      1.053714    1.101216    0.000007
  O      1.153455   -1.111284    0.000013
  C      0.490920   -0.130271   -0.000038
  C     -0.939398   -0.040028   -0.000063
  C     -2.136840   -0.004245    0.000046
  H     -3.199160    0.026597    0.000161

 Total Charge           Charge          ....    0
 Multiplicity           Mult            ....    1
 Number of Electrons    NEL             ....   36
 Basis Dimension        Dim             ....  124

ORBITAL ENERGIES
----------------

  NO   OCC          E(Eh)            E(eV)
   0   2.0000     -26.359795      -717.2865
   1   2.0000     -20.616521      -561.0040
   2   2.0000     -11.473796      -312.2179
   3   2.0000     -11.305445      -307.6368
   4   2.0000     -11.293086      -307.3005
   5   2.0000      -1.676536       -45.6209
   6   2.0000      -1.458982       -39.7009
   7   2.0000      -1.101866       -29.9833
   8   2.0000      -0.952316       -25.9138
   9   2.0000      -0.824277       -22.4297
  10   2.0000      -0.757154       -20.6032
  11   2.0000      -0.739661       -20.1272
  12   2.0000      -0.736746       -20.0479
  13   2.0000      -0.658170       -17.9097
  14   2.0000      -0.574772       -15.6403
  15   2.0000      -0.530986       -14.4489
  16   2.0000      -0.453336       -12.3359
  17   2.0000      -0.452093       -12.3021
  18   0.0000       0.027192         0.7399
  19   0.0000       0.055369         1.5067
  20   0.0000       0.072885         1.9833
  21   0.0000       0.088324         2.4034
  22   0.0000       0.092691         2.5223

MULLIKEN ATOMIC CHARGES
-----------------------
   0 F :   -0.589003
   1 O :   -0.601751
   2 C :    1.185937
   3 C :   -0.270587
   4 C :    0.708788
   5 H :   -0.433384
Sum of atomic charges:   -0.0000000

LOEWDIN ATOMIC CHARGES
----------------------
   0 F :    0.066543
   1 O :    0.099947
   2 C :   -0.333509
   3 C :   -0.014125
   4 C :    0.263873
   5 H :   -0.082730

  Mayer bond orders larger than 0.100000
B(  0-F ,  2-C ) :   0.2508 B(  0-F ,  3-C ) :   0.2107 B(  1-O ,  2-C ) :   1.6777
B(  2-C ,  3-C ) :   1.0570 B(  2-C ,  4-C ) :   0.1075 B(  2-C ,  5-H ) :   0.1016
B(  3-C ,  4-C ) :   2.7880 B(  4-C ,  5-H ) :   0.3574

MP2 TOTAL ENERGY:     -289.227774816 Eh
FINAL SINGLE POINT ENERGY      -289.227774815662

DIPOLE MOMENT
-------------
                                X             Y             Z
Electronic contribution:      2.59151       1.30061      -0.00013
Nuclear contribution   :     -3.96216      -1.01219       0.00014
                        -----------------------------------------
Total Dipole Moment    :     -1.37065       0.28842       0.00002
                        -----------------------------------------
Magnitude (a.u.)       :      1.40066
Magnitude (Debye)      :      3.56020

Rotational constants in cm-1:     0.392161     0.139542     0.102920
Rotational constants in MHz : 11756.685955  4183.360058  3085.464776

                             ****ORCA TERMINATED NORMALLY****
TOTAL RUN TIME: 0 days 0 hours 0 minutes 34 seconds 237 msec
