                         Program Version 5.0.3 -  RELEASE  -
|  1> !ri-mp2 aug-cc-pvdz aug-cc-pvdz/c tightscf
|  2> %pal nprocs 16 end
|  3>
|  4> * xyz 0 1
|  5> C      0.000000    0.000000    1.983144
|  6> C      0.000000    0.000000   -2.114003
|  7> C      0.000000    1.182119   -1.386720
|  8> C      0.000000   -1.182119   -1.386720
|  9> C      0.000000    0.000000    0.536531
| 10> N      0.000000    0.000000    3.132944
| 11> N      0.000000    1.194621   -0.055327
| 12> N      0.000000   -1.194621   -0.055327
| 13> H      0.000000    0.000000   -3.193985
| 14> H      0.000000    2.147839   -1.877717
| 15> H      0.000000   -2.147839   -1.877717
| 16> *
| 17>
| 18>                          ****END OF INPUT****

CARTESIAN COORDINATES (ANGSTROEM)
---------------------------------
  C      0.000000    0.000000    1.983144
  C      0.000000    0.000000   -2.114003
  C      0.000000    1.182119   -1.386720
  C      0.000000   -1.182119   -1.386720
  C      0.000000    0.000000    0.536531
  N      0.000000    0.000000    3.132944
  N      0.000000    1.194621   -0.055327
  N      0.000000   -1.194621   -0.055327
  H      0.000000    0.000000   -3.193985
  H      0.000000    2.147839   -1.877717
  H      0.000000   -2.147839   -1.877717

 Total Charge           Charge          ....    0
 Multiplicity           Mult            ....    1
 Number of Electrons    NEL             ....   54
 Basis Dimension        Dim             ....  211

ORBITAL ENERGIES
----------------

  NO   OCC          E(Eh)            E(eV)
   0   2.0000     -15.619340      -425.0238
   1   2.0000     -15.619310      -425.0230
   2   2.0000     -15.598868      -424.4668
   3   2.0000     -11.381884      -309.7168
   4   2.0000     -11.334493      -308.4272
   5   2.0000     -11.334481      -308.4269
   6   2.0000     -11.293488      -307.3114
   7   2.0000     -11.286549      -307.1226
   8   2.0000      -1.360517       -37.0216
   9   2.0000      -1.237798       -33.6822
  10   2.0000      -1.236444       -33.6453
  11   2.0000      -1.117498       -30.4087
  12   2.0000      -0.958915       -26.0934
  13   2.0000      -0.933693       -25.4071
  14   2.0000      -0.810136       -22.0449
  15   2.0000      -0.743924       -20.2432
  16   2.0000      -0.705676       -19.2024
  17   2.0000      -0.639647       -17.4057
  18   2.0000      -0.627853       -17.0847
  19   2.0000      -0.624235       -16.9863
  20   2.0000      -0.572791       -15.5864
  21   2.0000      -0.517287       -14.0761
  22   2.0000      -0.499405       -13.5895
  23   2.0000      -0.485401       -13.2084
  24   2.0000      -0.454079       -12.3561
  25   2.0000      -0.447990       -12.1904
  26   2.0000      -0.397781       -10.8242
  27   0.0000       0.020609         0.5608
  28   0.0000       0.034820         0.9475
  29   0.0000       0.047482         1.2921
  30   0.0000       0.048158         1.3104
  31   0.0000       0.056326         1.5327

MULLIKEN ATOMIC CHARGES
-----------------------
   0 C :   -0.625358
   1 C :    0.613731
   2 C :    0.729887
   3 C :    0.729887
   4 C :    0.992590
   5 N :   -0.171369
   6 N :   -0.674399
   7 N :   -0.674399
   8 H :   -0.357310
   9 H :   -0.281631
  10 H :   -0.281631
Sum of atomic charges:    0.0000000

LOEWDIN ATOMIC CHARGES
----------------------
   0 C :   -0.072803
   1 C :    0.050134
   2 C :    0.009073
   3 C :    0.009073
   4 C :   -0.297549
   5 N :    0.096836
   6 N :    0.084971
   7 N :    0.084971
   8 H :    0.004625
   9 H :    0.015335
  10 H :    0.015335

  Mayer bond orders larger than 0.100000
B(  0-C ,  4-C ) :   0.1120 B(  0-C ,  5-N ) :   2.4838 B(  0-C ,  6-N ) :   0.1777
B(  0-C ,  7-N ) :   0.1777 B(  1-C ,  2-C ) :   1.3742 B(  1-C ,  3-C ) :   1.3742
B(  1-C ,  4-C ) :   0.1774 B(  1-C ,  8-H ) :   0.7720 B(  2-C ,  3-C ) :   0.1693
B(  2-C ,  4-C ) :  -0.1268 B(  2-C ,  6-N ) :   1.1054 B(  2-C ,  9-H ) :   0.8681
B(  3-C ,  4-C ) :  -0.1268 B(  3-C ,  7-N ) :   1.1054 B(  3-C , 10-H ) :   0.8681
B(  4-C ,  6-N ) :   1.3372 B(  4-C ,  7-N ) :   1.3372

MP2 TOTAL ENERGY:     -355.600582247 Eh
FINAL SINGLE POINT ENERGY      -355.600582246797

DIPOLE MOMENT
-------------
                                X             Y             Z
Electronic contribution:     -0.00000      -0.00000       4.02038
Nuclear contribution   :      0.00000       0.00000      -6.68870
                        -----------------------------------------
Total Dipole Moment    :     -0.00000      -0.00000      -2.66832
                        -----------------------------------------
Magnitude (a.u.)       :      2.66832
Magnitude (Debye)      :      6.78234

Rotational constants in cm-1:     0.203477     0.055257     0.043456
Rotational constants in MHz :  6100.078565  1656.572499  1302.781614

                             ****ORCA TERMINATED NORMALLY****
TOTAL RUN TIME: 0 days 0 hours 0 minutes 51 seconds 161 msec
