                         Program Version 5.0.3 -  RELEASE  -
|  1> !ri-mp2 aug-cc-pvdz aug-cc-pvdz/c tightscf
|  2> %pal nprocs 16 end
|  3>
|  4> * xyz 0 1
|  5> C      0.669588    1.190338   -0.009937
|  6> C      0.669666   -1.190178   -0.009924
|  7> C     -0.718186    1.198300    0.003054
|  8> C     -0.717909   -1.198256    0.003081
|  9> C      1.396835    0.000223   -0.013482
| 10> C     -1.437175    0.000049    0.010600
| 11> C      2.903547   -0.000073    0.006732
| 12> N     -2.833422   -0.000219    0.080437
| 13> H      1.197270    2.136416   -0.020466
| 14> H      1.197417   -2.136238   -0.020449
| 15> H     -1.250749    2.141644    0.007895
| 16> H     -1.250429   -2.141628    0.007947
| 17> H      3.308495   -0.870548   -0.510365
| 18> H      3.307829    0.891793   -0.472804
| 19> H      3.289746   -0.021962    1.029503
| 20> H     -3.281770   -0.834223   -0.262806
| 21> H     -3.282044    0.833864   -0.262259
| 22> *
| 23>
| 24>                          ****END OF INPUT****

CARTESIAN COORDINATES (ANGSTROEM)
---------------------------------
  C      0.669588    1.190338   -0.009937
  C      0.669666   -1.190178   -0.009924
  C     -0.718186    1.198300    0.003054
  C     -0.717909   -1.198256    0.003081
  C      1.396835    0.000223   -0.013482
  C     -1.437175    0.000049    0.010600
  C      2.903547   -0.000073    0.006732
  N     -2.833422   -0.000219    0.080437
  H      1.197270    2.136416   -0.020466
  H      1.197417   -2.136238   -0.020449
  H     -1.250749    2.141644    0.007895
  H     -1.250429   -2.141628    0.007947
  H      3.308495   -0.870548   -0.510365
  H      3.307829    0.891793   -0.472804
  H      3.289746   -0.021962    1.029503
  H     -3.281770   -0.834223   -0.262806
  H     -3.282044    0.833864   -0.262259

 Total Charge           Charge          ....    0
 Multiplicity           Mult            ....    1
 Number of Electrons    NEL             ....   58
 Basis Dimension        Dim             ....  265

ORBITAL ENERGIES
----------------

  NO   OCC          E(Eh)            E(eV)
   0   2.0000     -15.569796      -423.6757
   1   2.0000     -11.277290      -306.8707
   2   2.0000     -11.233408      -305.6766
   3   2.0000     -11.233267      -305.6727
   4   2.0000     -11.228576      -305.5451
   5   2.0000     -11.226251      -305.4818
   6   2.0000     -11.226156      -305.4792
   7   2.0000     -11.223432      -305.4051
   8   2.0000      -1.223524       -33.2938
   9   2.0000      -1.134214       -30.8635
  10   2.0000      -1.022701       -27.8291
  11   2.0000      -1.011594       -27.5269
  12   2.0000      -0.918165       -24.9845
  13   2.0000      -0.833534       -22.6816
  14   2.0000      -0.793347       -21.5881
  15   2.0000      -0.697153       -18.9705
  16   2.0000      -0.688519       -18.7356
  17   2.0000      -0.635321       -17.2880
  18   2.0000      -0.605063       -16.4646
  19   2.0000      -0.587787       -15.9945
  20   2.0000      -0.578457       -15.7406
  21   2.0000      -0.568231       -15.4624
  22   2.0000      -0.530681       -14.4406
  23   2.0000      -0.524556       -14.2739
  24   2.0000      -0.495345       -13.4790
  25   2.0000      -0.479574       -13.0499
  26   2.0000      -0.436283       -11.8719
  27   2.0000      -0.333929        -9.0867
  28   2.0000      -0.284514        -7.7420
  29   0.0000       0.032596         0.8870
  30   0.0000       0.041050         1.1170
  31   0.0000       0.041808         1.1376
  32   0.0000       0.054209         1.4751
  33   0.0000       0.056416         1.5352

MULLIKEN ATOMIC CHARGES
-----------------------
   0 C :    0.759643
   1 C :    0.752773
   2 C :    0.529440
   3 C :    0.531650
   4 C :   -0.010155
   5 C :   -0.012543
   6 C :    0.446117
   7 N :   -0.408719
   8 H :   -0.605811
   9 H :   -0.606133
  10 H :   -0.600301
  11 H :   -0.600787
  12 H :   -0.075764
  13 H :   -0.089182
  14 H :    0.082111
  15 H :   -0.046266
  16 H :   -0.046074
Sum of atomic charges:    0.0000000

LOEWDIN ATOMIC CHARGES
----------------------
   0 C :    0.036814
   1 C :    0.037037
   2 C :    0.046786
   3 C :    0.046841
   4 C :   -0.228601
   5 C :   -0.241953
   6 C :    0.164898
   7 N :    0.236073
   8 H :    0.006244
   9 H :    0.006540
  10 H :    0.000120
  11 H :    0.000154
  12 H :   -0.016684
  13 H :   -0.017023
  14 H :   -0.010141
  15 H :   -0.033564
  16 H :   -0.033541

  Mayer bond orders larger than 0.100000
B(  0-C ,  1-C ) :  -0.6076 B(  0-C ,  2-C ) :   2.0126 B(  0-C ,  4-C ) :   2.0315
B(  0-C ,  5-C ) :  -0.2186 B(  0-C ,  6-C ) :  -0.5433 B(  0-C ,  8-H ) :  -0.3252
B(  0-C , 10-H ) :   0.2826 B(  0-C , 13-H ) :  -0.1308 B(  1-C ,  3-C ) :   2.0525
B(  1-C ,  4-C ) :   1.9974 B(  1-C ,  5-C ) :  -0.2231 B(  1-C ,  6-C ) :  -0.5682
B(  1-C ,  9-H ) :  -0.3161 B(  1-C , 11-H ) :   0.2851 B(  1-C , 12-H ) :  -0.1280
B(  2-C ,  3-C ) :   0.3329 B(  2-C ,  4-C ) :  -0.5694 B(  2-C ,  5-C ) :   1.4968
B(  2-C ,  6-C ) :   0.3769 B(  2-C ,  8-H ) :   0.3414 B(  2-C , 10-H ) :  -0.3894
B(  3-C ,  4-C ) :  -0.5853 B(  3-C ,  5-C ) :   1.4993 B(  3-C ,  6-C ) :   0.3680
B(  3-C ,  9-H ) :   0.3445 B(  3-C , 11-H ) :  -0.3926 B(  4-C ,  5-C ) :   0.5794
B(  4-C ,  6-C ) :   1.6666 B(  4-C ,  8-H ) :   0.6540 B(  4-C ,  9-H ) :   0.6468
B(  4-C , 10-H ) :  -0.1579 B(  4-C , 11-H ) :  -0.1583 B(  4-C , 12-H ) :   0.3170
B(  4-C , 13-H ) :   0.3268 B(  4-C , 14-H ) :   0.2387 B(  5-C ,  7-N ) :   0.8150
B(  5-C ,  8-H ) :  -0.2137 B(  5-C ,  9-H ) :  -0.2138 B(  5-C , 10-H ) :   0.7946
B(  5-C , 11-H ) :   0.7964 B(  6-C , 12-H ) :   0.7750 B(  6-C , 13-H ) :   0.7635
B(  6-C , 14-H ) :   0.8577 B(  7-N , 15-H ) :   1.1146 B(  7-N , 16-H ) :   1.1143

MP2 TOTAL ENERGY:     -325.952664278 Eh
FINAL SINGLE POINT ENERGY      -325.952664278453

DIPOLE MOMENT
-------------
                                X             Y             Z
Electronic contribution:     -3.54633      -0.00016       0.13530
Nuclear contribution   :      3.27237      -0.00090      -0.51166
                        -----------------------------------------
Total Dipole Moment    :     -0.27396      -0.00106      -0.37635
                        -----------------------------------------
Magnitude (a.u.)       :      0.46551
Magnitude (Debye)      :      1.18323

Rotational constants in cm-1:     0.183789     0.048506     0.038691
Rotational constants in MHz :  5509.860351  1454.172697  1159.936061

                             ****ORCA TERMINATED NORMALLY****
TOTAL RUN TIME: 0 days 0 hours 1 minutes 29 seconds 835 msec
