                         Program Version 5.0.3 -  RELEASE  -
|  1> !ri-mp2 aug-cc-pvdz aug-cc-pvdz/c tightscf
|  2> %pal nprocs 16 end
|  3>
|  4> * xyz 0 1
|  5> C     -0.002527   -1.360148    1.209015
|  6> C     -0.002527   -1.360148   -1.209015
|  7> C     -0.002527    0.019496    1.209747
|  8> C     -0.002527    0.019496   -1.209747
|  9> C     -0.001512   -2.076412    0.000000
| 10> C     -0.002390    0.706727    0.000000
| 11> N     -0.043718   -3.450313    0.000000
| 12> N     -0.000096    2.164119    0.000000
| 13> O      0.000905    2.738949    1.083563
| 14> O      0.000905    2.738949   -1.083563
| 15> H     -0.005983   -1.897716    2.148203
| 16> H     -0.005983   -1.897716   -2.148203
| 17> H     -0.001593    0.575824    2.134036
| 18> H     -0.001593    0.575824   -2.134036
| 19> H      0.195712   -3.935056    0.846913
| 20> H      0.195712   -3.935056   -0.846913
| 21> *
| 22>
| 23>                          ****END OF INPUT****

CARTESIAN COORDINATES (ANGSTROEM)
---------------------------------
  C     -0.002527   -1.360148    1.209015
  C     -0.002527   -1.360148   -1.209015
  C     -0.002527    0.019496    1.209747
  C     -0.002527    0.019496   -1.209747
  C     -0.001512   -2.076412    0.000000
  C     -0.002390    0.706727    0.000000
  N     -0.043718   -3.450313    0.000000
  N     -0.000096    2.164119    0.000000
  O      0.000905    2.738949    1.083563
  O      0.000905    2.738949   -1.083563
  H     -0.005983   -1.897716    2.148203
  H     -0.005983   -1.897716   -2.148203
  H     -0.001593    0.575824    2.134036
  H     -0.001593    0.575824   -2.134036
  H      0.195712   -3.935056    0.846913
  H      0.195712   -3.935056   -0.846913

 Total Charge           Charge          ....    0
 Multiplicity           Mult            ....    1
 Number of Electrons    NEL             ....   72
 Basis Dimension        Dim             ....  284

ORBITAL ENERGIES
----------------

  NO   OCC          E(Eh)            E(eV)
   0   2.0000     -20.598727      -560.5199
   1   2.0000     -20.598675      -560.5184
   2   2.0000     -15.850392      -431.3111
   3   2.0000     -15.606245      -424.6675
   4   2.0000     -11.326800      -308.2179
   5   2.0000     -11.294162      -307.3298
   6   2.0000     -11.279445      -306.9293
   7   2.0000     -11.279379      -306.9275
   8   2.0000     -11.257531      -306.3330
   9   2.0000     -11.257514      -306.3325
  10   2.0000      -1.598075       -43.4858
  11   2.0000      -1.390111       -37.8268
  12   2.0000      -1.266239       -34.4561
  13   2.0000      -1.182465       -32.1765
  14   2.0000      -1.071017       -29.1438
  15   2.0000      -1.053491       -28.6670
  16   2.0000      -0.944373       -25.6977
  17   2.0000      -0.873615       -23.7723
  18   2.0000      -0.826047       -22.4779
  19   2.0000      -0.774427       -21.0732
  20   2.0000      -0.737550       -20.0697
  21   2.0000      -0.730827       -19.8868
  22   2.0000      -0.708448       -19.2778
  23   2.0000      -0.708098       -19.2683
  24   2.0000      -0.646033       -17.5794
  25   2.0000      -0.631155       -17.1746
  26   2.0000      -0.619503       -16.8575
  27   2.0000      -0.592470       -16.1219
  28   2.0000      -0.565229       -15.3807
  29   2.0000      -0.523416       -14.2429
  30   2.0000      -0.487072       -13.2539
  31   2.0000      -0.481416       -13.1000
  32   2.0000      -0.481030       -13.0895
  33   2.0000      -0.445166       -12.1136
  34   2.0000      -0.371278       -10.1030
  35   2.0000      -0.327105        -8.9010
  36   0.0000       0.019943         0.5427
  37   0.0000       0.033383         0.9084
  38   0.0000       0.043300         1.1782
  39   0.0000       0.050549         1.3755
  40   0.0000       0.056319         1.5325

MULLIKEN ATOMIC CHARGES
-----------------------
   0 C :    0.768783
   1 C :    0.768783
   2 C :    0.351372
   3 C :    0.351372
   4 C :    0.115552
   5 C :    1.380937
   6 N :   -0.333400
   7 N :    0.456583
   8 O :   -0.823679
   9 O :   -0.823679
  10 H :   -0.582026
  11 H :   -0.582026
  12 H :   -0.479387
  13 H :   -0.479387
  14 H :   -0.044899
  15 H :   -0.044899
Sum of atomic charges:    0.0000000

LOEWDIN ATOMIC CHARGES
----------------------
   0 C :    0.065505
   1 C :    0.065505
   2 C :    0.076567
   3 C :    0.076567
   4 C :   -0.213486
   5 C :   -0.132097
   6 N :    0.258345
   7 N :   -0.343455
   8 O :    0.075500
   9 O :    0.075500
  10 H :    0.005072
  11 H :    0.005072
  12 H :    0.011187
  13 H :    0.011187
  14 H :   -0.018484
  15 H :   -0.018484

  Mayer bond orders larger than 0.100000
B(  0-C ,  1-C ) :  -0.1382 B(  0-C ,  2-C ) :   2.2852 B(  0-C ,  3-C ) :   0.2463
B(  0-C ,  4-C ) :   1.6531 B(  0-C ,  5-C ) :  -0.1780 B(  0-C ,  6-N ) :  -0.1186
B(  0-C , 10-H ) :  -0.2979 B(  0-C , 12-H ) :   0.2699 B(  1-C ,  2-C ) :   0.2463
B(  1-C ,  3-C ) :   2.2852 B(  1-C ,  4-C ) :   1.6531 B(  1-C ,  5-C ) :  -0.1780
B(  1-C ,  6-N ) :  -0.1186 B(  1-C , 11-H ) :  -0.2979 B(  1-C , 13-H ) :   0.2699
B(  2-C ,  3-C ) :  -0.1166 B(  2-C ,  4-C ) :  -0.1630 B(  2-C ,  5-C ) :   1.2333
B(  2-C , 10-H ) :   0.2949 B(  3-C ,  4-C ) :  -0.1630 B(  3-C ,  5-C ) :   1.2333
B(  3-C , 11-H ) :   0.2949 B(  4-C ,  5-C ) :   0.2517 B(  4-C ,  6-N ) :   0.9636
B(  4-C , 10-H ) :   0.7037 B(  4-C , 11-H ) :   0.7037 B(  4-C , 12-H ) :  -0.1245
B(  4-C , 13-H ) :  -0.1245 B(  4-C , 14-H ) :  -0.1066 B(  4-C , 15-H ) :  -0.1066
B(  5-C ,  7-N ) :   0.2989 B(  5-C ,  8-O ) :  -0.1156 B(  5-C ,  9-O ) :  -0.1156
B(  5-C , 10-H ) :  -0.1627 B(  5-C , 11-H ) :  -0.1627 B(  5-C , 12-H ) :   0.4188
B(  5-C , 13-H ) :   0.4188 B(  6-N , 14-H ) :   1.1104 B(  6-N , 15-H ) :   1.1104
B(  7-N ,  8-O ) :   1.1022 B(  7-N ,  9-O ) :   1.1022 B(  8-O ,  9-O ) :   0.1932

MP2 TOTAL ENERGY:     -490.841184286 Eh
FINAL SINGLE POINT ENERGY      -490.841184285552

DIPOLE MOMENT
-------------
                                X             Y             Z
Electronic contribution:     -0.09311       7.34288      -0.00000
Nuclear contribution   :      0.36814     -10.21564       0.00000
                        -----------------------------------------
Total Dipole Moment    :      0.27502      -2.87276      -0.00000
                        -----------------------------------------
Magnitude (a.u.)       :      2.88590
Magnitude (Debye)      :      7.33537

Rotational constants in cm-1:     0.131833     0.027496     0.022757
Rotational constants in MHz :  3952.249093   824.304709   682.240605

                             ****ORCA TERMINATED NORMALLY****
TOTAL RUN TIME: 0 days 0 hours 1 minutes 38 seconds 802 msec
