                         Program Version 5.0.3 -  RELEASE  -
|  1> !ri-mp2 aug-cc-pvdz aug-cc-pvdz/c tightscf
|  2> %pal nprocs 16 end
|  3> %maxcore 3800
|  4>
|  5> * xyz 0 1
|  6> C      0.000000    0.000000    0.338951
|  7> C     -0.058312    1.310999   -0.518663
|  8> C      0.058312   -1.310999   -0.518663
|  9> C      0.291389    2.615577    0.272146
| 10> C     -0.291389   -2.615577    0.272146
| 11> F      1.094395    0.038571    1.125903
| 12> F     -1.094395   -0.038571    1.125903
| 13> F      0.809009    1.215438   -1.547143
| 14> F     -1.303708    1.452288   -1.008386
| 15> F     -0.809009   -1.215438   -1.547143
| 16> F      1.303708   -1.452288   -1.008386
| 17> F      0.000000    3.669670   -0.493082
| 18> F      0.000000   -3.669670   -0.493082
| 19> F     -0.424553    2.689340    1.397413
| 20> F      1.587918    2.657401    0.576655
| 21> F      0.424553   -2.689340    1.397413
| 22> F     -1.587918   -2.657401    0.576655
| 23> *
| 24>
| 25>                          ****END OF INPUT****

CARTESIAN COORDINATES (ANGSTROEM)
---------------------------------
  C      0.000000    0.000000    0.338951
  C     -0.058312    1.310999   -0.518663
  C      0.058312   -1.310999   -0.518663
  C      0.291389    2.615577    0.272146
  C     -0.291389   -2.615577    0.272146
  F      1.094395    0.038571    1.125903
  F     -1.094395   -0.038571    1.125903
  F      0.809009    1.215438   -1.547143
  F     -1.303708    1.452288   -1.008386
  F     -0.809009   -1.215438   -1.547143
  F      1.303708   -1.452288   -1.008386
  F      0.000000    3.669670   -0.493082
  F      0.000000   -3.669670   -0.493082
  F     -0.424553    2.689340    1.397413
  F      1.587918    2.657401    0.576655
  F      0.424553   -2.689340    1.397413
  F     -1.587918   -2.657401    0.576655

 Total Charge           Charge          ....    0
 Multiplicity           Mult            ....    1
 Number of Electrons    NEL             ....  138
 Basis Dimension        Dim             ....  391

ORBITAL ENERGIES
----------------

  NO   OCC          E(Eh)            E(eV)
   0   2.0000     -26.396743      -718.2919
   1   2.0000     -26.396725      -718.2914
   2   2.0000     -26.395256      -718.2514
   3   2.0000     -26.395252      -718.2513
   4   2.0000     -26.395028      -718.2452
   5   2.0000     -26.395028      -718.2452
   6   2.0000     -26.393208      -718.1957
   7   2.0000     -26.393208      -718.1957
   8   2.0000     -26.392972      -718.1893
   9   2.0000     -26.392969      -718.1892
  10   2.0000     -26.391774      -718.1567
  11   2.0000     -26.391773      -718.1567
  12   2.0000     -11.571506      -314.8767
  13   2.0000     -11.571504      -314.8766
  14   2.0000     -11.516394      -313.3770
  15   2.0000     -11.513396      -313.2954
  16   2.0000     -11.513334      -313.2937
  17   2.0000      -1.783967       -48.5442
  18   2.0000      -1.781987       -48.4903
  19   2.0000      -1.754052       -47.7302
  20   2.0000      -1.736474       -47.2518
  21   2.0000      -1.734747       -47.2049
  22   2.0000      -1.691340       -46.0237
  23   2.0000      -1.686677       -45.8968
  24   2.0000      -1.682564       -45.7849
  25   2.0000      -1.682052       -45.7709
  26   2.0000      -1.680103       -45.7179
  27   2.0000      -1.674258       -45.5589
  28   2.0000      -1.673588       -45.5406
  29   2.0000      -1.152485       -31.3607
  30   2.0000      -1.110598       -30.2209
  31   2.0000      -1.044665       -28.4268
  32   2.0000      -0.980928       -26.6924
  33   2.0000      -0.950541       -25.8655
  34   2.0000      -0.904858       -24.6224
  35   2.0000      -0.894785       -24.3483
  36   2.0000      -0.884169       -24.0595
  37   2.0000      -0.877054       -23.8658
  38   2.0000      -0.874371       -23.7929
  39   2.0000      -0.871698       -23.7201
  40   2.0000      -0.852877       -23.2079
  41   2.0000      -0.852728       -23.2039
  42   2.0000      -0.845835       -23.0163
  43   2.0000      -0.825697       -22.4684
  44   2.0000      -0.806429       -21.9440
  45   2.0000      -0.771090       -20.9824
  46   2.0000      -0.766374       -20.8541
  47   2.0000      -0.761187       -20.7130
  48   2.0000      -0.754573       -20.5330
  49   2.0000      -0.750179       -20.4134
  50   2.0000      -0.746939       -20.3252
  51   2.0000      -0.744211       -20.2510
  52   2.0000      -0.742571       -20.2064
  53   2.0000      -0.735817       -20.0226
  54   2.0000      -0.732246       -19.9254
  55   2.0000      -0.725829       -19.7508
  56   2.0000      -0.711154       -19.3515
  57   2.0000      -0.704073       -19.1588
  58   2.0000      -0.701469       -19.0879
  59   2.0000      -0.698621       -19.0104
  60   2.0000      -0.695862       -18.9354
  61   2.0000      -0.693557       -18.8726
  62   2.0000      -0.690591       -18.7919
  63   2.0000      -0.685679       -18.6583
  64   2.0000      -0.685253       -18.6467
  65   2.0000      -0.658787       -17.9265
  66   2.0000      -0.644216       -17.5300
  67   2.0000      -0.609572       -16.5873
  68   2.0000      -0.547744       -14.9049
  69   0.0000       0.063479         1.7274
  70   0.0000       0.067311         1.8316
  71   0.0000       0.069870         1.9013
  72   0.0000       0.080060         2.1785
  73   0.0000       0.092307         2.5118

MULLIKEN ATOMIC CHARGES
-----------------------
   0 C :    1.060259
   1 C :    1.291515
   2 C :    1.291515
   3 C :    2.277716
   4 C :    2.277716
   5 F :   -0.730951
   6 F :   -0.730951
   7 F :   -0.742344
   8 F :   -0.730383
   9 F :   -0.742344
  10 F :   -0.730383
  11 F :   -0.627138
  12 F :   -0.627138
  13 F :   -0.643705
  14 F :   -0.624840
  15 F :   -0.643705
  16 F :   -0.624840
Sum of atomic charges:    0.0000000

LOEWDIN ATOMIC CHARGES
----------------------
   0 C :   -0.247427
   1 C :   -0.249070
   2 C :   -0.249070
   3 C :   -0.322465
   4 C :   -0.322465
   5 F :    0.115935
   6 F :    0.115935
   7 F :    0.116511
   8 F :    0.116826
   9 F :    0.116511
  10 F :    0.116826
  11 F :    0.116438
  12 F :    0.116438
  13 F :    0.114365
  14 F :    0.115174
  15 F :    0.114365
  16 F :    0.115174

  Mayer bond orders larger than 0.100000
B(  0-C ,  1-C ) :   0.9105 B(  0-C ,  2-C ) :   0.9105 B(  0-C ,  7-F ) :   0.2459
B(  0-C ,  8-F ) :   0.2715 B(  0-C ,  9-F ) :   0.2459 B(  0-C , 10-F ) :   0.2715
B(  1-C ,  3-C ) :   0.9649 B(  1-C ,  5-F ) :   0.1481 B(  1-C ,  6-F ) :   0.1289
B(  1-C , 11-F ) :   0.2710 B(  1-C , 13-F ) :   0.2034 B(  1-C , 14-F ) :   0.1391
B(  2-C ,  4-C ) :   0.9649 B(  2-C ,  5-F ) :   0.1289 B(  2-C ,  6-F ) :   0.1481
B(  2-C , 12-F ) :   0.2710 B(  2-C , 15-F ) :   0.2034 B(  2-C , 16-F ) :   0.1391
B(  3-C , 11-F ) :   0.1536 B(  3-C , 13-F ) :   0.2112 B(  3-C , 14-F ) :   0.2856
B(  4-C , 12-F ) :   0.1536 B(  4-C , 15-F ) :   0.2112 B(  4-C , 16-F ) :   0.2856

MP2 TOTAL ENERGY:    -1385.859767291 Eh
FINAL SINGLE POINT ENERGY     -1385.859767290898

DIPOLE MOMENT
-------------
                                X             Y             Z
Electronic contribution:     -0.00000      -0.00000       0.13932
Nuclear contribution   :     -0.00000       0.00000      -0.09128
                        -----------------------------------------
Total Dipole Moment    :     -0.00000      -0.00000       0.04804
                        -----------------------------------------
Magnitude (a.u.)       :      0.04804
Magnitude (Debye)      :      0.12211

Rotational constants in cm-1:     0.032764     0.010301     0.009982
Rotational constants in MHz :   982.236961   308.819943   299.244473

                             ****ORCA TERMINATED NORMALLY****
TOTAL RUN TIME: 0 days 0 hours 2 minutes 10 seconds 948 msec
