                         Program Version 5.0.3 -  RELEASE  -
|  1> !ri-mp2 aug-cc-pvdz aug-cc-pvdz/c tightscf
|  2> %pal nprocs 16 end
|  3>
|  4> * xyz 0 1
|  5> C      0.000000    1.207774    0.694419
|  6> C      0.000000    1.207774   -0.694419
|  7> C      0.000000   -1.207774    0.694419
|  8> C      0.000000   -1.207774   -0.694419
|  9> C      0.000000    0.000000    1.378331
| 10> C      0.000000    0.000000   -1.378331
| 11> Cl     0.000000    0.000000    3.128670
| 12> Cl     0.000000    0.000000   -3.128670
| 13> H      0.000000    2.139873    1.239951
| 14> H      0.000000    2.139873   -1.239951
| 15> H      0.000000   -2.139873    1.239951
| 16> H      0.000000   -2.139873   -1.239951
| 17> *
| 18>
| 19>                          ****END OF INPUT****

CARTESIAN COORDINATES (ANGSTROEM)
---------------------------------
  C      0.000000    1.207774    0.694419
  C      0.000000    1.207774   -0.694419
  C      0.000000   -1.207774    0.694419
  C      0.000000   -1.207774   -0.694419
  C      0.000000    0.000000    1.378331
  C      0.000000    0.000000   -1.378331
  Cl     0.000000    0.000000    3.128670
  Cl     0.000000    0.000000   -3.128670
  H      0.000000    2.139873    1.239951
  H      0.000000    2.139873   -1.239951
  H      0.000000   -2.139873    1.239951
  H      0.000000   -2.139873   -1.239951

 Total Charge           Charge          ....    0
 Multiplicity           Mult            ....    1
 Number of Electrons    NEL             ....   74
 Basis Dimension        Dim             ....  228

ORBITAL ENERGIES
----------------

  NO   OCC          E(Eh)            E(eV)
   0   2.0000    -104.848746     -2853.0794
   1   2.0000    -104.848746     -2853.0794
   2   2.0000     -11.321569      -308.0756
   3   2.0000     -11.321547      -308.0750
   4   2.0000     -11.272855      -306.7500
   5   2.0000     -11.272804      -306.7486
   6   2.0000     -11.271608      -306.7161
   7   2.0000     -11.271600      -306.7158
   8   2.0000     -10.574709      -287.7525
   9   2.0000     -10.574702      -287.7523
  10   2.0000      -8.042514      -218.8479
  11   2.0000      -8.042514      -218.8479
  12   2.0000      -8.039179      -218.7572
  13   2.0000      -8.039178      -218.7572
  14   2.0000      -8.039047      -218.7536
  15   2.0000      -8.039047      -218.7536
  16   2.0000      -1.218878       -33.1674
  17   2.0000      -1.168425       -31.7945
  18   2.0000      -1.104174       -30.0461
  19   2.0000      -1.055582       -28.7238
  20   2.0000      -0.988954       -26.9108
  21   2.0000      -0.872894       -23.7527
  22   2.0000      -0.826079       -22.4787
  23   2.0000      -0.708167       -19.2702
  24   2.0000      -0.679276       -18.4840
  25   2.0000      -0.661815       -18.0089
  26   2.0000      -0.623060       -16.9543
  27   2.0000      -0.591692       -16.1008
  28   2.0000      -0.570059       -15.5121
  29   2.0000      -0.542249       -14.7553
  30   2.0000      -0.527950       -14.3663
  31   2.0000      -0.516286       -14.0488
  32   2.0000      -0.468229       -12.7411
  33   2.0000      -0.462848       -12.5947
  34   2.0000      -0.458126       -12.4662
  35   2.0000      -0.369587       -10.0570
  36   2.0000      -0.341190        -9.2843
  37   0.0000       0.035932         0.9778
  38   0.0000       0.039280         1.0689
  39   0.0000       0.049834         1.3561
  40   0.0000       0.059302         1.6137
  41   0.0000       0.079763         2.1705

MULLIKEN ATOMIC CHARGES
-----------------------
   0 C :    0.869968
   1 C :    0.869968
   2 C :    0.869968
   3 C :    0.869968
   4 C :   -0.581624
   5 C :   -0.581624
   6 Cl:   -0.346711
   7 Cl:   -0.346711
   8 H :   -0.405801
   9 H :   -0.405801
  10 H :   -0.405801
  11 H :   -0.405801
Sum of atomic charges:    0.0000000

LOEWDIN ATOMIC CHARGES
----------------------
   0 C :   -0.011745
   1 C :   -0.011745
   2 C :   -0.011745
   3 C :   -0.011745
   4 C :   -0.546698
   5 C :   -0.546698
   6 Cl:    0.566050
   7 Cl:    0.566050
   8 H :    0.002069
   9 H :    0.002069
  10 H :    0.002069
  11 H :    0.002069

  Mayer bond orders larger than 0.100000
B(  0-C ,  1-C ) :   1.8348 B(  0-C ,  3-C ) :   0.2221 B(  0-C ,  4-C ) :   1.6012
B(  0-C ,  5-C ) :  -0.2396 B(  0-C ,  6-Cl) :  -0.3034 B(  0-C ,  8-H ) :   0.1231
B(  1-C ,  2-C ) :   0.2221 B(  1-C ,  4-C ) :  -0.2396 B(  1-C ,  5-C ) :   1.6012
B(  1-C ,  7-Cl) :  -0.3034 B(  1-C ,  9-H ) :   0.1231 B(  2-C ,  3-C ) :   1.8348
B(  2-C ,  4-C ) :   1.6012 B(  2-C ,  5-C ) :  -0.2396 B(  2-C ,  6-Cl) :  -0.3034
B(  2-C , 10-H ) :   0.1231 B(  3-C ,  4-C ) :  -0.2396 B(  3-C ,  5-C ) :   1.6012
B(  3-C ,  7-Cl) :  -0.3034 B(  3-C , 11-H ) :   0.1231 B(  4-C ,  6-Cl) :   1.1192
B(  4-C ,  8-H ) :   0.5412 B(  4-C ,  9-H ) :  -0.1353 B(  4-C , 10-H ) :   0.5412
B(  4-C , 11-H ) :  -0.1353 B(  5-C ,  7-Cl) :   1.1192 B(  5-C ,  8-H ) :  -0.1353
B(  5-C ,  9-H ) :   0.5412 B(  5-C , 10-H ) :  -0.1353 B(  5-C , 11-H ) :   0.5412

MP2 TOTAL ENERGY:    -1149.671408050 Eh
FINAL SINGLE POINT ENERGY     -1149.671408050032

DIPOLE MOMENT
-------------
                                X             Y             Z
Electronic contribution:      0.00000       0.00000      -0.00000
Nuclear contribution   :      0.00000       0.00000       0.00000
                        -----------------------------------------
Total Dipole Moment    :      0.00000       0.00000      -0.00000
                        -----------------------------------------
Magnitude (a.u.)       :      0.00000
Magnitude (Debye)      :      0.00000

Rotational constants in cm-1:     0.190384     0.021919     0.019656
Rotational constants in MHz :  5707.574325   657.128564   589.282828

                             ****ORCA TERMINATED NORMALLY****
TOTAL RUN TIME: 0 days 0 hours 0 minutes 55 seconds 236 msec
