                         Program Version 5.0.3 -  RELEASE  -
|  1> !ri-mp2 aug-cc-pvdz aug-cc-pvdz/c tightscf
|  2> %pal nprocs 16 end
|  3>
|  4> * xyz 0 1
|  5> C      2.487747    0.326580    0.218061
|  6> C      2.045807   -0.986436    0.330087
|  7> C      1.598711    1.325573   -0.163943
|  8> C      0.718272   -1.302587    0.064989
|  9> C      0.269988    1.021727   -0.434324
| 10> C     -0.152532   -0.293089   -0.311684
| 11> C     -2.512580   -0.121577    0.007190
| 12> O     -2.466293    0.684083    0.887913
| 13> O     -1.461326   -0.671192   -0.645444
| 14> H      3.520254    0.570857    0.425766
| 15> H      2.732232   -1.768633    0.623796
| 16> H      1.937995    2.348421   -0.253363
| 17> H      0.355162   -2.317509    0.142752
| 18> H     -0.426389    1.792073   -0.729422
| 19> H     -3.430787   -0.549489   -0.411541
| 20> *
| 21>
| 22>                          ****END OF INPUT****

CARTESIAN COORDINATES (ANGSTROEM)
---------------------------------
  C      2.487747    0.326580    0.218061
  C      2.045807   -0.986436    0.330087
  C      1.598711    1.325573   -0.163943
  C      0.718272   -1.302587    0.064989
  C      0.269988    1.021727   -0.434324
  C     -0.152532   -0.293089   -0.311684
  C     -2.512580   -0.121577    0.007190
  O     -2.466293    0.684083    0.887913
  O     -1.461326   -0.671192   -0.645444
  H      3.520254    0.570857    0.425766
  H      2.732232   -1.768633    0.623796
  H      1.937995    2.348421   -0.253363
  H      0.355162   -2.317509    0.142752
  H     -0.426389    1.792073   -0.729422
  H     -3.430787   -0.549489   -0.411541

 Total Charge           Charge          ....    0
 Multiplicity           Mult            ....    1
 Number of Electrons    NEL             ....   64
 Basis Dimension        Dim             ....  261

ORBITAL ENERGIES
----------------

  NO   OCC          E(Eh)            E(eV)
   0   2.0000     -20.636103      -561.5369
   1   2.0000     -20.577254      -559.9355
   2   2.0000     -11.405851      -310.3690
   3   2.0000     -11.316120      -307.9273
   4   2.0000     -11.252575      -306.1981
   5   2.0000     -11.252223      -306.1885
   6   2.0000     -11.250369      -306.1381
   7   2.0000     -11.250158      -306.1324
   8   2.0000     -11.246650      -306.0369
   9   2.0000      -1.483928       -40.3797
  10   2.0000      -1.392198       -37.8836
  11   2.0000      -1.167680       -31.7742
  12   2.0000      -1.036582       -28.2068
  13   2.0000      -1.033653       -28.1271
  14   2.0000      -0.905674       -24.6446
  15   2.0000      -0.851959       -23.1830
  16   2.0000      -0.802928       -21.8488
  17   2.0000      -0.738192       -20.0872
  18   2.0000      -0.717264       -19.5177
  19   2.0000      -0.689080       -18.7508
  20   2.0000      -0.673785       -18.3346
  21   2.0000      -0.635467       -17.2919
  22   2.0000      -0.611492       -16.6395
  23   2.0000      -0.601035       -16.3550
  24   2.0000      -0.587567       -15.9885
  25   2.0000      -0.528331       -14.3766
  26   2.0000      -0.524795       -14.2804
  27   2.0000      -0.509057       -13.8522
  28   2.0000      -0.482407       -13.1270
  29   2.0000      -0.470825       -12.8118
  30   2.0000      -0.348896        -9.4939
  31   2.0000      -0.341323        -9.2879
  32   0.0000       0.034117         0.9284
  33   0.0000       0.038615         1.0508
  34   0.0000       0.041506         1.1294
  35   0.0000       0.053001         1.4422
  36   0.0000       0.057650         1.5687

MULLIKEN ATOMIC CHARGES
-----------------------
   0 C :    0.406736
   1 C :    0.817725
   2 C :    0.760385
   3 C :    0.139598
   4 C :    0.295804
   5 C :    0.745571
   6 C :    0.940181
   7 O :   -0.576061
   8 O :   -1.056054
   9 H :   -0.442634
  10 H :   -0.433183
  11 H :   -0.448167
  12 H :   -0.459376
  13 H :   -0.542204
  14 H :   -0.148319
Sum of atomic charges:    0.0000000

LOEWDIN ATOMIC CHARGES
----------------------
   0 C :    0.008935
   1 C :    0.015020
   2 C :    0.018016
   3 C :    0.053112
   4 C :    0.056519
   5 C :   -0.194317
   6 C :   -0.118058
   7 O :    0.040229
   8 O :    0.074851
   9 H :   -0.000510
  10 H :    0.002202
  11 H :    0.003013
  12 H :    0.010171
  13 H :    0.011950
  14 H :    0.018867

  Mayer bond orders larger than 0.100000
B(  0-C ,  1-C ) :   1.6732 B(  0-C ,  2-C ) :   1.6695 B(  0-C ,  3-C ) :   0.2458
B(  0-C ,  4-C ) :   0.2191 B(  0-C ,  9-H ) :   0.3672 B(  0-C , 10-H ) :   0.1787
B(  0-C , 11-H ) :   0.1684 B(  1-C ,  2-C ) :  -0.1353 B(  1-C ,  3-C ) :   1.7037
B(  1-C ,  4-C ) :   0.1243 B(  1-C ,  5-C ) :  -0.2025 B(  1-C ,  9-H ) :   0.1707
B(  1-C , 10-H ) :   0.3213 B(  2-C ,  4-C ) :   1.7533 B(  2-C ,  5-C ) :  -0.1845
B(  2-C ,  9-H ) :   0.1905 B(  2-C , 11-H ) :   0.2722 B(  3-C ,  4-C ) :   0.4100
B(  3-C ,  5-C ) :   1.6416 B(  3-C ,  8-O ) :   0.1097 B(  3-C , 10-H ) :   0.2787
B(  3-C , 12-H ) :   0.2470 B(  4-C ,  5-C ) :   1.3906 B(  4-C ,  8-O ) :   0.1548
B(  4-C , 11-H ) :   0.3294 B(  4-C , 13-H ) :   0.1849 B(  5-C ,  8-O ) :  -0.2512
B(  5-C , 12-H ) :   0.4564 B(  5-C , 13-H ) :   0.4416 B(  6-C ,  7-O ) :   1.7143
B(  6-C ,  8-O ) :   1.0633 B(  6-C , 14-H ) :   0.9317

MP2 TOTAL ENERGY:     -419.671463980 Eh
FINAL SINGLE POINT ENERGY      -419.671463979733

DIPOLE MOMENT
-------------
                                X             Y             Z
Electronic contribution:     -4.22268      -0.46662      -0.28930
Nuclear contribution   :      4.55357       0.07473      -0.19506
                        -----------------------------------------
Total Dipole Moment    :      0.33089      -0.39190      -0.48437
                        -----------------------------------------
Magnitude (a.u.)       :      0.70547
Magnitude (Debye)      :      1.79316

Rotational constants in cm-1:     0.132572     0.039022     0.033262
Rotational constants in MHz :  3974.415651  1169.844124   997.168164

                             ****ORCA TERMINATED NORMALLY****
TOTAL RUN TIME: 0 days 0 hours 1 minutes 35 seconds 649 msec
