                         Program Version 5.0.3 -  RELEASE  -
|  1> !ri-mp2 aug-cc-pvdz aug-cc-pvdz/c tightscf
|  2> %pal nprocs 16 end
|  3>
|  4> * xyz 0 1
|  5> N      0.636602   -1.058123    0.492208
|  6> C     -0.121601    0.212497    0.582235
|  7> C     -1.541645    0.060070    0.027611
|  8> O     -2.347827    0.951873    0.041962
|  9> O     -1.796324   -1.151121   -0.486153
| 10> C      0.698716    1.255847   -0.214727
| 11> C      2.124667    0.698806   -0.171428
| 12> C      1.890352   -0.811433   -0.258644
| 13> H     -0.226886    0.531260    1.620367
| 14> H      0.341413    1.305448   -1.244399
| 15> H      0.600663    2.251274    0.210253
| 16> H      2.751505    1.078563   -0.977576
| 17> H      2.605897    0.951778    0.776149
| 18> H      1.755051   -1.114676   -1.299508
| 19> H      2.701458   -1.409225    0.154057
| 20> H      0.836365   -1.421455    1.412453
| 21> H     -0.971410   -1.666847   -0.334004
| 22> *
| 23>
| 24>                          ****END OF INPUT****

CARTESIAN COORDINATES (ANGSTROEM)
---------------------------------
  N      0.636602   -1.058123    0.492208
  C     -0.121601    0.212497    0.582235
  C     -1.541645    0.060070    0.027611
  O     -2.347827    0.951873    0.041962
  O     -1.796324   -1.151121   -0.486153
  C      0.698716    1.255847   -0.214727
  C      2.124667    0.698806   -0.171428
  C      1.890352   -0.811433   -0.258644
  H     -0.226886    0.531260    1.620367
  H      0.341413    1.305448   -1.244399
  H      0.600663    2.251274    0.210253
  H      2.751505    1.078563   -0.977576
  H      2.605897    0.951778    0.776149
  H      1.755051   -1.114676   -1.299508
  H      2.701458   -1.409225    0.154057
  H      0.836365   -1.421455    1.412453
  H     -0.971410   -1.666847   -0.334004

 Total Charge           Charge          ....    0
 Multiplicity           Mult            ....    1
 Number of Electrons    NEL             ....   62
 Basis Dimension        Dim             ....  265

ORBITAL ENERGIES
----------------

  NO   OCC          E(Eh)            E(eV)
   0   2.0000     -20.601544      -560.5965
   1   2.0000     -20.541856      -558.9723
   2   2.0000     -15.587027      -424.1446
   3   2.0000     -11.379006      -309.6385
   4   2.0000     -11.292058      -307.2725
   5   2.0000     -11.279334      -306.9263
   6   2.0000     -11.250689      -306.1468
   7   2.0000     -11.247748      -306.0668
   8   2.0000      -1.451087       -39.4861
   9   2.0000      -1.355802       -36.8932
  10   2.0000      -1.252405       -34.0797
  11   2.0000      -1.059982       -28.8436
  12   2.0000      -1.023426       -27.8488
  13   2.0000      -0.871892       -23.7254
  14   2.0000      -0.827235       -22.5102
  15   2.0000      -0.796966       -21.6865
  16   2.0000      -0.730268       -19.8716
  17   2.0000      -0.725432       -19.7400
  18   2.0000      -0.654514       -17.8102
  19   2.0000      -0.644036       -17.5251
  20   2.0000      -0.621566       -16.9137
  21   2.0000      -0.599470       -16.3124
  22   2.0000      -0.574980       -15.6460
  23   2.0000      -0.567817       -15.4511
  24   2.0000      -0.529193       -14.4001
  25   2.0000      -0.515854       -14.0371
  26   2.0000      -0.503731       -13.7072
  27   2.0000      -0.497452       -13.5364
  28   2.0000      -0.460657       -12.5351
  29   2.0000      -0.443348       -12.0641
  30   2.0000      -0.403248       -10.9729
  31   0.0000       0.024159         0.6574
  32   0.0000       0.037099         1.0095
  33   0.0000       0.040338         1.0977
  34   0.0000       0.047013         1.2793
  35   0.0000       0.061611         1.6765

MULLIKEN ATOMIC CHARGES
-----------------------
   0 N :   -0.638869
   1 C :    0.040885
   2 C :    1.410260
   3 O :   -0.806527
   4 O :   -0.699737
   5 C :    0.293864
   6 C :    0.397563
   7 C :    0.823507
   8 H :   -0.111678
   9 H :   -0.204496
  10 H :   -0.095135
  11 H :   -0.095371
  12 H :   -0.187577
  13 H :   -0.256373
  14 H :   -0.162727
  15 H :   -0.003042
  16 H :    0.295454
Sum of atomic charges:   -0.0000000

LOEWDIN ATOMIC CHARGES
----------------------
   0 N :    0.074918
   1 C :   -0.112766
   2 C :   -0.323433
   3 O :    0.041093
   4 O :    0.214833
   5 C :    0.039842
   6 C :    0.001996
   7 C :    0.004848
   8 H :    0.049247
   9 H :    0.023200
  10 H :    0.023442
  11 H :    0.016348
  12 H :    0.017036
  13 H :    0.014083
  14 H :    0.014491
  15 H :   -0.010334
  16 H :   -0.088845

  Mayer bond orders larger than 0.100000
B(  0-N ,  1-C ) :   0.9100 B(  0-N ,  7-C ) :   0.8268 B(  0-N , 15-H ) :   1.1019
B(  1-C ,  2-C ) :   0.9955 B(  1-C ,  4-O ) :   0.2762 B(  1-C ,  5-C ) :   1.2824
B(  1-C ,  8-H ) :   0.6705 B(  2-C ,  3-O ) :   1.3842 B(  2-C ,  4-O ) :   0.3670
B(  4-O , 16-H ) :   0.8860 B(  5-C ,  6-C ) :   1.2473 B(  5-C ,  8-H ) :   0.1342
B(  5-C ,  9-H ) :   0.7937 B(  5-C , 10-H ) :   0.7935 B(  6-C ,  7-C ) :   1.1878
B(  6-C , 11-H ) :   0.8351 B(  6-C , 12-H ) :   0.7188 B(  7-C , 13-H ) :   0.8608
B(  7-C , 14-H ) :   0.8549 B(  9-H , 10-H ) :  -0.1169 B( 11-H , 12-H ) :  -0.1397
B( 13-H , 14-H ) :  -0.1536

MP2 TOTAL ENERGY:     -400.106267539 Eh
FINAL SINGLE POINT ENERGY      -400.106267538658

DIPOLE MOMENT
-------------
                                X             Y             Z
Electronic contribution:     -8.11820      -0.97187       0.23346
Nuclear contribution   :     10.44990       0.50241       0.31724
                        -----------------------------------------
Total Dipole Moment    :      2.33169      -0.46946       0.55071
                        -----------------------------------------
Magnitude (a.u.)       :      2.44141
Magnitude (Debye)      :      6.20556

Rotational constants in cm-1:     0.135287     0.051694     0.041581
Rotational constants in MHz :  4055.791452  1549.743368  1246.565096

                             ****ORCA TERMINATED NORMALLY****
TOTAL RUN TIME: 0 days 0 hours 1 minutes 26 seconds 809 msec
