                         Program Version 5.0.3 -  RELEASE  -
|  1> !ri-mp2 aug-cc-pvdz aug-cc-pvdz/c tightscf
|  2> %pal nprocs 16 end
|  3>
|  4> * xyz 0 1
|  5> C     0.000000     0.000000    0.590836
|  6> C     0.000000     1.321706   -0.236848
|  7> C     0.000000    -1.321706   -0.236848
|  8> F     1.097195     0.000000    1.372804
|  9> F    -1.097195     0.000000    1.372804
| 10> F     0.000000     2.356688    0.605533
| 11> F     0.000000    -2.356688    0.605533
| 12> F     1.086235     1.396250   -1.008692
| 13> F    -1.086235     1.396250   -1.008692
| 14> F    -1.086235    -1.396250   -1.008692
| 15> F     1.086235    -1.396250   -1.008692
| 16> *
| 17>
| 18>                          ****END OF INPUT****

CARTESIAN COORDINATES (ANGSTROEM)
---------------------------------
  C      0.000000    0.000000    0.590836
  C      0.000000    1.321706   -0.236848
  C      0.000000   -1.321706   -0.236848
  F      1.097195    0.000000    1.372804
  F     -1.097195    0.000000    1.372804
  F      0.000000    2.356688    0.605533
  F      0.000000   -2.356688    0.605533
  F      1.086235    1.396250   -1.008692
  F     -1.086235    1.396250   -1.008692
  F     -1.086235   -1.396250   -1.008692
  F      1.086235   -1.396250   -1.008692

 Total Charge           Charge          ....    0
 Multiplicity           Mult            ....    1
 Number of Electrons    NEL             ....   90
 Basis Dimension        Dim             ....  253

ORBITAL ENERGIES
----------------

  NO   OCC          E(Eh)            E(eV)
   0   2.0000     -26.394471      -718.2301
   1   2.0000     -26.394468      -718.2300
   2   2.0000     -26.394452      -718.2295
   3   2.0000     -26.394446      -718.2294
   4   2.0000     -26.392241      -718.1694
   5   2.0000     -26.392240      -718.1694
   6   2.0000     -26.392237      -718.1693
   7   2.0000     -26.392219      -718.1688
   8   2.0000     -11.571531      -314.8774
   9   2.0000     -11.571518      -314.8770
  10   2.0000     -11.509863      -313.1993
  11   2.0000      -1.786583       -48.6154
  12   2.0000      -1.777442       -48.3666
  13   2.0000      -1.735623       -47.2287
  14   2.0000      -1.689783       -45.9813
  15   2.0000      -1.683171       -45.8014
  16   2.0000      -1.682493       -45.7830
  17   2.0000      -1.681651       -45.7601
  18   2.0000      -1.672944       -45.5231
  19   2.0000      -1.131817       -30.7983
  20   2.0000      -1.035884       -28.1878
  21   2.0000      -0.964569       -26.2473
  22   2.0000      -0.907206       -24.6863
  23   2.0000      -0.889693       -24.2098
  24   2.0000      -0.880217       -23.9519
  25   2.0000      -0.867405       -23.6033
  26   2.0000      -0.859078       -23.3767
  27   2.0000      -0.856933       -23.3183
  28   2.0000      -0.820071       -22.3153
  29   2.0000      -0.767744       -20.8914
  30   2.0000      -0.759639       -20.6708
  31   2.0000      -0.754790       -20.5389
  32   2.0000      -0.743676       -20.2364
  33   2.0000      -0.741633       -20.1809
  34   2.0000      -0.738613       -20.0987
  35   2.0000      -0.732417       -19.9301
  36   2.0000      -0.711853       -19.3705
  37   2.0000      -0.709893       -19.3172
  38   2.0000      -0.696194       -18.9444
  39   2.0000      -0.695314       -18.9204
  40   2.0000      -0.695075       -18.9139
  41   2.0000      -0.686182       -18.6720
  42   2.0000      -0.684477       -18.6256
  43   2.0000      -0.645308       -17.5597
  44   2.0000      -0.575318       -15.6552
  45   0.0000       0.071510         1.9459
  46   0.0000       0.071813         1.9541
  47   0.0000       0.077310         2.1037
  48   0.0000       0.085433         2.3248
  49   0.0000       0.107290         2.9195

MULLIKEN ATOMIC CHARGES
-----------------------
   0 C :    1.129806
   1 C :    1.928865
   2 C :    1.928865
   3 F :   -0.692838
   4 F :   -0.692838
   5 F :   -0.597492
   6 F :   -0.597492
   7 F :   -0.601719
   8 F :   -0.601719
   9 F :   -0.601719
  10 F :   -0.601719
Sum of atomic charges:   -0.0000000

LOEWDIN ATOMIC CHARGES
----------------------
   0 C :   -0.258726
   1 C :   -0.326116
   2 C :   -0.326116
   3 F :    0.113756
   4 F :    0.113756
   5 F :    0.116147
   6 F :    0.116147
   7 F :    0.112788
   8 F :    0.112788
   9 F :    0.112788
  10 F :    0.112788

  Mayer bond orders larger than 0.100000
B(  0-C ,  1-C ) :   1.0300 B(  0-C ,  2-C ) :   1.0300 B(  0-C ,  3-F ) :   0.1310
B(  0-C ,  4-F ) :   0.1310 B(  0-C ,  5-F ) :   0.2161 B(  0-C ,  6-F ) :   0.2161
B(  0-C ,  7-F ) :   0.1152 B(  0-C ,  8-F ) :   0.1152 B(  0-C ,  9-F ) :   0.1152
B(  0-C , 10-F ) :   0.1152 B(  1-C ,  3-F ) :   0.1490 B(  1-C ,  4-F ) :   0.1490
B(  1-C ,  5-F ) :   0.2473 B(  1-C ,  7-F ) :   0.3475 B(  1-C ,  8-F ) :   0.3475
B(  2-C ,  3-F ) :   0.1490 B(  2-C ,  4-F ) :   0.1490 B(  2-C ,  6-F ) :   0.2473
B(  2-C ,  9-F ) :   0.3475 B(  2-C , 10-F ) :   0.3475

MP2 TOTAL ENERGY:     -911.245749338 Eh
FINAL SINGLE POINT ENERGY      -911.245749337756

DIPOLE MOMENT
-------------
                                X             Y             Z
Electronic contribution:     -0.00000      -0.00000      -0.13184
Nuclear contribution   :      0.00000       0.00000       0.06933
                        -----------------------------------------
Total Dipole Moment    :     -0.00000      -0.00000      -0.06251
                        -----------------------------------------
Magnitude (a.u.)       :      0.06251
Magnitude (Debye)      :      0.15888

Rotational constants in cm-1:     0.055489     0.031419     0.029599
Rotational constants in MHz :  1663.512932   941.914318   887.348727

                             ****ORCA TERMINATED NORMALLY****
TOTAL RUN TIME: 0 days 0 hours 0 minutes 51 seconds 33 msec
