                         Program Version 5.0.3 -  RELEASE  -
|  1> !ri-mp2 aug-cc-pvdz aug-cc-pvdz/c tightscf
|  2> %pal nprocs 16 end
|  3>
|  4> * xyz 0 1
|  5> C      0.000000    1.096648        0.000000
|  6> C      1.231022    0.361916        0.000000
|  7> C     -1.183818    0.424873        0.000000
|  8> O      1.286331   -0.874778        0.000000
|  9> O     -1.283038   -0.888616        0.000000
| 10> H     -0.346283   -1.239665        0.000000
| 11> H      0.009428    2.175177        0.000000
| 12> H      2.168876    0.938076        0.000000
| 13> H     -2.141591    0.932940        0.000000
| 14> *
| 15>
| 16>                          ****END OF INPUT****

CARTESIAN COORDINATES (ANGSTROEM)
---------------------------------
  C      0.000000    1.096648    0.000000
  C      1.231022    0.361916    0.000000
  C     -1.183818    0.424873    0.000000
  O      1.286331   -0.874778    0.000000
  O     -1.283038   -0.888616    0.000000
  H     -0.346283   -1.239665    0.000000
  H      0.009428    2.175177    0.000000
  H      2.168876    0.938076    0.000000
  H     -2.141591    0.932940    0.000000

 Total Charge           Charge          ....    0
 Multiplicity           Mult            ....    1
 Number of Electrons    NEL             ....   38
 Basis Dimension        Dim             ....  151

ORBITAL ENERGIES
----------------

  NO   OCC          E(Eh)            E(eV)
   0   2.0000     -20.614897      -560.9599
   1   2.0000     -20.570004      -559.7383
   2   2.0000     -11.355214      -308.9911
   3   2.0000     -11.353279      -308.9384
   4   2.0000     -11.238121      -305.8048
   5   2.0000      -1.444113       -39.2963
   6   2.0000      -1.391427       -37.8627
   7   2.0000      -1.071947       -29.1692
   8   2.0000      -0.906621       -24.6704
   9   2.0000      -0.828704       -22.5502
  10   2.0000      -0.722631       -19.6638
  11   2.0000      -0.677131       -18.4257
  12   2.0000      -0.648995       -17.6600
  13   2.0000      -0.620292       -16.8790
  14   2.0000      -0.605851       -16.4861
  15   2.0000      -0.561858       -15.2889
  16   2.0000      -0.539834       -14.6896
  17   2.0000      -0.437046       -11.8926
  18   2.0000      -0.366121        -9.9627
  19   0.0000       0.029950         0.8150
  20   0.0000       0.040812         1.1105
  21   0.0000       0.055665         1.5147
  22   0.0000       0.064353         1.7511
  23   0.0000       0.067371         1.8333

MULLIKEN ATOMIC CHARGES
-----------------------
   0 C :    0.594200
   1 C :    0.642528
   2 C :    0.745501
   3 O :   -0.810407
   4 O :   -0.688341
   5 H :    0.285086
   6 H :   -0.416477
   7 H :   -0.140771
   8 H :   -0.211320
Sum of atomic charges:   -0.0000000

LOEWDIN ATOMIC CHARGES
----------------------
   0 C :   -0.020123
   1 C :   -0.083889
   2 C :    0.000654
   3 O :    0.011678
   4 O :    0.199029
   5 H :   -0.115666
   6 H :   -0.022014
   7 H :    0.014217
   8 H :    0.016113

  Mayer bond orders larger than 0.100000
B(  0-C ,  1-C ) :   1.0809 B(  0-C ,  2-C ) :   1.4565 B(  0-C ,  6-H ) :   0.8484
B(  1-C ,  2-C ) :   0.1573 B(  1-C ,  3-O ) :   1.3090 B(  1-C ,  7-H ) :   0.9349
B(  2-C ,  4-O ) :   0.5822 B(  2-C ,  5-H ) :  -0.1087 B(  2-C ,  8-H ) :   0.9348
B(  4-O ,  5-H ) :   0.9312

MP2 TOTAL ENERGY:     -266.475018402 Eh
FINAL SINGLE POINT ENERGY      -266.475018401911

DIPOLE MOMENT
-------------
                                X             Y             Z
Electronic contribution:      0.07087      -1.53187      -0.00000
Nuclear contribution   :     -0.30653       2.75188       0.00000
                        -----------------------------------------
Total Dipole Moment    :     -0.23566       1.22001      -0.00000
                        -----------------------------------------
Magnitude (a.u.)       :      1.24257
Magnitude (Debye)      :      3.15835

Rotational constants in cm-1:     0.330286     0.173203     0.113620
Rotational constants in MHz :  9901.725413  5192.503665  3406.251835

                             ****ORCA TERMINATED NORMALLY****
TOTAL RUN TIME: 0 days 0 hours 0 minutes 50 seconds 690 msec
