                         Program Version 5.0.3 -  RELEASE  -
|  1> !ri-mp2 aug-cc-pvdz aug-cc-pvdz/c tightscf
|  2> %pal nprocs 16 end
|  3>
|  4> * xyz 0 1
|  5> O      0.000000    0.000000    1.676657
|  6> C      0.000000    0.000000    0.503213
|  7> Cl     0.000000    1.457697   -0.483310
|  8> Cl     0.000000   -1.457697   -0.483310
|  9> *
| 10>
| 11>                          ****END OF INPUT****

CARTESIAN COORDINATES (ANGSTROEM)
---------------------------------
  O      0.000000    0.000000    1.676657
  C      0.000000    0.000000    0.503213
  Cl     0.000000    1.457697   -0.483310
  Cl     0.000000   -1.457697   -0.483310

 Total Charge           Charge          ....    0
 Multiplicity           Mult            ....    1
 Number of Electrons    NEL             ....   48
 Basis Dimension        Dim             ....  100

ORBITAL ENERGIES
----------------

  NO   OCC          E(Eh)            E(eV)
   0   2.0000    -104.888272     -2854.1550
   1   2.0000    -104.888271     -2854.1550
   2   2.0000     -20.640315      -561.6515
   3   2.0000     -11.487542      -312.5919
   4   2.0000     -10.614742      -288.8418
   5   2.0000     -10.614706      -288.8408
   6   2.0000      -8.082388      -219.9330
   7   2.0000      -8.082385      -219.9329
   8   2.0000      -8.078730      -219.8334
   9   2.0000      -8.078727      -219.8334
  10   2.0000      -8.078498      -219.8271
  11   2.0000      -8.078496      -219.8270
  12   2.0000      -1.499023       -40.7905
  13   2.0000      -1.201465       -32.6935
  14   2.0000      -1.140875       -31.0448
  15   2.0000      -0.815937       -22.2028
  16   2.0000      -0.711157       -19.3516
  17   2.0000      -0.705703       -19.2031
  18   2.0000      -0.651694       -17.7335
  19   2.0000      -0.530857       -14.4453
  20   2.0000      -0.501514       -13.6469
  21   2.0000      -0.501296       -13.6409
  22   2.0000      -0.495951       -13.4955
  23   2.0000      -0.477812       -13.0019
  24   0.0000       0.055629         1.5137
  25   0.0000       0.079489         2.1630
  26   0.0000       0.090794         2.4706
  27   0.0000       0.091512         2.4902
  28   0.0000       0.108260         2.9459

MULLIKEN ATOMIC CHARGES
-----------------------
   0 O :   -0.375519
   1 C :    0.148609
   2 Cl:    0.113455
   3 Cl:    0.113455
Sum of atomic charges:   -0.0000000

LOEWDIN ATOMIC CHARGES
----------------------
   0 O :   -0.011595
   1 C :   -0.991051
   2 Cl:    0.501323
   3 Cl:    0.501323

  Mayer bond orders larger than 0.100000
B(  0-O ,  1-C ) :   1.6897 B(  1-C ,  2-Cl) :   1.0177 B(  1-C ,  3-Cl) :   1.0177

MP2 TOTAL ENERGY:    -1032.368157382 Eh
FINAL SINGLE POINT ENERGY     -1032.368157382086

DIPOLE MOMENT
-------------
                                X             Y             Z
Electronic contribution:     -0.00000      -0.00000      -1.84120
Nuclear contribution   :      0.00000       0.00000       1.28440
                        -----------------------------------------
Total Dipole Moment    :     -0.00000      -0.00000      -0.55680
                        -----------------------------------------
Magnitude (a.u.)       :      0.55680
Magnitude (Debye)      :      1.41528

Rotational constants in cm-1:     0.261114     0.111887     0.078325
Rotational constants in MHz :  7827.996994  3354.286062  2348.119886

                             ****ORCA TERMINATED NORMALLY****
TOTAL RUN TIME: 0 days 0 hours 0 minutes 32 seconds 776 msec
