                         Program Version 5.0.3 -  RELEASE  -
|  1> !ri-mp2 aug-cc-pvdz aug-cc-pvdz/c tightscf
|  2> %pal nprocs 16 end
|  3>
|  4> * xyz 0 1
|  5> C      0.000000    0.000000    2.029610
|  6> C      0.000000    1.200354   -0.112893
|  7> C      0.000000   -1.200354   -0.112893
|  8> C      0.000000    1.140883   -1.499716
|  9> C      0.000000   -1.140883   -1.499716
| 10> C      0.000000    0.000000    0.598544
| 11> N      0.000000    0.000000    3.181206
| 12> N      0.000000    0.000000   -2.189569
| 13> H      0.000000    2.149584    0.402220
| 14> H      0.000000   -2.149584    0.402220
| 15> H      0.000000    2.054587   -2.081755
| 16> H      0.000000   -2.054587   -2.081755
| 17> *
| 18>
| 19>                          ****END OF INPUT****

CARTESIAN COORDINATES (ANGSTROEM)
---------------------------------
  C      0.000000    0.000000    2.029610
  C      0.000000    1.200354   -0.112893
  C      0.000000   -1.200354   -0.112893
  C      0.000000    1.140883   -1.499716
  C      0.000000   -1.140883   -1.499716
  C      0.000000    0.000000    0.598544
  N      0.000000    0.000000    3.181206
  N      0.000000    0.000000   -2.189569
  H      0.000000    2.149584    0.402220
  H      0.000000   -2.149584    0.402220
  H      0.000000    2.054587   -2.081755
  H      0.000000   -2.054587   -2.081755

 Total Charge           Charge          ....    0
 Multiplicity           Mult            ....    1
 Number of Electrons    NEL             ....   54
 Basis Dimension        Dim             ....  220

ORBITAL ENERGIES
----------------

  NO   OCC          E(Eh)            E(eV)
   0   2.0000     -15.604542      -424.6212
   1   2.0000     -15.602636      -424.5693
   2   2.0000     -11.321913      -308.0849
   3   2.0000     -11.308081      -307.7085
   4   2.0000     -11.308061      -307.7080
   5   2.0000     -11.301330      -307.5248
   6   2.0000     -11.284048      -307.0546
   7   2.0000     -11.284018      -307.0537
   8   2.0000      -1.294609       -35.2281
   9   2.0000      -1.245689       -33.8969
  10   2.0000      -1.140601       -31.0373
  11   2.0000      -1.069994       -29.1160
  12   2.0000      -0.931594       -25.3500
  13   2.0000      -0.894350       -24.3365
  14   2.0000      -0.789118       -21.4730
  15   2.0000      -0.705116       -19.1872
  16   2.0000      -0.692950       -18.8561
  17   2.0000      -0.653278       -17.7766
  18   2.0000      -0.630480       -17.1562
  19   2.0000      -0.584071       -15.8934
  20   2.0000      -0.574656       -15.6372
  21   2.0000      -0.559213       -15.2170
  22   2.0000      -0.513844       -13.9824
  23   2.0000      -0.485533       -13.2120
  24   2.0000      -0.448525       -12.2050
  25   2.0000      -0.401064       -10.9135
  26   2.0000      -0.377117       -10.2619
  27   0.0000       0.029258         0.7961
  28   0.0000       0.035662         0.9704
  29   0.0000       0.042802         1.1647
  30   0.0000       0.048181         1.3111
  31   0.0000       0.056902         1.5484

MULLIKEN ATOMIC CHARGES
-----------------------
   0 C :   -0.967714
   1 C :    0.719751
   2 C :    0.719751
   3 C :    0.319691
   4 C :    0.319691
   5 C :    1.286484
   6 N :   -0.199100
   7 N :   -0.630454
   8 H :   -0.495075
   9 H :   -0.495075
  10 H :   -0.288974
  11 H :   -0.288974
Sum of atomic charges:    0.0000000

LOEWDIN ATOMIC CHARGES
----------------------
   0 C :   -0.105940
   1 C :    0.074650
   2 C :    0.074650
   3 C :   -0.011786
   4 C :   -0.011786
   5 C :   -0.210459
   6 N :    0.100251
   7 N :    0.046014
   8 H :    0.015227
   9 H :    0.015227
  10 H :    0.006976
  11 H :    0.006976

  Mayer bond orders larger than 0.100000
B(  0-C ,  1-C ) :  -0.2110 B(  0-C ,  2-C ) :  -0.2110 B(  0-C ,  5-C ) :  -0.4860
B(  0-C ,  6-N ) :   2.5117 B(  1-C ,  2-C ) :  -0.2536 B(  1-C ,  3-C ) :   1.1920
B(  1-C ,  5-C ) :   1.4251 B(  1-C ,  8-H ) :   0.3646 B(  2-C ,  4-C ) :   1.1920
B(  2-C ,  5-C ) :   1.4251 B(  2-C ,  9-H ) :   0.3646 B(  3-C ,  5-C ) :   0.1514
B(  3-C ,  7-N ) :   1.3287 B(  3-C ,  8-H ) :   0.1262 B(  3-C , 10-H ) :   0.9035
B(  4-C ,  5-C ) :   0.1514 B(  4-C ,  7-N ) :   1.3287 B(  4-C ,  9-H ) :   0.1262
B(  4-C , 11-H ) :   0.9035 B(  5-C ,  6-N ) :  -0.1469 B(  5-C ,  7-N ) :   0.1334
B(  5-C ,  8-H ) :   0.3491 B(  5-C ,  9-H ) :   0.3491

MP2 TOTAL ENERGY:     -339.579781507 Eh
FINAL SINGLE POINT ENERGY      -339.579781507414

DIPOLE MOMENT
-------------
                                X             Y             Z
Electronic contribution:     -0.00000      -0.00000       2.36471
Nuclear contribution   :      0.00000       0.00000      -3.26641
                        -----------------------------------------
Total Dipole Moment    :     -0.00000      -0.00000      -0.90170
                        -----------------------------------------
Magnitude (a.u.)       :      0.90170
Magnitude (Debye)      :      2.29194

Rotational constants in cm-1:     0.201393     0.051714     0.041148
Rotational constants in MHz :  6037.624867  1550.358396  1233.592917

                             ****ORCA TERMINATED NORMALLY****
TOTAL RUN TIME: 0 days 0 hours 0 minutes 54 seconds 448 msec
