                         Program Version 5.0.3 -  RELEASE  -
|  1> !ri-mp2 aug-cc-pvdz aug-cc-pvdz/c tightscf
|  2> %pal nprocs 16 end
|  3>
|  4> * xyz 0 1
|  5> C      1.101422    1.086436    0.000000
|  6> C      0.000000    0.612760    0.000000
|  7> C     -1.353510   -1.424068    0.000000
|  8> C      2.441080    1.653556    0.000000
|  9> C     -1.345349    0.043042    0.000000
| 10> N     -1.379143   -2.572655    0.000000
| 11> H      2.603677    2.273574    0.882742
| 12> H      3.194285    0.864356    0.000000
| 13> H      2.603677    2.273574   -0.882742
| 14> H     -1.904748    0.383361   -0.875875
| 15> H     -1.904748    0.383361    0.875875
| 16> *
| 17>
| 18>                          ****END OF INPUT****

CARTESIAN COORDINATES (ANGSTROEM)
---------------------------------
  C      1.101422    1.086436    0.000000
  C      0.000000    0.612760    0.000000
  C     -1.353510   -1.424068    0.000000
  C      2.441080    1.653556    0.000000
  C     -1.345349    0.043042    0.000000
  N     -1.379143   -2.572655    0.000000
  H      2.603677    2.273574    0.882742
  H      3.194285    0.864356    0.000000
  H      2.603677    2.273574   -0.882742
  H     -1.904748    0.383361   -0.875875
  H     -1.904748    0.383361    0.875875

 Total Charge           Charge          ....    0
 Multiplicity           Mult            ....    1
 Number of Electrons    NEL             ....   42
 Basis Dimension        Dim             ....  183

ORBITAL ENERGIES
----------------

  NO   OCC          E(Eh)            E(eV)
   0   2.0000     -15.584754      -424.0827
   1   2.0000     -11.320988      -308.0597
   2   2.0000     -11.289445      -307.2014
   3   2.0000     -11.266648      -306.5811
   4   2.0000     -11.257168      -306.3231
   5   2.0000     -11.250488      -306.1413
   6   2.0000      -1.232080       -33.5266
   7   2.0000      -1.109480       -30.1905
   8   2.0000      -1.051212       -28.6049
   9   2.0000      -0.958591       -26.0846
  10   2.0000      -0.735698       -20.0194
  11   2.0000      -0.687486       -18.7074
  12   2.0000      -0.653534       -17.7836
  13   2.0000      -0.635003       -17.2793
  14   2.0000      -0.600534       -16.3414
  15   2.0000      -0.600096       -16.3294
  16   2.0000      -0.560905       -15.2630
  17   2.0000      -0.473201       -12.8765
  18   2.0000      -0.470183       -12.7943
  19   2.0000      -0.396839       -10.7985
  20   2.0000      -0.391969       -10.6660
  21   0.0000       0.028464         0.7745
  22   0.0000       0.034951         0.9511
  23   0.0000       0.046744         1.2720
  24   0.0000       0.056933         1.5492
  25   0.0000       0.062470         1.6999

MULLIKEN ATOMIC CHARGES
-----------------------
   0 C :   -0.739516
   1 C :   -0.150946
   2 C :   -0.079353
   3 C :    0.183895
   4 C :    0.288164
   5 N :   -0.371975
   6 H :    0.129430
   7 H :    0.134200
   8 H :    0.129430
   9 H :    0.238336
  10 H :    0.238336
Sum of atomic charges:    0.0000000

LOEWDIN ATOMIC CHARGES
----------------------
   0 C :   -0.044594
   1 C :   -0.017985
   2 C :   -0.133683
   3 C :    0.127938
   4 C :   -0.054358
   5 N :    0.074302
   6 H :   -0.007526
   7 H :   -0.005592
   8 H :   -0.007526
   9 H :    0.034512
  10 H :    0.034512

  Mayer bond orders larger than 0.100000
B(  0-C ,  1-C ) :   2.7510 B(  0-C ,  3-C ) :   1.2255 B(  0-C ,  4-C ) :   0.2390
B(  0-C ,  6-H ) :   0.3031 B(  0-C ,  7-H ) :   0.2812 B(  0-C ,  8-H ) :   0.3031
B(  0-C ,  9-H ) :  -0.1302 B(  0-C , 10-H ) :  -0.1302 B(  1-C ,  2-C ) :   0.1290
B(  1-C ,  3-C ) :   0.3647 B(  1-C ,  4-C ) :   1.2306 B(  1-C ,  6-H ) :  -0.1007
B(  1-C ,  7-H ) :  -0.1094 B(  1-C ,  8-H ) :  -0.1007 B(  1-C ,  9-H ) :   0.2594
B(  1-C , 10-H ) :   0.2594 B(  2-C ,  4-C ) :   0.8833 B(  2-C ,  5-N ) :   2.6845
B(  3-C ,  6-H ) :   0.7787 B(  3-C ,  7-H ) :   0.8114 B(  3-C ,  8-H ) :   0.7787
B(  4-C ,  5-N ) :  -0.1013 B(  4-C ,  9-H ) :   0.7478 B(  4-C , 10-H ) :   0.7478

MP2 TOTAL ENERGY:     -247.490263751 Eh
FINAL SINGLE POINT ENERGY      -247.490263751246

DIPOLE MOMENT
-------------
                                X             Y             Z
Electronic contribution:     -4.25419      -4.42305      -0.00000
Nuclear contribution   :      4.57113       6.14576       0.00000
                        -----------------------------------------
Total Dipole Moment    :      0.31694       1.72271      -0.00000
                        -----------------------------------------
Magnitude (a.u.)       :      1.75162
Magnitude (Debye)      :      4.45226

Rotational constants in cm-1:     0.435199     0.050375     0.045916
Rotational constants in MHz : 13046.935561  1510.210654  1376.522600

                             ****ORCA TERMINATED NORMALLY****
TOTAL RUN TIME: 0 days 0 hours 0 minutes 38 seconds 185 msec
