                         Program Version 5.0.3 -  RELEASE  -
|  1> !ri-mp2 aug-cc-pvdz aug-cc-pvdz/c tightscf
|  2> %pal nprocs 16 end
|  3>
|  4> * xyz 0 1
|  5> C      0.021569   -1.850874        0.000000
|  6> C     -1.183942   -1.160029        0.000000
|  7> C      1.216077   -1.136120        0.000000
|  8> C     -1.200429    0.230252        0.000000
|  9> C      1.212740    0.251632        0.000000
| 10> C      0.000000    0.935940        0.000000
| 11> O      0.048212    2.303596        0.000000
| 12> H      0.031441   -2.931667        0.000000
| 13> H     -2.120454   -1.701426        0.000000
| 14> H      2.160924   -1.662963        0.000000
| 15> H     -2.142899    0.765406        0.000000
| 16> H      2.134448    0.816335        0.000000
| 17> H     -0.845249    2.660743        0.000000
| 18> *
| 19>
| 20>                          ****END OF INPUT****

CARTESIAN COORDINATES (ANGSTROEM)
---------------------------------
  C      0.021569   -1.850874    0.000000
  C     -1.183942   -1.160029    0.000000
  C      1.216077   -1.136120    0.000000
  C     -1.200429    0.230252    0.000000
  C      1.212740    0.251632    0.000000
  C      0.000000    0.935940    0.000000
  O      0.048212    2.303596    0.000000
  H      0.031441   -2.931667    0.000000
  H     -2.120454   -1.701426    0.000000
  H      2.160924   -1.662963    0.000000
  H     -2.142899    0.765406    0.000000
  H      2.134448    0.816335    0.000000
  H     -0.845249    2.660743    0.000000

 Total Charge           Charge          ....    0
 Multiplicity           Mult            ....    1
 Number of Electrons    NEL             ....   50
 Basis Dimension        Dim             ....  215

ORBITAL ENERGIES
----------------

  NO   OCC          E(Eh)            E(eV)
   0   2.0000     -20.601614      -560.5984
   1   2.0000     -11.310026      -307.7614
   2   2.0000     -11.248329      -306.0826
   3   2.0000     -11.246378      -306.0295
   4   2.0000     -11.240296      -305.8640
   5   2.0000     -11.234444      -305.7048
   6   2.0000     -11.233136      -305.6692
   7   2.0000      -1.410391       -38.3787
   8   2.0000      -1.153386       -31.3852
   9   2.0000      -1.025144       -27.8956
  10   2.0000      -1.010061       -27.4852
  11   2.0000      -0.850656       -23.1475
  12   2.0000      -0.827124       -22.5072
  13   2.0000      -0.737432       -20.0665
  14   2.0000      -0.688209       -18.7271
  15   2.0000      -0.654772       -17.8172
  16   2.0000      -0.612679       -16.6718
  17   2.0000      -0.593748       -16.1567
  18   2.0000      -0.591218       -16.0879
  19   2.0000      -0.570550       -15.5255
  20   2.0000      -0.518403       -14.1065
  21   2.0000      -0.495360       -13.4794
  22   2.0000      -0.485012       -13.1979
  23   2.0000      -0.343980        -9.3602
  24   2.0000      -0.316838        -8.6216
  25   0.0000       0.032493         0.8842
  26   0.0000       0.039854         1.0845
  27   0.0000       0.043881         1.1941
  28   0.0000       0.056488         1.5371
  29   0.0000       0.060257         1.6397

MULLIKEN ATOMIC CHARGES
-----------------------
   0 C :    0.255453
   1 C :    0.607430
   2 C :    0.826024
   3 C :    0.157398
   4 C :    0.212358
   5 C :    1.011003
   6 O :   -0.902079
   7 H :   -0.438649
   8 H :   -0.435755
   9 H :   -0.441925
  10 H :   -0.580135
  11 H :   -0.439504
  12 H :    0.168381
Sum of atomic charges:   -0.0000000

LOEWDIN ATOMIC CHARGES
----------------------
   0 C :   -0.005449
   1 C :    0.003493
   2 C :    0.007669
   3 C :    0.036031
   4 C :    0.047100
   5 C :   -0.230611
   6 O :    0.180955
   7 H :   -0.006212
   8 H :    0.001631
   9 H :    0.002270
  10 H :   -0.001334
  11 H :    0.006236
  12 H :   -0.041780

  Mayer bond orders larger than 0.100000
B(  0-C ,  1-C ) :   1.7182 B(  0-C ,  2-C ) :   1.6141 B(  0-C ,  3-C ) :   0.2763
B(  0-C ,  4-C ) :   0.3011 B(  0-C ,  7-H ) :   0.3789 B(  0-C ,  8-H ) :   0.2014
B(  0-C ,  9-H ) :   0.1989 B(  1-C ,  2-C ) :  -0.1813 B(  1-C ,  3-C ) :   1.8254
B(  1-C ,  5-C ) :  -0.3041 B(  1-C ,  7-H ) :   0.1896 B(  1-C ,  8-H ) :   0.3541
B(  1-C , 10-H ) :   0.1345 B(  2-C ,  3-C ) :   0.1634 B(  2-C ,  4-C ) :   1.7256
B(  2-C ,  5-C ) :  -0.1954 B(  2-C ,  7-H ) :   0.1597 B(  2-C ,  9-H ) :   0.3355
B(  3-C ,  4-C ) :   0.2465 B(  3-C ,  5-C ) :   1.4603 B(  3-C ,  6-O ) :   0.1526
B(  3-C ,  8-H ) :   0.2416 B(  3-C , 10-H ) :   0.1966 B(  4-C ,  5-C ) :   1.6777
B(  4-C ,  9-H ) :   0.2629 B(  4-C , 11-H ) :   0.2565 B(  5-C , 10-H ) :   0.3533
B(  5-C , 11-H ) :   0.3975 B(  6-O , 12-H ) :   1.0577

MP2 TOTAL ENERGY:     -306.608460332 Eh
FINAL SINGLE POINT ENERGY      -306.608460332116

DIPOLE MOMENT
-------------
                                X             Y             Z
Electronic contribution:      0.24947       1.92009       0.00000
Nuclear contribution   :     -0.77929      -2.01277       0.00000
                        -----------------------------------------
Total Dipole Moment    :     -0.52983      -0.09268       0.00000
                        -----------------------------------------
Magnitude (a.u.)       :      0.53787
Magnitude (Debye)      :      1.36716

Rotational constants in cm-1:     0.189871     0.087636     0.059961
Rotational constants in MHz :  5692.198243  2627.248847  1797.573938

                             ****ORCA TERMINATED NORMALLY****
TOTAL RUN TIME: 0 days 0 hours 0 minutes 51 seconds 634 msec
