                         Program Version 5.0.3 -  RELEASE  -
|  1> !ri-mp2 aug-cc-pvdz aug-cc-pvdz/c tightscf
|  2> %pal nprocs 16 end
|  3>
|  4> * xyz 0 1
|  5> C      0.098831    1.023382    0.776623
|  6> C      0.098831    1.023382   -0.776623
|  7> C      0.098831   -0.465440    1.163404
|  8> C      0.098831   -0.465440   -1.163404
|  9> N     -0.516767   -1.106166    0.000000
| 10> H      0.959997    1.544372    1.192744
| 11> H     -0.795896    1.513765    1.157193
| 12> H     -0.795896    1.513765   -1.157193
| 13> H      0.959997    1.544372   -1.192744
| 14> H      1.132013   -0.807155    1.332694
| 15> H     -0.473545   -0.671624    2.067900
| 16> H     -0.473545   -0.671624   -2.067900
| 17> H      1.132013   -0.807155   -1.332694
| 18> H     -0.399708   -2.110863    0.000000
| 19> *
| 20>
| 21>                          ****END OF INPUT****

CARTESIAN COORDINATES (ANGSTROEM)
---------------------------------
  C      0.098831    1.023382    0.776623
  C      0.098831    1.023382   -0.776623
  C      0.098831   -0.465440    1.163404
  C      0.098831   -0.465440   -1.163404
  N     -0.516767   -1.106166    0.000000
  H      0.959997    1.544372    1.192744
  H     -0.795896    1.513765    1.157193
  H     -0.795896    1.513765   -1.157193
  H      0.959997    1.544372   -1.192744
  H      1.132013   -0.807155    1.332694
  H     -0.473545   -0.671624    2.067900
  H     -0.473545   -0.671624   -2.067900
  H      1.132013   -0.807155   -1.332694
  H     -0.399708   -2.110863    0.000000

 Total Charge           Charge          ....    0
 Multiplicity           Mult            ....    1
 Number of Electrons    NEL             ....   40
 Basis Dimension        Dim             ....  196

ORBITAL ENERGIES
----------------

  NO   OCC          E(Eh)            E(eV)
   0   2.0000     -15.543175      -422.9513
   1   2.0000     -11.246796      -306.0409
   2   2.0000     -11.246776      -306.0403
   3   2.0000     -11.220453      -305.3240
   4   2.0000     -11.219909      -305.3092
   5   2.0000      -1.216961       -33.1152
   6   2.0000      -1.020760       -27.7763
   7   2.0000      -0.972566       -26.4649
   8   2.0000      -0.805597       -21.9214
   9   2.0000      -0.781995       -21.2792
  10   2.0000      -0.686305       -18.6753
  11   2.0000      -0.654484       -17.8094
  12   2.0000      -0.586461       -15.9584
  13   2.0000      -0.553794       -15.0695
  14   2.0000      -0.511720       -13.9246
  15   2.0000      -0.511138       -13.9088
  16   2.0000      -0.478383       -13.0175
  17   2.0000      -0.470523       -12.8036
  18   2.0000      -0.454432       -12.3657
  19   2.0000      -0.363888        -9.9019
  20   0.0000       0.036794         1.0012
  21   0.0000       0.048346         1.3156
  22   0.0000       0.048691         1.3250
  23   0.0000       0.049716         1.3528
  24   0.0000       0.067058         1.8247

MULLIKEN ATOMIC CHARGES
-----------------------
   0 C :    0.223466
   1 C :    0.223466
   2 C :    0.795955
   3 C :    0.795955
   4 N :   -0.667496
   5 H :   -0.114964
   6 H :   -0.143515
   7 H :   -0.143515
   8 H :   -0.114964
   9 H :   -0.180010
  10 H :   -0.211603
  11 H :   -0.211603
  12 H :   -0.180010
  13 H :   -0.071163
Sum of atomic charges:    0.0000000

LOEWDIN ATOMIC CHARGES
----------------------
   0 C :    0.005496
   1 C :    0.005496
   2 C :   -0.033361
   3 C :   -0.033361
   4 N :    0.028210
   5 H :    0.004390
   6 H :    0.006101
   7 H :    0.006101
   8 H :    0.004390
   9 H :    0.009397
  10 H :    0.005752
  11 H :    0.005752
  12 H :    0.009397
  13 H :   -0.023758

  Mayer bond orders larger than 0.100000
B(  0-C ,  1-C ) :   1.2956 B(  0-C ,  2-C ) :   1.2347 B(  0-C ,  5-H ) :   0.8128
B(  0-C ,  6-H ) :   0.7504 B(  1-C ,  3-C ) :   1.2347 B(  1-C ,  7-H ) :   0.7504
B(  1-C ,  8-H ) :   0.8128 B(  2-C ,  4-N ) :   0.9005 B(  2-C ,  9-H ) :   0.7655
B(  2-C , 10-H ) :   0.8888 B(  3-C ,  4-N ) :   0.9005 B(  3-C , 11-H ) :   0.8888
B(  3-C , 12-H ) :   0.7655 B(  4-N , 13-H ) :   1.1055 B(  5-H ,  6-H ) :  -0.1368
B(  7-H ,  8-H ) :  -0.1368 B(  9-H , 10-H ) :  -0.1385 B( 11-H , 12-H ) :  -0.1385

MP2 TOTAL ENERGY:     -211.938748789 Eh
FINAL SINGLE POINT ENERGY      -211.938748788950

DIPOLE MOMENT
-------------
                                X             Y             Z
Electronic contribution:     -0.90181      -1.17479      -0.00000
Nuclear contribution   :      1.31227       1.09993      -0.00000
                        -----------------------------------------
Total Dipole Moment    :      0.41046      -0.07487      -0.00000
                        -----------------------------------------
Magnitude (a.u.)       :      0.41723
Magnitude (Debye)      :      1.06052

Rotational constants in cm-1:     0.228933     0.227350     0.129618
Rotational constants in MHz :  6863.244699  6815.777351  3885.850447

                             ****ORCA TERMINATED NORMALLY****
TOTAL RUN TIME: 0 days 0 hours 0 minutes 44 seconds 970 msec
