                         Program Version 5.0.3 -  RELEASE  -
|  1> !ri-mp2 aug-cc-pvdz aug-cc-pvdz/c tightscf
|  2> %pal nprocs 16 end
|  3>
|  4> * xyz 0 1
|  5> C      0.000000    0.000000    0.314636
|  6> C      0.000000    1.305048    0.357543
|  7> C      0.000000   -1.305048    0.357543
|  8> O      0.776928    2.146963   -0.393553
|  9> O     -0.776928   -2.146963   -0.393553
| 10> H     -0.646254    1.874974    1.014469
| 11> H      0.646254   -1.874974    1.014469
| 12> H      1.357245    1.618777   -0.955207
| 13> H     -1.357245   -1.618777   -0.955207
| 14> *
| 15>
| 16>                          ****END OF INPUT****

CARTESIAN COORDINATES (ANGSTROEM)
---------------------------------
  C      0.000000    0.000000    0.314636
  C      0.000000    1.305048    0.357543
  C      0.000000   -1.305048    0.357543
  O      0.776928    2.146963   -0.393553
  O     -0.776928   -2.146963   -0.393553
  H     -0.646254    1.874974    1.014469
  H      0.646254   -1.874974    1.014469
  H      1.357245    1.618777   -0.955207
  H     -1.357245   -1.618777   -0.955207

 Total Charge           Charge          ....    0
 Multiplicity           Mult            ....    1
 Number of Electrons    NEL             ....   38
 Basis Dimension        Dim             ....  151

ORBITAL ENERGIES
----------------

  NO   OCC          E(Eh)            E(eV)
   0   2.0000     -20.606191      -560.7230
   1   2.0000     -20.606190      -560.7229
   2   2.0000     -11.325794      -308.1905
   3   2.0000     -11.325793      -308.1905
   4   2.0000     -11.233170      -305.6701
   5   2.0000      -1.411560       -38.4105
   6   2.0000      -1.409257       -38.3478
   7   2.0000      -1.062365       -28.9084
   8   2.0000      -0.946178       -25.7468
   9   2.0000      -0.814145       -22.1540
  10   2.0000      -0.760775       -20.7017
  11   2.0000      -0.657303       -17.8861
  12   2.0000      -0.657262       -17.8850
  13   2.0000      -0.590980       -16.0814
  14   2.0000      -0.582078       -15.8392
  15   2.0000      -0.581396       -15.8206
  16   2.0000      -0.560931       -15.2637
  17   2.0000      -0.361270        -9.8307
  18   2.0000      -0.360593        -9.8122
  19   0.0000       0.033307         0.9063
  20   0.0000       0.045617         1.2413
  21   0.0000       0.048831         1.3288
  22   0.0000       0.052463         1.4276
  23   0.0000       0.099435         2.7058

MULLIKEN ATOMIC CHARGES
-----------------------
   0 C :   -0.660307
   1 C :    1.132070
   2 C :    1.132070
   3 O :   -0.706659
   4 O :   -0.706659
   5 H :   -0.251230
   6 H :   -0.251230
   7 H :    0.155972
   8 H :    0.155972
Sum of atomic charges:    0.0000000

LOEWDIN ATOMIC CHARGES
----------------------
   0 C :   -0.039929
   1 C :   -0.074037
   2 C :   -0.074037
   3 O :    0.142185
   4 O :    0.142185
   5 H :   -0.005760
   6 H :   -0.005760
   7 H :   -0.042425
   8 H :   -0.042425

  Mayer bond orders larger than 0.100000
B(  0-C ,  1-C ) :   1.9773 B(  0-C ,  2-C ) :   1.9773 B(  0-C ,  3-O ) :   0.1959
B(  0-C ,  4-O ) :   0.1959 B(  1-C ,  2-C ) :   0.4726 B(  1-C ,  3-O ) :   0.2936
B(  1-C ,  5-H ) :   0.7388 B(  1-C ,  6-H ) :   0.1001 B(  2-C ,  4-O ) :   0.2936
B(  2-C ,  5-H ) :   0.1001 B(  2-C ,  6-H ) :   0.7388 B(  3-O ,  7-H ) :   1.0569
B(  4-O ,  8-H ) :   1.0569

MP2 TOTAL ENERGY:     -266.415327927 Eh
FINAL SINGLE POINT ENERGY      -266.415327927498

DIPOLE MOMENT
-------------
                                X             Y             Z
Electronic contribution:     -0.00000       0.00000      -0.28790
Nuclear contribution   :      0.00000       0.00000       0.10509
                        -----------------------------------------
Total Dipole Moment    :     -0.00000       0.00000      -0.18281
                        -----------------------------------------
Magnitude (a.u.)       :      0.18281
Magnitude (Debye)      :      0.46466

Rotational constants in cm-1:     0.798779     0.075041     0.073357
Rotational constants in MHz : 23946.788837  2249.664668  2199.193026

                             ****ORCA TERMINATED NORMALLY****
TOTAL RUN TIME: 0 days 0 hours 0 minutes 36 seconds 654 msec
