                         Program Version 5.0.3 -  RELEASE  -
|  1> !ri-mp2 aug-cc-pvdz aug-cc-pvdz/c tightscf
|  2> %pal nprocs 16 end
|  3>
|  4> * xyz 0 1
|  5> C     -1.178117   -1.374042    0.000000
|  6> C      0.000000    0.710936    0.000000
|  7> C      0.054673   -2.002123    0.000000
|  8> C     -1.206605    0.023456    0.000000
|  9> C      1.184142   -0.028878    0.000000
| 10> N      1.224295   -1.357495    0.000000
| 11> S     -2.784231    0.826539    0.000000
| 12> S      2.727524    0.857050    0.000000
| 13> H     -2.088791   -1.955558    0.000000
| 14> H      0.031617    1.791274    0.000000
| 15> H      0.111277   -3.084243    0.000000
| 16> H     -2.326622    2.090660    0.000000
| 17> H      3.485210   -0.253177    0.000000
| 18> *
| 19>
| 20>                          ****END OF INPUT****

CARTESIAN COORDINATES (ANGSTROEM)
---------------------------------
  C     -1.178117   -1.374042    0.000000
  C      0.000000    0.710936    0.000000
  C      0.054673   -2.002123    0.000000
  C     -1.206605    0.023456    0.000000
  C      1.184142   -0.028878    0.000000
  N      1.224295   -1.357495    0.000000
  S     -2.784231    0.826539    0.000000
  S      2.727524    0.857050    0.000000
  H     -2.088791   -1.955558    0.000000
  H      0.031617    1.791274    0.000000
  H      0.111277   -3.084243    0.000000
  H     -2.326622    2.090660    0.000000
  H      3.485210   -0.253177    0.000000

 Total Charge           Charge          ....    0
 Multiplicity           Mult            ....    1
 Number of Electrons    NEL             ....   74
 Basis Dimension        Dim             ....  237

ORBITAL ENERGIES
----------------

  NO   OCC          E(Eh)            E(eV)
   0   2.0000     -91.990809     -2503.1972
   1   2.0000     -91.975068     -2502.7688
   2   2.0000     -15.581058      -423.9822
   3   2.0000     -11.331032      -308.3331
   4   2.0000     -11.315328      -307.9057
   5   2.0000     -11.297487      -307.4203
   6   2.0000     -11.260386      -306.4107
   7   2.0000     -11.254382      -306.2473
   8   2.0000      -8.992943      -244.7104
   9   2.0000      -8.977708      -244.2958
  10   2.0000      -6.675057      -181.6375
  11   2.0000      -6.673625      -181.5986
  12   2.0000      -6.671477      -181.5401
  13   2.0000      -6.659813      -181.2227
  14   2.0000      -6.658423      -181.1849
  15   2.0000      -6.656323      -181.1278
  16   2.0000      -1.284649       -34.9571
  17   2.0000      -1.135877       -30.9088
  18   2.0000      -1.080206       -29.3939
  19   2.0000      -0.999087       -27.1865
  20   2.0000      -0.976341       -26.5676
  21   2.0000      -0.871642       -23.7186
  22   2.0000      -0.820548       -22.3283
  23   2.0000      -0.703895       -19.1539
  24   2.0000      -0.700064       -19.0497
  25   2.0000      -0.653271       -17.7764
  26   2.0000      -0.599526       -16.3139
  27   2.0000      -0.576165       -15.6783
  28   2.0000      -0.574878       -15.6432
  29   2.0000      -0.549643       -14.9565
  30   2.0000      -0.501115       -13.6360
  31   2.0000      -0.494845       -13.4654
  32   2.0000      -0.465961       -12.6794
  33   2.0000      -0.426520       -11.6062
  34   2.0000      -0.417401       -11.3581
  35   2.0000      -0.349019        -9.4973
  36   2.0000      -0.328398        -8.9362
  37   0.0000       0.033642         0.9155
  38   0.0000       0.039185         1.0663
  39   0.0000       0.046955         1.2777
  40   0.0000       0.059886         1.6296
  41   0.0000       0.063166         1.7188

MULLIKEN ATOMIC CHARGES
-----------------------
   0 C :    0.737246
   1 C :    0.729966
   2 C :    0.236716
   3 C :   -0.229489
   4 C :    0.007793
   5 N :   -0.773620
   6 S :    0.217454
   7 S :    0.195726
   8 H :   -0.479579
   9 H :   -0.545783
  10 H :   -0.305011
  11 H :    0.073498
  12 H :    0.135085
Sum of atomic charges:    0.0000000

LOEWDIN ATOMIC CHARGES
----------------------
   0 C :   -0.025450
   1 C :   -0.060110
   2 C :   -0.033181
   3 C :   -0.522678
   4 C :   -0.563676
   5 N :   -0.014717
   6 S :    0.835119
   7 S :    0.803885
   8 H :   -0.007526
   9 H :   -0.016945
  10 H :    0.006477
  11 H :   -0.204627
  12 H :   -0.196571

  Mayer bond orders larger than 0.100000
B(  0-C ,  1-C ) :  -0.1454 B(  0-C ,  2-C ) :   1.1773 B(  0-C ,  3-C ) :   1.6842
B(  0-C ,  5-N ) :  -0.1503 B(  0-C ,  6-S ) :  -0.1443 B(  0-C ,  8-H ) :   0.3988
B(  1-C ,  2-C ) :   0.1092 B(  1-C ,  3-C ) :   1.5820 B(  1-C ,  4-C ) :   1.4596
B(  1-C ,  5-N ) :  -0.1574 B(  1-C ,  9-H ) :   0.3144 B(  2-C ,  3-C ) :   0.1023
B(  2-C ,  5-N ) :   1.3184 B(  2-C , 10-H ) :   0.9470 B(  3-C ,  6-S ) :   1.1557
B(  3-C ,  8-H ) :   0.2828 B(  3-C ,  9-H ) :   0.2998 B(  4-C ,  5-N ) :   1.4161
B(  4-C ,  7-S ) :   0.9867 B(  5-N , 10-H ) :  -0.1051 B(  6-S , 11-H ) :   0.9159
B(  7-S , 12-H ) :   0.9009

MP2 TOTAL ENERGY:    -1042.917399913 Eh
FINAL SINGLE POINT ENERGY     -1042.917399913164

DIPOLE MOMENT
-------------
                                X             Y             Z
Electronic contribution:      0.28745       1.54040      -0.00000
Nuclear contribution   :     -0.75530      -1.42737       0.00000
                        -----------------------------------------
Total Dipole Moment    :     -0.46785       0.11304      -0.00000
                        -----------------------------------------
Magnitude (a.u.)       :      0.48131
Magnitude (Debye)      :      1.22340

Rotational constants in cm-1:     0.099633     0.029001     0.022463
Rotational constants in MHz :  2986.917925   869.423564   673.409457

                             ****ORCA TERMINATED NORMALLY****
TOTAL RUN TIME: 0 days 0 hours 0 minutes 59 seconds 6 msec
