                         Program Version 5.0.3 -  RELEASE  -
|  1> !ri-mp2 aug-cc-pvdz aug-cc-pvdz/c tightscf
|  2> %pal nprocs 16 end
|  3>
|  4> * xyz 0 1
|  5> N      0.000000    1.175961   -0.636160
|  6> N      0.000000    1.151724    0.677844
|  7> N      0.000000    0.000000    1.324042
|  8> N      0.000000   -1.151724    0.677844
|  9> N      0.000000   -1.175961   -0.636160
| 10> C      0.000000    0.000000   -1.252774
| 11> H      0.000000    0.000000   -2.335236
| 12> *
| 13>
| 14>                          ****END OF INPUT****

CARTESIAN COORDINATES (ANGSTROEM)
---------------------------------
  N      0.000000    1.175961   -0.636160
  N      0.000000    1.151724    0.677844
  N      0.000000    0.000000    1.324042
  N      0.000000   -1.151724    0.677844
  N      0.000000   -1.175961   -0.636160
  C      0.000000    0.000000   -1.252774
  H      0.000000    0.000000   -2.335236

 Total Charge           Charge          ....    0
 Multiplicity           Mult            ....    1
 Number of Electrons    NEL             ....   42
 Basis Dimension        Dim             ....  147

ORBITAL ENERGIES
----------------

  NO   OCC          E(Eh)            E(eV)
   0   2.0000     -15.726798      -427.9479
   1   2.0000     -15.726777      -427.9474
   2   2.0000     -15.703796      -427.3220
   3   2.0000     -15.685219      -426.8165
   4   2.0000     -15.685196      -426.8159
   5   2.0000     -11.382925      -309.7451
   6   2.0000      -1.519918       -41.3591
   7   2.0000      -1.373918       -37.3862
   8   2.0000      -1.297938       -35.3187
   9   2.0000      -1.068164       -29.0662
  10   2.0000      -1.028186       -27.9784
  11   2.0000      -0.840869       -22.8812
  12   2.0000      -0.772848       -21.0302
  13   2.0000      -0.688026       -18.7221
  14   2.0000      -0.665642       -18.1130
  15   2.0000      -0.588113       -16.0034
  16   2.0000      -0.576723       -15.6934
  17   2.0000      -0.520670       -14.1682
  18   2.0000      -0.487662       -13.2699
  19   2.0000      -0.482303       -13.1241
  20   2.0000      -0.445885       -12.1332
  21   0.0000       0.013170         0.3584
  22   0.0000       0.029186         0.7942
  23   0.0000       0.034507         0.9390
  24   0.0000       0.078958         2.1486
  25   0.0000       0.081854         2.2274

MULLIKEN ATOMIC CHARGES
-----------------------
   0 N :   -0.312319
   1 N :   -0.112551
   2 N :   -0.090113
   3 N :   -0.112551
   4 N :   -0.312319
   5 C :    1.056662
   6 H :   -0.116810
Sum of atomic charges:   -0.0000000

LOEWDIN ATOMIC CHARGES
----------------------
   0 N :    0.021245
   1 N :    0.002613
   2 N :   -0.020901
   3 N :    0.002613
   4 N :    0.021245
   5 C :   -0.038028
   6 H :    0.011212

  Mayer bond orders larger than 0.100000
B(  0-N ,  1-N ) :   0.9933 B(  0-N ,  5-C ) :   1.2224 B(  1-N ,  2-N ) :   0.8961
B(  1-N ,  3-N ) :   0.1543 B(  2-N ,  3-N ) :   0.8961 B(  3-N ,  4-N ) :   0.9933
B(  4-N ,  5-C ) :   1.2224 B(  5-C ,  6-H ) :   0.9503

MP2 TOTAL ENERGY:     -311.539869254 Eh
FINAL SINGLE POINT ENERGY      -311.539869254004

DIPOLE MOMENT
-------------
                                X             Y             Z
Electronic contribution:     -0.00000      -0.00000       1.09778
Nuclear contribution   :      0.00000       0.00000      -2.21000
                        -----------------------------------------
Total Dipole Moment    :     -0.00000      -0.00000      -1.11223
                        -----------------------------------------
Magnitude (a.u.)       :      1.11223
Magnitude (Debye)      :      2.82706

Rotational constants in cm-1:     0.230776     0.222104     0.113179
Rotational constants in MHz :  6918.500595  6658.508765  3393.007667

                             ****ORCA TERMINATED NORMALLY****
TOTAL RUN TIME: 0 days 0 hours 0 minutes 37 seconds 943 msec
