                         Program Version 5.0.3 -  RELEASE  -
|  1> !ri-mp2 aug-cc-pvdz aug-cc-pvdz/c tightscf
|  2> %pal nprocs 16 end
|  3>
|  4> * xyz 0 1
|  5> C      0.000000    0.705485   -0.012772
|  6> C      0.000000    1.324526   -1.289733
|  7> C      0.000000   -0.705485   -0.012772
|  8> N      0.000000    0.681794   -2.426927
|  9> C      0.000000   -1.324526   -1.289733
| 10> N      0.000000   -0.681794   -2.426927
| 11> C      0.000000    1.404939    1.211306
| 12> C      0.000000    0.705423    2.392790
| 13> C      0.000000   -0.705423    2.392790
| 14> C      0.000000   -1.404939    1.211306
| 15> H      0.000000   -2.407381   -1.364362
| 16> H      0.000000    2.407381   -1.364362
| 17> H      0.000000   -1.235415    3.335672
| 18> H      0.000000    1.235415    3.335672
| 19> H      0.000000   -2.487234    1.207629
| 20> H      0.000000    2.487234    1.207629
| 21> *
| 22>
| 23>                          ****END OF INPUT****

CARTESIAN COORDINATES (ANGSTROEM)
---------------------------------
  C      0.000000    0.705485   -0.012772
  C      0.000000    1.324526   -1.289733
  C      0.000000   -0.705485   -0.012772
  N      0.000000    0.681794   -2.426927
  C      0.000000   -1.324526   -1.289733
  N      0.000000   -0.681794   -2.426927
  C      0.000000    1.404939    1.211306
  C      0.000000    0.705423    2.392790
  C      0.000000   -0.705423    2.392790
  C      0.000000   -1.404939    1.211306
  H      0.000000   -2.407381   -1.364362
  H      0.000000    2.407381   -1.364362
  H      0.000000   -1.235415    3.335672
  H      0.000000    1.235415    3.335672
  H      0.000000   -2.487234    1.207629
  H      0.000000    2.487234    1.207629

 Total Charge           Charge          ....    0
 Multiplicity           Mult            ....    1
 Number of Electrons    NEL             ....   68
 Basis Dimension        Dim             ....  284

ORBITAL ENERGIES
----------------

  NO   OCC          E(Eh)            E(eV)
   0   2.0000     -15.608903      -424.7398
   1   2.0000     -15.608221      -424.7213
   2   2.0000     -11.290889      -307.2407
   3   2.0000     -11.290863      -307.2400
   4   2.0000     -11.275546      -306.8232
   5   2.0000     -11.274443      -306.7932
   6   2.0000     -11.271068      -306.7014
   7   2.0000     -11.270459      -306.6848
   8   2.0000     -11.269540      -306.6598
   9   2.0000     -11.269070      -306.6470
  10   2.0000      -1.338079       -36.4110
  11   2.0000      -1.189831       -32.3769
  12   2.0000      -1.131716       -30.7956
  13   2.0000      -1.074743       -29.2452
  14   2.0000      -1.049563       -28.5601
  15   2.0000      -0.907800       -24.7025
  16   2.0000      -0.895511       -24.3681
  17   2.0000      -0.851759       -23.1775
  18   2.0000      -0.743034       -20.2190
  19   2.0000      -0.738721       -20.1016
  20   2.0000      -0.706698       -19.2302
  21   2.0000      -0.652771       -17.7628
  22   2.0000      -0.643978       -17.5235
  23   2.0000      -0.614631       -16.7250
  24   2.0000      -0.612877       -16.6772
  25   2.0000      -0.585290       -15.9265
  26   2.0000      -0.554315       -15.0837
  27   2.0000      -0.527463       -14.3530
  28   2.0000      -0.506507       -13.7828
  29   2.0000      -0.461650       -12.5621
  30   2.0000      -0.421995       -11.4831
  31   2.0000      -0.406914       -11.0727
  32   2.0000      -0.365336        -9.9413
  33   2.0000      -0.333486        -9.0746
  34   0.0000       0.026095         0.7101
  35   0.0000       0.033503         0.9117
  36   0.0000       0.041635         1.1329
  37   0.0000       0.050349         1.3701
  38   0.0000       0.058507         1.5921

MULLIKEN ATOMIC CHARGES
-----------------------
   0 C :    0.353556
   1 C :    0.781798
   2 C :    0.353556
   3 N :   -0.649145
   4 C :    0.781798
   5 N :   -0.649145
   6 C :    0.701483
   7 C :    0.209062
   8 C :    0.209062
   9 C :    0.701483
  10 H :   -0.381137
  11 H :   -0.381137
  12 H :   -0.464078
  13 H :   -0.464078
  14 H :   -0.551540
  15 H :   -0.551540
Sum of atomic charges:    0.0000000

LOEWDIN ATOMIC CHARGES
----------------------
   0 C :   -0.136891
   1 C :    0.013585
   2 C :   -0.136891
   3 N :   -0.001298
   4 C :    0.013585
   5 N :   -0.001298
   6 C :    0.066685
   7 C :    0.028847
   8 C :    0.028847
   9 C :    0.066685
  10 H :    0.011448
  11 H :    0.011448
  12 H :    0.005637
  13 H :    0.005637
  14 H :    0.011987
  15 H :    0.011987

  Mayer bond orders larger than 0.100000
B(  0-C ,  1-C ) :   0.9806 B(  0-C ,  2-C ) :   2.7638 B(  0-C ,  4-C ) :  -0.6394
B(  0-C ,  5-N ) :   0.1832 B(  0-C ,  6-C ) :   1.9050 B(  0-C ,  8-C ) :   0.1700
B(  0-C ,  9-C ) :  -1.3404 B(  0-C , 11-H ) :   0.3381 B(  0-C , 15-H ) :   0.8102
B(  1-C ,  2-C ) :  -0.6394 B(  1-C ,  3-N ) :   1.4449 B(  1-C ,  4-C ) :   0.4833
B(  1-C ,  5-N ) :  -0.1580 B(  1-C ,  6-C ) :  -0.2968 B(  1-C ,  7-C ) :   0.3428
B(  1-C ,  9-C ) :   0.1302 B(  1-C , 11-H ) :   0.4165 B(  2-C ,  3-N ) :   0.1832
B(  2-C ,  4-C ) :   0.9806 B(  2-C ,  6-C ) :  -1.3404 B(  2-C ,  7-C ) :   0.1700
B(  2-C ,  9-C ) :   1.9050 B(  2-C , 10-H ) :   0.3381 B(  2-C , 14-H ) :   0.8102
B(  3-N ,  4-C ) :  -0.1580 B(  3-N ,  5-N ) :   0.9039 B(  4-C ,  5-N ) :   1.4449
B(  4-C ,  6-C ) :   0.1302 B(  4-C ,  8-C ) :   0.3428 B(  4-C ,  9-C ) :  -0.2968
B(  4-C , 10-H ) :   0.4165 B(  6-C ,  7-C ) :   1.3159 B(  6-C , 13-H ) :   0.1570
B(  6-C , 15-H ) :  -0.3016 B(  7-C ,  8-C ) :   1.8963 B(  7-C , 12-H ) :   0.2649
B(  7-C , 13-H ) :   0.2499 B(  7-C , 14-H ) :  -0.1331 B(  7-C , 15-H ) :   0.1984
B(  8-C ,  9-C ) :   1.3159 B(  8-C , 12-H ) :   0.2499 B(  8-C , 13-H ) :   0.2649
B(  8-C , 14-H ) :   0.1984 B(  8-C , 15-H ) :  -0.1331 B(  9-C , 12-H ) :   0.1570
B(  9-C , 14-H ) :  -0.3016

MP2 TOTAL ENERGY:     -416.752324627 Eh
FINAL SINGLE POINT ENERGY      -416.752324627438

DIPOLE MOMENT
-------------
                                X             Y             Z
Electronic contribution:      0.00000      -0.00000      -4.07544
Nuclear contribution   :      0.00000      -0.00000       6.21068
                        -----------------------------------------
Total Dipole Moment    :      0.00000      -0.00000       2.13523
                        -----------------------------------------
Magnitude (a.u.)       :      2.13523
Magnitude (Debye)      :      5.42733

Rotational constants in cm-1:     0.109662     0.041463     0.030087
Rotational constants in MHz :  3287.586032  1243.039360   901.994423

                             ****ORCA TERMINATED NORMALLY****
TOTAL RUN TIME: 0 days 0 hours 1 minutes 34 seconds 159 msec
