                         Program Version 5.0.3 -  RELEASE  -
|  1> !ri-mp2 aug-cc-pvdz aug-cc-pvdz/c tightscf
|  2> %pal nprocs 16 end
|  3>
|  4> * xyz 0 1
|  5> C      0.000000    0.688857    1.174003
|  6> C      0.000000   -0.688857    1.174003
|  7> C      0.000000   -1.319429   -0.067431
|  8> C      0.000000    1.319429   -0.067431
|  9> H      0.000000    1.265199    2.088781
| 10> H      0.000000   -1.265199    2.088781
| 11> H      0.000000   -2.398824   -0.151216
| 12> H      0.000000    2.398824   -0.151216
| 13> N      0.000000    0.664263   -1.225286
| 14> N      0.000000   -0.664263   -1.225286
| 15> *
| 16>
| 17>                          ****END OF INPUT****

CARTESIAN COORDINATES (ANGSTROEM)
---------------------------------
  C      0.000000    0.688857    1.174003
  C      0.000000   -0.688857    1.174003
  C      0.000000   -1.319429   -0.067431
  C      0.000000    1.319429   -0.067431
  H      0.000000    1.265199    2.088781
  H      0.000000   -1.265199    2.088781
  H      0.000000   -2.398824   -0.151216
  H      0.000000    2.398824   -0.151216
  N      0.000000    0.664263   -1.225286
  N      0.000000   -0.664263   -1.225286

 Total Charge           Charge          ....    0
 Multiplicity           Mult            ....    1
 Number of Electrons    NEL             ....   42
 Basis Dimension        Dim             ....  174

ORBITAL ENERGIES
----------------

  NO   OCC          E(Eh)            E(eV)
   0   2.0000     -15.619980      -425.0413
   1   2.0000     -15.619159      -425.0189
   2   2.0000     -11.290603      -307.2329
   3   2.0000     -11.290577      -307.2322
   4   2.0000     -11.278207      -306.8956
   5   2.0000     -11.276900      -306.8601
   6   2.0000      -1.352926       -36.8150
   7   2.0000      -1.120539       -30.4914
   8   2.0000      -1.117870       -30.4188
   9   2.0000      -0.905025       -24.6270
  10   2.0000      -0.891861       -24.2688
  11   2.0000      -0.733476       -19.9589
  12   2.0000      -0.702762       -19.1231
  13   2.0000      -0.668209       -18.1829
  14   2.0000      -0.603118       -16.4117
  15   2.0000      -0.590801       -16.0765
  16   2.0000      -0.579816       -15.7776
  17   2.0000      -0.481914       -13.1136
  18   2.0000      -0.405936       -11.0461
  19   2.0000      -0.405725       -11.0403
  20   2.0000      -0.385157       -10.4807
  21   0.0000       0.027249         0.7415
  22   0.0000       0.037192         1.0121
  23   0.0000       0.048106         1.3090
  24   0.0000       0.058951         1.6041
  25   0.0000       0.072072         1.9612

MULLIKEN ATOMIC CHARGES
-----------------------
   0 C :    0.643305
   1 C :    0.643305
   2 C :    0.573066
   3 C :    0.573066
   4 H :   -0.386737
   5 H :   -0.386737
   6 H :   -0.267502
   7 H :   -0.267502
   8 N :   -0.562132
   9 N :   -0.562132
Sum of atomic charges:   -0.0000000

LOEWDIN ATOMIC CHARGES
----------------------
   0 C :    0.027475
   1 C :    0.027475
   2 C :   -0.030100
   3 C :   -0.030100
   4 H :    0.006990
   5 H :    0.006990
   6 H :    0.000786
   7 H :    0.000786
   8 N :   -0.005151
   9 N :   -0.005151

  Mayer bond orders larger than 0.100000
B(  0-C ,  1-C ) :   1.6488 B(  0-C ,  3-C ) :   1.3815 B(  0-C ,  4-H ) :   0.5313
B(  0-C ,  5-H ) :   0.1104 B(  1-C ,  2-C ) :   1.3815 B(  1-C ,  4-H ) :   0.1104
B(  1-C ,  5-H ) :   0.5313 B(  2-C ,  3-C ) :   0.1219 B(  2-C ,  5-H ) :   0.1813
B(  2-C ,  6-H ) :   0.7949 B(  2-C ,  8-N ) :  -0.1002 B(  2-C ,  9-N ) :   1.3243
B(  3-C ,  4-H ) :   0.1813 B(  3-C ,  7-H ) :   0.7949 B(  3-C ,  8-N ) :   1.3243
B(  3-C ,  9-N ) :  -0.1002 B(  8-N ,  9-N ) :   1.0130

MP2 TOTAL ENERGY:     -263.553752604 Eh
FINAL SINGLE POINT ENERGY      -263.553752604048

DIPOLE MOMENT
-------------
                                X             Y             Z
Electronic contribution:     -0.00000       0.00000      -2.06970
Nuclear contribution   :      0.00000       0.00000       3.80237
                        -----------------------------------------
Total Dipole Moment    :     -0.00000       0.00000       1.73268
                        -----------------------------------------
Magnitude (a.u.)       :      1.73268
Magnitude (Debye)      :      4.40411

Rotational constants in cm-1:     0.209652     0.200843     0.102576
Rotational constants in MHz :  6285.217020  6021.111702  3075.165194

                             ****ORCA TERMINATED NORMALLY****
TOTAL RUN TIME: 0 days 0 hours 0 minutes 42 seconds 884 msec
