                         Program Version 5.0.3 -  RELEASE  -
|  1> !ri-mp2 aug-cc-pvdz aug-cc-pvdz/c tightscf
|  2> %pal nprocs 16 end
|  3>
|  4> * xyz 0 1
|  5> C     -2.632692    0.270492    0.000000
|  6> C     -1.445615    0.445322    0.000000
|  7> C      2.298303   -0.462071    0.000000
|  8> C      0.000000    0.632435    0.000000
|  9> C      0.789039   -0.688491    0.000000
| 10> H     -3.683318    0.121999    0.000000
| 11> H      2.615695    0.098825    0.881392
| 12> H      2.836529   -1.410299    0.000000
| 13> H      2.615695    0.098825   -0.881392
| 14> H      0.283301    1.225765   -0.874581
| 15> H      0.283301    1.225765    0.874581
| 16> H      0.497294   -1.273503   -0.874226
| 17> H      0.497294   -1.273503    0.874226
| 18> *
| 19>
| 20>                          ****END OF INPUT****

CARTESIAN COORDINATES (ANGSTROEM)
---------------------------------
  C     -2.632692    0.270492    0.000000
  C     -1.445615    0.445322    0.000000
  C      2.298303   -0.462071    0.000000
  C      0.000000    0.632435    0.000000
  C      0.789039   -0.688491    0.000000
  H     -3.683318    0.121999    0.000000
  H      2.615695    0.098825    0.881392
  H      2.836529   -1.410299    0.000000
  H      2.615695    0.098825   -0.881392
  H      0.283301    1.225765   -0.874581
  H      0.283301    1.225765    0.874581
  H      0.497294   -1.273503   -0.874226
  H      0.497294   -1.273503    0.874226

 Total Charge           Charge          ....    0
 Multiplicity           Mult            ....    1
 Number of Electrons    NEL             ....   38
 Basis Dimension        Dim             ....  187

ORBITAL ENERGIES
----------------

  NO   OCC          E(Eh)            E(eV)
   0   2.0000     -11.255597      -306.2804
   1   2.0000     -11.238499      -305.8151
   2   2.0000     -11.236088      -305.7495
   3   2.0000     -11.226004      -305.4751
   4   2.0000     -11.225185      -305.4528
   5   2.0000      -1.093301       -29.7502
   6   2.0000      -1.021626       -27.7999
   7   2.0000      -0.943461       -25.6729
   8   2.0000      -0.824591       -22.4383
   9   2.0000      -0.717203       -19.5161
  10   2.0000      -0.645090       -17.5538
  11   2.0000      -0.639927       -17.4133
  12   2.0000      -0.578247       -15.7349
  13   2.0000      -0.558422       -15.1954
  14   2.0000      -0.513777       -13.9806
  15   2.0000      -0.495353       -13.4792
  16   2.0000      -0.484261       -13.1774
  17   2.0000      -0.382374       -10.4049
  18   2.0000      -0.381788       -10.3890
  19   0.0000       0.036614         0.9963
  20   0.0000       0.040942         1.1141
  21   0.0000       0.048201         1.3116
  22   0.0000       0.050709         1.3799
  23   0.0000       0.059585         1.6214

MULLIKEN ATOMIC CHARGES
-----------------------
   0 C :    0.910374
   1 C :   -0.366984
   2 C :    0.431998
   3 C :   -0.098803
   4 C :    0.294734
   5 H :   -0.548740
   6 H :   -0.074438
   7 H :   -0.072804
   8 H :   -0.074438
   9 H :   -0.029640
  10 H :   -0.029640
  11 H :   -0.170809
  12 H :   -0.170809
Sum of atomic charges:   -0.0000000

LOEWDIN ATOMIC CHARGES
----------------------
   0 C :    0.200558
   1 C :   -0.107376
   2 C :    0.132702
   3 C :   -0.067864
   4 C :   -0.063477
   5 H :   -0.109021
   6 H :   -0.018742
   7 H :   -0.019694
   8 H :   -0.018742
   9 H :    0.021903
  10 H :    0.021903
  11 H :    0.013926
  12 H :    0.013926

  Mayer bond orders larger than 0.100000
B(  0-C ,  1-C ) :   2.7409 B(  0-C ,  3-C ) :   0.1845 B(  0-C ,  5-H ) :  -0.4031
B(  1-C ,  3-C ) :   1.3756 B(  1-C ,  4-C ) :  -0.1020 B(  1-C ,  5-H ) :   0.7237
B(  2-C ,  4-C ) :   1.1684 B(  2-C ,  6-H ) :   0.9383 B(  2-C ,  7-H ) :   0.9188
B(  2-C ,  8-H ) :   0.9383 B(  3-C ,  4-C ) :   1.3152 B(  3-C ,  5-H ) :   0.1246
B(  3-C ,  9-H ) :   0.8141 B(  3-C , 10-H ) :   0.8141 B(  4-C , 11-H ) :   0.7560
B(  4-C , 12-H ) :   0.7560

MP2 TOTAL ENERGY:     -194.661518261 Eh
FINAL SINGLE POINT ENERGY      -194.661518261173

DIPOLE MOMENT
-------------
                                X             Y             Z
Electronic contribution:     -5.88395       1.20469       0.00000
Nuclear contribution   :      6.22927      -1.24268       0.00000
                        -----------------------------------------
Total Dipole Moment    :      0.34533      -0.03798       0.00000
                        -----------------------------------------
Magnitude (a.u.)       :      0.34741
Magnitude (Debye)      :      0.88305

Rotational constants in cm-1:     0.794272     0.074030     0.070346
Rotational constants in MHz : 23811.671020  2219.371699  2108.919706

                             ****ORCA TERMINATED NORMALLY****
TOTAL RUN TIME: 0 days 0 hours 0 minutes 47 seconds 638 msec
