                         Program Version 5.0.3 -  RELEASE  -
|  1> !ri-mp2 aug-cc-pvdz aug-cc-pvdz/c tightscf
|  2> %pal nprocs 16 end
|  3> %maxcore 3800
|  4>
|  5> * xyz 0 1
|  6> C      0.386271   -2.839243    0.000000
|  7> C      0.387351   -2.138596    1.200339
|  8> C      0.387351   -2.138596   -1.200339
|  9> C      0.387351   -0.748944    1.197148
| 10> C      0.387351   -0.748944   -1.197148
| 11> C      0.385210   -0.031430    0.000000
| 12> C     -1.108485    3.575531    0.000000
| 13> C      0.345445    1.476802    0.000000
| 14> C     -1.082048    2.048572    0.000000
| 15> H      0.389739   -3.921015    0.000000
| 16> H      0.393022   -2.674365    2.140600
| 17> H      0.393022   -2.674365   -2.140600
| 18> H      0.394621   -0.211935    2.138121
| 19> H      0.394621   -0.211935   -2.138121
| 20> H     -0.604834    3.979341    0.880742
| 21> H     -0.604834    3.979341   -0.880742
| 22> H     -2.131197    3.954700    0.000000
| 23> H      0.878157    1.856658    0.875883
| 24> H      0.878157    1.856658   -0.875883
| 25> H     -1.617623    1.668007   -0.873416
| 26> H     -1.617623    1.668007    0.873416
| 27> *
| 28>
| 29>                          ****END OF INPUT****

CARTESIAN COORDINATES (ANGSTROEM)
---------------------------------
  C      0.386271   -2.839243    0.000000
  C      0.387351   -2.138596    1.200339
  C      0.387351   -2.138596   -1.200339
  C      0.387351   -0.748944    1.197148
  C      0.387351   -0.748944   -1.197148
  C      0.385210   -0.031430    0.000000
  C     -1.108485    3.575531    0.000000
  C      0.345445    1.476802    0.000000
  C     -1.082048    2.048572    0.000000
  H      0.389739   -3.921015    0.000000
  H      0.393022   -2.674365    2.140600
  H      0.393022   -2.674365   -2.140600
  H      0.394621   -0.211935    2.138121
  H      0.394621   -0.211935   -2.138121
  H     -0.604834    3.979341    0.880742
  H     -0.604834    3.979341   -0.880742
  H     -2.131197    3.954700    0.000000
  H      0.878157    1.856658    0.875883
  H      0.878157    1.856658   -0.875883
  H     -1.617623    1.668007   -0.873416
  H     -1.617623    1.668007    0.873416

 Total Charge           Charge          ....    0
 Multiplicity           Mult            ....    1
 Number of Electrons    NEL             ....   66
 Basis Dimension        Dim             ....  315

ORBITAL ENERGIES
----------------

  NO   OCC          E(Eh)            E(eV)
   0   2.0000     -11.241390      -305.8938
   1   2.0000     -11.237118      -305.7775
   2   2.0000     -11.236939      -305.7726
   3   2.0000     -11.233270      -305.6728
   4   2.0000     -11.232556      -305.6534
   5   2.0000     -11.232456      -305.6507
   6   2.0000     -11.230303      -305.5921
   7   2.0000     -11.226695      -305.4939
   8   2.0000     -11.219882      -305.3085
   9   2.0000      -1.156878       -31.4803
  10   2.0000      -1.075781       -29.2735
  11   2.0000      -1.014673       -27.6106
  12   2.0000      -1.013839       -27.5880
  13   2.0000      -0.924579       -25.1591
  14   2.0000      -0.826217       -22.4825
  15   2.0000      -0.823841       -22.4179
  16   2.0000      -0.786320       -21.3969
  17   2.0000      -0.694097       -18.8873
  18   2.0000      -0.647291       -17.6137
  19   2.0000      -0.634225       -17.2581
  20   2.0000      -0.607000       -16.5173
  21   2.0000      -0.589322       -16.0363
  22   2.0000      -0.582553       -15.8521
  23   2.0000      -0.565759       -15.3951
  24   2.0000      -0.529521       -14.4090
  25   2.0000      -0.526154       -14.3174
  26   2.0000      -0.498167       -13.5558
  27   2.0000      -0.488037       -13.2802
  28   2.0000      -0.474755       -12.9187
  29   2.0000      -0.468489       -12.7482
  30   2.0000      -0.466155       -12.6847
  31   2.0000      -0.333682        -9.0799
  32   2.0000      -0.323104        -8.7921
  33   0.0000       0.035579         0.9682
  34   0.0000       0.039770         1.0822
  35   0.0000       0.041432         1.1274
  36   0.0000       0.048522         1.3204
  37   0.0000       0.053756         1.4628

MULLIKEN ATOMIC CHARGES
-----------------------
   0 C :    0.522400
   1 C :    0.186646
   2 C :    0.186646
   3 C :    0.316613
   4 C :    0.316613
   5 C :    1.337205
   6 C :    0.398771
   7 C :    0.221716
   8 C :    0.204220
   9 H :   -0.446281
  10 H :   -0.456792
  11 H :   -0.456792
  12 H :   -0.644302
  13 H :   -0.644302
  14 H :   -0.064298
  15 H :   -0.064298
  16 H :   -0.073323
  17 H :   -0.230966
  18 H :   -0.230966
  19 H :   -0.189256
  20 H :   -0.189256
Sum of atomic charges:    0.0000000

LOEWDIN ATOMIC CHARGES
----------------------
   0 C :    0.001240
   1 C :    0.007132
   2 C :    0.007132
   3 C :    0.041702
   4 C :    0.041702
   5 C :   -0.179614
   6 C :    0.132427
   7 C :   -0.004343
   8 C :   -0.059666
   9 H :   -0.003004
  10 H :   -0.000610
  11 H :   -0.000610
  12 H :    0.006489
  13 H :    0.006489
  14 H :   -0.019602
  15 H :   -0.019602
  16 H :   -0.020914
  17 H :    0.018733
  18 H :    0.018733
  19 H :    0.013094
  20 H :    0.013094

  Mayer bond orders larger than 0.100000
B(  0-C ,  1-C ) :   1.8116 B(  0-C ,  2-C ) :   1.8116 B(  0-C ,  5-C ) :   0.2553
B(  0-C ,  9-H ) :   0.2553 B(  0-C , 10-H ) :   0.1593 B(  0-C , 11-H ) :   0.1593
B(  1-C ,  3-C ) :   1.9537 B(  1-C ,  5-C ) :  -0.4439 B(  1-C ,  7-C ) :   0.1702
B(  1-C ,  9-H ) :   0.2457 B(  1-C , 10-H ) :   0.2127 B(  1-C , 12-H ) :   0.2990
B(  2-C ,  4-C ) :   1.9537 B(  2-C ,  5-C ) :  -0.4439 B(  2-C ,  7-C ) :   0.1702
B(  2-C ,  9-H ) :   0.2457 B(  2-C , 11-H ) :   0.2127 B(  2-C , 13-H ) :   0.2990
B(  3-C ,  4-C ) :  -0.7645 B(  3-C ,  5-C ) :   1.7082 B(  3-C ,  7-C ) :  -0.3079
B(  3-C , 10-H ) :   0.3789 B(  3-C , 12-H ) :  -0.1616 B(  4-C ,  5-C ) :   1.7082
B(  4-C ,  7-C ) :  -0.3079 B(  4-C , 11-H ) :   0.3789 B(  4-C , 13-H ) :  -0.1616
B(  5-C ,  7-C ) :   1.3682 B(  5-C ,  8-C ) :  -0.1465 B(  5-C , 12-H ) :   0.5184
B(  5-C , 13-H ) :   0.5184 B(  5-C , 19-H ) :  -0.1152 B(  5-C , 20-H ) :  -0.1152
B(  6-C ,  8-C ) :   1.1705 B(  6-C , 14-H ) :   0.9451 B(  6-C , 15-H ) :   0.9451
B(  6-C , 16-H ) :   0.9062 B(  7-C ,  8-C ) :   1.2505 B(  7-C , 17-H ) :   0.7438
B(  7-C , 18-H ) :   0.7438 B(  8-C , 19-H ) :   0.7628 B(  8-C , 20-H ) :   0.7628

MP2 TOTAL ENERGY:     -349.107562377 Eh
FINAL SINGLE POINT ENERGY      -349.107562377442

DIPOLE MOMENT
-------------
                                X             Y             Z
Electronic contribution:      2.88696      -9.39705       0.00000
Nuclear contribution   :     -2.94403       9.55889       0.00000
                        -----------------------------------------
Total Dipole Moment    :     -0.05707       0.16184       0.00000
                        -----------------------------------------
Magnitude (a.u.)       :      0.17161
Magnitude (Debye)      :      0.43619

Rotational constants in cm-1:     0.147018     0.028391     0.025411
Rotational constants in MHz :  4407.492306   851.129989   761.810186

                             ****ORCA TERMINATED NORMALLY****
TOTAL RUN TIME: 0 days 0 hours 1 minutes 46 seconds 248 msec
