                         Program Version 5.0.3 -  RELEASE  -
|  1> !ri-mp2 aug-cc-pvdz aug-cc-pvdz/c tightscf
|  2> %pal nprocs 16 end
|  3>
|  4> * xyz 0 1
|  5> C      1.317704    0.115038        0.000000
|  6> C     -1.022687   -0.385775        0.000000
|  7> C      1.558392   -1.254677        0.000000
|  8> C     -0.677231   -1.728443        0.000000
|  9> C      0.000000    0.561086        0.000000
| 10> C     -0.292864    2.016587        0.000000
| 11> N      0.586424   -2.165062        0.000000
| 12> O     -1.402646    2.490215        0.000000
| 13> H      2.141104    0.817975        0.000000
| 14> H     -2.055648   -0.068068        0.000000
| 15> H      2.573168   -1.634741        0.000000
| 16> H     -1.445137   -2.492744        0.000000
| 17> H      0.602825    2.668397        0.000000
| 18> *
| 19>
| 20>                          ****END OF INPUT****

CARTESIAN COORDINATES (ANGSTROEM)
---------------------------------
  C      1.317704    0.115038    0.000000
  C     -1.022687   -0.385775    0.000000
  C      1.558392   -1.254677    0.000000
  C     -0.677231   -1.728443    0.000000
  C      0.000000    0.561086    0.000000
  C     -0.292864    2.016587    0.000000
  N      0.586424   -2.165062    0.000000
  O     -1.402646    2.490215    0.000000
  H      2.141104    0.817975    0.000000
  H     -2.055648   -0.068068    0.000000
  H      2.573168   -1.634741    0.000000
  H     -1.445137   -2.492744    0.000000
  H      0.602825    2.668397    0.000000

 Total Charge           Charge          ....    0
 Multiplicity           Mult            ....    1
 Number of Electrons    NEL             ....   56
 Basis Dimension        Dim             ....  229

ORBITAL ENERGIES
----------------

  NO   OCC          E(Eh)            E(eV)
   0   2.0000     -20.586190      -560.1787
   1   2.0000     -15.594765      -424.3551
   2   2.0000     -11.359838      -309.1169
   3   2.0000     -11.297668      -307.4252
   4   2.0000     -11.294927      -307.3506
   5   2.0000     -11.282516      -307.0129
   6   2.0000     -11.272508      -306.7405
   7   2.0000     -11.265523      -306.5505
   8   2.0000      -1.417220       -38.5645
   9   2.0000      -1.281717       -34.8773
  10   2.0000      -1.125846       -30.6358
  11   2.0000      -1.056741       -28.7554
  12   2.0000      -0.933341       -25.3975
  13   2.0000      -0.881494       -23.9867
  14   2.0000      -0.817156       -22.2359
  15   2.0000      -0.734810       -19.9952
  16   2.0000      -0.699247       -19.0275
  17   2.0000      -0.672202       -18.2915
  18   2.0000      -0.648514       -17.6470
  19   2.0000      -0.627531       -17.0760
  20   2.0000      -0.616169       -16.7668
  21   2.0000      -0.578264       -15.7354
  22   2.0000      -0.538381       -14.6501
  23   2.0000      -0.536201       -14.5908
  24   2.0000      -0.453463       -12.3393
  25   2.0000      -0.432225       -11.7614
  26   2.0000      -0.399271       -10.8647
  27   2.0000      -0.364540        -9.9196
  28   0.0000       0.029449         0.8013
  29   0.0000       0.039242         1.0678
  30   0.0000       0.040811         1.1105
  31   0.0000       0.044153         1.2015
  32   0.0000       0.061199         1.6653

MULLIKEN ATOMIC CHARGES
-----------------------
   0 C :    0.886233
   1 C :    0.715959
   2 C :    0.258400
   3 C :    0.274536
   4 C :    0.013473
   5 C :    1.137204
   6 N :   -0.651445
   7 O :   -0.750082
   8 H :   -0.518153
   9 H :   -0.511734
  10 H :   -0.311523
  11 H :   -0.308566
  12 H :   -0.234302
Sum of atomic charges:    0.0000000

LOEWDIN ATOMIC CHARGES
----------------------
   0 C :    0.057568
   1 C :    0.075815
   2 C :   -0.020049
   3 C :   -0.014122
   4 C :   -0.178122
   5 C :   -0.048817
   6 N :    0.042289
   7 O :    0.040362
   8 H :    0.006465
   9 H :    0.012675
  10 H :    0.003536
  11 H :    0.003881
  12 H :    0.018518

  Mayer bond orders larger than 0.100000
B(  0-C ,  1-C ) :  -0.4412 B(  0-C ,  2-C ) :   0.9621 B(  0-C ,  4-C ) :   1.6824
B(  0-C ,  5-C ) :  -0.2023 B(  0-C ,  8-H ) :   0.2125 B(  1-C ,  3-C ) :   1.1783
B(  1-C ,  4-C ) :   1.4949 B(  1-C ,  5-C ) :  -0.4068 B(  1-C ,  6-N ) :  -0.1323
B(  1-C ,  9-H ) :   0.3526 B(  2-C ,  3-C ) :   0.1356 B(  2-C ,  4-C ) :   0.1445
B(  2-C ,  5-C ) :   0.1292 B(  2-C ,  6-N ) :   1.3476 B(  2-C , 10-H ) :   0.9150
B(  3-C ,  4-C ) :   0.1284 B(  3-C ,  6-N ) :   1.2988 B(  3-C ,  9-H ) :   0.1196
B(  3-C , 11-H ) :   0.9057 B(  4-C ,  5-C ) :   1.0515 B(  4-C ,  6-N ) :   0.1076
B(  4-C ,  8-H ) :   0.4582 B(  4-C ,  9-H ) :   0.2994 B(  4-C , 10-H ) :   0.1013
B(  4-C , 12-H ) :   0.3015 B(  5-C ,  7-O ) :   1.4701 B(  5-C , 12-H ) :   0.5419

MP2 TOTAL ENERGY:     -360.621982123 Eh
FINAL SINGLE POINT ENERGY      -360.621982122811

DIPOLE MOMENT
-------------
                                X             Y             Z
Electronic contribution:     -0.94100       0.69304       0.00000
Nuclear contribution   :      1.76509      -0.67027       0.00000
                        -----------------------------------------
Total Dipole Moment    :      0.82408       0.02277       0.00000
                        -----------------------------------------
Magnitude (a.u.)       :      0.82440
Magnitude (Debye)      :      2.09545

Rotational constants in cm-1:     0.185488     0.052098     0.040674
Rotational constants in MHz :  5560.782827  1561.858890  1219.373154

                             ****ORCA TERMINATED NORMALLY****
TOTAL RUN TIME: 0 days 0 hours 1 minutes 2 seconds 526 msec
