                         Program Version 5.0.3 -  RELEASE  -
|  1> !ri-mp2 aug-cc-pvdz aug-cc-pvdz/c tightscf
|  2> %pal nprocs 16 end
|  3>
|  4> * xyz 0 1
|  5> S     -1.051061    1.281881   -0.283900
|  6> S     -1.895278   -0.532601    0.338547
|  7> O     -0.614494   -1.427165   -0.363889
|  8> N      0.475661    0.575388    0.138694
|  9> C      0.558745   -0.776721   -0.091504
| 10> C      1.756359    1.099948    0.219774
| 11> C      1.870920   -1.154035   -0.105040
| 12> C      2.624545    0.047815    0.089137
| 13> H      1.921997    2.142592    0.418071
| 14> H      2.246994   -2.155899   -0.208071
| 15> H      3.695337    0.112379    0.181703
| 16> *
| 17>
| 18>                          ****END OF INPUT****

CARTESIAN COORDINATES (ANGSTROEM)
---------------------------------
  S     -1.051061    1.281881   -0.283900
  S     -1.895278   -0.532601    0.338547
  O     -0.614494   -1.427165   -0.363889
  N      0.475661    0.575388    0.138694
  C      0.558745   -0.776721   -0.091504
  C      1.756359    1.099948    0.219774
  C      1.870920   -1.154035   -0.105040
  C      2.624545    0.047815    0.089137
  H      1.921997    2.142592    0.418071
  H      2.246994   -2.155899   -0.208071
  H      3.695337    0.112379    0.181703

 Total Charge           Charge          ....    0
 Multiplicity           Mult            ....    1
 Number of Electrons    NEL             ....   74
 Basis Dimension        Dim             ....  219

ORBITAL ENERGIES
----------------

  NO   OCC          E(Eh)            E(eV)
   0   2.0000     -92.062921     -2505.1594
   1   2.0000     -92.048406     -2504.7645
   2   2.0000     -20.650711      -561.9344
   3   2.0000     -15.647756      -425.7971
   4   2.0000     -11.343406      -308.6698
   5   2.0000     -11.276051      -306.8369
   6   2.0000     -11.239839      -305.8516
   7   2.0000     -11.232944      -305.6639
   8   2.0000      -9.056682      -246.4448
   9   2.0000      -9.044793      -246.1213
  10   2.0000      -6.737983      -183.3498
  11   2.0000      -6.736687      -183.3146
  12   2.0000      -6.733109      -183.2172
  13   2.0000      -6.726138      -183.0275
  14   2.0000      -6.725210      -183.0023
  15   2.0000      -6.721668      -182.9059
  16   2.0000      -1.454735       -39.5853
  17   2.0000      -1.313857       -35.7519
  18   2.0000      -1.119825       -30.4720
  19   2.0000      -1.016007       -27.6470
  20   2.0000      -0.991349       -26.9760
  21   2.0000      -0.892796       -24.2942
  22   2.0000      -0.809976       -22.0406
  23   2.0000      -0.773591       -21.0505
  24   2.0000      -0.714386       -19.4394
  25   2.0000      -0.663489       -18.0545
  26   2.0000      -0.640382       -17.4257
  27   2.0000      -0.611705       -16.6454
  28   2.0000      -0.593756       -16.1569
  29   2.0000      -0.566452       -15.4139
  30   2.0000      -0.564217       -15.3531
  31   2.0000      -0.539161       -14.6713
  32   2.0000      -0.486874       -13.2485
  33   2.0000      -0.459915       -12.5149
  34   2.0000      -0.384303       -10.4574
  35   2.0000      -0.341879        -9.3030
  36   2.0000      -0.304860        -8.2957
  37   0.0000       0.036178         0.9845
  38   0.0000       0.041334         1.1248
  39   0.0000       0.048046         1.3074
  40   0.0000       0.052389         1.4256
  41   0.0000       0.056911         1.5486

MULLIKEN ATOMIC CHARGES
-----------------------
   0 S :    0.377019
   1 S :    0.397494
   2 O :   -1.031304
   3 N :   -0.578899
   4 C :    0.372811
   5 C :    0.465517
   6 C :    0.548997
   7 C :    0.398284
   8 H :   -0.321026
   9 H :   -0.313174
  10 H :   -0.315719
Sum of atomic charges:    0.0000000

LOEWDIN ATOMIC CHARGES
----------------------
   0 S :    0.581246
   1 S :    0.531528
   2 O :   -0.253403
   3 N :   -0.452287
   4 C :   -0.378815
   5 C :   -0.017731
   6 C :    0.035629
   7 C :   -0.007460
   8 H :   -0.016767
   9 H :   -0.010729
  10 H :   -0.011210

  Mayer bond orders larger than 0.100000
B(  0-S ,  1-S ) :   1.1061 B(  0-S ,  3-N ) :   0.6172 B(  0-S ,  4-C ) :   0.1162
B(  1-S ,  2-O ) :   0.6476 B(  1-S ,  3-N ) :  -0.2085 B(  1-S ,  4-C ) :   0.1142
B(  2-O ,  4-C ) :   0.3265 B(  3-N ,  4-C ) :   1.1634 B(  3-N ,  5-C ) :   1.0198
B(  3-N ,  6-C ) :  -0.1180 B(  4-C ,  6-C ) :   1.7185 B(  4-C ,  9-H ) :   0.2093
B(  5-C ,  7-C ) :   1.5940 B(  5-C ,  8-H ) :   0.9354 B(  6-C ,  7-C ) :   1.5950
B(  6-C ,  9-H ) :   0.5368 B(  7-C , 10-H ) :   0.6714

MP2 TOTAL ENERGY:    -1078.711470753 Eh
FINAL SINGLE POINT ENERGY     -1078.711470753347

DIPOLE MOMENT
-------------
                                X             Y             Z
Electronic contribution:     -7.64399       0.39852      -0.19037
Nuclear contribution   :      7.60803       0.05440       0.36861
                        -----------------------------------------
Total Dipole Moment    :     -0.03596       0.45291       0.17824
                        -----------------------------------------
Magnitude (a.u.)       :      0.48805
Magnitude (Debye)      :      1.24053

Rotational constants in cm-1:     0.108110     0.047179     0.034148
Rotational constants in MHz :  3241.053804  1414.399802  1023.738612

                             ****ORCA TERMINATED NORMALLY****
TOTAL RUN TIME: 0 days 0 hours 0 minutes 56 seconds 948 msec
