                         Program Version 5.0.3 -  RELEASE  -
|  1> !ri-mp2 aug-cc-pvdz aug-cc-pvdz/c tightscf
|  2> %pal nprocs 16 end
|  3> %maxcore 3800
|  4>
|  5> * xyz 0 1
|  6> C     -1.760775    2.179912    0.000000
|  7> C     -3.257433    2.344694    0.000000
|  8> C      3.309060   -3.268875    0.000000
|  9> C      1.838693   -2.855555    0.000000
| 10> C      1.639526   -1.339018    0.000000
| 11> C      0.167821   -0.923390    0.000000
| 12> C      0.000000    0.582801    0.000000
| 13> O     -0.959601    3.081295    0.000000
| 14> O     -1.416146    0.876019    0.000000
| 15> H     -3.685781    1.861519    0.878050
| 16> H     -3.685781    1.861519   -0.878050
| 17> H     -3.506083    3.401176    0.000000
| 18> H      3.827078   -2.884132   -0.880810
| 19> H      3.827078   -2.884132    0.880810
| 20> H      3.417166   -4.354194    0.000000
| 21> H      1.339037   -3.283396    0.874078
| 22> H      1.339037   -3.283396   -0.874078
| 23> H      2.140097   -0.911420    0.874802
| 24> H      2.140097   -0.911420   -0.874802
| 25> H     -0.335676   -1.338585    0.876781
| 26> H     -0.335676   -1.338585   -0.876781
| 27> H      0.452021    1.041556   -0.880361
| 28> H      0.452021    1.041556    0.880361
| 29> *
| 30>
| 31>                          ****END OF INPUT****

CARTESIAN COORDINATES (ANGSTROEM)
---------------------------------
  C     -1.760775    2.179912    0.000000
  C     -3.257433    2.344694    0.000000
  C      3.309060   -3.268875    0.000000
  C      1.838693   -2.855555    0.000000
  C      1.639526   -1.339018    0.000000
  C      0.167821   -0.923390    0.000000
  C      0.000000    0.582801    0.000000
  O     -0.959601    3.081295    0.000000
  O     -1.416146    0.876019    0.000000
  H     -3.685781    1.861519    0.878050
  H     -3.685781    1.861519   -0.878050
  H     -3.506083    3.401176    0.000000
  H      3.827078   -2.884132   -0.880810
  H      3.827078   -2.884132    0.880810
  H      3.417166   -4.354194    0.000000
  H      1.339037   -3.283396    0.874078
  H      1.339037   -3.283396   -0.874078
  H      2.140097   -0.911420    0.874802
  H      2.140097   -0.911420   -0.874802
  H     -0.335676   -1.338585    0.876781
  H     -0.335676   -1.338585   -0.876781
  H      0.452021    1.041556   -0.880361
  H      0.452021    1.041556    0.880361

 Total Charge           Charge          ....    0
 Multiplicity           Mult            ....    1
 Number of Electrons    NEL             ....   72
 Basis Dimension        Dim             ....  333

ORBITAL ENERGIES
----------------

  NO   OCC          E(Eh)            E(eV)
   0   2.0000     -20.606298      -560.7259
   1   2.0000     -20.551230      -559.2274
   2   2.0000     -11.385853      -309.8248
   3   2.0000     -11.290386      -307.2270
   4   2.0000     -11.245221      -305.9980
   5   2.0000     -11.231633      -305.6283
   6   2.0000     -11.230241      -305.5904
   7   2.0000     -11.228390      -305.5400
   8   2.0000     -11.221310      -305.3474
   9   2.0000      -1.458677       -39.6926
  10   2.0000      -1.359243       -36.9869
  11   2.0000      -1.094123       -29.7726
  12   2.0000      -1.042169       -28.3589
  13   2.0000      -1.005314       -27.3560
  14   2.0000      -0.928403       -25.2631
  15   2.0000      -0.838911       -22.8279
  16   2.0000      -0.800512       -21.7830
  17   2.0000      -0.774265       -21.0688
  18   2.0000      -0.687836       -18.7170
  19   2.0000      -0.687007       -18.6944
  20   2.0000      -0.665767       -18.1164
  21   2.0000      -0.644091       -17.5266
  22   2.0000      -0.603817       -16.4307
  23   2.0000      -0.587914       -15.9980
  24   2.0000      -0.582805       -15.8589
  25   2.0000      -0.562898       -15.3172
  26   2.0000      -0.558636       -15.2013
  27   2.0000      -0.539415       -14.6782
  28   2.0000      -0.521163       -14.1816
  29   2.0000      -0.505358       -13.7515
  30   2.0000      -0.489716       -13.3258
  31   2.0000      -0.477585       -12.9958
  32   2.0000      -0.468721       -12.7546
  33   2.0000      -0.466965       -12.7068
  34   2.0000      -0.455239       -12.3877
  35   2.0000      -0.441965       -12.0265
  36   0.0000       0.034789         0.9466
  37   0.0000       0.037364         1.0167
  38   0.0000       0.044886         1.2214
  39   0.0000       0.045363         1.2344
  40   0.0000       0.053115         1.4453

MULLIKEN ATOMIC CHARGES
-----------------------
   0 C :    0.615977
   1 C :    0.264692
   2 C :    0.551016
   3 C :    0.348152
   4 C :    0.281418
   5 C :    0.339272
   6 C :    0.953969
   7 O :   -0.707427
   8 O :   -0.820023
   9 H :    0.028612
  10 H :    0.028612
  11 H :   -0.028401
  12 H :   -0.090387
  13 H :   -0.090387
  14 H :   -0.072582
  15 H :   -0.184246
  16 H :   -0.184246
  17 H :   -0.215156
  18 H :   -0.215156
  19 H :   -0.198730
  20 H :   -0.198730
  21 H :   -0.203125
  22 H :   -0.203125
Sum of atomic charges:   -0.0000000

LOEWDIN ATOMIC CHARGES
----------------------
   0 C :   -0.369640
   1 C :    0.206051
   2 C :    0.132117
   3 C :   -0.071868
   4 C :   -0.037493
   5 C :   -0.027528
   6 C :    0.008905
   7 O :    0.040881
   8 O :    0.070390
   9 H :   -0.006616
  10 H :   -0.006616
  11 H :   -0.008298
  12 H :   -0.019575
  13 H :   -0.019575
  14 H :   -0.021349
  15 H :    0.011714
  16 H :    0.011714
  17 H :    0.017165
  18 H :    0.017165
  19 H :    0.020207
  20 H :    0.020207
  21 H :    0.016022
  22 H :    0.016022

  Mayer bond orders larger than 0.100000
B(  0-C ,  1-C ) :   1.0181 B(  0-C ,  7-O ) :   1.4870 B(  0-C ,  8-O ) :   0.8849
B(  0-C , 11-H ) :   0.1018 B(  1-C ,  9-H ) :   0.9474 B(  1-C , 10-H ) :   0.9474
B(  1-C , 11-H ) :   0.8856 B(  2-C ,  3-C ) :   1.1590 B(  2-C , 12-H ) :   0.9116
B(  2-C , 13-H ) :   0.9116 B(  2-C , 14-H ) :   0.9043 B(  3-C ,  4-C ) :   1.2383
B(  3-C , 15-H ) :   0.7552 B(  3-C , 16-H ) :   0.7552 B(  4-C ,  5-C ) :   1.2402
B(  4-C ,  6-C ) :  -0.1389 B(  4-C , 17-H ) :   0.7796 B(  4-C , 18-H ) :   0.7796
B(  5-C ,  6-C ) :   1.2914 B(  5-C ,  8-O ) :  -0.1738 B(  5-C , 19-H ) :   0.8132
B(  5-C , 20-H ) :   0.8132 B(  6-C ,  8-O ) :   0.6255 B(  6-C , 21-H ) :   0.8157
B(  6-C , 22-H ) :   0.8157

MP2 TOTAL ENERGY:     -424.445951022 Eh
FINAL SINGLE POINT ENERGY      -424.445951022398

DIPOLE MOMENT
-------------
                                X             Y             Z
Electronic contribution:     -7.93959      11.49990      -0.00000
Nuclear contribution   :      7.63129     -12.38047       0.00000
                        -----------------------------------------
Total Dipole Moment    :     -0.30830      -0.88057      -0.00000
                        -----------------------------------------
Magnitude (a.u.)       :      0.93298
Magnitude (Debye)      :      2.37145

Rotational constants in cm-1:     0.218133     0.015554     0.014755
Rotational constants in MHz :  6539.456344   466.287824   442.349090

                             ****ORCA TERMINATED NORMALLY****
TOTAL RUN TIME: 0 days 0 hours 1 minutes 45 seconds 488 msec
