                         Program Version 5.0.3 -  RELEASE  -
|  1> !ri-mp2 aug-cc-pvdz aug-cc-pvdz/c tightscf
|  2> %pal nprocs 16 end
|  3>
|  4> * xyz 0 1
|  5> H     -2.592675   -0.045641   -0.145798
|  6> H     -1.757839   -1.561246   -0.123394
|  7> N     -1.728931   -0.558727   -0.107702
|  8> O     -0.540022    1.352356    0.063774
|  9> C     -0.562261    0.136158    0.032402
| 10> H      0.704554   -1.095974    1.200102
| 11> H      0.596109   -1.605295   -0.469148
| 12> C      0.688051   -0.724248    0.170792
| 13> H      2.841756   -0.595111    0.039596
| 14> H      1.993138    0.372041   -1.170851
| 15> H      2.052216    0.921934    0.496008
| 16> C      1.971783    0.038345   -0.133659
| 17> *
| 18>
| 19>                          ****END OF INPUT****

CARTESIAN COORDINATES (ANGSTROEM)
---------------------------------
  H     -2.592675   -0.045641   -0.145798
  H     -1.757839   -1.561246   -0.123394
  N     -1.728931   -0.558727   -0.107702
  O     -0.540022    1.352356    0.063774
  C     -0.562261    0.136158    0.032402
  H      0.704554   -1.095974    1.200102
  H      0.596109   -1.605295   -0.469148
  C      0.688051   -0.724248    0.170792
  H      2.841756   -0.595111    0.039596
  H      1.993138    0.372041   -1.170851
  H      2.052216    0.921934    0.496008
  C      1.971783    0.038345   -0.133659

 Total Charge           Charge          ....    0
 Multiplicity           Mult            ....    1
 Number of Electrons    NEL             ....   40
 Basis Dimension        Dim             ....  178

ORBITAL ENERGIES
----------------

  NO   OCC          E(Eh)            E(eV)
   0   2.0000     -20.527885      -558.5921
   1   2.0000     -15.591254      -424.2596
   2   2.0000     -11.358201      -309.0724
   3   2.0000     -11.248337      -306.0828
   4   2.0000     -11.223497      -305.4069
   5   2.0000      -1.384968       -37.6869
   6   2.0000      -1.212601       -32.9965
   7   2.0000      -1.051517       -28.6132
   8   2.0000      -0.894453       -24.3393
   9   2.0000      -0.784632       -21.3509
  10   2.0000      -0.720672       -19.6105
  11   2.0000      -0.672675       -18.3044
  12   2.0000      -0.634104       -17.2548
  13   2.0000      -0.601885       -16.3781
  14   2.0000      -0.554920       -15.1001
  15   2.0000      -0.526333       -14.3222
  16   2.0000      -0.515897       -14.0383
  17   2.0000      -0.493120       -13.4185
  18   2.0000      -0.421164       -11.4605
  19   2.0000      -0.413199       -11.2437
  20   0.0000       0.027352         0.7443
  21   0.0000       0.041464         1.1283
  22   0.0000       0.050519         1.3747
  23   0.0000       0.053186         1.4473
  24   0.0000       0.067677         1.8416

MULLIKEN ATOMIC CHARGES
-----------------------
   0 H :   -0.037644
   1 H :   -0.033643
   2 N :   -0.205089
   3 O :   -0.768188
   4 C :    0.761471
   5 H :    0.001089
   6 H :   -0.089027
   7 C :    0.100518
   8 H :   -0.063447
   9 H :   -0.070018
  10 H :   -0.032834
  11 C :    0.436811
Sum of atomic charges:    0.0000000

LOEWDIN ATOMIC CHARGES
----------------------
   0 H :   -0.008272
   1 H :   -0.022202
   2 N :    0.264928
   3 O :    0.017575
   4 C :   -0.366147
   5 H :    0.021721
   6 H :    0.011303
   7 C :   -0.011760
   8 H :   -0.019920
   9 H :   -0.012964
  10 H :   -0.015658
  11 C :    0.141395

  Mayer bond orders larger than 0.100000
B(  0-H ,  2-N ) :   1.1110 B(  1-H ,  2-N ) :   1.1048 B(  2-N ,  4-C ) :   0.8961
B(  3-O ,  4-C ) :   1.4919 B(  4-C ,  7-C ) :   0.9665 B(  5-H ,  7-C ) :   0.8627
B(  6-H ,  7-C ) :   0.8179 B(  7-C , 11-C ) :   1.2695 B(  8-H , 11-C ) :   0.8852
B(  9-H , 11-C ) :   0.9441 B( 10-H , 11-C ) :   0.9381

MP2 TOTAL ENERGY:     -247.856499699 Eh
FINAL SINGLE POINT ENERGY      -247.856499698885

DIPOLE MOMENT
-------------
                                X             Y             Z
Electronic contribution:     -4.16640       2.12349       0.15938
Nuclear contribution   :      3.92454      -3.69089      -0.17792
                        -----------------------------------------
Total Dipole Moment    :     -0.24186      -1.56740      -0.01854
                        -----------------------------------------
Magnitude (a.u.)       :      1.58606
Magnitude (Debye)      :      4.03144

Rotational constants in cm-1:     0.325919     0.125949     0.095090
Rotational constants in MHz :  9770.797415  3775.861300  2850.725148

                             ****ORCA TERMINATED NORMALLY****
TOTAL RUN TIME: 0 days 0 hours 0 minutes 41 seconds 927 msec
