                         Program Version 5.0.3 -  RELEASE  -
|  1> !ri-mp2 aug-cc-pvdz aug-cc-pvdz/c tightscf
|  2> %pal nprocs 16 end
|  3> %maxcore 3800
|  4>
|  5> * xyz 0 1
|  6> C           0.000000     1.141350    0.720815
|  7> C           0.000000     1.141350   -0.720815
|  8> N           0.000000     0.000000    1.415067
|  9> C           0.000000     2.387462    1.410508
| 10> N           0.000000     0.000000   -1.415067
| 11> C           0.000000     2.387462   -1.410508
| 12> C           0.000000    -1.141350    0.720815
| 13> C           0.000000     3.557969    0.711879
| 14> C           0.000000    -1.141350   -0.720815
| 15> C           0.000000     3.557969   -0.711879
| 16> C           0.000000    -2.387462    1.410508
| 17> C           0.000000    -2.387462   -1.410508
| 18> C           0.000000    -3.557969    0.711879
| 19> C           0.000000    -3.557969   -0.711879
| 20> H           0.000000     2.364656    2.491337
| 21> H           0.000000     2.364656   -2.491337
| 22> H           0.000000     4.502732    1.238686
| 23> H           0.000000     4.502732   -1.238686
| 24> H           0.000000    -2.364656    2.491337
| 25> H           0.000000    -2.364656   -2.491337
| 26> H           0.000000    -4.502732    1.238686
| 27> H           0.000000    -4.502732   -1.238686
| 28> *
| 29>
| 30>                          ****END OF INPUT****

CARTESIAN COORDINATES (ANGSTROEM)
---------------------------------
  C      0.000000    1.141350    0.720815
  C      0.000000    1.141350   -0.720815
  N      0.000000    0.000000    1.415067
  C      0.000000    2.387462    1.410508
  N      0.000000    0.000000   -1.415067
  C      0.000000    2.387462   -1.410508
  C      0.000000   -1.141350    0.720815
  C      0.000000    3.557969    0.711879
  C      0.000000   -1.141350   -0.720815
  C      0.000000    3.557969   -0.711879
  C      0.000000   -2.387462    1.410508
  C      0.000000   -2.387462   -1.410508
  C      0.000000   -3.557969    0.711879
  C      0.000000   -3.557969   -0.711879
  H      0.000000    2.364656    2.491337
  H      0.000000    2.364656   -2.491337
  H      0.000000    4.502732    1.238686
  H      0.000000    4.502732   -1.238686
  H      0.000000   -2.364656    2.491337
  H      0.000000   -2.364656   -2.491337
  H      0.000000   -4.502732    1.238686
  H      0.000000   -4.502732   -1.238686

 Total Charge           Charge          ....    0
 Multiplicity           Mult            ....    1
 Number of Electrons    NEL             ....   94
 Basis Dimension        Dim             ....  394

ORBITAL ENERGIES
----------------

  NO   OCC          E(Eh)            E(eV)
   0   2.0000     -15.594786      -424.3557
   1   2.0000     -15.594770      -424.3553
   2   2.0000     -11.291778      -307.2649
   3   2.0000     -11.291737      -307.2638
   4   2.0000     -11.290804      -307.2384
   5   2.0000     -11.290802      -307.2383
   6   2.0000     -11.256831      -306.3139
   7   2.0000     -11.256831      -306.3139
   8   2.0000     -11.255848      -306.2872
   9   2.0000     -11.255848      -306.2872
  10   2.0000     -11.250240      -306.1346
  11   2.0000     -11.250239      -306.1346
  12   2.0000     -11.250237      -306.1345
  13   2.0000     -11.250236      -306.1345
  14   2.0000      -1.312914       -35.7262
  15   2.0000      -1.230366       -33.4800
  16   2.0000      -1.169744       -31.8304
  17   2.0000      -1.132596       -30.8195
  18   2.0000      -1.047076       -28.4924
  19   2.0000      -1.032009       -28.0824
  20   2.0000      -1.012242       -27.5445
  21   2.0000      -0.931312       -25.3423
  22   2.0000      -0.883649       -24.0453
  23   2.0000      -0.841714       -22.9042
  24   2.0000      -0.824991       -22.4491
  25   2.0000      -0.777029       -21.1440
  26   2.0000      -0.752277       -20.4705
  27   2.0000      -0.692897       -18.8547
  28   2.0000      -0.685196       -18.6451
  29   2.0000      -0.661802       -18.0085
  30   2.0000      -0.646064       -17.5803
  31   2.0000      -0.616499       -16.7758
  32   2.0000      -0.607893       -16.5416
  33   2.0000      -0.604973       -16.4621
  34   2.0000      -0.596356       -16.2277
  35   2.0000      -0.558433       -15.1957
  36   2.0000      -0.538361       -14.6495
  37   2.0000      -0.517547       -14.0832
  38   2.0000      -0.512763       -13.9530
  39   2.0000      -0.507633       -13.8134
  40   2.0000      -0.493046       -13.4165
  41   2.0000      -0.471850       -12.8397
  42   2.0000      -0.441691       -12.0190
  43   2.0000      -0.403279       -10.9738
  44   2.0000      -0.359355        -9.7786
  45   2.0000      -0.320095        -8.7102
  46   2.0000      -0.299776        -8.1573
  47   0.0000       0.019784         0.5384
  48   0.0000       0.033923         0.9231
  49   0.0000       0.033998         0.9251
  50   0.0000       0.040032         1.0893
  51   0.0000       0.046300         1.2599

MULLIKEN ATOMIC CHARGES
-----------------------
   0 C :   -0.382842
   1 C :   -0.382842
   2 N :   -0.963428
   3 C :    1.515585
   4 N :   -0.963428
   5 C :    1.515585
   6 C :   -0.382840
   7 C :    0.411323
   8 C :   -0.382840
   9 C :    0.411323
  10 C :    1.515588
  11 C :    1.515588
  12 C :    0.411315
  13 C :    0.411315
  14 H :   -0.582001
  15 H :   -0.582001
  16 H :   -0.480349
  17 H :   -0.480349
  18 H :   -0.582000
  19 H :   -0.582000
  20 H :   -0.480349
  21 H :   -0.480349
Sum of atomic charges:   -0.0000000

LOEWDIN ATOMIC CHARGES
----------------------
   0 C :   -0.164677
   1 C :   -0.164677
   2 N :    0.128649
   3 C :    0.064766
   4 N :    0.128649
   5 C :    0.064766
   6 C :   -0.164677
   7 C :    0.021338
   8 C :   -0.164677
   9 C :    0.021338
  10 C :    0.064766
  11 C :    0.064766
  12 C :    0.021338
  13 C :    0.021338
  14 H :    0.011323
  15 H :    0.011323
  16 H :    0.002924
  17 H :    0.002924
  18 H :    0.011323
  19 H :    0.011323
  20 H :    0.002924
  21 H :    0.002924

  Mayer bond orders larger than 0.100000
B(  0-C ,  1-C ) :   1.7213 B(  0-C ,  2-N ) :   1.1844 B(  0-C ,  3-C ) :   1.4830
B(  0-C ,  4-N ) :   0.5028 B(  0-C ,  5-C ) :  -0.1185 B(  0-C ,  7-C ) :   0.1041
B(  0-C ,  8-C ) :  -0.2828 B(  0-C , 10-C ) :  -0.1709 B(  0-C , 14-H ) :   1.3219
B(  0-C , 15-H ) :  -0.3352 B(  0-C , 16-H ) :   0.2783 B(  0-C , 17-H ) :  -0.2344
B(  1-C ,  2-N ) :   0.5028 B(  1-C ,  3-C ) :  -0.1185 B(  1-C ,  4-N ) :   1.1844
B(  1-C ,  5-C ) :   1.4830 B(  1-C ,  6-C ) :  -0.2828 B(  1-C ,  9-C ) :   0.1041
B(  1-C , 11-C ) :  -0.1709 B(  1-C , 14-H ) :  -0.3352 B(  1-C , 15-H ) :   1.3219
B(  1-C , 16-H ) :  -0.2344 B(  1-C , 17-H ) :   0.2783 B(  2-N ,  3-C ) :  -0.4489
B(  2-N ,  6-C ) :   1.1844 B(  2-N ,  8-C ) :   0.5028 B(  2-N , 10-C ) :  -0.4489
B(  2-N , 14-H ) :  -0.1354 B(  2-N , 18-H ) :  -0.1354 B(  3-C ,  5-C ) :   0.3198
B(  3-C ,  6-C ) :  -0.1709 B(  3-C ,  7-C ) :   1.6355 B(  3-C , 10-C ) :   0.2622
B(  3-C , 14-H ) :  -0.6655 B(  3-C , 15-H ) :   0.1071 B(  3-C , 17-H ) :   0.1006
B(  4-N ,  5-C ) :  -0.4489 B(  4-N ,  6-C ) :   0.5028 B(  4-N ,  8-C ) :   1.1844
B(  4-N , 11-C ) :  -0.4489 B(  4-N , 15-H ) :  -0.1354 B(  4-N , 19-H ) :  -0.1354
B(  5-C ,  8-C ) :  -0.1709 B(  5-C ,  9-C ) :   1.6355 B(  5-C , 11-C ) :   0.2622
B(  5-C , 14-H ) :   0.1071 B(  5-C , 15-H ) :  -0.6655 B(  5-C , 16-H ) :   0.1006
B(  6-C ,  8-C ) :   1.7213 B(  6-C , 10-C ) :   1.4830 B(  6-C , 11-C ) :  -0.1185
B(  6-C , 12-C ) :   0.1041 B(  6-C , 18-H ) :   1.3219 B(  6-C , 19-H ) :  -0.3352
B(  6-C , 20-H ) :   0.2783 B(  6-C , 21-H ) :  -0.2344 B(  7-C ,  9-C ) :   1.6751
B(  7-C , 14-H ) :   0.3259 B(  7-C , 16-H ) :   0.2428 B(  7-C , 17-H ) :   0.3064
B(  8-C , 10-C ) :  -0.1185 B(  8-C , 11-C ) :   1.4830 B(  8-C , 13-C ) :   0.1041
B(  8-C , 18-H ) :  -0.3352 B(  8-C , 19-H ) :   1.3219 B(  8-C , 20-H ) :  -0.2344
B(  8-C , 21-H ) :   0.2783 B(  9-C , 15-H ) :   0.3259 B(  9-C , 16-H ) :   0.3064
B(  9-C , 17-H ) :   0.2428 B( 10-C , 11-C ) :   0.3198 B( 10-C , 12-C ) :   1.6355
B( 10-C , 18-H ) :  -0.6655 B( 10-C , 19-H ) :   0.1071 B( 10-C , 21-H ) :   0.1006
B( 11-C , 13-C ) :   1.6355 B( 11-C , 18-H ) :   0.1071 B( 11-C , 19-H ) :  -0.6655
B( 11-C , 20-H ) :   0.1006 B( 12-C , 13-C ) :   1.6751 B( 12-C , 18-H ) :   0.3259
B( 12-C , 20-H ) :   0.2428 B( 12-C , 21-H ) :   0.3064 B( 13-C , 19-H ) :   0.3259
B( 13-C , 20-H ) :   0.3064 B( 13-C , 21-H ) :   0.2428

MP2 TOTAL ENERGY:     -569.976775802 Eh
FINAL SINGLE POINT ENERGY      -569.976775802351

DIPOLE MOMENT
-------------
                                X             Y             Z
Electronic contribution:      0.00000       0.00000       0.00000
Nuclear contribution   :      0.00000      -0.00000       0.00000
                        -----------------------------------------
Total Dipole Moment    :      0.00000       0.00000       0.00000
                        -----------------------------------------
Magnitude (a.u.)       :      0.00000
Magnitude (Debye)      :      0.00000

Rotational constants in cm-1:     0.072599     0.016071     0.013158
Rotational constants in MHz :  2176.458697   481.807567   394.480524

                             ****ORCA TERMINATED NORMALLY****
TOTAL RUN TIME: 0 days 0 hours 3 minutes 19 seconds 663 msec
