                         Program Version 5.0.3 -  RELEASE  -
|  1> !ri-mp2 aug-cc-pvdz aug-cc-pvdz/c tightscf
|  2> %pal nprocs 16 end
|  3>
|  4> * xyz 0 1
|  5> C     -2.302046    0.304648    0.048681
|  6> C     -1.844743   -1.009740    0.055890
|  7> C     -1.374107    1.337593   -0.016270
|  8> C     -0.487064   -1.284841   -0.001073
|  9> C     -0.010704    1.076510   -0.076066
| 10> C      0.447055   -0.243648   -0.073095
| 11> N      2.746630    0.431456    0.133713
| 12> N      1.804819   -0.563693   -0.195804
| 13> H     -3.360760    0.517610    0.095676
| 14> H     -2.549315   -1.829261    0.110144
| 15> H     -1.711935    2.365825   -0.020205
| 16> H     -0.143401   -2.312664    0.003216
| 17> H      0.705591    1.881657   -0.126272
| 18> H      3.542157    0.355481   -0.484296
| 19> H      3.057771    0.357060    1.097408
| 20> H      2.029412   -1.493179    0.130559
| 21> *
| 22>
| 23>                          ****END OF INPUT****

CARTESIAN COORDINATES (ANGSTROEM)
---------------------------------
  C     -2.302046    0.304648    0.048681
  C     -1.844743   -1.009740    0.055890
  C     -1.374107    1.337593   -0.016270
  C     -0.487064   -1.284841   -0.001073
  C     -0.010704    1.076510   -0.076066
  C      0.447055   -0.243648   -0.073095
  N      2.746630    0.431456    0.133713
  N      1.804819   -0.563693   -0.195804
  H     -3.360760    0.517610    0.095676
  H     -2.549315   -1.829261    0.110144
  H     -1.711935    2.365825   -0.020205
  H     -0.143401   -2.312664    0.003216
  H      0.705591    1.881657   -0.126272
  H      3.542157    0.355481   -0.484296
  H      3.057771    0.357060    1.097408
  H      2.029412   -1.493179    0.130559

 Total Charge           Charge          ....    0
 Multiplicity           Mult            ....    1
 Number of Electrons    NEL             ....   58
 Basis Dimension        Dim             ....  256

ORBITAL ENERGIES
----------------

  NO   OCC          E(Eh)            E(eV)
   0   2.0000     -15.599569      -424.4858
   1   2.0000     -15.593765      -424.3279
   2   2.0000     -11.277054      -306.8642
   3   2.0000     -11.235853      -305.7431
   4   2.0000     -11.233683      -305.6841
   5   2.0000     -11.226376      -305.4852
   6   2.0000     -11.220035      -305.3127
   7   2.0000     -11.219413      -305.2957
   8   2.0000      -1.302231       -35.4355
   9   2.0000      -1.150306       -31.3014
  10   2.0000      -1.073547       -29.2127
  11   2.0000      -1.009894       -27.4806
  12   2.0000      -0.965964       -26.2852
  13   2.0000      -0.829301       -22.5664
  14   2.0000      -0.804621       -21.8949
  15   2.0000      -0.712900       -19.3990
  16   2.0000      -0.698708       -19.0128
  17   2.0000      -0.681457       -18.5434
  18   2.0000      -0.649277       -17.6677
  19   2.0000      -0.599804       -16.3215
  20   2.0000      -0.595304       -16.1991
  21   2.0000      -0.577644       -15.7185
  22   2.0000      -0.520891       -14.1742
  23   2.0000      -0.502962       -13.6863
  24   2.0000      -0.485261       -13.2046
  25   2.0000      -0.436580       -11.8800
  26   2.0000      -0.428584       -11.6624
  27   2.0000      -0.331336        -9.0161
  28   2.0000      -0.289514        -7.8781
  29   0.0000       0.030145         0.8203
  30   0.0000       0.041964         1.1419
  31   0.0000       0.043679         1.1886
  32   0.0000       0.055651         1.5143
  33   0.0000       0.056628         1.5409

MULLIKEN ATOMIC CHARGES
-----------------------
   0 C :    0.343829
   1 C :    0.626160
   2 C :    0.614909
   3 C :    0.197398
   4 C :    0.391995
   5 C :    1.077059
   6 N :   -0.251772
   7 N :   -0.658785
   8 H :   -0.448728
   9 H :   -0.444386
  10 H :   -0.452883
  11 H :   -0.588934
  12 H :   -0.569465
  13 H :    0.120166
  14 H :    0.060988
  15 H :   -0.017550
Sum of atomic charges:    0.0000000

LOEWDIN ATOMIC CHARGES
----------------------
   0 C :   -0.010566
   1 C :   -0.001203
   2 C :    0.003862
   3 C :    0.037626
   4 C :    0.049683
   5 C :   -0.196464
   6 N :    0.205516
   7 N :    0.030832
   8 H :   -0.009402
   9 H :    0.000339
  10 H :    0.000579
  11 H :   -0.001559
  12 H :   -0.013317
  13 H :   -0.046317
  14 H :   -0.040252
  15 H :   -0.009357

  Mayer bond orders larger than 0.100000
B(  0-C ,  1-C ) :   1.6911 B(  0-C ,  2-C ) :   1.6522 B(  0-C ,  3-C ) :   0.3079
B(  0-C ,  4-C ) :   0.2054 B(  0-C ,  8-H ) :   0.3095 B(  0-C ,  9-H ) :   0.2046
B(  0-C , 10-H ) :   0.1464 B(  1-C ,  2-C ) :  -0.2300 B(  1-C ,  3-C ) :   1.9165
B(  1-C ,  4-C ) :   0.1061 B(  1-C ,  5-C ) :  -0.2237 B(  1-C ,  8-H ) :   0.1899
B(  1-C ,  9-H ) :   0.2707 B(  1-C , 10-H ) :  -0.1060 B(  1-C , 11-H ) :   0.1737
B(  2-C ,  3-C ) :   0.1765 B(  2-C ,  4-C ) :   1.9526 B(  2-C ,  5-C ) :  -0.1790
B(  2-C ,  8-H ) :   0.2181 B(  2-C , 10-H ) :   0.2128 B(  2-C , 12-H ) :   0.2479
B(  3-C ,  4-C ) :   0.1915 B(  3-C ,  5-C ) :   1.2914 B(  3-C ,  7-N ) :  -0.1024
B(  3-C ,  9-H ) :   0.3325 B(  4-C ,  5-C ) :   1.5689 B(  4-C , 10-H ) :   0.4387
B(  4-C , 12-H ) :   0.1381 B(  5-C ,  6-N ) :  -0.4399 B(  5-C ,  7-N ) :   0.7429
B(  5-C , 11-H ) :   0.5202 B(  5-C , 12-H ) :   0.3167 B(  6-N ,  7-N ) :   1.2055
B(  6-N , 13-H ) :   1.0117 B(  6-N , 14-H ) :   1.0697 B(  7-N , 15-H ) :   1.0092

MP2 TOTAL ENERGY:     -341.936846081 Eh
FINAL SINGLE POINT ENERGY      -341.936846081334

DIPOLE MOMENT
-------------
                                X             Y             Z
Electronic contribution:     -0.81203      -0.28942      -0.42274
Nuclear contribution   :      1.60781      -0.15940       0.81171
                        -----------------------------------------
Total Dipole Moment    :      0.79577      -0.44882       0.38897
                        -----------------------------------------
Magnitude (a.u.)       :      0.99297
Magnitude (Debye)      :      2.52393

Rotational constants in cm-1:     0.169250     0.050494     0.039342
Rotational constants in MHz :  5073.990679  1513.786211  1179.451737

                             ****ORCA TERMINATED NORMALLY****
TOTAL RUN TIME: 0 days 0 hours 1 minutes 2 seconds 64 msec
