                         Program Version 5.0.3 -  RELEASE  -
|  1> !ri-mp2 aug-cc-pvdz aug-cc-pvdz/c tightscf
|  2> %pal nprocs 16 end
|  3>
|  4> * xyz 0 1
|  5> C     -0.428305   -0.603318    0.292946
|  6> C     -1.730980    0.145991    0.048752
|  7> C      0.804689    0.186857   -0.143412
|  8> N     -2.798137   -0.632363   -0.294446
|  9> O     -1.831047    1.353253    0.169304
| 10> C      2.116704   -0.509009    0.218058
| 11> C      3.349645    0.278591   -0.221813
| 12> H     -0.378232   -0.797219    1.369502
| 13> H     -0.452804   -1.579947   -0.197097
| 14> H      0.763288    0.351634   -1.223970
| 15> H      0.764447    1.175441    0.315734
| 16> H     -3.696408   -0.193737   -0.404160
| 17> H     -2.730511   -1.629614   -0.375823
| 18> H      2.153180   -0.667921    1.300253
| 19> H      2.140943   -1.504976   -0.235220
| 20> H      4.270724   -0.237101    0.052854
| 21> H      3.359798    0.422536   -1.304049
| 22> H      3.370399    1.266751    0.241480
| 23> *
| 24>
| 25>                          ****END OF INPUT****

CARTESIAN COORDINATES (ANGSTROEM)
---------------------------------
  C     -0.428305   -0.603318    0.292946
  C     -1.730980    0.145991    0.048752
  C      0.804689    0.186857   -0.143412
  N     -2.798137   -0.632363   -0.294446
  O     -1.831047    1.353253    0.169304
  C      2.116704   -0.509009    0.218058
  C      3.349645    0.278591   -0.221813
  H     -0.378232   -0.797219    1.369502
  H     -0.452804   -1.579947   -0.197097
  H      0.763288    0.351634   -1.223970
  H      0.764447    1.175441    0.315734
  H     -3.696408   -0.193737   -0.404160
  H     -2.730511   -1.629614   -0.375823
  H      2.153180   -0.667921    1.300253
  H      2.140943   -1.504976   -0.235220
  H      4.270724   -0.237101    0.052854
  H      3.359798    0.422536   -1.304049
  H      3.370399    1.266751    0.241480

 Total Charge           Charge          ....    0
 Multiplicity           Mult            ....    1
 Number of Electrons    NEL             ....   56
 Basis Dimension        Dim             ....  260

ORBITAL ENERGIES
----------------

  NO   OCC          E(Eh)            E(eV)
   0   2.0000     -20.525987      -558.5405
   1   2.0000     -15.591898      -424.2771
   2   2.0000     -11.357737      -309.0597
   3   2.0000     -11.244939      -305.9903
   4   2.0000     -11.227467      -305.5149
   5   2.0000     -11.226193      -305.4802
   6   2.0000     -11.219057      -305.2861
   7   2.0000      -1.383481       -37.6464
   8   2.0000      -1.212400       -32.9911
   9   2.0000      -1.084817       -29.5194
  10   2.0000      -1.007885       -27.4260
  11   2.0000      -0.897644       -24.4261
  12   2.0000      -0.808365       -21.9967
  13   2.0000      -0.782438       -21.2912
  14   2.0000      -0.722227       -19.6528
  15   2.0000      -0.670676       -18.2500
  16   2.0000      -0.645875       -17.5752
  17   2.0000      -0.603093       -16.4110
  18   2.0000      -0.594524       -16.1778
  19   2.0000      -0.580507       -15.7964
  20   2.0000      -0.550256       -14.9732
  21   2.0000      -0.528618       -14.3844
  22   2.0000      -0.499144       -13.5824
  23   2.0000      -0.477204       -12.9854
  24   2.0000      -0.474315       -12.9068
  25   2.0000      -0.467332       -12.7168
  26   2.0000      -0.418017       -11.3748
  27   2.0000      -0.412527       -11.2254
  28   0.0000       0.027909         0.7595
  29   0.0000       0.039153         1.0654
  30   0.0000       0.047866         1.3025
  31   0.0000       0.048537         1.3208
  32   0.0000       0.058177         1.5831

MULLIKEN ATOMIC CHARGES
-----------------------
   0 C :    0.339994
   1 C :    0.882853
   2 C :    0.149754
   3 N :   -0.190877
   4 O :   -0.804183
   5 C :    0.376378
   6 C :    0.500116
   7 H :   -0.018548
   8 H :   -0.198828
   9 H :   -0.204192
  10 H :   -0.170341
  11 H :   -0.040123
  12 H :   -0.030033
  13 H :   -0.175137
  14 H :   -0.187985
  15 H :   -0.069582
  16 H :   -0.080255
  17 H :   -0.079010
Sum of atomic charges:    0.0000000

LOEWDIN ATOMIC CHARGES
----------------------
   0 C :    0.030298
   1 C :   -0.359357
   2 C :   -0.030335
   3 N :    0.268464
   4 O :    0.018084
   5 C :   -0.072661
   6 C :    0.133358
   7 H :    0.028819
   8 H :    0.013381
   9 H :    0.021955
  10 H :    0.017624
  11 H :   -0.007532
  12 H :   -0.023899
  13 H :    0.011175
  14 H :    0.009817
  15 H :   -0.021742
  16 H :   -0.019342
  17 H :   -0.018107

  Mayer bond orders larger than 0.100000
B(  0-C ,  1-C ) :   0.9240 B(  0-C ,  2-C ) :   1.2585 B(  0-C ,  4-O ) :   0.1074
B(  0-C ,  5-C ) :  -0.1142 B(  0-C ,  7-H ) :   0.8729 B(  0-C ,  8-H ) :   0.7245
B(  1-C ,  3-N ) :   0.8921 B(  1-C ,  4-O ) :   1.3419 B(  2-C ,  5-C ) :   1.2240
B(  2-C ,  8-H ) :   0.1173 B(  2-C ,  9-H ) :   0.8240 B(  2-C , 10-H ) :   0.8668
B(  3-N , 11-H ) :   1.1068 B(  3-N , 12-H ) :   1.0950 B(  5-C ,  6-C ) :   1.1969
B(  5-C , 13-H ) :   0.7853 B(  5-C , 14-H ) :   0.7493 B(  6-C , 15-H ) :   0.9034
B(  6-C , 16-H ) :   0.9218 B(  6-C , 17-H ) :   0.9252

MP2 TOTAL ENERGY:     -326.231610716 Eh
FINAL SINGLE POINT ENERGY      -326.231610716355

DIPOLE MOMENT
-------------
                                X             Y             Z
Electronic contribution:     -9.94303       1.96082       0.32035
Nuclear contribution   :      9.89816      -3.51083      -0.47783
                        -----------------------------------------
Total Dipole Moment    :     -0.04487      -1.55001      -0.15748
                        -----------------------------------------
Magnitude (a.u.)       :      1.55864
Magnitude (Debye)      :      3.96174

Rotational constants in cm-1:     0.250632     0.034980     0.032038
Rotational constants in MHz :  7513.758794  1048.684376   960.487371

                             ****ORCA TERMINATED NORMALLY****
TOTAL RUN TIME: 0 days 0 hours 1 minutes 2 seconds 618 msec
