                         Program Version 5.0.3 -  RELEASE  -
|  1> !ri-mp2 aug-cc-pvdz aug-cc-pvdz/c tightscf
|  2> %pal nprocs 16 end
|  3>
|  4> * xyz 0 1
|  5> C     -1.181319   -1.083539        0.000000
|  6> C      0.000000    1.010809        0.000000
|  7> C      0.048798   -1.709300        0.000000
|  8> C     -1.198215    0.314134        0.000000
|  9> C      1.176033    0.261682        0.000000
| 10> N      1.220451   -1.060717        0.000000
| 11> O     -2.406742    0.931648        0.000000
| 12> O      2.354509    0.926245        0.000000
| 13> H     -2.104345   -1.642803        0.000000
| 14> H      0.041008    2.091380        0.000000
| 15> H      0.107341   -2.790875        0.000000
| 16> H     -2.290414    1.887774        0.000000
| 17> H      3.049335    0.253679        0.000000
| 18> *
| 19>
| 20>                          ****END OF INPUT****

CARTESIAN COORDINATES (ANGSTROEM)
---------------------------------
  C     -1.181319   -1.083539    0.000000
  C      0.000000    1.010809    0.000000
  C      0.048798   -1.709300    0.000000
  C     -1.198215    0.314134    0.000000
  C      1.176033    0.261682    0.000000
  N      1.220451   -1.060717    0.000000
  O     -2.406742    0.931648    0.000000
  O      2.354509    0.926245    0.000000
  H     -2.104345   -1.642803    0.000000
  H      0.041008    2.091380    0.000000
  H      0.107341   -2.790875    0.000000
  H     -2.290414    1.887774    0.000000
  H      3.049335    0.253679    0.000000

 Total Charge           Charge          ....    0
 Multiplicity           Mult            ....    1
 Number of Electrons    NEL             ....   58
 Basis Dimension        Dim             ....  229

ORBITAL ENERGIES
----------------

  NO   OCC          E(Eh)            E(eV)
   0   2.0000     -20.622735      -561.1731
   1   2.0000     -20.608352      -560.7818
   2   2.0000     -15.566272      -423.5798
   3   2.0000     -11.354819      -308.9803
   4   2.0000     -11.340008      -308.5773
   5   2.0000     -11.293504      -307.3119
   6   2.0000     -11.242488      -305.9237
   7   2.0000     -11.235568      -305.7354
   8   2.0000      -1.435409       -39.0595
   9   2.0000      -1.430977       -38.9389
  10   2.0000      -1.259245       -34.2658
  11   2.0000      -1.088869       -29.6296
  12   2.0000      -1.037122       -28.2215
  13   2.0000      -0.890865       -24.2417
  14   2.0000      -0.862130       -23.4598
  15   2.0000      -0.786145       -21.3921
  16   2.0000      -0.719311       -19.5735
  17   2.0000      -0.693803       -18.8793
  18   2.0000      -0.666402       -18.1337
  19   2.0000      -0.626969       -17.0607
  20   2.0000      -0.625900       -17.0316
  21   2.0000      -0.606776       -16.5112
  22   2.0000      -0.595478       -16.2038
  23   2.0000      -0.572328       -15.5738
  24   2.0000      -0.534181       -14.5358
  25   2.0000      -0.501206       -13.6385
  26   2.0000      -0.436866       -11.8877
  27   2.0000      -0.368316       -10.0224
  28   2.0000      -0.338334        -9.2065
  29   0.0000       0.030020         0.8169
  30   0.0000       0.039826         1.0837
  31   0.0000       0.044975         1.2238
  32   0.0000       0.059922         1.6306
  33   0.0000       0.064519         1.7557

MULLIKEN ATOMIC CHARGES
-----------------------
   0 C :    1.308243
   1 C :    1.174425
   2 C :    0.238448
   3 C :   -0.055884
   4 C :    0.505828
   5 N :   -0.586804
   6 O :   -0.846464
   7 O :   -0.797791
   8 H :   -0.460709
   9 H :   -0.534016
  10 H :   -0.307239
  11 H :    0.174805
  12 H :    0.187157
Sum of atomic charges:   -0.0000000

LOEWDIN ATOMIC CHARGES
----------------------
   0 C :    0.050582
   1 C :    0.091098
   2 C :   -0.024850
   3 C :   -0.228748
   4 C :   -0.285357
   5 N :    0.045058
   6 O :    0.201549
   7 O :    0.199436
   8 H :    0.002367
   9 H :    0.005363
  10 H :    0.006368
  11 H :   -0.030698
  12 H :   -0.032166

  Mayer bond orders larger than 0.100000
B(  0-C ,  1-C ) :   0.2696 B(  0-C ,  2-C ) :   0.9657 B(  0-C ,  3-C ) :   1.1062
B(  0-C ,  4-C ) :  -0.2749 B(  0-C ,  8-H ) :   0.1475 B(  1-C ,  2-C ) :  -0.2000
B(  1-C ,  3-C ) :   1.1546 B(  1-C ,  4-C ) :   0.8574 B(  1-C ,  9-H ) :   0.1710
B(  2-C ,  3-C ) :   0.4761 B(  2-C ,  4-C ) :   0.3673 B(  2-C ,  5-N ) :   1.0850
B(  2-C ,  8-H ) :   0.1248 B(  2-C , 10-H ) :   0.9666 B(  3-C ,  4-C ) :   0.4815
B(  3-C ,  6-O ) :   0.1085 B(  3-C ,  8-H ) :   0.4566 B(  3-C ,  9-H ) :   0.3982
B(  4-C ,  5-N ) :   1.3612 B(  4-C ,  7-O ) :   0.2359 B(  4-C ,  9-H ) :   0.1211
B(  5-N , 10-H ) :  -0.1289 B(  6-O , 11-H ) :   1.0522 B(  7-O , 12-H ) :   1.0138

MP2 TOTAL ENERGY:     -397.719270122 Eh
FINAL SINGLE POINT ENERGY      -397.719270121952

DIPOLE MOMENT
-------------
                                X             Y             Z
Electronic contribution:      0.87522       0.51028      -0.00000
Nuclear contribution   :     -1.16746      -0.17431       0.00000
                        -----------------------------------------
Total Dipole Moment    :     -0.29224       0.33598      -0.00000
                        -----------------------------------------
Magnitude (a.u.)       :      0.44529
Magnitude (Debye)      :      1.13183

Rotational constants in cm-1:     0.134594     0.061923     0.042411
Rotational constants in MHz :  4035.028417  1856.394633  1271.442406

                             ****ORCA TERMINATED NORMALLY****
TOTAL RUN TIME: 0 days 0 hours 1 minutes 2 seconds 17 msec
