                         Program Version 5.0.3 -  RELEASE  -
|  1> !ri-mp2 aug-cc-pvdz aug-cc-pvdz/c tightscf
|  2> %pal nprocs 16 end
|  3>
|  4> * xyz 0 1
|  5> H      0.006474   -0.227339    2.044374
|  6> H     -1.635546   -0.354899    1.408749
|  7> C     -0.624771   -0.007610    1.187918
|  8> H      0.006474   -0.227339   -2.044374
|  9> H     -1.635546   -0.354899   -1.408749
| 10> C     -0.624771   -0.007610   -1.187918
| 11> H     -1.486817    2.000076   -1.189456
| 12> H      0.267197    1.975221   -1.154715
| 13> C     -0.624771    1.478937   -0.776179
| 14> H     -1.486817    2.000076    1.189456
| 15> H      0.267197    1.975221    1.154715
| 16> C     -0.624771    1.478937    0.776179
| 17> N     -0.139113   -0.737456    0.000000
| 18> C      1.096623   -1.229239    0.000000
| 19> N      2.155136   -1.700631    0.000000
| 20> *
| 21>
| 22>                          ****END OF INPUT****

CARTESIAN COORDINATES (ANGSTROEM)
---------------------------------
  H      0.006474   -0.227339    2.044374
  H     -1.635546   -0.354899    1.408749
  C     -0.624771   -0.007610    1.187918
  H      0.006474   -0.227339   -2.044374
  H     -1.635546   -0.354899   -1.408749
  C     -0.624771   -0.007610   -1.187918
  H     -1.486817    2.000076   -1.189456
  H      0.267197    1.975221   -1.154715
  C     -0.624771    1.478937   -0.776179
  H     -1.486817    2.000076    1.189456
  H      0.267197    1.975221    1.154715
  C     -0.624771    1.478937    0.776179
  N     -0.139113   -0.737456    0.000000
  C      1.096623   -1.229239    0.000000
  N      2.155136   -1.700631    0.000000

 Total Charge           Charge          ....    0
 Multiplicity           Mult            ....    1
 Number of Electrons    NEL             ....   52
 Basis Dimension        Dim             ....  233

ORBITAL ENERGIES
----------------

  NO   OCC          E(Eh)            E(eV)
   0   2.0000     -15.617376      -424.9704
   1   2.0000     -15.557773      -423.3485
   2   2.0000     -11.301159      -307.5202
   3   2.0000     -11.290173      -307.2212
   4   2.0000     -11.290151      -307.2206
   5   2.0000     -11.250966      -306.1543
   6   2.0000     -11.250419      -306.1395
   7   2.0000      -1.305761       -35.5316
   8   2.0000      -1.195309       -32.5260
   9   2.0000      -1.073194       -29.2031
  10   2.0000      -1.016509       -27.6606
  11   2.0000      -0.896425       -24.3930
  12   2.0000      -0.824458       -22.4346
  13   2.0000      -0.746821       -20.3220
  14   2.0000      -0.689497       -18.7622
  15   2.0000      -0.638580       -17.3767
  16   2.0000      -0.631707       -17.1896
  17   2.0000      -0.574462       -15.6319
  18   2.0000      -0.568465       -15.4687
  19   2.0000      -0.540572       -14.7097
  20   2.0000      -0.516358       -14.0508
  21   2.0000      -0.511320       -13.9137
  22   2.0000      -0.504614       -13.7313
  23   2.0000      -0.489202       -13.3119
  24   2.0000      -0.443152       -12.0588
  25   2.0000      -0.373727       -10.1696
  26   0.0000       0.027594         0.7509
  27   0.0000       0.041021         1.1162
  28   0.0000       0.041625         1.1327
  29   0.0000       0.048993         1.3332
  30   0.0000       0.061324         1.6687

MULLIKEN ATOMIC CHARGES
-----------------------
   0 H :   -0.186800
   1 H :   -0.210413
   2 C :    0.795766
   3 H :   -0.186800
   4 H :   -0.210413
   5 C :    0.795766
   6 H :   -0.112912
   7 H :   -0.143320
   8 C :    0.315413
   9 H :   -0.112912
  10 H :   -0.143320
  11 C :    0.315413
  12 N :   -0.378797
  13 C :   -0.143681
  14 N :   -0.392989
Sum of atomic charges:   -0.0000000

LOEWDIN ATOMIC CHARGES
----------------------
   0 H :    0.022723
   1 H :    0.019388
   2 C :    0.051281
   3 H :    0.022723
   4 H :    0.019388
   5 C :    0.051281
   6 H :    0.009626
   7 H :    0.011182
   8 C :    0.025517
   9 H :    0.009626
  10 H :    0.011182
  11 C :    0.025517
  12 N :   -0.123566
  13 C :   -0.228077
  14 N :    0.072210

  Mayer bond orders larger than 0.100000
B(  0-H ,  1-H ) :  -0.1697 B(  0-H ,  2-C ) :   0.8747 B(  1-H ,  2-C ) :   0.8525
B(  2-C , 11-C ) :   1.2317 B(  2-C , 12-N ) :   0.8054 B(  3-H ,  4-H ) :  -0.1697
B(  3-H ,  5-C ) :   0.8747 B(  4-H ,  5-C ) :   0.8525 B(  5-C ,  8-C ) :   1.2317
B(  5-C , 12-N ) :   0.8054 B(  6-H ,  7-H ) :  -0.1485 B(  6-H ,  8-C ) :   0.7947
B(  7-H ,  8-C ) :   0.7568 B(  7-H , 11-C ) :   0.1144 B(  8-C , 10-H ) :   0.1144
B(  8-C , 11-C ) :   1.3095 B(  9-H , 10-H ) :  -0.1485 B(  9-H , 11-C ) :   0.7947
B( 10-H , 11-C ) :   0.7568 B( 12-N , 13-C ) :   1.0627 B( 13-C , 14-N ) :   2.6795

MP2 TOTAL ENERGY:     -303.946306788 Eh
FINAL SINGLE POINT ENERGY      -303.946306788476

DIPOLE MOMENT
-------------
                                X             Y             Z
Electronic contribution:      4.05715      -5.51181      -0.00000
Nuclear contribution   :     -5.77585       6.87936       0.00000
                        -----------------------------------------
Total Dipole Moment    :     -1.71870       1.36754      -0.00000
                        -----------------------------------------
Magnitude (a.u.)       :      2.19639
Magnitude (Debye)      :      5.58277

Rotational constants in cm-1:     0.176967     0.069423     0.060154
Rotational constants in MHz :  5305.351866  2081.253485  1803.369897

                             ****ORCA TERMINATED NORMALLY****
TOTAL RUN TIME: 0 days 0 hours 0 minutes 52 seconds 451 msec
