                         Program Version 5.0.3 -  RELEASE  -
|  1> !ri-mp2 aug-cc-pvdz aug-cc-pvdz/c tightscf
|  2> %pal nprocs 16 end
|  3>
|  4> * xyz 0 1
|  5> C     -0.834927    0.310226   -1.120699
|  6> C     -0.863686   -1.052974   -0.441012
|  7> C      0.863686    1.052974    0.441012
|  8> C      0.834927   -0.310226    1.120699
|  9> N     -0.450116    1.325039   -0.140555
| 10> N      0.450116   -1.325039    0.140555
| 11> H     -0.136260    0.260567   -1.970344
| 12> H     -1.825522    0.552488   -1.508068
| 13> H     -1.664933   -1.048703    0.314250
| 14> H     -1.091286   -1.828069   -1.174163
| 15> H      1.091286    1.828069    1.174163
| 16> H      1.664933    1.048703   -0.314250
| 17> H      1.825522   -0.552488    1.508068
| 18> H      0.136260   -0.260567    1.970344
| 19> H     -0.474735    2.247690   -0.552801
| 20> H      0.474735   -2.247690    0.552801
| 21> *
| 22>
| 23>                          ****END OF INPUT****

CARTESIAN COORDINATES (ANGSTROEM)
---------------------------------
  C     -0.834927    0.310226   -1.120699
  C     -0.863686   -1.052974   -0.441012
  C      0.863686    1.052974    0.441012
  C      0.834927   -0.310226    1.120699
  N     -0.450116    1.325039   -0.140555
  N      0.450116   -1.325039    0.140555
  H     -0.136260    0.260567   -1.970344
  H     -1.825522    0.552488   -1.508068
  H     -1.664933   -1.048703    0.314250
  H     -1.091286   -1.828069   -1.174163
  H      1.091286    1.828069    1.174163
  H      1.664933    1.048703   -0.314250
  H      1.825522   -0.552488    1.508068
  H      0.136260   -0.260567    1.970344
  H     -0.474735    2.247690   -0.552801
  H      0.474735   -2.247690    0.552801

 Total Charge           Charge          ....    0
 Multiplicity           Mult            ....    1
 Number of Electrons    NEL             ....   48
 Basis Dimension        Dim             ....  228

ORBITAL ENERGIES
----------------

  NO   OCC          E(Eh)            E(eV)
   0   2.0000     -15.545025      -423.0016
   1   2.0000     -15.545023      -423.0016
   2   2.0000     -11.247276      -306.0540
   3   2.0000     -11.247256      -306.0534
   4   2.0000     -11.246651      -306.0369
   5   2.0000     -11.246638      -306.0366
   6   2.0000      -1.234934       -33.6043
   7   2.0000      -1.167871       -31.7794
   8   2.0000      -1.021642       -27.8003
   9   2.0000      -0.909441       -24.7471
  10   2.0000      -0.853405       -23.2223
  11   2.0000      -0.759107       -20.6564
  12   2.0000      -0.702051       -19.1038
  13   2.0000      -0.639722       -17.4077
  14   2.0000      -0.617429       -16.8011
  15   2.0000      -0.598195       -16.2777
  16   2.0000      -0.574671       -15.6376
  17   2.0000      -0.568999       -15.4833
  18   2.0000      -0.534333       -14.5399
  19   2.0000      -0.487874       -13.2757
  20   2.0000      -0.469786       -12.7835
  21   2.0000      -0.460157       -12.5215
  22   2.0000      -0.370352       -10.0778
  23   2.0000      -0.358768        -9.7626
  24   0.0000       0.036667         0.9978
  25   0.0000       0.043645         1.1876
  26   0.0000       0.046091         1.2542
  27   0.0000       0.050358         1.3703
  28   0.0000       0.063555         1.7294

MULLIKEN ATOMIC CHARGES
-----------------------
   0 C :    0.697124
   1 C :    0.697500
   2 C :    0.697500
   3 C :    0.697124
   4 N :   -0.644062
   5 N :   -0.644062
   6 H :   -0.114346
   7 H :   -0.208212
   8 H :   -0.114773
   9 H :   -0.208235
  10 H :   -0.208235
  11 H :   -0.114773
  12 H :   -0.208212
  13 H :   -0.114346
  14 H :   -0.104997
  15 H :   -0.104997
Sum of atomic charges:   -0.0000000

LOEWDIN ATOMIC CHARGES
----------------------
   0 C :   -0.037076
   1 C :   -0.037201
   2 C :   -0.037201
   3 C :   -0.037076
   4 N :    0.033866
   5 N :    0.033866
   6 H :    0.017476
   7 H :    0.014056
   8 H :    0.017462
   9 H :    0.014057
  10 H :    0.014057
  11 H :    0.017462
  12 H :    0.014056
  13 H :    0.017476
  14 H :   -0.022640
  15 H :   -0.022640

  Mayer bond orders larger than 0.100000
B(  0-C ,  1-C ) :   1.2905 B(  0-C ,  4-N ) :   0.9444 B(  0-C ,  6-H ) :   0.8390
B(  0-C ,  7-H ) :   0.8748 B(  1-C ,  5-N ) :   0.9444 B(  1-C ,  8-H ) :   0.8389
B(  1-C ,  9-H ) :   0.8747 B(  2-C ,  3-C ) :   1.2905 B(  2-C ,  4-N ) :   0.9444
B(  2-C , 10-H ) :   0.8747 B(  2-C , 11-H ) :   0.8389 B(  3-C ,  5-N ) :   0.9444
B(  3-C , 12-H ) :   0.8748 B(  3-C , 13-H ) :   0.8390 B(  4-N , 14-H ) :   1.1084
B(  5-N , 15-H ) :   1.1084 B(  6-H ,  7-H ) :  -0.1229 B(  8-H ,  9-H ) :  -0.1229
B( 10-H , 11-H ) :  -0.1229 B( 12-H , 13-H ) :  -0.1229

MP2 TOTAL ENERGY:     -267.151529849 Eh
FINAL SINGLE POINT ENERGY      -267.151529848604

DIPOLE MOMENT
-------------
                                X             Y             Z
Electronic contribution:     -0.00000      -0.00000       0.00000
Nuclear contribution   :      0.00000       0.00000      -0.00000
                        -----------------------------------------
Total Dipole Moment    :     -0.00000      -0.00000       0.00000
                        -----------------------------------------
Magnitude (a.u.)       :      0.00000
Magnitude (Debye)      :      0.00000

Rotational constants in cm-1:     0.158508     0.152888     0.087202
Rotational constants in MHz :  4751.947453  4583.470386  2614.241366

                             ****ORCA TERMINATED NORMALLY****
TOTAL RUN TIME: 0 days 0 hours 0 minutes 53 seconds 680 msec
