                         Program Version 5.0.3 -  RELEASE  -
|  1> !ri-mp2 aug-cc-pvdz aug-cc-pvdz/c tightscf
|  2> %pal nprocs 16 end
|  3>
|  4> * xyz 0 1
|  5> O     -0.463972    1.384052   -0.155574
|  6> H      0.450340    1.692749   -0.148928
|  7> O      1.955994   -0.044939    0.007682
|  8> H      2.204193   -0.174878    0.928152
|  9> C      0.719569   -0.720388   -0.243068
| 10> H      0.626152   -0.767914   -1.328484
| 11> H      0.743413   -1.741843    0.148870
| 12> C     -0.461734    0.047680    0.337446
| 13> H     -0.352342    0.067485    1.432972
| 14> C     -1.793602   -0.587521   -0.016562
| 15> H     -1.917072   -0.637100   -1.099209
| 16> H     -1.865467   -1.596382    0.392217
| 17> H     -2.610789    0.006348    0.390648
| 18> *
| 19>
| 20>                          ****END OF INPUT****

CARTESIAN COORDINATES (ANGSTROEM)
---------------------------------
  O     -0.463972    1.384052   -0.155574
  H      0.450340    1.692749   -0.148928
  O      1.955994   -0.044939    0.007682
  H      2.204193   -0.174878    0.928152
  C      0.719569   -0.720388   -0.243068
  H      0.626152   -0.767914   -1.328484
  H      0.743413   -1.741843    0.148870
  C     -0.461734    0.047680    0.337446
  H     -0.352342    0.067485    1.432972
  C     -1.793602   -0.587521   -0.016562
  H     -1.917072   -0.637100   -1.099209
  H     -1.865467   -1.596382    0.392217
  H     -2.610789    0.006348    0.390648

 Total Charge           Charge          ....    0
 Multiplicity           Mult            ....    1
 Number of Electrons    NEL             ....   42
 Basis Dimension        Dim             ....  187

ORBITAL ENERGIES
----------------

  NO   OCC          E(Eh)            E(eV)
   0   2.0000     -20.582289      -560.0726
   1   2.0000     -20.560507      -559.4798
   2   2.0000     -11.288742      -307.1823
   3   2.0000     -11.287896      -307.1593
   4   2.0000     -11.225290      -305.4557
   5   2.0000      -1.382264       -37.6133
   6   2.0000      -1.351404       -36.7736
   7   2.0000      -1.044342       -28.4180
   8   2.0000      -0.932831       -25.3836
   9   2.0000      -0.814133       -22.1537
  10   2.0000      -0.712535       -19.3891
  11   2.0000      -0.687559       -18.7094
  12   2.0000      -0.659435       -17.9441
  13   2.0000      -0.607380       -16.5277
  14   2.0000      -0.563652       -15.3377
  15   2.0000      -0.541981       -14.7480
  16   2.0000      -0.536075       -14.5874
  17   2.0000      -0.519876       -14.1466
  18   2.0000      -0.504131       -13.7181
  19   2.0000      -0.463863       -12.6224
  20   2.0000      -0.428478       -11.6595
  21   0.0000       0.031743         0.8638
  22   0.0000       0.043575         1.1857
  23   0.0000       0.048913         1.3310
  24   0.0000       0.052219         1.4210
  25   0.0000       0.070252         1.9117

MULLIKEN ATOMIC CHARGES
-----------------------
   0 O :   -0.762327
   1 H :    0.159139
   2 O :   -0.740219
   3 H :    0.139835
   4 C :    1.040765
   5 H :   -0.150670
   6 H :   -0.115309
   7 C :    0.167623
   8 H :   -0.167828
   9 C :    0.475917
  10 H :    0.000182
  11 H :   -0.005995
  12 H :   -0.041113
Sum of atomic charges:   -0.0000000

LOEWDIN ATOMIC CHARGES
----------------------
   0 O :    0.134422
   1 H :   -0.071207
   2 O :    0.117349
   3 H :   -0.058588
   4 C :   -0.018497
   5 H :    0.012782
   6 H :    0.011806
   7 C :   -0.288012
   8 H :    0.030453
   9 C :    0.162579
  10 H :   -0.009485
  11 H :   -0.012826
  12 H :   -0.010776

  Mayer bond orders larger than 0.100000
B(  0-O ,  1-H ) :   1.0438 B(  0-O ,  4-C ) :   0.1098 B(  0-O ,  7-C ) :   0.2643
B(  2-O ,  3-H ) :   1.0676 B(  2-O ,  4-C ) :   0.4385 B(  2-O ,  7-C ) :   0.1879
B(  4-C ,  5-H ) :   0.8969 B(  4-C ,  6-H ) :   0.8544 B(  4-C ,  7-C ) :   1.2725
B(  4-C ,  9-C ) :  -0.1173 B(  5-H ,  6-H ) :  -0.1147 B(  7-C ,  8-H ) :   0.7140
B(  7-C ,  9-C ) :   1.3962 B(  7-C , 10-H ) :   0.1221 B(  7-C , 12-H ) :   0.1521
B(  9-C , 10-H ) :   0.8829 B(  9-C , 11-H ) :   0.8672 B(  9-C , 12-H ) :   0.8591

MP2 TOTAL ENERGY:     -268.871381488 Eh
FINAL SINGLE POINT ENERGY      -268.871381487849

DIPOLE MOMENT
-------------
                                X             Y             Z
Electronic contribution:      2.94602       2.47631      -0.10038
Nuclear contribution   :     -2.79676      -3.24496       0.74003
                        -----------------------------------------
Total Dipole Moment    :      0.14925      -0.76865       0.63964
                        -----------------------------------------
Magnitude (a.u.)       :      1.01106
Magnitude (Debye)      :      2.56991

Rotational constants in cm-1:     0.284965     0.119486     0.092234
Rotational constants in MHz :  8543.042916  3582.092841  2765.091920

                             ****ORCA TERMINATED NORMALLY****
TOTAL RUN TIME: 0 days 0 hours 0 minutes 51 seconds 505 msec
