                         Program Version 5.0.3 -  RELEASE  -
|  1> !ri-mp2 aug-cc-pvdz aug-cc-pvdz/c tightscf
|  2> %pal nprocs 16 end
|  3>
|  4> * xyz 0 1
|  5> C     -3.193395    0.219196    0.022962
|  6> C     -1.870687   -0.543222   -0.031096
|  7> C     -0.644306    0.369108    0.017163
|  8> C      0.681934   -0.388325   -0.039089
|  9> C      1.902025    0.524730    0.012238
| 10> N      3.142821   -0.252296   -0.075802
| 11> H     -4.046943   -0.459069   -0.014935
| 12> H     -3.274969    0.803363    0.942009
| 13> H     -3.283672    0.912302   -0.816050
| 14> H     -1.834066   -1.145994   -0.943292
| 15> H     -1.824205   -1.251686    0.801403
| 16> H     -0.682799    0.973279    0.929858
| 17> H     -0.692022    1.077721   -0.816618
| 18> H      0.733834   -0.987957   -0.951398
| 19> H      0.730562   -1.095733    0.796545
| 20> H      1.844936    1.150237    0.914816
| 21> H      1.879005    1.205826   -0.842025
| 22> H      3.244316   -0.859616    0.728902
| 23> H      3.952849    0.354475   -0.091672
| 24> *
| 25>
| 26>                          ****END OF INPUT****

CARTESIAN COORDINATES (ANGSTROEM)
---------------------------------
  C     -3.193395    0.219196    0.022962
  C     -1.870687   -0.543222   -0.031096
  C     -0.644306    0.369108    0.017163
  C      0.681934   -0.388325   -0.039089
  C      1.902025    0.524730    0.012238
  N      3.142821   -0.252296   -0.075802
  H     -4.046943   -0.459069   -0.014935
  H     -3.274969    0.803363    0.942009
  H     -3.283672    0.912302   -0.816050
  H     -1.834066   -1.145994   -0.943292
  H     -1.824205   -1.251686    0.801403
  H     -0.682799    0.973279    0.929858
  H     -0.692022    1.077721   -0.816618
  H      0.733834   -0.987957   -0.951398
  H      0.730562   -1.095733    0.796545
  H      1.844936    1.150237    0.914816
  H      1.879005    1.205826   -0.842025
  H      3.244316   -0.859616    0.728902
  H      3.952849    0.354475   -0.091672

 Total Charge           Charge          ....    0
 Multiplicity           Mult            ....    1
 Number of Electrons    NEL             ....   50
 Basis Dimension        Dim             ....  255

ORBITAL ENERGIES
----------------

  NO   OCC          E(Eh)            E(eV)
   0   2.0000     -15.544488      -422.9870
   1   2.0000     -11.249304      -306.1091
   2   2.0000     -11.221164      -305.3434
   3   2.0000     -11.219809      -305.3065
   4   2.0000     -11.217599      -305.2464
   5   2.0000     -11.216154      -305.2071
   6   2.0000      -1.175640       -31.9908
   7   2.0000      -1.073997       -29.2249
   8   2.0000      -0.999520       -27.1983
   9   2.0000      -0.900816       -24.5124
  10   2.0000      -0.812558       -22.1108
  11   2.0000      -0.787974       -21.4419
  12   2.0000      -0.662595       -18.0301
  13   2.0000      -0.640782       -17.4366
  14   2.0000      -0.615809       -16.7570
  15   2.0000      -0.587744       -15.9933
  16   2.0000      -0.563667       -15.3382
  17   2.0000      -0.548722       -14.9315
  18   2.0000      -0.528940       -14.3932
  19   2.0000      -0.497617       -13.5408
  20   2.0000      -0.478866       -13.0306
  21   2.0000      -0.464585       -12.6420
  22   2.0000      -0.459299       -12.4981
  23   2.0000      -0.451780       -12.2936
  24   2.0000      -0.385117       -10.4796
  25   0.0000       0.036078         0.9817
  26   0.0000       0.040984         1.1152
  27   0.0000       0.045279         1.2321
  28   0.0000       0.048843         1.3291
  29   0.0000       0.059399         1.6163

MULLIKEN ATOMIC CHARGES
-----------------------
   0 C :    0.479121
   1 C :    0.315726
   2 C :    0.138245
   3 C :    0.243761
   4 C :    0.977726
   5 N :   -0.378124
   6 H :   -0.071273
   7 H :   -0.087981
   8 H :   -0.088031
   9 H :   -0.182593
  10 H :   -0.183535
  11 H :   -0.208862
  12 H :   -0.210141
  13 H :   -0.134173
  14 H :   -0.190302
  15 H :   -0.162382
  16 H :   -0.214031
  17 H :    0.000437
  18 H :   -0.043588
Sum of atomic charges:    0.0000000

LOEWDIN ATOMIC CHARGES
----------------------
   0 C :    0.129910
   1 C :   -0.073671
   2 C :   -0.044086
   3 C :   -0.036664
   4 C :   -0.078336
   5 N :    0.177001
   6 H :   -0.022368
   7 H :   -0.020656
   8 H :   -0.020439
   9 H :    0.011253
  10 H :    0.010523
  11 H :    0.014602
  12 H :    0.015957
  13 H :    0.018565
  14 H :    0.014631
  15 H :    0.006027
  16 H :    0.009784
  17 H :   -0.056066
  18 H :   -0.055966

  Mayer bond orders larger than 0.100000
B(  0-C ,  1-C ) :   1.1587 B(  0-C ,  6-H ) :   0.9137 B(  0-C ,  7-H ) :   0.9259
B(  0-C ,  8-H ) :   0.9249 B(  1-C ,  2-C ) :   1.2448 B(  1-C ,  9-H ) :   0.7653
B(  1-C , 10-H ) :   0.7623 B(  2-C ,  3-C ) :   1.2534 B(  2-C , 10-H ) :   0.1054
B(  2-C , 11-H ) :   0.8017 B(  2-C , 12-H ) :   0.7850 B(  3-C ,  4-C ) :   1.1710
B(  3-C , 13-H ) :   0.8116 B(  3-C , 14-H ) :   0.7673 B(  4-C ,  5-N ) :   0.8480
B(  4-C , 15-H ) :   0.8346 B(  4-C , 16-H ) :   0.7766 B(  5-N , 17-H ) :   1.0596
B(  5-N , 18-H ) :   1.0832

MP2 TOTAL ENERGY:     -252.325399132 Eh
FINAL SINGLE POINT ENERGY      -252.325399132340

DIPOLE MOMENT
-------------
                                X             Y             Z
Electronic contribution:      3.49446      -0.46774      -0.26944
Nuclear contribution   :     -3.48476       0.72789       0.68634
                        -----------------------------------------
Total Dipole Moment    :      0.00970       0.26015       0.41690
                        -----------------------------------------
Magnitude (a.u.)       :      0.49151
Magnitude (Debye)      :      1.24931

Rotational constants in cm-1:     0.514341     0.037839     0.036530
Rotational constants in MHz : 15419.563996  1134.391417  1095.154997

                             ****ORCA TERMINATED NORMALLY****
TOTAL RUN TIME: 0 days 0 hours 0 minutes 54 seconds 220 msec
