                         Program Version 5.0.3 -  RELEASE  -
|  1> !ri-mp2 aug-cc-pvdz aug-cc-pvdz/c tightscf
|  2> %pal nprocs 16 end
|  3>
|  4> * xyz 0 1
|  5> C      0.000000    0.000000    1.114207
|  6> C      0.000000    1.205172    0.423331
|  7> C      0.000000    1.190132   -0.964430
|  8> C      0.000000    0.000000   -1.669598
|  9> C      0.000000   -1.190132   -0.964430
| 10> C      0.000000   -1.205172    0.423331
| 11> F      0.000000    0.000000    2.445370
| 12> F      0.000000    2.356848    1.095325
| 13> F      0.000000    2.356407   -1.619428
| 14> H      0.000000    0.000000   -2.748927
| 15> F      0.000000   -2.356407   -1.619428
| 16> F      0.000000   -2.356848    1.095325
| 17> *
| 18>
| 19>                          ****END OF INPUT****

CARTESIAN COORDINATES (ANGSTROEM)
---------------------------------
  C      0.000000    0.000000    1.114207
  C      0.000000    1.205172    0.423331
  C      0.000000    1.190132   -0.964430
  C      0.000000    0.000000   -1.669598
  C      0.000000   -1.190132   -0.964430
  C      0.000000   -1.205172    0.423331
  F      0.000000    0.000000    2.445370
  F      0.000000    2.356848    1.095325
  F      0.000000    2.356407   -1.619428
  H      0.000000    0.000000   -2.748927
  F      0.000000   -2.356407   -1.619428
  F      0.000000   -2.356848    1.095325

 Total Charge           Charge          ....    0
 Multiplicity           Mult            ....    1
 Number of Electrons    NEL             ....   82
 Basis Dimension        Dim             ....  262

ORBITAL ENERGIES
----------------

  NO   OCC          E(Eh)            E(eV)
   0   2.0000     -26.370441      -717.5762
   1   2.0000     -26.365210      -717.4338
   2   2.0000     -26.365210      -717.4338
   3   2.0000     -26.364208      -717.4066
   4   2.0000     -26.364208      -717.4066
   5   2.0000     -11.392618      -310.0089
   6   2.0000     -11.386888      -309.8530
   7   2.0000     -11.386883      -309.8528
   8   2.0000     -11.382195      -309.7253
   9   2.0000     -11.382119      -309.7232
  10   2.0000     -11.297404      -307.4180
  11   2.0000      -1.690748       -46.0076
  12   2.0000      -1.682265       -45.7768
  13   2.0000      -1.677459       -45.6460
  14   2.0000      -1.668566       -45.4040
  15   2.0000      -1.665757       -45.3276
  16   2.0000      -1.225651       -33.3517
  17   2.0000      -1.087372       -29.5889
  18   2.0000      -1.078842       -29.3568
  19   2.0000      -0.935028       -25.4434
  20   2.0000      -0.923730       -25.1360
  21   2.0000      -0.836876       -22.7726
  22   2.0000      -0.828396       -22.5418
  23   2.0000      -0.813029       -22.1236
  24   2.0000      -0.768668       -20.9165
  25   2.0000      -0.766990       -20.8709
  26   2.0000      -0.765709       -20.8360
  27   2.0000      -0.748584       -20.3700
  28   2.0000      -0.743253       -20.2249
  29   2.0000      -0.734155       -19.9774
  30   2.0000      -0.719154       -19.5692
  31   2.0000      -0.715593       -19.4723
  32   2.0000      -0.699601       -19.0371
  33   2.0000      -0.696915       -18.9640
  34   2.0000      -0.694647       -18.9023
  35   2.0000      -0.639754       -17.4086
  36   2.0000      -0.603765       -16.4293
  37   2.0000      -0.601055       -16.3555
  38   2.0000      -0.540557       -14.7093
  39   2.0000      -0.389250       -10.5920
  40   2.0000      -0.378096       -10.2885
  41   0.0000       0.031708         0.8628
  42   0.0000       0.062488         1.7004
  43   0.0000       0.070667         1.9229
  44   0.0000       0.080378         2.1872
  45   0.0000       0.088799         2.4163

MULLIKEN ATOMIC CHARGES
-----------------------
   0 C :    1.090649
   1 C :    0.499314
   2 C :    1.110880
   3 C :   -0.126355
   4 C :    1.110880
   5 C :    0.499314
   6 F :   -0.797285
   7 F :   -0.729552
   8 F :   -0.802878
   9 H :   -0.322536
  10 F :   -0.802878
  11 F :   -0.729552
Sum of atomic charges:    0.0000000

LOEWDIN ATOMIC CHARGES
----------------------
   0 C :   -0.108860
   1 C :   -0.118266
   2 C :   -0.150494
   3 C :    0.106850
   4 C :   -0.150494
   5 C :   -0.118266
   6 F :    0.112719
   7 F :    0.105291
   8 F :    0.094881
   9 H :    0.026467
  10 F :    0.094881
  11 F :    0.105291

  Mayer bond orders larger than 0.100000
B(  0-C ,  1-C ) :   1.3404 B(  0-C ,  5-C ) :   1.3404 B(  0-C ,  6-F ) :  -0.5066
B(  0-C ,  7-F ) :   0.4027 B(  0-C , 11-F ) :   0.4027 B(  1-C ,  2-C ) :   1.3164
B(  1-C ,  3-C ) :   0.3633 B(  1-C ,  5-C ) :   0.3292 B(  1-C ,  6-F ) :   0.3523
B(  1-C ,  7-F ) :  -0.6327 B(  1-C ,  8-F ) :   0.3506 B(  2-C ,  3-C ) :   1.6033
B(  2-C ,  7-F ) :   0.3191 B(  2-C ,  8-F ) :  -0.5510 B(  2-C ,  9-H ) :   0.1258
B(  3-C ,  4-C ) :   1.6033 B(  3-C ,  5-C ) :   0.3633 B(  3-C ,  6-F ) :   0.1099
B(  3-C ,  8-F ) :   0.3164 B(  3-C ,  9-H ) :   0.5026 B(  3-C , 10-F ) :   0.3164
B(  4-C ,  5-C ) :   1.3164 B(  4-C ,  9-H ) :   0.1258 B(  4-C , 10-F ) :  -0.5510
B(  4-C , 11-F ) :   0.3191 B(  5-C ,  6-F ) :   0.3523 B(  5-C , 10-F ) :   0.3506
B(  5-C , 11-F ) :  -0.6327

MP2 TOTAL ENERGY:     -726.796633410 Eh
FINAL SINGLE POINT ENERGY      -726.796633410121

DIPOLE MOMENT
-------------
                                X             Y             Z
Electronic contribution:      0.00000       0.00000       3.11925
Nuclear contribution   :      0.00000      -0.00000      -3.78330
                        -----------------------------------------
Total Dipole Moment    :      0.00000       0.00000      -0.66405
                        -----------------------------------------
Magnitude (a.u.)       :      0.66405
Magnitude (Debye)      :      1.68788

Rotational constants in cm-1:     0.049379     0.034337     0.020253
Rotational constants in MHz :  1480.340020  1029.387036   607.174721

                             ****ORCA TERMINATED NORMALLY****
TOTAL RUN TIME: 0 days 0 hours 1 minutes 43 seconds 426 msec
