                         Program Version 5.0.3 -  RELEASE  -
|  1> !ri-mp2 aug-cc-pvdz aug-cc-pvdz/c tightscf
|  2> %pal nprocs 16 end
|  3> %maxcore 3800
|  4>
|  5> * xyz 0 1
|  6> C     -0.643755    0.451811   -0.116063
|  7> C      0.643754   -0.451811   -0.116065
|  8> C     -1.971641   -0.359225    0.109674
|  9> C      1.971641    0.359224    0.109675
| 10> C     -3.260971    0.423128   -0.322117
| 11> C      3.260972   -0.423127   -0.322118
| 12> C     -4.593120   -0.161784    0.255224
| 13> C      4.593120    0.161783    0.255225
| 14> F     -0.717886    1.087551   -1.301534
| 15> F     -0.534691    1.367522    0.866508
| 16> F      0.717886   -1.087547   -1.301538
| 17> F      0.534691   -1.367525    0.866504
| 18> F     -2.067751   -0.666456    1.418445
| 19> F     -1.915832   -1.502658   -0.602171
| 20> F      2.067750    0.666452    1.418447
| 21> F      1.915832    1.502659   -0.602167
| 22> F     -3.354065    0.399093   -1.664116
| 23> F     -3.170091    1.704673    0.088792
| 24> F      3.170091   -1.704673    0.088788
| 25> F      3.354066   -0.399089   -1.664117
| 26> F     -5.619910    0.441189   -0.347993
| 27> F     -4.668993   -1.475221    0.024297
| 28> F     -4.683604    0.056486    1.566635
| 29> F      4.668993    1.475221    0.024300
| 30> F      5.619909   -0.441188   -0.347994
| 31> F      4.683603   -0.056489    1.566635
| 32> *
| 33>
| 34>                          ****END OF INPUT****

CARTESIAN COORDINATES (ANGSTROEM)
---------------------------------
  C     -0.643755    0.451811   -0.116063
  C      0.643754   -0.451811   -0.116065
  C     -1.971641   -0.359225    0.109674
  C      1.971641    0.359224    0.109675
  C     -3.260971    0.423128   -0.322117
  C      3.260972   -0.423127   -0.322118
  C     -4.593120   -0.161784    0.255224
  C      4.593120    0.161783    0.255225
  F     -0.717886    1.087551   -1.301534
  F     -0.534691    1.367522    0.866508
  F      0.717886   -1.087547   -1.301538
  F      0.534691   -1.367525    0.866504
  F     -2.067751   -0.666456    1.418445
  F     -1.915832   -1.502658   -0.602171
  F      2.067750    0.666452    1.418447
  F      1.915832    1.502659   -0.602167
  F     -3.354065    0.399093   -1.664116
  F     -3.170091    1.704673    0.088792
  F      3.170091   -1.704673    0.088788
  F      3.354066   -0.399089   -1.664117
  F     -5.619910    0.441189   -0.347993
  F     -4.668993   -1.475221    0.024297
  F     -4.683604    0.056486    1.566635
  F      4.668993    1.475221    0.024300
  F      5.619909   -0.441188   -0.347994
  F      4.683603   -0.056489    1.566635

 Total Charge           Charge          ....    0
 Multiplicity           Mult            ....    1
 Number of Electrons    NEL             ....  210
 Basis Dimension        Dim             ....  598

ORBITAL ENERGIES
----------------

  NO   OCC          E(Eh)            E(eV)
   0   2.0000     -26.396471      -718.2845
   1   2.0000     -26.396471      -718.2845
   2   2.0000     -26.396429      -718.2833
   3   2.0000     -26.396427      -718.2833
   4   2.0000     -26.396422      -718.2832
   5   2.0000     -26.396422      -718.2831
   6   2.0000     -26.396295      -718.2797
   7   2.0000     -26.396293      -718.2796
   8   2.0000     -26.395158      -718.2488
   9   2.0000     -26.395158      -718.2488
  10   2.0000     -26.394842      -718.2402
  11   2.0000     -26.394841      -718.2402
  12   2.0000     -26.393005      -718.1902
  13   2.0000     -26.393005      -718.1902
  14   2.0000     -26.392717      -718.1823
  15   2.0000     -26.392716      -718.1823
  16   2.0000     -26.391551      -718.1506
  17   2.0000     -26.391551      -718.1506
  18   2.0000     -11.571285      -314.8707
  19   2.0000     -11.571284      -314.8707
  20   2.0000     -11.517193      -313.3988
  21   2.0000     -11.516801      -313.3881
  22   2.0000     -11.516385      -313.3768
  23   2.0000     -11.516256      -313.3733
  24   2.0000     -11.513106      -313.2875
  25   2.0000     -11.513106      -313.2875
  26   2.0000      -1.782963       -48.5169
  27   2.0000      -1.782752       -48.5111
  28   2.0000      -1.764479       -48.0139
  29   2.0000      -1.752295       -47.6824
  30   2.0000      -1.740668       -47.3660
  31   2.0000      -1.736222       -47.2450
  32   2.0000      -1.734379       -47.1948
  33   2.0000      -1.733966       -47.1836
  34   2.0000      -1.692380       -46.0520
  35   2.0000      -1.689439       -45.9720
  36   2.0000      -1.685883       -45.8752
  37   2.0000      -1.682453       -45.7819
  38   2.0000      -1.681987       -45.7692
  39   2.0000      -1.681083       -45.7446
  40   2.0000      -1.677356       -45.6432
  41   2.0000      -1.674989       -45.5788
  42   2.0000      -1.673760       -45.5453
  43   2.0000      -1.673543       -45.5394
  44   2.0000      -1.160084       -31.5675
  45   2.0000      -1.142837       -31.0982
  46   2.0000      -1.114035       -30.3144
  47   2.0000      -1.074379       -29.2353
  48   2.0000      -1.026520       -27.9330
  49   2.0000      -0.982356       -26.7313
  50   2.0000      -0.955672       -26.0052
  51   2.0000      -0.942230       -25.6394
  52   2.0000      -0.904279       -24.6067
  53   2.0000      -0.898595       -24.4520
  54   2.0000      -0.895738       -24.3743
  55   2.0000      -0.886559       -24.1245
  56   2.0000      -0.877843       -23.8873
  57   2.0000      -0.875845       -23.8330
  58   2.0000      -0.871414       -23.7124
  59   2.0000      -0.869030       -23.6475
  60   2.0000      -0.862862       -23.4797
  61   2.0000      -0.853463       -23.2239
  62   2.0000      -0.851585       -23.1728
  63   2.0000      -0.850389       -23.1403
  64   2.0000      -0.838319       -22.8118
  65   2.0000      -0.835797       -22.7432
  66   2.0000      -0.821286       -22.3483
  67   2.0000      -0.809675       -22.0324
  68   2.0000      -0.803063       -21.8524
  69   2.0000      -0.774128       -21.0651
  70   2.0000      -0.773071       -21.0363
  71   2.0000      -0.766057       -20.8455
  72   2.0000      -0.764595       -20.8057
  73   2.0000      -0.757486       -20.6123
  74   2.0000      -0.755551       -20.5596
  75   2.0000      -0.750753       -20.4290
  76   2.0000      -0.748907       -20.3788
  77   2.0000      -0.747936       -20.3524
  78   2.0000      -0.745585       -20.2884
  79   2.0000      -0.741797       -20.1853
  80   2.0000      -0.739436       -20.1211
  81   2.0000      -0.737976       -20.0813
  82   2.0000      -0.732529       -19.9331
  83   2.0000      -0.732313       -19.9273
  84   2.0000      -0.726322       -19.7642
  85   2.0000      -0.723001       -19.6739
  86   2.0000      -0.710090       -19.3225
  87   2.0000      -0.704840       -19.1797
  88   2.0000      -0.702973       -19.1289
  89   2.0000      -0.701664       -19.0932
  90   2.0000      -0.698769       -19.0145
  91   2.0000      -0.697097       -18.9690
  92   2.0000      -0.695649       -18.9296
  93   2.0000      -0.693611       -18.8741
  94   2.0000      -0.691056       -18.8046
  95   2.0000      -0.688205       -18.7270
  96   2.0000      -0.685416       -18.6511
  97   2.0000      -0.684843       -18.6355
  98   2.0000      -0.660907       -17.9842
  99   2.0000      -0.655609       -17.8400
 100   2.0000      -0.649505       -17.6739
 101   2.0000      -0.637578       -17.3494
 102   2.0000      -0.611796       -16.6478
 103   2.0000      -0.571689       -15.5564
 104   2.0000      -0.530539       -14.4367
 105   0.0000       0.058080         1.5804
 106   0.0000       0.064324         1.7503
 107   0.0000       0.066234         1.8023
 108   0.0000       0.070930         1.9301
 109   0.0000       0.079577         2.1654

MULLIKEN ATOMIC CHARGES
-----------------------
   0 C :    1.423995
   1 C :    1.423994
   2 C :    1.316719
   3 C :    1.316716
   4 C :    1.416225
   5 C :    1.416225
   6 C :    2.377490
   7 C :    2.377491
   8 F :   -0.773434
   9 F :   -0.773196
  10 F :   -0.773434
  11 F :   -0.773196
  12 F :   -0.771288
  13 F :   -0.762617
  14 F :   -0.771288
  15 F :   -0.762617
  16 F :   -0.760092
  17 F :   -0.760600
  18 F :   -0.760600
  19 F :   -0.760091
  20 F :   -0.636917
  21 F :   -0.654797
  22 F :   -0.641486
  23 F :   -0.654797
  24 F :   -0.636917
  25 F :   -0.641486
Sum of atomic charges:   -0.0000000

LOEWDIN ATOMIC CHARGES
----------------------
   0 C :   -0.241052
   1 C :   -0.241052
   2 C :   -0.243517
   3 C :   -0.243516
   4 C :   -0.247792
   5 C :   -0.247792
   6 C :   -0.322188
   7 C :   -0.322189
   8 F :    0.119785
   9 F :    0.119373
  10 F :    0.119785
  11 F :    0.119373
  12 F :    0.117415
  13 F :    0.118280
  14 F :    0.117414
  15 F :    0.118280
  16 F :    0.117119
  17 F :    0.116551
  18 F :    0.116551
  19 F :    0.117119
  20 F :    0.116410
  21 F :    0.114505
  22 F :    0.115112
  23 F :    0.114504
  24 F :    0.116410
  25 F :    0.115113

  Mayer bond orders larger than 0.100000
B(  0-C ,  1-C ) :   0.9822 B(  0-C ,  2-C ) :   0.9463 B(  0-C , 10-F ) :   0.2002
B(  0-C , 11-F ) :   0.1269 B(  0-C , 12-F ) :   0.1893 B(  0-C , 13-F ) :   0.1670
B(  1-C ,  3-C ) :   0.9463 B(  1-C ,  8-F ) :   0.2002 B(  1-C ,  9-F ) :   0.1269
B(  1-C , 14-F ) :   0.1893 B(  1-C , 15-F ) :   0.1670 B(  2-C ,  4-C ) :   0.8558
B(  2-C ,  8-F ) :   0.1286 B(  2-C ,  9-F ) :   0.1936 B(  2-C , 16-F ) :   0.2908
B(  2-C , 17-F ) :   0.2758 B(  3-C ,  5-C ) :   0.8558 B(  3-C , 10-F ) :   0.1286
B(  3-C , 11-F ) :   0.1936 B(  3-C , 18-F ) :   0.2758 B(  3-C , 19-F ) :   0.2908
B(  4-C ,  6-C ) :   0.9868 B(  4-C , 12-F ) :   0.1054 B(  4-C , 13-F ) :   0.1048
B(  4-C , 20-F ) :   0.2522 B(  4-C , 21-F ) :   0.2186 B(  4-C , 22-F ) :   0.1373
B(  5-C ,  7-C ) :   0.9868 B(  5-C , 14-F ) :   0.1054 B(  5-C , 15-F ) :   0.1048
B(  5-C , 23-F ) :   0.2186 B(  5-C , 24-F ) :   0.2522 B(  5-C , 25-F ) :   0.1373
B(  6-C , 20-F ) :   0.1120 B(  6-C , 21-F ) :   0.1737 B(  6-C , 22-F ) :   0.2337
B(  7-C , 23-F ) :   0.1737 B(  7-C , 24-F ) :   0.1120 B(  7-C , 25-F ) :   0.2337

MP2 TOTAL ENERGY:    -2097.782335547 Eh
FINAL SINGLE POINT ENERGY     -2097.782335547256

DIPOLE MOMENT
-------------
                                X             Y             Z
Electronic contribution:      0.00000      -0.00000       0.12849
Nuclear contribution   :      0.00000      -0.00000      -0.08688
                        -----------------------------------------
Total Dipole Moment    :      0.00000      -0.00000       0.04161
                        -----------------------------------------
Magnitude (a.u.)       :      0.04161
Magnitude (Debye)      :      0.10575

Rotational constants in cm-1:     0.020324     0.003205     0.003176
Rotational constants in MHz :   609.286113    96.075565    95.223232

                             ****ORCA TERMINATED NORMALLY****
TOTAL RUN TIME: 0 days 0 hours 6 minutes 34 seconds 243 msec
