                         Program Version 5.0.3 -  RELEASE  -
|  1> !ri-mp2 aug-cc-pvdz aug-cc-pvdz/c tightscf
|  2> %pal nprocs 16 end
|  3>
|  4> * xyz 0 1
|  5> O      2.762394   -1.105018    0.003022
|  6> C      2.156561    0.114744    0.002536
|  7> O      2.803915    1.137760    0.005269
|  8> C      0.686414    0.034495   -0.001330
|  9> C     -0.049953    1.223608   -0.002784
| 10> C     -1.429416    1.203832   -0.004972
| 11> C     -2.123979   -0.016126   -0.004799
| 12> N     -3.503279   -0.040515   -0.054095
| 13> C     -1.386039   -1.209122   -0.004321
| 14> C     -0.004739   -1.181360   -0.002372
| 15> H      3.714017   -0.931351    0.005078
| 16> H      0.483823    2.163304   -0.001130
| 17> H     -1.984440    2.133422   -0.009930
| 18> H     -3.992208    0.795011    0.217353
| 19> H     -3.962914   -0.892079    0.218605
| 20> H     -1.907089   -2.158183   -0.008827
| 21> H      0.548189   -2.108876   -0.000570
| 22> *
| 23>
| 24>                          ****END OF INPUT****

CARTESIAN COORDINATES (ANGSTROEM)
---------------------------------
  O      2.762394   -1.105018    0.003022
  C      2.156561    0.114744    0.002536
  O      2.803915    1.137760    0.005269
  C      0.686414    0.034495   -0.001330
  C     -0.049953    1.223608   -0.002784
  C     -1.429416    1.203832   -0.004972
  C     -2.123979   -0.016126   -0.004799
  N     -3.503279   -0.040515   -0.054095
  C     -1.386039   -1.209122   -0.004321
  C     -0.004739   -1.181360   -0.002372
  H      3.714017   -0.931351    0.005078
  H      0.483823    2.163304   -0.001130
  H     -1.984440    2.133422   -0.009930
  H     -3.992208    0.795011    0.217353
  H     -3.962914   -0.892079    0.218605
  H     -1.907089   -2.158183   -0.008827
  H      0.548189   -2.108876   -0.000570

 Total Charge           Charge          ....    0
 Multiplicity           Mult            ....    1
 Number of Electrons    NEL             ....   72
 Basis Dimension        Dim             ....  293

ORBITAL ENERGIES
----------------

  NO   OCC          E(Eh)            E(eV)
   0   2.0000     -20.612275      -560.8885
   1   2.0000     -20.546642      -559.1026
   2   2.0000     -15.592508      -424.2937
   3   2.0000     -11.388602      -309.8996
   4   2.0000     -11.309060      -307.7352
   5   2.0000     -11.260916      -306.4251
   6   2.0000     -11.258008      -306.3460
   7   2.0000     -11.241695      -305.9021
   8   2.0000     -11.240419      -305.8673
   9   2.0000     -11.240011      -305.8562
  10   2.0000      -1.458257       -39.6812
  11   2.0000      -1.353249       -36.8238
  12   2.0000      -1.249987       -34.0139
  13   2.0000      -1.153092       -31.3772
  14   2.0000      -1.033369       -28.1194
  15   2.0000      -1.026370       -27.9290
  16   2.0000      -0.888306       -24.1720
  17   2.0000      -0.853696       -23.2303
  18   2.0000      -0.801249       -21.8031
  19   2.0000      -0.730969       -19.8907
  20   2.0000      -0.718166       -19.5423
  21   2.0000      -0.694665       -18.9028
  22   2.0000      -0.688986       -18.7483
  23   2.0000      -0.632901       -17.2221
  24   2.0000      -0.624306       -16.9882
  25   2.0000      -0.608663       -16.5626
  26   2.0000      -0.600776       -16.3479
  27   2.0000      -0.591115       -16.0851
  28   2.0000      -0.555013       -15.1027
  29   2.0000      -0.544333       -14.8121
  30   2.0000      -0.501279       -13.6405
  31   2.0000      -0.484670       -13.1885
  32   2.0000      -0.456299       -12.4165
  33   2.0000      -0.447266       -12.1707
  34   2.0000      -0.353168        -9.6102
  35   2.0000      -0.310192        -8.4407
  36   0.0000       0.025356         0.6900
  37   0.0000       0.037927         1.0321
  38   0.0000       0.041928         1.1409
  39   0.0000       0.052032         1.4159
  40   0.0000       0.060610         1.6493

MULLIKEN ATOMIC CHARGES
-----------------------
   0 O :   -0.880848
   1 C :    0.813150
   2 O :   -0.797159
   3 C :    1.388593
   4 C :    0.137056
   5 C :    0.879724
   6 C :   -0.086473
   7 N :   -0.359699
   8 C :    0.701240
   9 C :    0.417300
  10 H :    0.304015
  11 H :   -0.662174
  12 H :   -0.587715
  13 H :   -0.042575
  14 H :   -0.043747
  15 H :   -0.602747
  16 H :   -0.577942
Sum of atomic charges:    0.0000000

LOEWDIN ATOMIC CHARGES
----------------------
   0 O :    0.197759
   1 C :   -0.323232
   2 O :    0.029751
   3 C :   -0.150708
   4 C :    0.071768
   5 C :    0.059801
   6 C :   -0.221046
   7 N :    0.252789
   8 C :    0.056576
   9 C :    0.065681
  10 H :   -0.023028
  11 H :    0.016803
  12 H :    0.002405
  13 H :   -0.022743
  14 H :   -0.022868
  15 H :    0.001588
  16 H :    0.008705

  Mayer bond orders larger than 0.100000
B(  0-O ,  1-C ) :   0.1434 B(  0-O ,  2-O ) :   0.1056 B(  0-O ,  3-C ) :   0.1890
B(  0-O ,  9-C ) :   0.1541 B(  0-O , 10-H ) :   0.9352 B(  1-C ,  2-O ) :   1.3367
B(  1-C ,  3-C ) :   0.1233 B(  1-C ,  4-C ) :  -0.7294 B(  1-C ,  5-C ) :   0.3339
B(  1-C ,  8-C ) :   0.3120 B(  1-C ,  9-C ) :  -0.4315 B(  3-C ,  4-C ) :   1.6809
B(  3-C ,  5-C ) :  -0.8989 B(  3-C ,  6-C ) :   0.2610 B(  3-C ,  8-C ) :  -0.7296
B(  3-C ,  9-C ) :   2.1336 B(  3-C , 11-H ) :   0.6867 B(  3-C , 12-H ) :  -0.1521
B(  3-C , 15-H ) :  -0.1367 B(  3-C , 16-H ) :   0.5030 B(  4-C ,  5-C ) :   2.5634
B(  4-C ,  8-C ) :   0.2027 B(  4-C ,  9-C ) :  -1.1997 B(  4-C , 11-H ) :  -0.3043
B(  4-C , 12-H ) :   0.3637 B(  5-C ,  6-C ) :   1.0966 B(  5-C ,  8-C ) :   0.2120
B(  5-C , 11-H ) :   0.3048 B(  5-C , 12-H ) :  -0.4668 B(  6-C ,  7-N ) :   0.8429
B(  6-C ,  8-C ) :   1.3657 B(  6-C , 11-H ) :  -0.2108 B(  6-C , 12-H ) :   0.7895
B(  6-C , 13-H ) :  -0.1238 B(  6-C , 14-H ) :  -0.1317 B(  6-C , 15-H ) :   0.7280
B(  6-C , 16-H ) :  -0.1685 B(  7-N , 13-H ) :   1.1160 B(  7-N , 14-H ) :   1.1182
B(  8-C ,  9-C ) :   2.0894 B(  8-C , 15-H ) :  -0.4312 B(  8-C , 16-H ) :   0.3734
B(  9-C , 15-H ) :   0.3977 B(  9-C , 16-H ) :  -0.1410

MP2 TOTAL ENERGY:     -474.929332731 Eh
FINAL SINGLE POINT ENERGY      -474.929332730620

DIPOLE MOMENT
-------------
                                X             Y             Z
Electronic contribution:      5.46041       0.36876      -0.10523
Nuclear contribution   :     -6.93513      -0.98452       0.41452
                        -----------------------------------------
Total Dipole Moment    :     -1.47472      -0.61576       0.30929
                        -----------------------------------------
Magnitude (a.u.)       :      1.62776
Magnitude (Debye)      :      4.13745

Rotational constants in cm-1:     0.128627     0.026468     0.021959
Rotational constants in MHz :  3856.131661   793.495688   658.307173

                             ****ORCA TERMINATED NORMALLY****
TOTAL RUN TIME: 0 days 0 hours 1 minutes 38 seconds 805 msec
