                         Program Version 5.0.3 -  RELEASE  -
|  1> !ri-mp2 aug-cc-pvdz aug-cc-pvdz/c tightscf
|  2> %pal nprocs 16 end
|  3>
|  4> * xyz 0 1
|  5> C     -0.053693    2.019437        0.000000
|  6> C      1.204654   -1.469386        0.000000
|  7> C      1.220966   -0.085509        0.000000
|  8> C     -0.022972   -2.123259        0.000000
|  9> C     -1.181722   -0.159565        0.000000
| 10> C      0.000000    0.592498        0.000000
| 11> N     -0.100145    3.170672        0.000000
| 12> N     -1.195466   -1.486799        0.000000
| 13> H      2.124938   -2.035655        0.000000
| 14> H      2.150017    0.466484        0.000000
| 15> H     -0.067713   -3.205810        0.000000
| 16> H     -2.141358    0.342572        0.000000
| 17> *
| 18>
| 19>                          ****END OF INPUT****

CARTESIAN COORDINATES (ANGSTROEM)
---------------------------------
  C     -0.053693    2.019437    0.000000
  C      1.204654   -1.469386    0.000000
  C      1.220966   -0.085509    0.000000
  C     -0.022972   -2.123259    0.000000
  C     -1.181722   -0.159565    0.000000
  C      0.000000    0.592498    0.000000
  N     -0.100145    3.170672    0.000000
  N     -1.195466   -1.486799    0.000000
  H      2.124938   -2.035655    0.000000
  H      2.150017    0.466484    0.000000
  H     -0.067713   -3.205810    0.000000
  H     -2.141358    0.342572    0.000000

 Total Charge           Charge          ....    0
 Multiplicity           Mult            ....    1
 Number of Electrons    NEL             ....   54
 Basis Dimension        Dim             ....  220

ORBITAL ENERGIES
----------------

  NO   OCC          E(Eh)            E(eV)
   0   2.0000     -15.602306      -424.5603
   1   2.0000     -15.593332      -424.3161
   2   2.0000     -11.319399      -308.0165
   3   2.0000     -11.314349      -307.8791
   4   2.0000     -11.303983      -307.5970
   5   2.0000     -11.302108      -307.5460
   6   2.0000     -11.295138      -307.3563
   7   2.0000     -11.275545      -306.8232
   8   2.0000      -1.298206       -35.3260
   9   2.0000      -1.237360       -33.6703
  10   2.0000      -1.135014       -30.8853
  11   2.0000      -1.080416       -29.3996
  12   2.0000      -0.921129       -25.0652
  13   2.0000      -0.897433       -24.4204
  14   2.0000      -0.781496       -21.2656
  15   2.0000      -0.729085       -19.8394
  16   2.0000      -0.704968       -19.1832
  17   2.0000      -0.643694       -17.5158
  18   2.0000      -0.610549       -16.6139
  19   2.0000      -0.586006       -15.9460
  20   2.0000      -0.578325       -15.7370
  21   2.0000      -0.558706       -15.2032
  22   2.0000      -0.507135       -13.7998
  23   2.0000      -0.486193       -13.2300
  24   2.0000      -0.443943       -12.0803
  25   2.0000      -0.411392       -11.1946
  26   2.0000      -0.371471       -10.1082
  27   0.0000       0.025016         0.6807
  28   0.0000       0.039721         1.0809
  29   0.0000       0.044432         1.2091
  30   0.0000       0.054072         1.4714
  31   0.0000       0.056879         1.5478

MULLIKEN ATOMIC CHARGES
-----------------------
   0 C :   -0.900945
   1 C :    0.501506
   2 C :    0.159581
   3 C :    0.490579
   4 C :    0.681470
   5 C :    1.609903
   6 N :   -0.272131
   7 N :   -0.702798
   8 H :   -0.392230
   9 H :   -0.490920
  10 H :   -0.313501
  11 H :   -0.370515
Sum of atomic charges:    0.0000000

LOEWDIN ATOMIC CHARGES
----------------------
   0 C :   -0.126145
   1 C :    0.035014
   2 C :    0.077502
   3 C :   -0.006462
   4 C :    0.031039
   5 C :   -0.203165
   6 N :    0.091744
   7 N :    0.044340
   8 H :    0.004517
   9 H :    0.024060
  10 H :    0.008607
  11 H :    0.018950

  Mayer bond orders larger than 0.100000
B(  0-C ,  2-C ) :  -0.3440 B(  0-C ,  4-C ) :  -0.1643 B(  0-C ,  6-N ) :   2.5083
B(  1-C ,  2-C ) :   1.8371 B(  1-C ,  3-C ) :   1.3459 B(  1-C ,  7-N ) :  -0.1050
B(  1-C ,  8-H ) :   0.5551 B(  1-C ,  9-H ) :   0.1298 B(  2-C ,  3-C ) :   0.1695
B(  2-C ,  4-C ) :  -0.3101 B(  2-C ,  5-C ) :   1.2402 B(  2-C ,  8-H ) :   0.2110
B(  2-C ,  9-H ) :   0.3961 B(  2-C , 11-H ) :   0.1133 B(  3-C ,  7-N ) :   1.3616
B(  3-C , 10-H ) :   0.8563 B(  4-C ,  5-C ) :   1.2076 B(  4-C ,  7-N ) :   1.2730
B(  4-C , 11-H ) :   0.8626 B(  5-C ,  6-N ) :  -0.1201 B(  5-C ,  9-H ) :   0.1938

MP2 TOTAL ENERGY:     -339.579645864 Eh
FINAL SINGLE POINT ENERGY      -339.579645864139

DIPOLE MOMENT
-------------
                                X             Y             Z
Electronic contribution:     -1.15223       2.84010       0.00000
Nuclear contribution   :      2.00498      -4.30800       0.00000
                        -----------------------------------------
Total Dipole Moment    :      0.85275      -1.46790       0.00000
                        -----------------------------------------
Magnitude (a.u.)       :      1.69762
Magnitude (Debye)      :      4.31501

Rotational constants in cm-1:     0.195958     0.052644     0.041496
Rotational constants in MHz :  5874.685155  1578.228660  1244.023037

                             ****ORCA TERMINATED NORMALLY****
TOTAL RUN TIME: 0 days 0 hours 1 minutes 13 seconds 900 msec
