                         Program Version 5.0.3 -  RELEASE  -
|  1> !ri-mp2 aug-cc-pvdz aug-cc-pvdz/c tightscf
|  2> %pal nprocs 16 end
|  3>
|  4> * xyz 0 1
|  5> C      0.996293   -0.222905    0.000000
|  6> C     -1.458518    0.470962    0.000000
|  7> C      0.000000    0.905538    0.000000
|  8> O      0.716194   -1.394736    0.000000
|  9> H      2.059410    0.097311    0.000000
| 10> H     -1.685732   -0.133233    0.877361
| 11> H     -1.685732   -0.133233   -0.877361
| 12> H     -2.117948    1.338361    0.000000
| 13> H      0.236898    1.533556   -0.867218
| 14> H      0.236898    1.533556    0.867218
| 15> *
| 16>
| 17>                          ****END OF INPUT****

CARTESIAN COORDINATES (ANGSTROEM)
---------------------------------
  C      0.996293   -0.222905    0.000000
  C     -1.458518    0.470962    0.000000
  C      0.000000    0.905538    0.000000
  O      0.716194   -1.394736    0.000000
  H      2.059410    0.097311    0.000000
  H     -1.685732   -0.133233    0.877361
  H     -1.685732   -0.133233   -0.877361
  H     -2.117948    1.338361    0.000000
  H      0.236898    1.533556   -0.867218
  H      0.236898    1.533556    0.867218

 Total Charge           Charge          ....    0
 Multiplicity           Mult            ....    1
 Number of Electrons    NEL             ....   32
 Basis Dimension        Dim             ....  146

ORBITAL ENERGIES
----------------

  NO   OCC          E(Eh)            E(eV)
   0   2.0000     -20.568379      -559.6940
   1   2.0000     -11.340575      -308.5927
   2   2.0000     -11.251694      -306.1742
   3   2.0000     -11.229555      -305.5717
   4   2.0000      -1.401018       -38.1236
   5   2.0000      -1.063668       -28.9439
   6   2.0000      -0.913503       -24.8577
   7   2.0000      -0.774060       -21.0633
   8   2.0000      -0.682154       -18.5624
   9   2.0000      -0.633792       -17.2463
  10   2.0000      -0.630876       -17.1670
  11   2.0000      -0.543446       -14.7879
  12   2.0000      -0.530550       -14.4370
  13   2.0000      -0.520554       -14.1650
  14   2.0000      -0.491555       -13.3759
  15   2.0000      -0.420116       -11.4319
  16   0.0000       0.032022         0.8714
  17   0.0000       0.043640         1.1875
  18   0.0000       0.048759         1.3268
  19   0.0000       0.055203         1.5021
  20   0.0000       0.070152         1.9089

MULLIKEN ATOMIC CHARGES
-----------------------
   0 C :    0.692379
   1 C :    0.477465
   2 C :   -0.157573
   3 O :   -0.672930
   4 H :   -0.107665
   5 H :   -0.060975
   6 H :   -0.060975
   7 H :   -0.058157
   8 H :   -0.025785
   9 H :   -0.025785
Sum of atomic charges:   -0.0000000

LOEWDIN ATOMIC CHARGES
----------------------
   0 C :   -0.096530
   1 C :    0.136829
   2 C :   -0.064155
   3 O :    0.024656
   4 H :    0.013412
   5 H :   -0.014193
   6 H :   -0.014193
   7 H :   -0.019502
   8 H :    0.016838
   9 H :    0.016838

  Mayer bond orders larger than 0.100000
B(  0-C ,  2-C ) :   1.2210 B(  0-C ,  3-O ) :   1.6153 B(  0-C ,  4-H ) :   0.8473
B(  1-C ,  2-C ) :   1.2361 B(  1-C ,  5-H ) :   0.9417 B(  1-C ,  6-H ) :   0.9417
B(  1-C ,  7-H ) :   0.8942 B(  2-C ,  8-H ) :   0.8793 B(  2-C ,  9-H ) :   0.8793

MP2 TOTAL ENERGY:     -192.605174722 Eh
FINAL SINGLE POINT ENERGY      -192.605174721779

DIPOLE MOMENT
-------------
                                X             Y             Z
Electronic contribution:      3.10178      -3.13189       0.00000
Nuclear contribution   :     -3.04725       4.36078       0.00000
                        -----------------------------------------
Total Dipole Moment    :      0.05452       1.22889       0.00000
                        -----------------------------------------
Magnitude (a.u.)       :      1.23010
Magnitude (Debye)      :      3.12666

Rotational constants in cm-1:     0.564820     0.193804     0.152292
Rotational constants in MHz : 16932.863654  5810.094785  4565.593283

                             ****ORCA TERMINATED NORMALLY****
TOTAL RUN TIME: 0 days 0 hours 0 minutes 47 seconds 896 msec
