                         Program Version 5.0.3 -  RELEASE  -
|  1> !ri-mp2 aug-cc-pvdz aug-cc-pvdz/c tightscf
|  2> %pal nprocs 16 end
|  3>
|  4> * xyz 0 1
|  5> O     -0.000002    1.727755    0.000063
|  6> C      0.000000    0.513409   -0.000056
|  7> C     -1.221816   -0.263144   -0.000092
|  8> C      1.221818   -0.263140   -0.000093
|  9> C     -2.237923   -0.902147    0.000052
| 10> C      2.237924   -0.902146    0.000041
| 11> H     -3.142391   -1.459515    0.000203
| 12> H      3.142392   -1.459515    0.000184
| 13> *
| 14>
| 15>                          ****END OF INPUT****

CARTESIAN COORDINATES (ANGSTROEM)
---------------------------------
  O     -0.000002    1.727755    0.000063
  C      0.000000    0.513409   -0.000056
  C     -1.221816   -0.263144   -0.000092
  C      1.221818   -0.263140   -0.000093
  C     -2.237923   -0.902147    0.000052
  C      2.237924   -0.902146    0.000041
  H     -3.142391   -1.459515    0.000203
  H      3.142392   -1.459515    0.000184

 Total Charge           Charge          ....    0
 Multiplicity           Mult            ....    1
 Number of Electrons    NEL             ....   40
 Basis Dimension        Dim             ....  156

ORBITAL ENERGIES
----------------

  NO   OCC          E(Eh)            E(eV)
   0   2.0000     -20.596423      -560.4572
   1   2.0000     -11.405643      -310.3633
   2   2.0000     -11.284073      -307.0552
   3   2.0000     -11.284069      -307.0551
   4   2.0000     -11.273616      -306.7707
   5   2.0000     -11.273603      -306.7703
   6   2.0000      -1.428555       -38.8730
   7   2.0000      -1.098858       -29.9014
   8   2.0000      -1.063640       -28.9431
   9   2.0000      -0.947244       -25.7758
  10   2.0000      -0.808784       -22.0081
  11   2.0000      -0.743952       -20.2440
  12   2.0000      -0.724416       -19.7124
  13   2.0000      -0.680514       -18.5177
  14   2.0000      -0.589387       -16.0380
  15   2.0000      -0.486996       -13.2518
  16   2.0000      -0.452876       -12.3234
  17   2.0000      -0.431075       -11.7301
  18   2.0000      -0.428721       -11.6661
  19   2.0000      -0.419629       -11.4187
  20   0.0000       0.030712         0.8357
  21   0.0000       0.032215         0.8766
  22   0.0000       0.036027         0.9803
  23   0.0000       0.082384         2.2418
  24   0.0000       0.084890         2.3100

MULLIKEN ATOMIC CHARGES
-----------------------
   0 O :   -0.761026
   1 C :    0.441789
   2 C :   -0.121731
   3 C :   -0.121735
   4 C :    0.754876
   5 C :    0.754874
   6 H :   -0.473525
   7 H :   -0.473523
Sum of atomic charges:   -0.0000000

LOEWDIN ATOMIC CHARGES
----------------------
   0 O :    0.086209
   1 C :   -0.383822
   2 C :   -0.019809
   3 C :   -0.019809
   4 C :    0.256180
   5 C :    0.256180
   6 H :   -0.087565
   7 H :   -0.087564

  Mayer bond orders larger than 0.100000
B(  0-O ,  1-C ) :   1.3875 B(  1-C ,  2-C ) :   1.1953 B(  1-C ,  3-C ) :   1.1953
B(  2-C ,  3-C ) :  -0.1005 B(  2-C ,  4-C ) :   2.6192 B(  2-C ,  6-H ) :   0.2918
B(  3-C ,  5-C ) :   2.6192 B(  3-C ,  7-H ) :   0.2918 B(  4-C ,  5-C ) :   0.2197
B(  4-C ,  6-H ) :   0.1683 B(  5-C ,  7-H ) :   0.1683

MP2 TOTAL ENERGY:     -266.068903944 Eh
FINAL SINGLE POINT ENERGY      -266.068903943925

DIPOLE MOMENT
-------------
                                X             Y             Z
Electronic contribution:      0.00000       1.37011      -0.00029
Nuclear contribution   :      0.00000      -2.78263       0.00037
                        -----------------------------------------
Total Dipole Moment    :      0.00000      -1.41252       0.00009
                        -----------------------------------------
Magnitude (a.u.)       :      1.41252
Magnitude (Debye)      :      3.59035

Rotational constants in cm-1:     0.220858     0.095740     0.066788
Rotational constants in MHz :  6621.159046  2870.208993  2002.251965

                             ****ORCA TERMINATED NORMALLY****
TOTAL RUN TIME: 0 days 0 hours 0 minutes 41 seconds 413 msec
