                         Program Version 5.0.3 -  RELEASE  -
|  1> !ri-mp2 aug-cc-pvdz aug-cc-pvdz/c tightscf
|  2> %pal nprocs 16 end
|  3>
|  4> * xyz 0 1
|  5> C      0.088227   -0.640097    0.000000
|  6> C     -0.628654    0.743753    0.000000
|  7> Cl     1.853861   -0.454917    0.000000
|  8> F     -0.297556   -1.321635    1.086547
|  9> F     -0.297556   -1.321635   -1.086547
| 10> F     -1.951228    0.550467    0.000000
| 11> F     -0.297556    1.441493    1.086607
| 12> F     -0.297556    1.441493   -1.086607
| 13> *
| 14>
| 15>                          ****END OF INPUT****

CARTESIAN COORDINATES (ANGSTROEM)
---------------------------------
  C      0.088227   -0.640097    0.000000
  C     -0.628654    0.743753    0.000000
  Cl     1.853861   -0.454917    0.000000
  F     -0.297556   -1.321635    1.086547
  F     -0.297556   -1.321635   -1.086547
  F     -1.951228    0.550467    0.000000
  F     -0.297556    1.441493    1.086607
  F     -0.297556    1.441493   -1.086607

 Total Charge           Charge          ....    0
 Multiplicity           Mult            ....    1
 Number of Electrons    NEL             ....   74
 Basis Dimension        Dim             ....  188

ORBITAL ENERGIES
----------------

  NO   OCC          E(Eh)            E(eV)
   0   2.0000    -104.887760     -2854.1411
   1   2.0000     -26.389473      -718.0941
   2   2.0000     -26.389452      -718.0935
   3   2.0000     -26.388955      -718.0800
   4   2.0000     -26.388935      -718.0794
   5   2.0000     -26.387554      -718.0419
   6   2.0000     -11.566123      -314.7302
   7   2.0000     -11.539199      -313.9976
   8   2.0000     -10.614394      -288.8324
   9   2.0000      -8.082139      -219.9262
  10   2.0000      -8.078433      -219.8253
  11   2.0000      -8.078364      -219.8235
  12   2.0000      -1.777861       -48.3781
  13   2.0000      -1.739214       -47.3264
  14   2.0000      -1.682854       -45.7928
  15   2.0000      -1.677392       -45.6441
  16   2.0000      -1.672072       -45.4994
  17   2.0000      -1.196959       -32.5709
  18   2.0000      -1.067456       -29.0469
  19   2.0000      -0.956789       -26.0356
  20   2.0000      -0.886970       -24.1357
  21   2.0000      -0.871096       -23.7037
  22   2.0000      -0.864526       -23.5249
  23   2.0000      -0.826202       -22.4821
  24   2.0000      -0.802921       -21.8486
  25   2.0000      -0.756413       -20.5830
  26   2.0000      -0.743110       -20.2210
  27   2.0000      -0.739053       -20.1106
  28   2.0000      -0.728942       -19.8355
  29   2.0000      -0.702223       -19.1085
  30   2.0000      -0.698886       -19.0177
  31   2.0000      -0.688299       -18.7296
  32   2.0000      -0.682717       -18.5777
  33   2.0000      -0.652131       -17.7454
  34   2.0000      -0.572328       -15.5738
  35   2.0000      -0.509991       -13.8776
  36   2.0000      -0.508443       -13.8354
  37   0.0000       0.067086         1.8255
  38   0.0000       0.076963         2.0943
  39   0.0000       0.082926         2.2565
  40   0.0000       0.094346         2.5673
  41   0.0000       0.107853         2.9348

MULLIKEN ATOMIC CHARGES
-----------------------
   0 C :    0.970973
   1 C :    1.988728
   2 Cl:   -0.105074
   3 F :   -0.575592
   4 F :   -0.575592
   5 F :   -0.579470
   6 F :   -0.561987
   7 F :   -0.561987
Sum of atomic charges:   -0.0000000

LOEWDIN ATOMIC CHARGES
----------------------
   0 C :   -0.640850
   1 C :   -0.393369
   2 Cl:    0.600175
   3 F :    0.065421
   4 F :    0.065421
   5 F :    0.105843
   6 F :    0.098680
   7 F :    0.098680

  Mayer bond orders larger than 0.100000
B(  0-C ,  1-C ) :   1.0389 B(  0-C ,  2-Cl) :   1.2046 B(  0-C ,  3-F ) :   0.3714
B(  0-C ,  4-F ) :   0.3714 B(  0-C ,  5-F ) :   0.1222 B(  1-C ,  3-F ) :   0.1245
B(  1-C ,  4-F ) :   0.1245 B(  1-C ,  5-F ) :   0.3636 B(  1-C ,  6-F ) :   0.4046
B(  1-C ,  7-F ) :   0.4046

MP2 TOTAL ENERGY:    -1033.928276646 Eh
FINAL SINGLE POINT ENERGY     -1033.928276645662

DIPOLE MOMENT
-------------
                                X             Y             Z
Electronic contribution:     -0.16055       0.11878      -0.00000
Nuclear contribution   :      0.40509      -0.11656       0.00000
                        -----------------------------------------
Total Dipole Moment    :      0.24454       0.00222      -0.00000
                        -----------------------------------------
Magnitude (a.u.)       :      0.24455
Magnitude (Debye)      :      0.62159

Rotational constants in cm-1:     0.077710     0.049841     0.044867
Rotational constants in MHz :  2329.677006  1494.184545  1345.087955

                             ****ORCA TERMINATED NORMALLY****
TOTAL RUN TIME: 0 days 0 hours 0 minutes 50 seconds 53 msec
