                         Program Version 5.0.3 -  RELEASE  -
|  1> !ri-mp2 aug-cc-pvdz aug-cc-pvdz/c tightscf
|  2> %pal nprocs 16 end
|  3>
|  4> * xyz 0 1
|  5> C      0.000000    1.130554    0.695666
|  6> N      0.000000    0.000000    1.399240
|  7> C      0.000000    1.130554   -0.695666
|  8> C      0.000000   -1.130554    0.695666
|  9> N      0.000000    0.000000   -1.399240
| 10> C      0.000000   -1.130554   -0.695666
| 11> H      0.000000   -2.060631   -1.251616
| 12> H      0.000000    2.060631   -1.251616
| 13> H      0.000000   -2.060631    1.251616
| 14> H      0.000000    2.060631    1.251616
| 15> *
| 16>
| 17>                          ****END OF INPUT****

CARTESIAN COORDINATES (ANGSTROEM)
---------------------------------
  C      0.000000    1.130554    0.695666
  N      0.000000    0.000000    1.399240
  C      0.000000    1.130554   -0.695666
  C      0.000000   -1.130554    0.695666
  N      0.000000    0.000000   -1.399240
  C      0.000000   -1.130554   -0.695666
  H      0.000000   -2.060631   -1.251616
  H      0.000000    2.060631   -1.251616
  H      0.000000   -2.060631    1.251616
  H      0.000000    2.060631    1.251616

 Total Charge           Charge          ....    0
 Multiplicity           Mult            ....    1
 Number of Electrons    NEL             ....   42
 Basis Dimension        Dim             ....  174

ORBITAL ENERGIES
----------------

  NO   OCC          E(Eh)            E(eV)
   0   2.0000     -15.602080      -424.5542
   1   2.0000     -15.602062      -424.5537
   2   2.0000     -11.291923      -307.2688
   3   2.0000     -11.291880      -307.2677
   4   2.0000     -11.290693      -307.2354
   5   2.0000     -11.290684      -307.2351
   6   2.0000      -1.315134       -35.7866
   7   2.0000      -1.225762       -33.3547
   8   2.0000      -1.058963       -28.8158
   9   2.0000      -0.904992       -24.6261
  10   2.0000      -0.893843       -24.3227
  11   2.0000      -0.730211       -19.8701
  12   2.0000      -0.708656       -19.2835
  13   2.0000      -0.679226       -18.4827
  14   2.0000      -0.613106       -16.6835
  15   2.0000      -0.577761       -15.7217
  16   2.0000      -0.554118       -15.0783
  17   2.0000      -0.500001       -13.6057
  18   2.0000      -0.438366       -11.9285
  19   2.0000      -0.411139       -11.1877
  20   2.0000      -0.360546        -9.8110
  21   0.0000       0.034556         0.9403
  22   0.0000       0.040315         1.0970
  23   0.0000       0.048600         1.3225
  24   0.0000       0.057996         1.5781
  25   0.0000       0.066191         1.8012

MULLIKEN ATOMIC CHARGES
-----------------------
   0 C :    0.611100
   1 N :   -0.727297
   2 C :    0.611100
   3 C :    0.611100
   4 N :   -0.727297
   5 C :    0.611100
   6 H :   -0.247452
   7 H :   -0.247452
   8 H :   -0.247452
   9 H :   -0.247452
Sum of atomic charges:   -0.0000000

LOEWDIN ATOMIC CHARGES
----------------------
   0 C :   -0.021320
   1 N :    0.042146
   2 C :   -0.021320
   3 C :   -0.021320
   4 N :    0.042146
   5 C :   -0.021320
   6 H :    0.000247
   7 H :    0.000247
   8 H :    0.000247
   9 H :    0.000247

  Mayer bond orders larger than 0.100000
B(  0-C ,  1-N ) :   1.2774 B(  0-C ,  2-C ) :   1.2923 B(  0-C ,  9-H ) :   0.9777
B(  1-N ,  3-C ) :   1.2774 B(  2-C ,  4-N ) :   1.2774 B(  2-C ,  7-H ) :   0.9777
B(  3-C ,  5-C ) :   1.2923 B(  3-C ,  8-H ) :   0.9777 B(  4-N ,  5-C ) :   1.2774
B(  5-C ,  6-H ) :   0.9777

MP2 TOTAL ENERGY:     -263.582986718 Eh
FINAL SINGLE POINT ENERGY      -263.582986718139

DIPOLE MOMENT
-------------
                                X             Y             Z
Electronic contribution:      0.00000      -0.00000      -0.00000
Nuclear contribution   :      0.00000       0.00000       0.00000
                        -----------------------------------------
Total Dipole Moment    :      0.00000      -0.00000      -0.00000
                        -----------------------------------------
Magnitude (a.u.)       :      0.00000
Magnitude (Debye)      :      0.00000

Rotational constants in cm-1:     0.214670     0.199699     0.103457
Rotational constants in MHz :  6435.640765  5986.837929  3101.566054

                             ****ORCA TERMINATED NORMALLY****
TOTAL RUN TIME: 0 days 0 hours 0 minutes 45 seconds 529 msec
