                         Program Version 5.0.3 -  RELEASE  -
|  1> !ri-mp2 aug-cc-pvdz aug-cc-pvdz/c tightscf
|  2> %pal nprocs 16 end
|  3>
|  4> * xyz 0 1
|  5> C      1.133555    1.224172   -0.194407
|  6> C      1.181841   -1.187001   -0.202712
|  7> C     -0.343283    1.191042    0.180257
|  8> C     -0.292244   -1.224360    0.177403
|  9> N      1.789141    0.030617    0.328985
| 10> N     -0.969018   -0.030842   -0.322800
| 11> N     -2.357848   -0.114512   -0.018199
| 12> H      1.212514    1.304089   -1.289776
| 13> H      1.599464    2.108612    0.242171
| 14> H      1.688428   -2.052619    0.225623
| 15> H      1.262640   -1.252758   -1.298708
| 16> H     -0.442955    1.259930    1.277609
| 17> H     -0.857002    2.046876   -0.260956
| 18> H     -0.780392   -2.092624   -0.261687
| 19> H     -0.379815   -1.300473    1.273848
| 20> H      2.781405    0.052276    0.136985
| 21> H     -2.540805    0.215439    0.932435
| 22> H     -2.858621    0.491294   -0.656692
| 23> *
| 24>
| 25>                          ****END OF INPUT****

CARTESIAN COORDINATES (ANGSTROEM)
---------------------------------
  C      1.133555    1.224172   -0.194407
  C      1.181841   -1.187001   -0.202712
  C     -0.343283    1.191042    0.180257
  C     -0.292244   -1.224360    0.177403
  N      1.789141    0.030617    0.328985
  N     -0.969018   -0.030842   -0.322800
  N     -2.357848   -0.114512   -0.018199
  H      1.212514    1.304089   -1.289776
  H      1.599464    2.108612    0.242171
  H      1.688428   -2.052619    0.225623
  H      1.262640   -1.252758   -1.298708
  H     -0.442955    1.259930    1.277609
  H     -0.857002    2.046876   -0.260956
  H     -0.780392   -2.092624   -0.261687
  H     -0.379815   -1.300473    1.273848
  H      2.781405    0.052276    0.136985
  H     -2.540805    0.215439    0.932435
  H     -2.858621    0.491294   -0.656692

 Total Charge           Charge          ....    0
 Multiplicity           Mult            ....    1
 Number of Electrons    NEL             ....   56
 Basis Dimension        Dim             ....  260

ORBITAL ENERGIES
----------------

  NO   OCC          E(Eh)            E(eV)
   0   2.0000     -15.578163      -423.9034
   1   2.0000     -15.574264      -423.7973
   2   2.0000     -15.549133      -423.1134
   3   2.0000     -11.253731      -306.2296
   4   2.0000     -11.251791      -306.1768
   5   2.0000     -11.249950      -306.1267
   6   2.0000     -11.244196      -305.9701
   7   2.0000      -1.290655       -35.1205
   8   2.0000      -1.209039       -32.8996
   9   2.0000      -1.066588       -29.0233
  10   2.0000      -1.026856       -27.9422
  11   2.0000      -0.888566       -24.1791
  12   2.0000      -0.863521       -23.4976
  13   2.0000      -0.764579       -20.8052
  14   2.0000      -0.698333       -19.0026
  15   2.0000      -0.669554       -18.2195
  16   2.0000      -0.638662       -17.3789
  17   2.0000      -0.622608       -16.9420
  18   2.0000      -0.605606       -16.4794
  19   2.0000      -0.587859       -15.9965
  20   2.0000      -0.557976       -15.1833
  21   2.0000      -0.539431       -14.6787
  22   2.0000      -0.493760       -13.4359
  23   2.0000      -0.483158       -13.1474
  24   2.0000      -0.471718       -12.8361
  25   2.0000      -0.404149       -10.9975
  26   2.0000      -0.370331       -10.0772
  27   2.0000      -0.362919        -9.8755
  28   0.0000       0.035796         0.9741
  29   0.0000       0.041220         1.1217
  30   0.0000       0.046998         1.2789
  31   0.0000       0.048612         1.3228
  32   0.0000       0.062959         1.7132

MULLIKEN ATOMIC CHARGES
-----------------------
   0 C :    0.679658
   1 C :    0.700356
   2 C :    0.842911
   3 C :    0.847547
   4 N :   -0.616628
   5 N :   -0.920360
   6 N :   -0.072499
   7 H :   -0.111494
   8 H :   -0.196617
   9 H :   -0.197316
  10 H :   -0.115439
  11 H :   -0.150563
  12 H :   -0.267491
  13 H :   -0.276308
  14 H :   -0.122542
  15 H :   -0.100535
  16 H :    0.035975
  17 H :    0.041343
Sum of atomic charges:   -0.0000000

LOEWDIN ATOMIC CHARGES
----------------------
   0 C :   -0.031600
   1 C :   -0.029893
   2 C :   -0.017362
   3 C :   -0.015873
   4 N :    0.035825
   5 N :   -0.169508
   6 N :    0.196148
   7 H :    0.018885
   8 H :    0.015571
   9 H :    0.015618
  10 H :    0.018622
  11 H :    0.022789
  12 H :    0.016991
  13 H :    0.016655
  14 H :    0.023990
  15 H :   -0.020689
  16 H :   -0.047114
  17 H :   -0.049055

  Mayer bond orders larger than 0.100000
B(  0-C ,  2-C ) :   1.2991 B(  0-C ,  4-N ) :   0.9519 B(  0-C ,  7-H ) :   0.8390
B(  0-C ,  8-H ) :   0.8655 B(  1-C ,  3-C ) :   1.2972 B(  1-C ,  4-N ) :   0.9496
B(  1-C ,  9-H ) :   0.8704 B(  1-C , 10-H ) :   0.8389 B(  2-C ,  5-N ) :   0.8304
B(  2-C , 11-H ) :   0.8355 B(  2-C , 12-H ) :   0.8775 B(  3-C ,  5-N ) :   0.9355
B(  3-C ,  6-N ) :  -0.1741 B(  3-C , 13-H ) :   0.8941 B(  3-C , 14-H ) :   0.8328
B(  4-N , 15-H ) :   1.0970 B(  5-N ,  6-N ) :   0.9386 B(  5-N , 11-H ) :   0.1081
B(  5-N , 14-H ) :   0.1116 B(  5-N , 16-H ) :   0.1246 B(  6-N , 16-H ) :   0.9885
B(  6-N , 17-H ) :   1.0128 B(  7-H ,  8-H ) :  -0.1273 B(  9-H , 10-H ) :  -0.1257
B( 11-H , 12-H ) :  -0.1005 B( 13-H , 14-H ) :  -0.1158

MP2 TOTAL ENERGY:     -322.338374329 Eh
FINAL SINGLE POINT ENERGY      -322.338374328672

DIPOLE MOMENT
-------------
                                X             Y             Z
Electronic contribution:     -0.41688      -0.30278      -0.34990
Nuclear contribution   :      0.70269       0.81033       0.33353
                        -----------------------------------------
Total Dipole Moment    :      0.28580       0.50756      -0.01637
                        -----------------------------------------
Magnitude (a.u.)       :      0.58272
Magnitude (Debye)      :      1.48117

Rotational constants in cm-1:     0.157150     0.077951     0.056613
Rotational constants in MHz :  4711.251420  2336.924308  1697.208065

                             ****ORCA TERMINATED NORMALLY****
TOTAL RUN TIME: 0 days 0 hours 1 minutes 35 seconds 0 msec
