                         Program Version 5.0.3 -  RELEASE  -
|  1> !ri-mp2 aug-cc-pvdz aug-cc-pvdz/c tightscf
|  2> %pal nprocs 16 end
|  3>
|  4> * xyz 0 1
|  5> C      1.610317   -1.209436        0.000000
|  6> C      1.329993    0.147978        0.000000
|  7> C      0.543915   -2.101297        0.000000
|  8> C     -0.997140   -0.422562        0.000000
|  9> C      0.000000    0.559527        0.000000
| 10> C     -0.339161    1.998058        0.000000
| 11> N     -0.739333   -1.725611        0.000000
| 12> O     -1.461675    2.444254        0.000000
| 13> H      2.627285   -1.575291        0.000000
| 14> H      2.126453    0.882601        0.000000
| 15> H      0.725761   -3.169850        0.000000
| 16> H     -2.037530   -0.121485        0.000000
| 17> H      0.539218    2.675668        0.000000
| 18> *
| 19>
| 20>                          ****END OF INPUT****

CARTESIAN COORDINATES (ANGSTROEM)
---------------------------------
  C      1.610317   -1.209436    0.000000
  C      1.329993    0.147978    0.000000
  C      0.543915   -2.101297    0.000000
  C     -0.997140   -0.422562    0.000000
  C      0.000000    0.559527    0.000000
  C     -0.339161    1.998058    0.000000
  N     -0.739333   -1.725611    0.000000
  O     -1.461675    2.444254    0.000000
  H      2.627285   -1.575291    0.000000
  H      2.126453    0.882601    0.000000
  H      0.725761   -3.169850    0.000000
  H     -2.037530   -0.121485    0.000000
  H      0.539218    2.675668    0.000000

 Total Charge           Charge          ....    0
 Multiplicity           Mult            ....    1
 Number of Electrons    NEL             ....   56
 Basis Dimension        Dim             ....  229

ORBITAL ENERGIES
----------------

  NO   OCC          E(Eh)            E(eV)
   0   2.0000     -20.575082      -559.8765
   1   2.0000     -15.590332      -424.2345
   2   2.0000     -11.353835      -308.9536
   3   2.0000     -11.304563      -307.6128
   4   2.0000     -11.302317      -307.5517
   5   2.0000     -11.290541      -307.2313
   6   2.0000     -11.265852      -306.5594
   7   2.0000     -11.264854      -306.5323
   8   2.0000      -1.407645       -38.3040
   9   2.0000      -1.283427       -34.9238
  10   2.0000      -1.123887       -30.5825
  11   2.0000      -1.065833       -29.0028
  12   2.0000      -0.921456       -25.0741
  13   2.0000      -0.885051       -24.0835
  14   2.0000      -0.819201       -22.2916
  15   2.0000      -0.737539       -20.0695
  16   2.0000      -0.702976       -19.1290
  17   2.0000      -0.675072       -18.3696
  18   2.0000      -0.643295       -17.5050
  19   2.0000      -0.628858       -17.1121
  20   2.0000      -0.598121       -16.2757
  21   2.0000      -0.577914       -15.7258
  22   2.0000      -0.550205       -14.9718
  23   2.0000      -0.533166       -14.5082
  24   2.0000      -0.453037       -12.3278
  25   2.0000      -0.422575       -11.4989
  26   2.0000      -0.404783       -11.0147
  27   2.0000      -0.364671        -9.9232
  28   0.0000       0.025874         0.7041
  29   0.0000       0.037347         1.0163
  30   0.0000       0.047423         1.2905
  31   0.0000       0.052925         1.4402
  32   0.0000       0.056933         1.5492

MULLIKEN ATOMIC CHARGES
-----------------------
   0 C :    0.457559
   1 C :    0.299873
   2 C :    0.438135
   3 C :    0.520301
   4 C :    0.631422
   5 C :    1.002298
   6 N :   -0.677052
   7 O :   -0.772659
   8 H :   -0.398064
   9 H :   -0.526395
  10 H :   -0.315306
  11 H :   -0.410427
  12 H :   -0.249684
Sum of atomic charges:    0.0000000

LOEWDIN ATOMIC CHARGES
----------------------
   0 C :    0.026915
   1 C :    0.058421
   2 C :   -0.011746
   3 C :    0.037545
   4 C :   -0.171561
   5 C :   -0.067263
   6 N :    0.042228
   7 O :    0.028710
   8 H :    0.000881
   9 H :    0.015837
  10 H :    0.006663
  11 H :    0.016401
  12 H :    0.016968

  Mayer bond orders larger than 0.100000
B(  0-C ,  1-C ) :   1.6246 B(  0-C ,  2-C ) :   1.3249 B(  0-C ,  8-H ) :   0.5548
B(  1-C ,  2-C ) :   0.1801 B(  1-C ,  3-C ) :  -0.4158 B(  1-C ,  4-C ) :   1.5558
B(  1-C ,  5-C ) :  -0.2819 B(  1-C ,  8-H ) :   0.1969 B(  1-C ,  9-H ) :   0.2173
B(  1-C , 11-H ) :   0.1105 B(  2-C ,  6-N ) :   1.3324 B(  2-C , 10-H ) :   0.8714
B(  3-C ,  4-C ) :   1.2403 B(  3-C ,  5-C ) :  -0.2569 B(  3-C ,  6-N ) :   1.3083
B(  3-C , 11-H ) :   0.8258 B(  4-C ,  5-C ) :   1.0819 B(  4-C ,  9-H ) :   0.3278
B(  4-C , 12-H ) :   0.2578 B(  5-C ,  7-O ) :   1.4702 B(  5-C , 12-H ) :   0.5571

MP2 TOTAL ENERGY:     -360.621402716 Eh
FINAL SINGLE POINT ENERGY      -360.621402716196

DIPOLE MOMENT
-------------
                                X             Y             Z
Electronic contribution:     -2.15390       0.91350       0.00000
Nuclear contribution   :      3.88220      -1.25677       0.00000
                        -----------------------------------------
Total Dipole Moment    :      1.72830      -0.34328       0.00000
                        -----------------------------------------
Magnitude (a.u.)       :      1.76206
Magnitude (Debye)      :      4.47881

Rotational constants in cm-1:     0.180010     0.053265     0.041103
Rotational constants in MHz :  5396.571316  1596.847660  1232.230231

                             ****ORCA TERMINATED NORMALLY****
TOTAL RUN TIME: 0 days 0 hours 0 minutes 52 seconds 966 msec
