                         Program Version 5.0.3 -  RELEASE  -
|  1> !ri-mp2 aug-cc-pvdz aug-cc-pvdz/c tightscf
|  2> %pal nprocs 16 end
|  3>
|  4> * xyz 0 1
|  5> H      0.523976   -2.089870    0.151478
|  6> N     -1.558037    0.145643    0.423258
|  7> O     -2.483813    0.541713   -0.169766
|  8> O     -0.642907   -0.522944   -0.431654
|  9> C      1.780908   -0.362548   -0.207690
| 10> H      1.873022   -0.557573   -1.278447
| 11> H      2.615550   -0.879811    0.273817
| 12> C      0.501420   -1.009602    0.298749
| 13> H      0.339389   -0.803022    1.358537
| 14> H      2.807723    1.545267   -0.303725
| 15> H      1.808716    1.348492    1.134869
| 16> H      1.057381    1.676612   -0.426643
| 17> C      1.866715    1.137191    0.065387
| 18> *
| 19>
| 20>                          ****END OF INPUT****

CARTESIAN COORDINATES (ANGSTROEM)
---------------------------------
  H      0.523976   -2.089870    0.151478
  N     -1.558037    0.145643    0.423258
  O     -2.483813    0.541713   -0.169766
  O     -0.642907   -0.522944   -0.431654
  C      1.780908   -0.362548   -0.207690
  H      1.873022   -0.557573   -1.278447
  H      2.615550   -0.879811    0.273817
  C      0.501420   -1.009602    0.298749
  H      0.339389   -0.803022    1.358537
  H      2.807723    1.545267   -0.303725
  H      1.808716    1.348492    1.134869
  H      1.057381    1.676612   -0.426643
  C      1.866715    1.137191    0.065387

 Total Charge           Charge          ....    0
 Multiplicity           Mult            ....    1
 Number of Electrons    NEL             ....   48
 Basis Dimension        Dim             ....  201

ORBITAL ENERGIES
----------------

  NO   OCC          E(Eh)            E(eV)
   0   2.0000     -20.661073      -562.2164
   1   2.0000     -20.629718      -561.3632
   2   2.0000     -15.792595      -429.7384
   3   2.0000     -11.300971      -307.5151
   4   2.0000     -11.241537      -305.8978
   5   2.0000     -11.228728      -305.5492
   6   2.0000      -1.603093       -43.6224
   7   2.0000      -1.399688       -38.0875
   8   2.0000      -1.074250       -29.2318
   9   2.0000      -0.971931       -26.4476
  10   2.0000      -0.905966       -24.6526
  11   2.0000      -0.825476       -22.4623
  12   2.0000      -0.749745       -20.4016
  13   2.0000      -0.718267       -19.5450
  14   2.0000      -0.690179       -18.7807
  15   2.0000      -0.628618       -17.1056
  16   2.0000      -0.620323       -16.8799
  17   2.0000      -0.590326       -16.0636
  18   2.0000      -0.552452       -15.0330
  19   2.0000      -0.533668       -14.5218
  20   2.0000      -0.504236       -13.7210
  21   2.0000      -0.492627       -13.4051
  22   2.0000      -0.459107       -12.4929
  23   2.0000      -0.442200       -12.0329
  24   0.0000       0.034236         0.9316
  25   0.0000       0.043965         1.1964
  26   0.0000       0.047000         1.2789
  27   0.0000       0.055743         1.5168
  28   0.0000       0.070031         1.9056

MULLIKEN ATOMIC CHARGES
-----------------------
   0 H :   -0.199418
   1 N :    0.719085
   2 O :   -0.525605
   3 O :   -0.871587
   4 C :    0.079462
   5 H :   -0.098440
   6 H :   -0.058117
   7 C :    0.862302
   8 H :   -0.076795
   9 H :   -0.085637
  10 H :   -0.082463
  11 H :   -0.057414
  12 C :    0.394628
Sum of atomic charges:   -0.0000000

LOEWDIN ATOMIC CHARGES
----------------------
   0 H :    0.002538
   1 N :    0.004083
   2 O :    0.037403
   3 O :   -0.022091
   4 C :   -0.077979
   5 H :    0.013821
   6 H :    0.014902
   7 C :   -0.039737
   8 H :   -0.006603
   9 H :   -0.019386
  10 H :   -0.018215
  11 H :   -0.021084
  12 C :    0.132349

  Mayer bond orders larger than 0.100000
B(  0-H ,  7-C ) :   0.8851 B(  0-H ,  8-H ) :  -0.1073 B(  1-N ,  2-O ) :   1.4930
B(  1-N ,  3-O ) :   0.8322 B(  3-O ,  7-C ) :   0.4849 B(  4-C ,  5-H ) :   0.8469
B(  4-C ,  6-H ) :   0.8383 B(  4-C ,  7-C ) :   1.2849 B(  4-C , 12-C ) :   1.1937
B(  7-C ,  8-H ) :   0.9240 B(  9-H , 12-C ) :   0.9066 B( 10-H , 12-C ) :   0.9364
B( 11-H , 12-C ) :   0.9531

MP2 TOTAL ENERGY:     -322.804069830 Eh
FINAL SINGLE POINT ENERGY      -322.804069830296

DIPOLE MOMENT
-------------
                                X             Y             Z
Electronic contribution:    -10.11895      -0.58132      -0.50528
Nuclear contribution   :     11.09701       0.24410       0.91356
                        -----------------------------------------
Total Dipole Moment    :      0.97806      -0.33722       0.40829
                        -----------------------------------------
Magnitude (a.u.)       :      1.11221
Magnitude (Debye)      :      2.82701

Rotational constants in cm-1:     0.260837     0.065599     0.056933
Rotational constants in MHz :  7819.683806  1966.604605  1706.799256

                             ****ORCA TERMINATED NORMALLY****
TOTAL RUN TIME: 0 days 0 hours 0 minutes 48 seconds 421 msec
