                         Program Version 5.0.3 -  RELEASE  -
|  1> !ri-mp2 aug-cc-pvdz aug-cc-pvdz/c tightscf
|  2> %pal nprocs 16 end
|  3>
|  4> * xyz 0 1
|  5> C     -1.003940   -0.403757    0.000000
|  6> C     -3.525526   -0.680888    0.000000
|  7> C      3.764809    0.667909    0.000000
|  8> C     -2.349682    0.286562    0.000000
|  9> C      2.310162    1.136229    0.000000
| 10> C      1.344509   -0.032085    0.000000
| 11> O     -0.826705   -1.596688    0.000000
| 12> O      0.000000    0.497494    0.000000
| 13> H     -3.504242   -1.325262    0.877722
| 14> H     -4.466982   -0.131692    0.000000
| 15> H     -3.504242   -1.325262   -0.877722
| 16> H      3.988516    0.063792   -0.881154
| 17> H      4.446920    1.517824    0.000000
| 18> H      3.988516    0.063792    0.881154
| 19> H     -2.378363    0.948115    0.869070
| 20> H     -2.378363    0.948115   -0.869070
| 21> H      2.115703    1.758242   -0.876284
| 22> H      2.115703    1.758242    0.876284
| 23> H      1.474239   -0.663085   -0.880525
| 24> H      1.474239   -0.663085    0.880525
| 25> *
| 26>
| 27>                          ****END OF INPUT****

CARTESIAN COORDINATES (ANGSTROEM)
---------------------------------
  C     -1.003940   -0.403757    0.000000
  C     -3.525526   -0.680888    0.000000
  C      3.764809    0.667909    0.000000
  C     -2.349682    0.286562    0.000000
  C      2.310162    1.136229    0.000000
  C      1.344509   -0.032085    0.000000
  O     -0.826705   -1.596688    0.000000
  O      0.000000    0.497494    0.000000
  H     -3.504242   -1.325262    0.877722
  H     -4.466982   -0.131692    0.000000
  H     -3.504242   -1.325262   -0.877722
  H      3.988516    0.063792   -0.881154
  H      4.446920    1.517824    0.000000
  H      3.988516    0.063792    0.881154
  H     -2.378363    0.948115    0.869070
  H     -2.378363    0.948115   -0.869070
  H      2.115703    1.758242   -0.876284
  H      2.115703    1.758242    0.876284
  H      1.474239   -0.663085   -0.880525
  H      1.474239   -0.663085    0.880525

 Total Charge           Charge          ....    0
 Multiplicity           Mult            ....    1
 Number of Electrons    NEL             ....   64
 Basis Dimension        Dim             ....  292

ORBITAL ENERGIES
----------------

  NO   OCC          E(Eh)            E(eV)
   0   2.0000     -20.605096      -560.6932
   1   2.0000     -20.550814      -559.2161
   2   2.0000     -11.382181      -309.7249
   3   2.0000     -11.290155      -307.2207
   4   2.0000     -11.247857      -306.0697
   5   2.0000     -11.234202      -305.6982
   6   2.0000     -11.228714      -305.5488
   7   2.0000     -11.225122      -305.4511
   8   2.0000      -1.457829       -39.6695
   9   2.0000      -1.358753       -36.9735
  10   2.0000      -1.079415       -29.3724
  11   2.0000      -1.052344       -28.6357
  12   2.0000      -0.953506       -25.9462
  13   2.0000      -0.882842       -24.0234
  14   2.0000      -0.817737       -22.2517
  15   2.0000      -0.768820       -20.9207
  16   2.0000      -0.693632       -18.8747
  17   2.0000      -0.686190       -18.6722
  18   2.0000      -0.666180       -18.1277
  19   2.0000      -0.634754       -17.2725
  20   2.0000      -0.599312       -16.3081
  21   2.0000      -0.593818       -16.1586
  22   2.0000      -0.554707       -15.0944
  23   2.0000      -0.536099       -14.5880
  24   2.0000      -0.528521       -14.3818
  25   2.0000      -0.518648       -14.1131
  26   2.0000      -0.509893       -13.8749
  27   2.0000      -0.496001       -13.4969
  28   2.0000      -0.488366       -13.2891
  29   2.0000      -0.484039       -13.1714
  30   2.0000      -0.454553       -12.3690
  31   2.0000      -0.440352       -11.9826
  32   0.0000       0.034395         0.9359
  33   0.0000       0.037962         1.0330
  34   0.0000       0.046411         1.2629
  35   0.0000       0.047736         1.2990
  36   0.0000       0.054534         1.4839

MULLIKEN ATOMIC CHARGES
-----------------------
   0 C :    0.390835
   1 C :    0.492335
   2 C :    0.455251
   3 C :    0.288224
   4 C :    0.252678
   5 C :    0.846239
   6 O :   -0.698283
   7 O :   -0.746996
   8 H :   -0.062359
   9 H :   -0.053557
  10 H :   -0.062359
  11 H :   -0.071728
  12 H :   -0.079080
  13 H :   -0.071728
  14 H :   -0.083075
  15 H :   -0.083075
  16 H :   -0.158183
  17 H :   -0.158183
  18 H :   -0.198478
  19 H :   -0.198478
Sum of atomic charges:   -0.0000000

LOEWDIN ATOMIC CHARGES
----------------------
   0 C :   -0.333224
   1 C :    0.143197
   2 C :    0.137955
   3 C :   -0.007586
   4 C :   -0.065452
   5 C :    0.000889
   6 O :    0.050636
   7 O :    0.074486
   8 H :   -0.013946
   9 H :   -0.019195
  10 H :   -0.013946
  11 H :   -0.018510
  12 H :   -0.019791
  13 H :   -0.018510
  14 H :    0.021556
  15 H :    0.021556
  16 H :    0.014294
  17 H :    0.014294
  18 H :    0.015649
  19 H :    0.015649

  Mayer bond orders larger than 0.100000
B(  0-C ,  3-C ) :   0.9554 B(  0-C ,  5-C ) :   0.1080 B(  0-C ,  6-O ) :   1.7289
B(  0-C ,  7-O ) :   0.5716 B(  0-C , 14-H ) :   0.1277 B(  0-C , 15-H ) :   0.1277
B(  1-C ,  3-C ) :   1.1457 B(  1-C ,  8-H ) :   0.9454 B(  1-C ,  9-H ) :   0.8946
B(  1-C , 10-H ) :   0.9454 B(  2-C ,  4-C ) :   1.1245 B(  2-C , 11-H ) :   0.9324
B(  2-C , 12-H ) :   0.9190 B(  2-C , 13-H ) :   0.9324 B(  3-C ,  6-O ) :  -0.1192
B(  3-C , 14-H ) :   0.8076 B(  3-C , 15-H ) :   0.8076 B(  4-C ,  5-C ) :   1.2278
B(  4-C , 16-H ) :   0.7622 B(  4-C , 17-H ) :   0.7622 B(  5-C ,  7-O ) :   0.5670
B(  5-C , 16-H ) :   0.1281 B(  5-C , 17-H ) :   0.1281 B(  5-C , 18-H ) :   0.8156
B(  5-C , 19-H ) :   0.8156

MP2 TOTAL ENERGY:     -385.258490773 Eh
FINAL SINGLE POINT ENERGY      -385.258490773229

DIPOLE MOMENT
-------------
                                X             Y             Z
Electronic contribution:     -3.31556      -2.20067       0.00000
Nuclear contribution   :      3.47533       3.03431       0.00000
                        -----------------------------------------
Total Dipole Moment    :      0.15976       0.83364       0.00000
                        -----------------------------------------
Magnitude (a.u.)       :      0.84881
Magnitude (Debye)      :      2.15751

Rotational constants in cm-1:     0.247795     0.025830     0.023906
Rotational constants in MHz :  7428.718624   774.360411   716.680170

                             ****ORCA TERMINATED NORMALLY****
TOTAL RUN TIME: 0 days 0 hours 1 minutes 31 seconds 413 msec
