                         Program Version 5.0.3 -  RELEASE  -
|  1> !ri-mp2 aug-cc-pvdz aug-cc-pvdz/c tightscf
|  2> %pal nprocs 16 end
|  3>
|  4> * xyz 0 1
|  5> C      0.627734    1.332116    0.000000
|  6> C     -0.015015    0.749126    1.262844
|  7> C     -0.015015    0.749126   -1.262844
|  8> C     -0.015015   -0.777813    1.216280
|  9> C     -0.015015   -0.777813   -1.216280
| 10> N     -0.683238   -1.236622    0.000000
| 11> H      0.550093    2.421274    0.000000
| 12> H      1.697146    1.095686    0.000000
| 13> H      0.514966    1.090753    2.154644
| 14> H     -1.048069    1.096853    1.343790
| 15> H     -1.048069    1.096853   -1.343790
| 16> H      0.514966    1.090753   -2.154644
| 17> H      1.028243   -1.134962    1.275130
| 18> H     -0.545722   -1.185262    2.078063
| 19> H     -0.545722   -1.185262   -2.078063
| 20> H      1.028243   -1.134962   -1.275130
| 21> H     -0.769444   -2.243821    0.000000
| 22> *
| 23>
| 24>                          ****END OF INPUT****

CARTESIAN COORDINATES (ANGSTROEM)
---------------------------------
  C      0.627734    1.332116    0.000000
  C     -0.015015    0.749126    1.262844
  C     -0.015015    0.749126   -1.262844
  C     -0.015015   -0.777813    1.216280
  C     -0.015015   -0.777813   -1.216280
  N     -0.683238   -1.236622    0.000000
  H      0.550093    2.421274    0.000000
  H      1.697146    1.095686    0.000000
  H      0.514966    1.090753    2.154644
  H     -1.048069    1.096853    1.343790
  H     -1.048069    1.096853   -1.343790
  H      0.514966    1.090753   -2.154644
  H      1.028243   -1.134962    1.275130
  H     -0.545722   -1.185262    2.078063
  H     -0.545722   -1.185262   -2.078063
  H      1.028243   -1.134962   -1.275130
  H     -0.769444   -2.243821    0.000000

 Total Charge           Charge          ....    0
 Multiplicity           Mult            ....    1
 Number of Electrons    NEL             ....   48
 Basis Dimension        Dim             ....  237

ORBITAL ENERGIES
----------------

  NO   OCC          E(Eh)            E(eV)
   0   2.0000     -15.542567      -422.9348
   1   2.0000     -11.246724      -306.0389
   2   2.0000     -11.246707      -306.0385
   3   2.0000     -11.219301      -305.2927
   4   2.0000     -11.217108      -305.2330
   5   2.0000     -11.217015      -305.2305
   6   2.0000      -1.208611       -32.8880
   7   2.0000      -1.054451       -28.6931
   8   2.0000      -1.010967       -27.5098
   9   2.0000      -0.862440       -23.4682
  10   2.0000      -0.839632       -22.8475
  11   2.0000      -0.751686       -20.4544
  12   2.0000      -0.682456       -18.5706
  13   2.0000      -0.618320       -16.8253
  14   2.0000      -0.609250       -16.5785
  15   2.0000      -0.582452       -15.8493
  16   2.0000      -0.557380       -15.1671
  17   2.0000      -0.543072       -14.7777
  18   2.0000      -0.527451       -14.3527
  19   2.0000      -0.483870       -13.1668
  20   2.0000      -0.462936       -12.5971
  21   2.0000      -0.441314       -12.0088
  22   2.0000      -0.439875       -11.9696
  23   2.0000      -0.360794        -9.8177
  24   0.0000       0.036683         0.9982
  25   0.0000       0.044483         1.2104
  26   0.0000       0.045765         1.2453
  27   0.0000       0.048377         1.3164
  28   0.0000       0.063672         1.7326

MULLIKEN ATOMIC CHARGES
-----------------------
   0 C :    0.185304
   1 C :    0.278296
   2 C :    0.278296
   3 C :    0.737747
   4 C :    0.737747
   5 N :   -0.647019
   6 H :   -0.110689
   7 H :   -0.156724
   8 H :   -0.100969
   9 H :   -0.126381
  10 H :   -0.126381
  11 H :   -0.100969
  12 H :   -0.137868
  13 H :   -0.233709
  14 H :   -0.233709
  15 H :   -0.137868
  16 H :   -0.105104
Sum of atomic charges:    0.0000000

LOEWDIN ATOMIC CHARGES
----------------------
   0 C :   -0.030463
   1 C :   -0.023209
   2 C :   -0.023209
   3 C :   -0.043984
   4 C :   -0.043984
   5 N :    0.035615
   6 H :    0.012902
   7 H :    0.015161
   8 H :    0.014891
   9 H :    0.018678
  10 H :    0.018678
  11 H :    0.014891
  12 H :    0.015991
  13 H :    0.012385
  14 H :    0.012385
  15 H :    0.015991
  16 H :   -0.022720

  Mayer bond orders larger than 0.100000
B(  0-C ,  1-C ) :   1.2710 B(  0-C ,  2-C ) :   1.2710 B(  0-C ,  6-H ) :   0.7907
B(  0-C ,  7-H ) :   0.7880 B(  1-C ,  3-C ) :   1.2774 B(  1-C ,  8-H ) :   0.7868
B(  1-C ,  9-H ) :   0.8079 B(  2-C ,  4-C ) :   1.2774 B(  2-C , 10-H ) :   0.8079
B(  2-C , 11-H ) :   0.7868 B(  3-C ,  5-N ) :   0.9157 B(  3-C , 12-H ) :   0.7887
B(  3-C , 13-H ) :   0.8774 B(  4-C ,  5-N ) :   0.9157 B(  4-C , 14-H ) :   0.8774
B(  4-C , 15-H ) :   0.7887 B(  5-N , 16-H ) :   1.1067 B(  6-H ,  7-H ) :  -0.1275
B(  8-H ,  9-H ) :  -0.1236 B( 10-H , 11-H ) :  -0.1236 B( 12-H , 13-H ) :  -0.1391
B( 14-H , 15-H ) :  -0.1391

MP2 TOTAL ENERGY:     -251.136222993 Eh
FINAL SINGLE POINT ENERGY      -251.136222993466

DIPOLE MOMENT
-------------
                                X             Y             Z
Electronic contribution:     -1.12906      -1.22374       0.00000
Nuclear contribution   :      1.45318       1.05937       0.00000
                        -----------------------------------------
Total Dipole Moment    :      0.32412      -0.16437       0.00000
                        -----------------------------------------
Magnitude (a.u.)       :      0.36342
Magnitude (Debye)      :      0.92373

Rotational constants in cm-1:     0.150742     0.148224     0.084475
Rotational constants in MHz :  4519.118520  4443.653055  2532.485789

                             ****ORCA TERMINATED NORMALLY****
TOTAL RUN TIME: 0 days 0 hours 0 minutes 51 seconds 28 msec
