                         Program Version 5.0.3 -  RELEASE  -
|  1> !ri-mp2 aug-cc-pvdz aug-cc-pvdz/c tightscf
|  2> %pal nprocs 16 end
|  3>
|  4> * xyz 0 1
|  5> C     -0.188443    1.576098   -0.366092
|  6> C      0.153555    0.706793    0.580006
|  7> C     -0.153555   -0.706793    0.580006
|  8> C      0.188443   -1.576098   -0.366092
|  9> F      0.153555    2.842567   -0.356772
| 10> F     -0.892260    1.266786   -1.433390
| 11> F      0.843111    1.168575    1.647552
| 12> F     -0.843111   -1.168575    1.647552
| 13> F      0.892260   -1.266786   -1.433390
| 14> F     -0.153555   -2.842567   -0.356772
| 15> *
| 16>
| 17>                          ****END OF INPUT****

CARTESIAN COORDINATES (ANGSTROEM)
---------------------------------
  C     -0.188443    1.576098   -0.366092
  C      0.153555    0.706793    0.580006
  C     -0.153555   -0.706793    0.580006
  C      0.188443   -1.576098   -0.366092
  F      0.153555    2.842567   -0.356772
  F     -0.892260    1.266786   -1.433390
  F      0.843111    1.168575    1.647552
  F     -0.843111   -1.168575    1.647552
  F      0.892260   -1.266786   -1.433390
  F     -0.153555   -2.842567   -0.356772

 Total Charge           Charge          ....    0
 Multiplicity           Mult            ....    1
 Number of Electrons    NEL             ....   78
 Basis Dimension        Dim             ....  230

ORBITAL ENERGIES
----------------

  NO   OCC          E(Eh)            E(eV)
   0   2.0000     -26.396296      -718.2797
   1   2.0000     -26.396294      -718.2797
   2   2.0000     -26.393806      -718.2120
   3   2.0000     -26.393806      -718.2120
   4   2.0000     -26.357612      -717.2271
   5   2.0000     -26.357611      -717.2271
   6   2.0000     -11.476977      -312.3044
   7   2.0000     -11.476974      -312.3043
   8   2.0000     -11.383949      -309.7730
   9   2.0000     -11.383111      -309.7502
  10   2.0000      -1.746497       -47.5246
  11   2.0000      -1.745137       -47.4876
  12   2.0000      -1.683306       -45.8051
  13   2.0000      -1.682247       -45.7763
  14   2.0000      -1.668309       -45.3970
  15   2.0000      -1.658032       -45.1174
  16   2.0000      -1.162027       -31.6204
  17   2.0000      -1.079377       -29.3713
  18   2.0000      -0.953290       -25.9403
  19   2.0000      -0.906310       -24.6619
  20   2.0000      -0.867405       -23.6033
  21   2.0000      -0.846044       -23.0220
  22   2.0000      -0.838328       -22.8121
  23   2.0000      -0.805734       -21.9251
  24   2.0000      -0.800886       -21.7932
  25   2.0000      -0.792875       -21.5752
  26   2.0000      -0.757525       -20.6133
  27   2.0000      -0.731866       -19.9151
  28   2.0000      -0.730597       -19.8806
  29   2.0000      -0.723946       -19.6996
  30   2.0000      -0.721254       -19.6263
  31   2.0000      -0.713958       -19.4278
  32   2.0000      -0.712213       -19.3803
  33   2.0000      -0.699973       -19.0472
  34   2.0000      -0.699493       -19.0342
  35   2.0000      -0.680278       -18.5113
  36   2.0000      -0.621836       -16.9210
  37   2.0000      -0.451713       -12.2917
  38   2.0000      -0.393847       -10.7171
  39   0.0000       0.057395         1.5618
  40   0.0000       0.063769         1.7352
  41   0.0000       0.073828         2.0090
  42   0.0000       0.081493         2.2175
  43   0.0000       0.098816         2.6889

MULLIKEN ATOMIC CHARGES
-----------------------
   0 C :    1.495467
   1 C :    0.440636
   2 C :    0.440636
   3 C :    1.495467
   4 F :   -0.590483
   5 F :   -0.613214
   6 F :   -0.732406
   7 F :   -0.732406
   8 F :   -0.613214
   9 F :   -0.590483
Sum of atomic charges:    0.0000000

LOEWDIN ATOMIC CHARGES
----------------------
   0 C :   -0.160537
   1 C :   -0.157832
   2 C :   -0.157832
   3 C :   -0.160537
   4 F :    0.122986
   5 F :    0.116942
   6 F :    0.078441
   7 F :    0.078441
   8 F :    0.116942
   9 F :    0.122986

  Mayer bond orders larger than 0.100000
B(  0-C ,  1-C ) :   1.7988 B(  0-C ,  4-F ) :   0.1259 B(  0-C ,  5-F ) :   0.2486
B(  1-C ,  2-C ) :   1.1252 B(  1-C ,  4-F ) :   0.3360 B(  1-C ,  5-F ) :   0.2620
B(  1-C ,  6-F ) :   0.1276 B(  2-C ,  3-C ) :   1.7988 B(  2-C ,  7-F ) :   0.1276
B(  2-C ,  8-F ) :   0.2620 B(  2-C ,  9-F ) :   0.3360 B(  3-C ,  8-F ) :   0.2486
B(  3-C ,  9-F ) :   0.1259

MP2 TOTAL ENERGY:     -749.812994169 Eh
FINAL SINGLE POINT ENERGY      -749.812994168966

DIPOLE MOMENT
-------------
                                X             Y             Z
Electronic contribution:     -0.00000       0.00000      -0.64807
Nuclear contribution   :      0.00000       0.00000       0.25466
                        -----------------------------------------
Total Dipole Moment    :     -0.00000       0.00000      -0.39341
                        -----------------------------------------
Magnitude (a.u.)       :      0.39341
Magnitude (Debye)      :      0.99997

Rotational constants in cm-1:     0.065641     0.030588     0.024467
Rotational constants in MHz :  1967.868976   917.001331   733.510015

                             ****ORCA TERMINATED NORMALLY****
TOTAL RUN TIME: 0 days 0 hours 0 minutes 49 seconds 951 msec
