                         Program Version 5.0.3 -  RELEASE  -
|  1> !ri-mp2 aug-cc-pvdz aug-cc-pvdz/c tightscf
|  2> %pal nprocs 16 end
|  3>
|  4> * xyz 0 1
|  5> C     0.000000     2.553552    0.323437
|  6> C     0.000000    -2.553552    0.323437
|  7> C     0.000000     1.280666   -0.521619
|  8> C     0.000000    -1.280666   -0.521619
|  9> C     0.000000     0.000000    0.313781
| 10> H     0.880619     2.598968    0.967590
| 11> H    -0.880619     2.598968    0.967590
| 12> H     0.000000     3.448219   -0.300839
| 13> H     0.880619    -2.598968    0.967590
| 14> H     0.000000    -3.448219   -0.300839
| 15> H    -0.880619    -2.598968    0.967590
| 16> H    -0.873927     1.280219   -1.180074
| 17> H     0.873927     1.280219   -1.180074
| 18> H    -0.873927    -1.280219   -1.180074
| 19> H     0.873927    -1.280219   -1.180074
| 20> H    -0.874435     0.000000    0.973556
| 21> H     0.874435     0.000000    0.973556
| 22> *
| 23>
| 24>                          ****END OF INPUT****

CARTESIAN COORDINATES (ANGSTROEM)
---------------------------------
  C      0.000000    2.553552    0.323437
  C      0.000000   -2.553552    0.323437
  C      0.000000    1.280666   -0.521619
  C      0.000000   -1.280666   -0.521619
  C      0.000000    0.000000    0.313781
  H      0.880619    2.598968    0.967590
  H     -0.880619    2.598968    0.967590
  H      0.000000    3.448219   -0.300839
  H      0.880619   -2.598968    0.967590
  H      0.000000   -3.448219   -0.300839
  H     -0.880619   -2.598968    0.967590
  H     -0.873927    1.280219   -1.180074
  H      0.873927    1.280219   -1.180074
  H     -0.873927   -1.280219   -1.180074
  H      0.873927   -1.280219   -1.180074
  H     -0.874435    0.000000    0.973556
  H      0.874435    0.000000    0.973556

 Total Charge           Charge          ....    0
 Multiplicity           Mult            ....    1
 Number of Electrons    NEL             ....   42
 Basis Dimension        Dim             ....  223

ORBITAL ENERGIES
----------------

  NO   OCC          E(Eh)            E(eV)
   0   2.0000     -11.220108      -305.3147
   1   2.0000     -11.220051      -305.3131
   2   2.0000     -11.217524      -305.2443
   3   2.0000     -11.215496      -305.1892
   4   2.0000     -11.215494      -305.1891
   5   2.0000      -1.079293       -29.3691
   6   2.0000      -1.014842       -27.6153
   7   2.0000      -0.919783       -25.0286
   8   2.0000      -0.820952       -22.3393
   9   2.0000      -0.784696       -21.3527
  10   2.0000      -0.644195       -17.5294
  11   2.0000      -0.596193       -16.2232
  12   2.0000      -0.591032       -16.0828
  13   2.0000      -0.552870       -15.0444
  14   2.0000      -0.546211       -14.8632
  15   2.0000      -0.524872       -14.2825
  16   2.0000      -0.493531       -13.4297
  17   2.0000      -0.474822       -12.9206
  18   2.0000      -0.459639       -12.5074
  19   2.0000      -0.457169       -12.4402
  20   2.0000      -0.447265       -12.1707
  21   0.0000       0.038344         1.0434
  22   0.0000       0.042976         1.1694
  23   0.0000       0.046833         1.2744
  24   0.0000       0.048460         1.3187
  25   0.0000       0.063377         1.7246

MULLIKEN ATOMIC CHARGES
-----------------------
   0 C :    0.473151
   1 C :    0.473151
   2 C :    0.275674
   3 C :    0.275674
   4 C :    0.096236
   5 H :   -0.082872
   6 H :   -0.082872
   7 H :   -0.071038
   8 H :   -0.082872
   9 H :   -0.071038
  10 H :   -0.082872
  11 H :   -0.173312
  12 H :   -0.173312
  13 H :   -0.173312
  14 H :   -0.173312
  15 H :   -0.213536
  16 H :   -0.213536
Sum of atomic charges:   -0.0000000

LOEWDIN ATOMIC CHARGES
----------------------
   0 C :    0.129307
   1 C :    0.129307
   2 C :   -0.075206
   3 C :   -0.075206
   4 C :   -0.051324
   5 H :   -0.020685
   6 H :   -0.020685
   7 H :   -0.022677
   8 H :   -0.020685
   9 H :   -0.022677
  10 H :   -0.020685
  11 H :    0.010291
  12 H :    0.010291
  13 H :    0.010291
  14 H :    0.010291
  15 H :    0.015026
  16 H :    0.015026

  Mayer bond orders larger than 0.100000
B(  0-C ,  2-C ) :   1.1791 B(  0-C ,  5-H ) :   0.9299 B(  0-C ,  6-H ) :   0.9299
B(  0-C ,  7-H ) :   0.8980 B(  1-C ,  3-C ) :   1.1791 B(  1-C ,  8-H ) :   0.9299
B(  1-C ,  9-H ) :   0.8980 B(  1-C , 10-H ) :   0.9299 B(  2-C ,  4-C ) :   1.2148
B(  2-C , 11-H ) :   0.7761 B(  2-C , 12-H ) :   0.7761 B(  3-C ,  4-C ) :   1.2148
B(  3-C , 13-H ) :   0.7761 B(  3-C , 14-H ) :   0.7761 B(  4-C , 15-H ) :   0.8138
B(  4-C , 16-H ) :   0.8138

MP2 TOTAL ENERGY:     -197.113018890 Eh
FINAL SINGLE POINT ENERGY      -197.113018889640

DIPOLE MOMENT
-------------
                                X             Y             Z
Electronic contribution:     -0.00000      -0.00000      -0.57530
Nuclear contribution   :      0.00000       0.00000       0.54170
                        -----------------------------------------
Total Dipole Moment    :     -0.00000      -0.00000      -0.03360
                        -----------------------------------------
Magnitude (a.u.)       :      0.03360
Magnitude (Debye)      :      0.08540

Rotational constants in cm-1:     0.572242     0.064441     0.061176
Rotational constants in MHz : 17155.372822  1931.889839  1833.995355

                             ****ORCA TERMINATED NORMALLY****
TOTAL RUN TIME: 0 days 0 hours 0 minutes 42 seconds 876 msec
