                         Program Version 5.0.3 -  RELEASE  -
|  1> !ri-mp2 aug-cc-pvdz aug-cc-pvdz/c tightscf
|  2> %pal nprocs 16 end
|  3>
|  4> * xyz 0 1
|  5> O      0.000000    1.083262   -3.015657
|  6> N      0.000000    0.000000   -2.452829
|  7> O      0.000000   -1.083262   -3.015657
|  8> C      0.000000    0.000000   -0.973083
|  9> C      0.000000   -1.215143   -0.304010
| 10> C      0.000000   -1.213700    1.080544
| 11> C      0.000000    0.000000    1.777046
| 12> C      0.000000    0.000000    3.207339
| 13> N      0.000000    0.000000    4.359138
| 14> C      0.000000    1.213700    1.080544
| 15> C      0.000000    1.215143   -0.304010
| 16> H      0.000000   -2.135421   -0.866311
| 17> H      0.000000   -2.145531    1.626371
| 18> H      0.000000    2.145531    1.626371
| 19> H      0.000000    2.135421   -0.866311
| 20> *
| 21>
| 22>                          ****END OF INPUT****

CARTESIAN COORDINATES (ANGSTROEM)
---------------------------------
  O      0.000000    1.083262   -3.015657
  N      0.000000    0.000000   -2.452829
  O      0.000000   -1.083262   -3.015657
  C      0.000000    0.000000   -0.973083
  C      0.000000   -1.215143   -0.304010
  C      0.000000   -1.213700    1.080544
  C      0.000000    0.000000    1.777046
  C      0.000000    0.000000    3.207339
  N      0.000000    0.000000    4.359138
  C      0.000000    1.213700    1.080544
  C      0.000000    1.215143   -0.304010
  H      0.000000   -2.135421   -0.866311
  H      0.000000   -2.145531    1.626371
  H      0.000000    2.145531    1.626371
  H      0.000000    2.135421   -0.866311

 Total Charge           Charge          ....    0
 Multiplicity           Mult            ....    1
 Number of Electrons    NEL             ....   76
 Basis Dimension        Dim             ....  289

ORBITAL ENERGIES
----------------

  NO   OCC          E(Eh)            E(eV)
   0   2.0000     -20.633266      -561.4597
   1   2.0000     -20.633213      -561.4583
   2   2.0000     -15.882590      -432.1872
   3   2.0000     -15.609807      -424.7644
   4   2.0000     -11.345877      -308.7370
   5   2.0000     -11.331987      -308.3591
   6   2.0000     -11.308515      -307.7203
   7   2.0000     -11.305933      -307.6501
   8   2.0000     -11.305876      -307.6485
   9   2.0000     -11.304655      -307.6153
  10   2.0000     -11.304639      -307.6149
  11   2.0000      -1.634688       -44.4821
  12   2.0000      -1.427876       -38.8545
  13   2.0000      -1.258095       -34.2345
  14   2.0000      -1.230265       -33.4772
  15   2.0000      -1.133422       -30.8420
  16   2.0000      -1.087309       -29.5872
  17   2.0000      -1.007841       -27.4247
  18   2.0000      -0.901363       -24.5273
  19   2.0000      -0.878865       -23.9151
  20   2.0000      -0.809036       -22.0150
  21   2.0000      -0.790786       -21.5184
  22   2.0000      -0.753168       -20.4947
  23   2.0000      -0.741673       -20.1820
  24   2.0000      -0.696835       -18.9618
  25   2.0000      -0.680528       -18.5181
  26   2.0000      -0.654734       -17.8162
  27   2.0000      -0.627095       -17.0641
  28   2.0000      -0.584549       -15.9064
  29   2.0000      -0.577712       -15.7203
  30   2.0000      -0.565285       -15.3822
  31   2.0000      -0.516362       -14.0509
  32   2.0000      -0.515922       -14.0390
  33   2.0000      -0.511822       -13.9274
  34   2.0000      -0.493055       -13.4167
  35   2.0000      -0.474428       -12.9098
  36   2.0000      -0.397131       -10.8065
  37   2.0000      -0.395466       -10.7612
  38   0.0000       0.003124         0.0850
  39   0.0000       0.026099         0.7102
  40   0.0000       0.033294         0.9060
  41   0.0000       0.048538         1.3208
  42   0.0000       0.058206         1.5839

MULLIKEN ATOMIC CHARGES
-----------------------
   0 O :   -0.786024
   1 N :    0.442543
   2 O :   -0.786024
   3 C :    1.001714
   4 C :    0.502215
   5 C :    0.142510
   6 C :    2.287805
   7 C :   -1.167502
   8 N :   -0.230897
   9 C :    0.142510
  10 C :    0.502215
  11 H :   -0.463954
  12 H :   -0.561579
  13 H :   -0.561579
  14 H :   -0.463954
Sum of atomic charges:    0.0000000

LOEWDIN ATOMIC CHARGES
----------------------
   0 O :    0.099330
   1 N :   -0.330733
   2 O :    0.099330
   3 C :   -0.097252
   4 C :    0.091959
   5 C :    0.086330
   6 C :   -0.191343
   7 C :   -0.110230
   8 N :    0.104672
   9 C :    0.086330
  10 C :    0.091959
  11 H :    0.012484
  12 H :    0.022339
  13 H :    0.022339
  14 H :    0.012484

  Mayer bond orders larger than 0.100000
B(  0-O ,  1-N ) :   1.1276 B(  0-O ,  2-O ) :   0.2107 B(  0-O ,  3-C ) :  -0.1592
B(  1-N ,  2-O ) :   1.1276 B(  1-N ,  3-C ) :   0.3617 B(  1-N ,  4-C ) :  -0.1131
B(  1-N , 10-C ) :  -0.1131 B(  2-O ,  3-C ) :  -0.1592 B(  3-C ,  4-C ) :   1.2219
B(  3-C ,  6-C ) :   0.3912 B(  3-C ,  7-C ) :   0.1024 B(  3-C , 10-C ) :   1.2219
B(  3-C , 11-H ) :   0.5021 B(  3-C , 12-H ) :  -0.1212 B(  3-C , 13-H ) :  -0.1212
B(  3-C , 14-H ) :   0.5021 B(  4-C ,  5-C ) :   2.4543 B(  4-C ,  6-C ) :  -0.4102
B(  4-C , 12-H ) :   0.3927 B(  5-C ,  6-C ) :   1.6057 B(  5-C ,  7-C ) :  -0.2952
B(  5-C ,  9-C ) :  -0.5928 B(  5-C , 11-H ) :   0.2379 B(  6-C ,  7-C ) :  -0.5524
B(  6-C ,  8-N ) :  -0.1725 B(  6-C ,  9-C ) :   1.6057 B(  6-C , 10-C ) :  -0.4102
B(  6-C , 12-H ) :   0.3064 B(  6-C , 13-H ) :   0.3064 B(  7-C ,  8-N ) :   2.5216
B(  7-C ,  9-C ) :  -0.2952 B(  9-C , 10-C ) :   2.4543 B(  9-C , 14-H ) :   0.2379
B( 10-C , 13-H ) :   0.3927

MP2 TOTAL ENERGY:     -527.633396463 Eh
FINAL SINGLE POINT ENERGY      -527.633396462872

DIPOLE MOMENT
-------------
                                X             Y             Z
Electronic contribution:      0.00000      -0.00000      -1.27552
Nuclear contribution   :      0.00000      -0.00000       1.38399
                        -----------------------------------------
Total Dipole Moment    :      0.00000      -0.00000       0.10847
                        -----------------------------------------
Magnitude (a.u.)       :      0.10847
Magnitude (Debye)      :      0.27571

Rotational constants in cm-1:     0.132865     0.019800     0.017232
Rotational constants in MHz :  3983.199093   593.594327   516.607189

                             ****ORCA TERMINATED NORMALLY****
TOTAL RUN TIME: 0 days 0 hours 1 minutes 41 seconds 762 msec
