                         Program Version 5.0.3 -  RELEASE  -
|  1> !ri-mp2 aug-cc-pvdz aug-cc-pvdz/c tightscf
|  2> %pal nprocs 16 end
|  3>
|  4> * xyz 0 1
|  5> C     -0.000845   -1.808309    0.000000
|  6> C      0.002500   -1.071896    1.177316
|  7> C      0.002500   -1.071896   -1.177316
|  8> C     -0.003688    0.863909    0.000000
|  9> N      0.002500    0.255572    1.197627
| 10> N      0.002500    0.255572   -1.197627
| 11> N     -0.041543    2.223054    0.000000
| 12> H     -0.000837   -2.887318    0.000000
| 13> H      0.007769   -1.564229    2.143784
| 14> H      0.007769   -1.564229   -2.143784
| 15> H      0.119153    2.702771   -0.866351
| 16> H      0.119153    2.702771    0.866351
| 17> *
| 18>
| 19>                          ****END OF INPUT****

CARTESIAN COORDINATES (ANGSTROEM)
---------------------------------
  C     -0.000845   -1.808309    0.000000
  C      0.002500   -1.071896    1.177316
  C      0.002500   -1.071896   -1.177316
  C     -0.003688    0.863909    0.000000
  N      0.002500    0.255572    1.197627
  N      0.002500    0.255572   -1.197627
  N     -0.041543    2.223054    0.000000
  H     -0.000837   -2.887318    0.000000
  H      0.007769   -1.564229    2.143784
  H      0.007769   -1.564229   -2.143784
  H      0.119153    2.702771   -0.866351
  H      0.119153    2.702771    0.866351

 Total Charge           Charge          ....    0
 Multiplicity           Mult            ....    1
 Number of Electrons    NEL             ....   50
 Basis Dimension        Dim             ....  206

ORBITAL ENERGIES
----------------

  NO   OCC          E(Eh)            E(eV)
   0   2.0000     -15.581870      -424.0043
   1   2.0000     -15.565195      -423.5505
   2   2.0000     -15.565170      -423.5498
   3   2.0000     -11.357703      -309.0588
   4   2.0000     -11.300770      -307.5096
   5   2.0000     -11.300762      -307.5094
   6   2.0000     -11.233091      -305.6679
   7   2.0000      -1.331065       -36.2201
   8   2.0000      -1.207940       -32.8697
   9   2.0000      -1.194512       -32.5043
  10   2.0000      -1.047405       -28.5013
  11   2.0000      -0.897065       -24.4104
  12   2.0000      -0.871712       -23.7205
  13   2.0000      -0.740678       -20.1549
  14   2.0000      -0.733524       -19.9602
  15   2.0000      -0.658608       -17.9216
  16   2.0000      -0.653160       -17.7734
  17   2.0000      -0.598931       -16.2977
  18   2.0000      -0.592712       -16.1285
  19   2.0000      -0.582351       -15.8466
  20   2.0000      -0.482463       -13.1285
  21   2.0000      -0.466376       -12.6907
  22   2.0000      -0.423795       -11.5321
  23   2.0000      -0.403570       -10.9817
  24   2.0000      -0.327458        -8.9106
  25   0.0000       0.033808         0.9200
  26   0.0000       0.039447         1.0734
  27   0.0000       0.044211         1.2030
  28   0.0000       0.059684         1.6241
  29   0.0000       0.064114         1.7446

MULLIKEN ATOMIC CHARGES
-----------------------
   0 C :    0.685311
   1 C :    0.616440
   2 C :    0.616440
   3 C :    0.880342
   4 N :   -0.685577
   5 N :   -0.685577
   6 N :   -0.348286
   7 H :   -0.397968
   8 H :   -0.298247
   9 H :   -0.298247
  10 H :   -0.042315
  11 H :   -0.042315
Sum of atomic charges:   -0.0000000

LOEWDIN ATOMIC CHARGES
----------------------
   0 C :    0.009580
   1 C :   -0.024740
   2 C :   -0.024740
   3 C :   -0.327887
   4 N :    0.059289
   5 N :    0.059289
   6 N :    0.273604
   7 H :   -0.011748
   8 H :    0.010278
   9 H :    0.010278
  10 H :   -0.016601
  11 H :   -0.016601

  Mayer bond orders larger than 0.100000
B(  0-C ,  1-C ) :   1.3360 B(  0-C ,  2-C ) :   1.3360 B(  0-C ,  3-C ) :   0.1386
B(  0-C ,  7-H ) :   0.6634 B(  1-C ,  2-C ) :   0.2159 B(  1-C ,  3-C ) :  -0.1870
B(  1-C ,  4-N ) :   1.2169 B(  1-C ,  8-H ) :   0.8547 B(  2-C ,  3-C ) :  -0.1870
B(  2-C ,  5-N ) :   1.2169 B(  2-C ,  9-H ) :   0.8547 B(  3-C ,  4-N ) :   1.3467
B(  3-C ,  5-N ) :   1.3467 B(  3-C ,  6-N ) :   0.7716 B(  6-N , 10-H ) :   1.1578
B(  6-N , 11-H ) :   1.1578

MP2 TOTAL ENERGY:     -318.826934385 Eh
FINAL SINGLE POINT ENERGY      -318.826934384641

DIPOLE MOMENT
-------------
                                X             Y             Z
Electronic contribution:     -0.05578       0.38915       0.00000
Nuclear contribution   :      0.24960      -0.58668       0.00000
                        -----------------------------------------
Total Dipole Moment    :      0.19382      -0.19753       0.00000
                        -----------------------------------------
Magnitude (a.u.)       :      0.27674
Magnitude (Debye)      :      0.70341

Rotational constants in cm-1:     0.199960     0.096327     0.065035
Rotational constants in MHz :  5994.655970  2887.811864  1949.691987

                             ****ORCA TERMINATED NORMALLY****
TOTAL RUN TIME: 0 days 0 hours 0 minutes 45 seconds 462 msec
