                         Program Version 5.0.3 -  RELEASE  -
|  1> !ri-mp2 aug-cc-pvdz aug-cc-pvdz/c tightscf
|  2> %pal nprocs 16 end
|  3>
|  4> * xyz 0 1
|  5> C      0.834198   -0.936571   -0.030495
|  6> C     -1.402371   -0.269951    0.991854
|  7> C      0.042139    0.149384    0.691781
|  8> S      2.619734   -0.495778   -0.173755
|  9> S     -2.501238   -0.563857   -0.452043
| 10> S      0.149502    1.790968   -0.137745
| 11> H      0.429951   -1.103433   -1.026573
| 12> H      0.765825   -1.867304    0.532760
| 13> H     -1.408866   -1.167657    1.610121
| 14> H     -1.897031    0.521267    1.550558
| 15> H      0.520127    0.338062    1.655473
| 16> H      3.083147   -1.750169   -0.026735
| 17> H     -2.037822   -1.781895   -0.783799
| 18> H     -0.587096    1.452627   -1.213971
| 19> *
| 20>
| 21>                          ****END OF INPUT****

CARTESIAN COORDINATES (ANGSTROEM)
---------------------------------
  C      0.834198   -0.936571   -0.030495
  C     -1.402371   -0.269951    0.991854
  C      0.042139    0.149384    0.691781
  S      2.619734   -0.495778   -0.173755
  S     -2.501238   -0.563857   -0.452043
  S      0.149502    1.790968   -0.137745
  H      0.429951   -1.103433   -1.026573
  H      0.765825   -1.867304    0.532760
  H     -1.408866   -1.167657    1.610121
  H     -1.897031    0.521267    1.550558
  H      0.520127    0.338062    1.655473
  H      3.083147   -1.750169   -0.026735
  H     -2.037822   -1.781895   -0.783799
  H     -0.587096    1.452627   -1.213971

 Total Charge           Charge          ....    0
 Multiplicity           Mult            ....    1
 Number of Electrons    NEL             ....   74
 Basis Dimension        Dim             ....  222

ORBITAL ENERGIES
----------------

  NO   OCC          E(Eh)            E(eV)
   0   2.0000     -91.970095     -2502.6335
   1   2.0000     -91.960816     -2502.3810
   2   2.0000     -91.958947     -2502.3302
   3   2.0000     -11.295609      -307.3692
   4   2.0000     -11.289299      -307.1975
   5   2.0000     -11.283421      -307.0375
   6   2.0000      -8.971541      -244.1281
   7   2.0000      -8.962007      -243.8686
   8   2.0000      -8.960694      -243.8329
   9   2.0000      -6.653594      -181.0535
  10   2.0000      -6.652206      -181.0157
  11   2.0000      -6.650186      -180.9608
  12   2.0000      -6.643961      -180.7914
  13   2.0000      -6.642680      -180.7565
  14   2.0000      -6.642672      -180.7563
  15   2.0000      -6.641377      -180.7211
  16   2.0000      -6.640520      -180.6977
  17   2.0000      -6.639341      -180.6657
  18   2.0000      -1.134508       -30.8715
  19   2.0000      -1.042135       -28.3579
  20   2.0000      -0.991112       -26.9695
  21   2.0000      -0.922364       -25.0988
  22   2.0000      -0.876948       -23.8630
  23   2.0000      -0.783682       -21.3251
  24   2.0000      -0.650441       -17.6994
  25   2.0000      -0.637057       -17.3352
  26   2.0000      -0.623333       -16.9618
  27   2.0000      -0.588957       -16.0263
  28   2.0000      -0.540629       -14.7113
  29   2.0000      -0.518548       -14.1104
  30   2.0000      -0.510751       -13.8982
  31   2.0000      -0.473331       -12.8800
  32   2.0000      -0.457845       -12.4586
  33   2.0000      -0.442894       -12.0518
  34   2.0000      -0.377256       -10.2657
  35   2.0000      -0.369198       -10.0464
  36   2.0000      -0.355558        -9.6752
  37   0.0000       0.029585         0.8051
  38   0.0000       0.041715         1.1351
  39   0.0000       0.046485         1.2649
  40   0.0000       0.052271         1.4224
  41   0.0000       0.066023         1.7966

MULLIKEN ATOMIC CHARGES
-----------------------
   0 C :   -0.087377
   1 C :    0.023411
   2 C :   -0.503127
   3 S :    0.316719
   4 S :    0.200810
   5 S :    0.157744
   6 H :   -0.110527
   7 H :   -0.139043
   8 H :   -0.138630
   9 H :   -0.036005
  10 H :   -0.067515
  11 H :    0.073780
  12 H :    0.118342
  13 H :    0.191417
Sum of atomic charges:   -0.0000000

LOEWDIN ATOMIC CHARGES
----------------------
   0 C :   -0.365232
   1 C :   -0.344744
   2 C :   -0.623852
   3 S :    0.712634
   4 S :    0.736339
   5 S :    0.754254
   6 H :   -0.050390
   7 H :   -0.031324
   8 H :   -0.030684
   9 H :   -0.039072
  10 H :   -0.014233
  11 H :   -0.235940
  12 H :   -0.228343
  13 H :   -0.239411

  Mayer bond orders larger than 0.100000
B(  0-C ,  2-C ) :   1.2621 B(  0-C ,  3-S ) :   1.2334 B(  0-C ,  6-H ) :   0.9577
B(  0-C ,  7-H ) :   0.8884 B(  1-C ,  2-C ) :   1.2658 B(  1-C ,  4-S ) :   1.1565
B(  1-C ,  8-H ) :   0.8496 B(  1-C ,  9-H ) :   0.8292 B(  2-C ,  3-S ) :  -0.1781
B(  2-C ,  4-S ) :  -0.2128 B(  2-C ,  5-S ) :   1.2566 B(  2-C ,  7-H ) :   0.1618
B(  2-C ,  8-H ) :   0.2140 B(  2-C ,  9-H ) :   0.1698 B(  2-C , 10-H ) :   0.7520
B(  3-S ,  6-H ) :  -0.1418 B(  3-S , 11-H ) :   0.9688 B(  4-S ,  9-H ) :  -0.1022
B(  4-S , 12-H ) :   0.9421 B(  5-S , 10-H ) :  -0.1046 B(  5-S , 13-H ) :   0.8739

MP2 TOTAL ENERGY:    -1311.756237640 Eh
FINAL SINGLE POINT ENERGY     -1311.756237640187

DIPOLE MOMENT
-------------
                                X             Y             Z
Electronic contribution:      0.87331       4.19336      -1.83167
Nuclear contribution   :     -1.12947      -5.33122       2.29989
                        -----------------------------------------
Total Dipole Moment    :     -0.25616      -1.13786       0.46821
                        -----------------------------------------
Magnitude (a.u.)       :      1.25681
Magnitude (Debye)      :      3.19455

Rotational constants in cm-1:     0.091533     0.032986     0.027127
Rotational constants in MHz :  2744.093580   988.891133   813.261360

                             ****ORCA TERMINATED NORMALLY****
TOTAL RUN TIME: 0 days 0 hours 1 minutes 12 seconds 957 msec
