                         Program Version 5.0.3 -  RELEASE  -
|  1> !ri-mp2 aug-cc-pvdz aug-cc-pvdz/c tightscf
|  2> %pal nprocs 16 end
|  3>
|  4> * xyz 0 1
|  5> C      0.000000    0.000000    0.592096
|  6> C      0.000000    0.000000    2.018067
|  7> C      0.000000    1.207433   -0.119647
|  8> C      0.000000   -1.207433   -0.119647
|  9> C      0.000000    1.203152   -1.506425
| 10> C      0.000000   -1.203152   -1.506425
| 11> C      0.000000    0.000000   -2.204188
| 12> C      0.000000    0.000000    3.219986
| 13> H      0.000000    0.000000    4.280998
| 14> H      0.000000    2.140945    0.425266
| 15> H      0.000000   -2.140945    0.425266
| 16> H      0.000000    2.141685   -2.044307
| 17> H      0.000000   -2.141685   -2.044307
| 18> H      0.000000    0.000000   -3.285824
| 19> *
| 20>
| 21>                          ****END OF INPUT****

CARTESIAN COORDINATES (ANGSTROEM)
---------------------------------
  C      0.000000    0.000000    0.592096
  C      0.000000    0.000000    2.018067
  C      0.000000    1.207433   -0.119647
  C      0.000000   -1.207433   -0.119647
  C      0.000000    1.203152   -1.506425
  C      0.000000   -1.203152   -1.506425
  C      0.000000    0.000000   -2.204188
  C      0.000000    0.000000    3.219986
  H      0.000000    0.000000    4.280998
  H      0.000000    2.140945    0.425266
  H      0.000000   -2.140945    0.425266
  H      0.000000    2.141685   -2.044307
  H      0.000000   -2.141685   -2.044307
  H      0.000000    0.000000   -3.285824

 Total Charge           Charge          ....    0
 Multiplicity           Mult            ....    1
 Number of Electrons    NEL             ....   54
 Basis Dimension        Dim             ....  238

ORBITAL ENERGIES
----------------

  NO   OCC          E(Eh)            E(eV)
   0   2.0000     -11.270736      -306.6923
   1   2.0000     -11.252727      -306.2023
   2   2.0000     -11.252682      -306.2010
   3   2.0000     -11.251103      -306.1581
   4   2.0000     -11.248364      -306.0835
   5   2.0000     -11.248095      -306.0762
   6   2.0000     -11.247331      -306.0554
   7   2.0000     -11.238054      -305.8030
   8   2.0000      -1.172839       -31.9146
   9   2.0000      -1.071384       -29.1538
  10   2.0000      -1.029761       -28.0212
  11   2.0000      -1.001854       -27.2618
  12   2.0000      -0.858267       -23.3546
  13   2.0000      -0.839665       -22.8484
  14   2.0000      -0.749971       -20.4078
  15   2.0000      -0.706000       -19.2112
  16   2.0000      -0.667646       -18.1676
  17   2.0000      -0.640507       -17.4291
  18   2.0000      -0.612024       -16.6540
  19   2.0000      -0.598265       -16.2796
  20   2.0000      -0.526719       -14.3327
  21   2.0000      -0.520082       -14.1522
  22   2.0000      -0.506947       -13.7947
  23   2.0000      -0.431108       -11.7311
  24   2.0000      -0.399188       -10.8625
  25   2.0000      -0.347364        -9.4522
  26   2.0000      -0.321573        -8.7504
  27   0.0000       0.034229         0.9314
  28   0.0000       0.038360         1.0438
  29   0.0000       0.041993         1.1427
  30   0.0000       0.050933         1.3859
  31   0.0000       0.060228         1.6389

MULLIKEN ATOMIC CHARGES
-----------------------
   0 C :    0.857495
   1 C :    0.438581
   2 C :    0.311883
   3 C :    0.311883
   4 C :    0.185876
   5 C :    0.185876
   6 C :    0.225458
   7 C :    0.494151
   8 H :   -0.524722
   9 H :   -0.577861
  10 H :   -0.577861
  11 H :   -0.445731
  12 H :   -0.445731
  13 H :   -0.439297
Sum of atomic charges:   -0.0000000

LOEWDIN ATOMIC CHARGES
----------------------
   0 C :   -0.231496
   1 C :   -0.074385
   2 C :    0.056418
   3 C :    0.056418
   4 C :    0.013540
   5 C :    0.013540
   6 C :    0.014001
   7 C :    0.228189
   8 H :   -0.103368
   9 H :    0.011257
  10 H :    0.011257
  11 H :    0.001689
  12 H :    0.001689
  13 H :    0.001252

  Mayer bond orders larger than 0.100000
B(  0-C ,  1-C ) :   2.0373 B(  0-C ,  2-C ) :   1.5774 B(  0-C ,  3-C ) :   1.5774
B(  0-C ,  4-C ) :  -0.2563 B(  0-C ,  5-C ) :  -0.2563 B(  0-C ,  6-C ) :   0.1623
B(  0-C ,  7-C ) :   0.2294 B(  0-C ,  8-H ) :   0.2005 B(  0-C ,  9-H ) :   0.4394
B(  0-C , 10-H ) :   0.4394 B(  1-C ,  2-C ) :  -0.5552 B(  1-C ,  3-C ) :  -0.5552
B(  1-C ,  7-C ) :   2.5342 B(  1-C ,  8-H ) :   0.4935 B(  1-C ,  9-H ) :  -0.2248
B(  1-C , 10-H ) :  -0.2248 B(  2-C ,  3-C ) :  -0.7480 B(  2-C ,  4-C ) :   2.0172
B(  2-C ,  5-C ) :   0.1468 B(  2-C , 11-H ) :   0.2507 B(  3-C ,  4-C ) :   0.1468
B(  3-C ,  5-C ) :   2.0172 B(  3-C , 12-H ) :   0.2507 B(  4-C ,  6-C ) :   1.8893
B(  4-C ,  9-H ) :   0.3777 B(  4-C , 11-H ) :   0.2830 B(  4-C , 13-H ) :   0.1985
B(  5-C ,  6-C ) :   1.8893 B(  5-C , 10-H ) :   0.3777 B(  5-C , 12-H ) :   0.2830
B(  5-C , 13-H ) :   0.1985 B(  6-C , 11-H ) :   0.2436 B(  6-C , 12-H ) :   0.2436
B(  6-C , 13-H ) :   0.3653 B(  7-C ,  8-H ) :  -0.1268

MP2 TOTAL ENERGY:     -307.468952393 Eh
FINAL SINGLE POINT ENERGY      -307.468952392971

DIPOLE MOMENT
-------------
                                X             Y             Z
Electronic contribution:     -0.00000       0.00000       1.92407
Nuclear contribution   :      0.00000       0.00000      -2.22709
                        -----------------------------------------
Total Dipole Moment    :     -0.00000       0.00000      -0.30303
                        -----------------------------------------
Magnitude (a.u.)       :      0.30303
Magnitude (Debye)      :      0.77023

Rotational constants in cm-1:     0.190950     0.051244     0.040401
Rotational constants in MHz :  5724.550164  1536.245876  1211.205567

                             ****ORCA TERMINATED NORMALLY****
TOTAL RUN TIME: 0 days 0 hours 1 minutes 2 seconds 65 msec
