                         Program Version 5.0.3 -  RELEASE  -
|  1> !ri-mp2 aug-cc-pvdz aug-cc-pvdz/c tightscf
|  2> %pal nprocs 16 end
|  3>
|  4> * xyz 0 1
|  5> C      2.356270   -1.777173    0.000000
|  6> O      3.482232   -1.329055    0.000000
|  7> C      1.122819   -0.978189    0.000000
|  8> C     -0.122816   -1.616318    0.000000
|  9> C     -1.293641   -0.885835    0.000000
| 10> C     -1.239473    0.512535    0.000000
| 11> C      0.000000    1.164562    0.000000
| 12> C      1.165300    0.417042    0.000000
| 13> O     -2.435229    1.147852    0.000000
| 14> C     -2.463378    2.570550    0.000000
| 15> H      2.191197   -2.874062    0.000000
| 16> H     -0.165916   -2.698728    0.000000
| 17> H     -2.261088   -1.367425    0.000000
| 18> H      0.057823    2.241984    0.000000
| 19> H      2.129488    0.906789    0.000000
| 20> H     -1.981978    2.976345    0.892234
| 21> H     -1.981978    2.976345   -0.892234
| 22> H     -3.514049    2.845335    0.000000
| 23> *
| 24>
| 25>                          ****END OF INPUT****

CARTESIAN COORDINATES (ANGSTROEM)
---------------------------------
  C      2.356270   -1.777173    0.000000
  O      3.482232   -1.329055    0.000000
  C      1.122819   -0.978189    0.000000
  C     -0.122816   -1.616318    0.000000
  C     -1.293641   -0.885835    0.000000
  C     -1.239473    0.512535    0.000000
  C      0.000000    1.164562    0.000000
  C      1.165300    0.417042    0.000000
  O     -2.435229    1.147852    0.000000
  C     -2.463378    2.570550    0.000000
  H      2.191197   -2.874062    0.000000
  H     -0.165916   -2.698728    0.000000
  H     -2.261088   -1.367425    0.000000
  H      0.057823    2.241984    0.000000
  H      2.129488    0.906789    0.000000
  H     -1.981978    2.976345    0.892234
  H     -1.981978    2.976345   -0.892234
  H     -3.514049    2.845335    0.000000

 Total Charge           Charge          ....    0
 Multiplicity           Mult            ....    1
 Number of Electrons    NEL             ....   72
 Basis Dimension        Dim             ....  302

ORBITAL ENERGIES
----------------

  NO   OCC          E(Eh)            E(eV)
   0   2.0000     -20.613074      -560.9103
   1   2.0000     -20.557183      -559.3894
   2   2.0000     -11.337193      -308.5007
   3   2.0000     -11.331406      -308.3432
   4   2.0000     -11.305696      -307.6436
   5   2.0000     -11.267824      -306.6131
   6   2.0000     -11.264462      -306.5216
   7   2.0000     -11.251264      -306.1624
   8   2.0000     -11.246939      -306.0448
   9   2.0000     -11.245785      -306.0134
  10   2.0000      -1.433897       -39.0183
  11   2.0000      -1.388604       -37.7858
  12   2.0000      -1.173759       -31.9396
  13   2.0000      -1.053481       -28.6667
  14   2.0000      -1.043473       -28.3943
  15   2.0000      -0.969544       -26.3826
  16   2.0000      -0.882444       -24.0125
  17   2.0000      -0.849154       -23.1067
  18   2.0000      -0.792579       -21.5672
  19   2.0000      -0.737539       -20.0695
  20   2.0000      -0.700600       -19.0643
  21   2.0000      -0.676402       -18.4058
  22   2.0000      -0.670624       -18.2486
  23   2.0000      -0.639552       -17.4031
  24   2.0000      -0.634337       -17.2612
  25   2.0000      -0.609338       -16.5809
  26   2.0000      -0.589814       -16.0497
  27   2.0000      -0.566355       -15.4113
  28   2.0000      -0.556240       -15.1361
  29   2.0000      -0.536989       -14.6122
  30   2.0000      -0.530153       -14.4262
  31   2.0000      -0.496634       -13.5141
  32   2.0000      -0.474700       -12.9172
  33   2.0000      -0.422049       -11.4845
  34   2.0000      -0.360238        -9.8026
  35   2.0000      -0.328032        -8.9262
  36   0.0000       0.029139         0.7929
  37   0.0000       0.036822         1.0020
  38   0.0000       0.042661         1.1609
  39   0.0000       0.051864         1.4113
  40   0.0000       0.053158         1.4465

MULLIKEN ATOMIC CHARGES
-----------------------
   0 C :    1.006769
   1 O :   -0.787922
   2 C :    0.981517
   3 C :    0.595263
   4 C :    0.378538
   5 C :    0.671723
   6 C :    0.634851
   7 C :   -0.020587
   8 O :   -1.069449
   9 C :    0.852521
  10 H :   -0.267643
  11 H :   -0.607323
  12 H :   -0.567266
  13 H :   -0.762580
  14 H :   -0.599324
  15 H :   -0.061614
  16 H :   -0.061614
  17 H :   -0.315861
Sum of atomic charges:   -0.0000000

LOEWDIN ATOMIC CHARGES
----------------------
   0 C :   -0.075590
   1 O :    0.014561
   2 C :   -0.190845
   3 C :    0.051673
   4 C :    0.059200
   5 C :   -0.189454
   6 C :    0.056070
   7 C :    0.075344
   8 O :    0.040279
   9 C :    0.165745
  10 H :    0.015210
  11 H :    0.011691
  12 H :    0.009373
  13 H :   -0.010722
  14 H :    0.018098
  15 H :   -0.014744
  16 H :   -0.014744
  17 H :   -0.021145

  Mayer bond orders larger than 0.100000
B(  0-C ,  1-O ) :   1.4438 B(  0-C ,  2-C ) :   1.1435 B(  0-C ,  3-C ) :  -0.1127
B(  0-C ,  4-C ) :   0.2171 B(  0-C ,  6-C ) :   0.1070 B(  0-C ,  7-C ) :  -0.6932
B(  0-C , 10-H ) :   0.5671 B(  2-C ,  3-C ) :   2.3064 B(  2-C ,  4-C ) :  -0.8564
B(  2-C ,  5-C ) :   0.4290 B(  2-C ,  6-C ) :  -0.5381 B(  2-C ,  7-C ) :   1.8226
B(  2-C , 10-H ) :   0.1917 B(  2-C , 11-H ) :   0.8492 B(  2-C , 12-H ) :  -0.1609
B(  2-C , 13-H ) :  -0.1511 B(  2-C , 14-H ) :   0.3527 B(  3-C ,  4-C ) :   2.1178
B(  3-C ,  7-C ) :  -1.0591 B(  3-C , 11-H ) :  -0.4296 B(  3-C , 12-H ) :   0.3463
B(  3-C , 13-H ) :   0.1010 B(  4-C ,  5-C ) :   1.7693 B(  4-C ,  6-C ) :   0.2313
B(  4-C , 10-H ) :   0.1148 B(  4-C , 11-H ) :   0.2655 B(  4-C , 12-H ) :  -0.4773
B(  5-C ,  6-C ) :   1.0725 B(  5-C ,  7-C ) :  -0.1012 B(  5-C ,  9-C ) :  -0.1204
B(  5-C , 11-H ) :  -0.2553 B(  5-C , 12-H ) :   0.8428 B(  5-C , 13-H ) :   0.4510
B(  6-C ,  7-C ) :   2.4057 B(  6-C , 13-H ) :  -0.4662 B(  6-C , 14-H ) :   0.4374
B(  7-C , 13-H ) :   0.5432 B(  8-O ,  9-C ) :   0.7214 B(  9-C , 15-H ) :   0.9770
B(  9-C , 16-H ) :   0.9770 B(  9-C , 17-H ) :   1.0069 B( 15-H , 17-H ) :  -0.1035
B( 16-H , 17-H ) :  -0.1035

MP2 TOTAL ENERGY:     -458.841747883 Eh
FINAL SINGLE POINT ENERGY      -458.841747882669

DIPOLE MOMENT
-------------
                                X             Y             Z
Electronic contribution:      3.97380      -4.34566       0.00000
Nuclear contribution   :     -5.47241       4.96959       0.00000
                        -----------------------------------------
Total Dipole Moment    :     -1.49861       0.62394       0.00000
                        -----------------------------------------
Magnitude (a.u.)       :      1.62330
Magnitude (Debye)      :      4.12611

Rotational constants in cm-1:     0.140226     0.023873     0.020480
Rotational constants in MHz :  4203.857133   715.703442   613.966911

                             ****ORCA TERMINATED NORMALLY****
TOTAL RUN TIME: 0 days 0 hours 1 minutes 48 seconds 583 msec
