                         Program Version 5.0.3 -  RELEASE  -
|  1> !ri-mp2 aug-cc-pvdz aug-cc-pvdz/c tightscf
|  2> %pal nprocs 16 end
|  3>
|  4> * xyz 0 1
|  5> C     1.340358     1.082599       0.000000
|  6> C     2.159435    -0.166489       0.000000
|  7> C     1.340358    -1.239684       0.000000
|  8> C    -1.340358    -1.082599       0.000000
|  9> C    -2.159435     0.166489       0.000000
| 10> C    -1.340358     1.239684       0.000000
| 11> C     0.038329     0.726381       0.000000
| 12> C    -0.038329    -0.726381       0.000000
| 13> H     1.756064     2.079976       0.000000
| 14> H     3.238150    -0.182744       0.000000
| 15> H     1.637830    -2.276002       0.000000
| 16> H    -1.756064    -2.079976       0.000000
| 17> H    -3.238150     0.182744       0.000000
| 18> H    -1.637830     2.276002       0.000000
| 19> *
| 20>
| 21>                          ****END OF INPUT****

CARTESIAN COORDINATES (ANGSTROEM)
---------------------------------
  C      1.340358    1.082599    0.000000
  C      2.159435   -0.166489    0.000000
  C      1.340358   -1.239684    0.000000
  C     -1.340358   -1.082599    0.000000
  C     -2.159435    0.166489    0.000000
  C     -1.340358    1.239684    0.000000
  C      0.038329    0.726381    0.000000
  C     -0.038329   -0.726381    0.000000
  H      1.756064    2.079976    0.000000
  H      3.238150   -0.182744    0.000000
  H      1.637830   -2.276002    0.000000
  H     -1.756064   -2.079976    0.000000
  H     -3.238150    0.182744    0.000000
  H     -1.637830    2.276002    0.000000

 Total Charge           Charge          ....    0
 Multiplicity           Mult            ....    1
 Number of Electrons    NEL             ....   54
 Basis Dimension        Dim             ....  238

ORBITAL ENERGIES
----------------

  NO   OCC          E(Eh)            E(eV)
   0   2.0000     -11.258318      -306.3544
   1   2.0000     -11.258314      -306.3543
   2   2.0000     -11.245344      -306.0014
   3   2.0000     -11.245343      -306.0013
   4   2.0000     -11.242063      -305.9121
   5   2.0000     -11.242061      -305.9120
   6   2.0000     -11.229817      -305.5789
   7   2.0000     -11.228930      -305.5547
   8   2.0000      -1.194671       -32.5087
   9   2.0000      -1.102166       -29.9915
  10   2.0000      -0.995965       -27.1016
  11   2.0000      -0.946921       -25.7670
  12   2.0000      -0.886094       -24.1118
  13   2.0000      -0.774920       -21.0866
  14   2.0000      -0.750726       -20.4283
  15   2.0000      -0.704982       -19.1835
  16   2.0000      -0.686166       -18.6715
  17   2.0000      -0.614006       -16.7080
  18   2.0000      -0.568260       -15.4631
  19   2.0000      -0.562703       -15.3119
  20   2.0000      -0.536457       -14.5977
  21   2.0000      -0.530625       -14.4390
  22   2.0000      -0.506165       -13.7735
  23   2.0000      -0.481306       -13.0970
  24   2.0000      -0.412887       -11.2352
  25   2.0000      -0.333653        -9.0792
  26   2.0000      -0.276795        -7.5320
  27   0.0000       0.024519         0.6672
  28   0.0000       0.036305         0.9879
  29   0.0000       0.038173         1.0387
  30   0.0000       0.041537         1.1303
  31   0.0000       0.053965         1.4685

MULLIKEN ATOMIC CHARGES
-----------------------
   0 C :    0.733290
   1 C :    0.266838
   2 C :    0.760506
   3 C :    0.733290
   4 C :    0.266838
   5 C :    0.760506
   6 C :   -0.623838
   7 C :   -0.623838
   8 H :   -0.375742
   9 H :   -0.363435
  10 H :   -0.397620
  11 H :   -0.375742
  12 H :   -0.363435
  13 H :   -0.397620
Sum of atomic charges:    0.0000000

LOEWDIN ATOMIC CHARGES
----------------------
   0 C :    0.110257
   1 C :    0.029206
   2 C :    0.067054
   3 C :    0.110257
   4 C :    0.029206
   5 C :    0.067054
   6 C :   -0.181851
   7 C :   -0.181851
   8 H :   -0.003347
   9 H :   -0.014589
  10 H :   -0.006730
  11 H :   -0.003347
  12 H :   -0.014589
  13 H :   -0.006730

  Mayer bond orders larger than 0.100000
B(  0-C ,  1-C ) :   1.3257 B(  0-C ,  2-C ) :   0.3035 B(  0-C ,  3-C ) :   0.2422
B(  0-C ,  4-C ) :   0.1375 B(  0-C ,  5-C ) :   0.1828 B(  0-C ,  6-C ) :   1.6222
B(  0-C ,  7-C ) :  -0.2948 B(  0-C ,  8-H ) :   0.1945 B(  1-C ,  2-C ) :   2.1236
B(  1-C ,  3-C ) :   0.1375 B(  1-C ,  4-C ) :   0.1195 B(  1-C ,  6-C ) :  -0.3844
B(  1-C ,  7-C ) :  -0.2757 B(  1-C ,  8-H ) :  -0.1895 B(  1-C ,  9-H ) :   0.6542
B(  2-C ,  3-C ) :   0.1828 B(  2-C ,  5-C ) :   0.3186 B(  2-C ,  7-C ) :   0.8421
B(  2-C ,  9-H ) :   0.1363 B(  2-C , 10-H ) :   0.2972 B(  3-C ,  4-C ) :   1.3257
B(  3-C ,  5-C ) :   0.3035 B(  3-C ,  6-C ) :  -0.2948 B(  3-C ,  7-C ) :   1.6222
B(  3-C , 11-H ) :   0.1945 B(  4-C ,  5-C ) :   2.1236 B(  4-C ,  6-C ) :  -0.2757
B(  4-C ,  7-C ) :  -0.3844 B(  4-C , 11-H ) :  -0.1895 B(  4-C , 12-H ) :   0.6542
B(  5-C ,  6-C ) :   0.8421 B(  5-C , 12-H ) :   0.1363 B(  5-C , 13-H ) :   0.2972
B(  6-C ,  7-C ) :   2.2767 B(  6-C ,  8-H ) :   0.7535 B(  6-C , 13-H ) :   0.5338
B(  7-C , 10-H ) :   0.5338 B(  7-C , 11-H ) :   0.7535

MP2 TOTAL ENERGY:     -307.444574301 Eh
FINAL SINGLE POINT ENERGY      -307.444574301293

DIPOLE MOMENT
-------------
                                X             Y             Z
Electronic contribution:     -0.00000      -0.00000      -0.00000
Nuclear contribution   :     -0.00000       0.00000       0.00000
                        -----------------------------------------
Total Dipole Moment    :     -0.00000      -0.00000      -0.00000
                        -----------------------------------------
Magnitude (a.u.)       :      0.00000
Magnitude (Debye)      :      0.00000

Rotational constants in cm-1:     0.175390     0.072456     0.051274
Rotational constants in MHz :  5258.057428  2172.173080  1537.154303

                             ****ORCA TERMINATED NORMALLY****
TOTAL RUN TIME: 0 days 0 hours 1 minutes 38 seconds 95 msec
