                         Program Version 5.0.3 -  RELEASE  -
|  1> !ri-mp2 aug-cc-pvdz aug-cc-pvdz/c tightscf
|  2> %pal nprocs 16 end
|  3>
|  4> * xyz 0 1
|  5> C      0.656988   -0.482689    0.000000
|  6> C      0.000000    0.643879    0.000000
|  7> C     -0.646073    1.774994    0.000000
|  8> O      0.112787   -1.745853    0.000000
|  9> H      1.737890   -0.517886    0.000000
| 10> H     -0.928536    2.272014    0.922836
| 11> H     -0.928536    2.272014   -0.922836
| 12> H     -0.848607   -1.676418    0.000000
| 13> *
| 14>
| 15>                          ****END OF INPUT****

CARTESIAN COORDINATES (ANGSTROEM)
---------------------------------
  C      0.656988   -0.482689    0.000000
  C      0.000000    0.643879    0.000000
  C     -0.646073    1.774994    0.000000
  O      0.112787   -1.745853    0.000000
  H      1.737890   -0.517886    0.000000
  H     -0.928536    2.272014    0.922836
  H     -0.928536    2.272014   -0.922836
  H     -0.848607   -1.676418    0.000000

 Total Charge           Charge          ....    0
 Multiplicity           Mult            ....    1
 Number of Electrons    NEL             ....   30
 Basis Dimension        Dim             ....  128

ORBITAL ENERGIES
----------------

  NO   OCC          E(Eh)            E(eV)
   0   2.0000     -20.601317      -560.5903
   1   2.0000     -11.312041      -307.8163
   2   2.0000     -11.258022      -306.3463
   3   2.0000     -11.252141      -306.1863
   4   2.0000      -1.402935       -38.1758
   5   2.0000      -1.071917       -29.1683
   6   2.0000      -0.953813       -25.9546
   7   2.0000      -0.790583       -21.5129
   8   2.0000      -0.674142       -18.3443
   9   2.0000      -0.650090       -17.6899
  10   2.0000      -0.616997       -16.7894
  11   2.0000      -0.572158       -15.5692
  12   2.0000      -0.567131       -15.4324
  13   2.0000      -0.391388       -10.6502
  14   2.0000      -0.350309        -9.5324
  15   0.0000       0.034504         0.9389
  16   0.0000       0.047453         1.2913
  17   0.0000       0.051768         1.4087
  18   0.0000       0.052920         1.4400
  19   0.0000       0.096535         2.6269

MULLIKEN ATOMIC CHARGES
-----------------------
   0 C :    1.210472
   1 C :   -0.605949
   2 C :    0.601502
   3 O :   -0.711041
   4 H :   -0.248246
   5 H :   -0.196111
   6 H :   -0.196111
   7 H :    0.145485
Sum of atomic charges:   -0.0000000

LOEWDIN ATOMIC CHARGES
----------------------
   0 C :   -0.069595
   1 C :   -0.085235
   2 C :    0.150826
   3 O :    0.138090
   4 H :   -0.008521
   5 H :   -0.040432
   6 H :   -0.040432
   7 H :   -0.044702

  Mayer bond orders larger than 0.100000
B(  0-C ,  1-C ) :   1.9383 B(  0-C ,  2-C ) :   0.3450 B(  0-C ,  3-O ) :   0.2710
B(  0-C ,  4-H ) :   0.7220 B(  1-C ,  2-C ) :   2.0784 B(  1-C ,  3-O ) :   0.1946
B(  1-C ,  5-H ) :   0.1254 B(  1-C ,  6-H ) :   0.1254 B(  2-C ,  5-H ) :   0.7646
B(  2-C ,  6-H ) :   0.7646 B(  3-O ,  7-H ) :   1.0654 B(  5-H ,  6-H ) :  -0.1414

MP2 TOTAL ENERGY:     -191.344130301 Eh
FINAL SINGLE POINT ENERGY      -191.344130301147

DIPOLE MOMENT
-------------
                                X             Y             Z
Electronic contribution:      0.58725      -1.93941       0.00000
Nuclear contribution   :     -0.97080       2.33372       0.00000
                        -----------------------------------------
Total Dipole Moment    :     -0.38356       0.39432       0.00000
                        -----------------------------------------
Magnitude (a.u.)       :      0.55009
Magnitude (Debye)      :      1.39823

Rotational constants in cm-1:     1.462736     0.145825     0.136286
Rotational constants in MHz : 43851.709798  4371.712506  4085.751309

                             ****ORCA TERMINATED NORMALLY****
TOTAL RUN TIME: 0 days 0 hours 0 minutes 36 seconds 941 msec
