                         Program Version 5.0.3 -  RELEASE  -
|  1> !ri-mp2 aug-cc-pvdz aug-cc-pvdz/c tightscf
|  2> %pal nprocs 16 end
|  3> %maxcore 3800
|  4>
|  5> * xyz 0 1
|  6> C      0.000000    0.612118    0.000000
|  7> C      3.008130    3.090722    0.000000
|  8> C     -2.513916   -3.581102    0.000000
|  9> C      1.428318    1.107953    0.000000
| 10> C      1.552590    2.627842    0.000000
| 11> C     -1.172950   -2.848444    0.000000
| 12> C     -1.353001   -1.343669    0.000000
| 13> O     -0.985991    1.306773    0.000000
| 14> O     -0.041603   -0.736721    0.000000
| 15> H      3.073746    4.179115    0.000000
| 16> H      3.541696    2.727258    0.880860
| 17> H      3.541696    2.727258   -0.880860
| 18> H     -3.106341   -3.328029   -0.881190
| 19> H     -2.366530   -4.660890    0.000000
| 20> H     -3.106341   -3.328029    0.881190
| 21> H      1.929119    0.673098    0.869456
| 22> H      1.929119    0.673098   -0.869456
| 23> H      1.031923    3.030231   -0.870409
| 24> H      1.031923    3.030231    0.870409
| 25> H     -0.587970   -3.136322   -0.876168
| 26> H     -0.587970   -3.136322    0.876168
| 27> H     -1.899180   -1.001821   -0.880481
| 28> H     -1.899180   -1.001821    0.880481
| 29> *
| 30>
| 31>                          ****END OF INPUT****

CARTESIAN COORDINATES (ANGSTROEM)
---------------------------------
  C      0.000000    0.612118    0.000000
  C      3.008130    3.090722    0.000000
  C     -2.513916   -3.581102    0.000000
  C      1.428318    1.107953    0.000000
  C      1.552590    2.627842    0.000000
  C     -1.172950   -2.848444    0.000000
  C     -1.353001   -1.343669    0.000000
  O     -0.985991    1.306773    0.000000
  O     -0.041603   -0.736721    0.000000
  H      3.073746    4.179115    0.000000
  H      3.541696    2.727258    0.880860
  H      3.541696    2.727258   -0.880860
  H     -3.106341   -3.328029   -0.881190
  H     -2.366530   -4.660890    0.000000
  H     -3.106341   -3.328029    0.881190
  H      1.929119    0.673098    0.869456
  H      1.929119    0.673098   -0.869456
  H      1.031923    3.030231   -0.870409
  H      1.031923    3.030231    0.870409
  H     -0.587970   -3.136322   -0.876168
  H     -0.587970   -3.136322    0.876168
  H     -1.899180   -1.001821   -0.880481
  H     -1.899180   -1.001821    0.880481

 Total Charge           Charge          ....    0
 Multiplicity           Mult            ....    1
 Number of Electrons    NEL             ....   72
 Basis Dimension        Dim             ....  333

ORBITAL ENERGIES
----------------

  NO   OCC          E(Eh)            E(eV)
   0   2.0000     -20.604591      -560.6794
   1   2.0000     -20.550314      -559.2025
   2   2.0000     -11.381983      -309.7195
   3   2.0000     -11.289805      -307.2112
   4   2.0000     -11.244813      -305.9869
   5   2.0000     -11.233909      -305.6902
   6   2.0000     -11.228842      -305.5523
   7   2.0000     -11.228502      -305.5431
   8   2.0000     -11.223155      -305.3976
   9   2.0000      -1.457275       -39.6545
  10   2.0000      -1.358180       -36.9580
  11   2.0000      -1.085572       -29.5399
  12   2.0000      -1.065504       -28.9938
  13   2.0000      -0.981558       -26.7096
  14   2.0000      -0.930420       -25.3180
  15   2.0000      -0.836315       -22.7573
  16   2.0000      -0.812424       -22.1072
  17   2.0000      -0.767169       -20.8757
  18   2.0000      -0.690857       -18.7992
  19   2.0000      -0.686303       -18.6752
  20   2.0000      -0.668088       -18.1796
  21   2.0000      -0.644218       -17.5301
  22   2.0000      -0.604743       -16.4559
  23   2.0000      -0.597053       -16.2466
  24   2.0000      -0.572671       -15.5832
  25   2.0000      -0.557587       -15.1727
  26   2.0000      -0.543488       -14.7891
  27   2.0000      -0.520454       -14.1623
  28   2.0000      -0.519571       -14.1383
  29   2.0000      -0.499136       -13.5822
  30   2.0000      -0.488416       -13.2905
  31   2.0000      -0.485129       -13.2010
  32   2.0000      -0.484667       -13.1885
  33   2.0000      -0.476366       -12.9626
  34   2.0000      -0.453487       -12.3400
  35   2.0000      -0.439203       -11.9513
  36   0.0000       0.034905         0.9498
  37   0.0000       0.037747         1.0271
  38   0.0000       0.045651         1.2422
  39   0.0000       0.046555         1.2668
  40   0.0000       0.052299         1.4231

MULLIKEN ATOMIC CHARGES
-----------------------
   0 C :    0.434724
   1 C :    0.481086
   2 C :    0.477988
   3 C :    0.275045
   4 C :    0.411851
   5 C :    0.263433
   6 C :    0.830654
   7 O :   -0.689129
   8 O :   -0.749198
   9 H :   -0.058892
  10 H :   -0.083020
  11 H :   -0.083020
  12 H :   -0.074679
  13 H :   -0.078981
  14 H :   -0.074679
  15 H :   -0.114908
  16 H :   -0.114908
  17 H :   -0.170906
  18 H :   -0.170906
  19 H :   -0.158120
  20 H :   -0.158120
  21 H :   -0.197657
  22 H :   -0.197657
Sum of atomic charges:    0.0000000

LOEWDIN ATOMIC CHARGES
----------------------
   0 C :   -0.325826
   1 C :    0.133578
   2 C :    0.137929
   3 C :    0.024405
   4 C :   -0.061557
   5 C :   -0.065715
   6 C :    0.000836
   7 O :    0.052212
   8 O :    0.075217
   9 H :   -0.019780
  10 H :   -0.019853
  11 H :   -0.019853
  12 H :   -0.018525
  13 H :   -0.019809
  14 H :   -0.018525
  15 H :    0.026832
  16 H :    0.026832
  17 H :    0.015746
  18 H :    0.015746
  19 H :    0.014353
  20 H :    0.014353
  21 H :    0.015702
  22 H :    0.015702

  Mayer bond orders larger than 0.100000
B(  0-C ,  3-C ) :   0.9923 B(  0-C ,  7-O ) :   1.8019 B(  0-C ,  8-O ) :   0.5159
B(  0-C , 17-H ) :   0.1027 B(  0-C , 18-H ) :   0.1027 B(  1-C ,  3-C ) :  -0.1184
B(  1-C ,  4-C ) :   1.2402 B(  1-C ,  9-H ) :   0.9324 B(  1-C , 10-H ) :   0.9250
B(  1-C , 11-H ) :   0.9250 B(  2-C ,  5-C ) :   1.1181 B(  2-C , 12-H ) :   0.9258
B(  2-C , 13-H ) :   0.9202 B(  2-C , 14-H ) :   0.9258 B(  3-C ,  4-C ) :   1.1711
B(  3-C ,  7-O ) :  -0.1369 B(  3-C , 15-H ) :   0.8718 B(  3-C , 16-H ) :   0.8718
B(  4-C , 17-H ) :   0.7900 B(  4-C , 18-H ) :   0.7900 B(  5-C ,  6-C ) :   1.2358
B(  5-C , 19-H ) :   0.7573 B(  5-C , 20-H ) :   0.7573 B(  6-C ,  8-O ) :   0.5992
B(  6-C , 19-H ) :   0.1301 B(  6-C , 20-H ) :   0.1301 B(  6-C , 21-H ) :   0.8048
B(  6-C , 22-H ) :   0.8048

MP2 TOTAL ENERGY:     -424.445828209 Eh
FINAL SINGLE POINT ENERGY      -424.445828208633

DIPOLE MOMENT
-------------
                                X             Y             Z
Electronic contribution:     -2.12576       1.99528       0.00000
Nuclear contribution   :      2.60656      -2.64233       0.00000
                        -----------------------------------------
Total Dipole Moment    :      0.48080      -0.64705       0.00000
                        -----------------------------------------
Magnitude (a.u.)       :      0.80613
Magnitude (Debye)      :      2.04901

Rotational constants in cm-1:     0.202414     0.017762     0.016629
Rotational constants in MHz :  6068.227886   532.496059   498.511835

                             ****ORCA TERMINATED NORMALLY****
TOTAL RUN TIME: 0 days 0 hours 1 minutes 37 seconds 243 msec
