                         Program Version 5.0.3 -  RELEASE  -
|  1> !ri-mp2 aug-cc-pvdz aug-cc-pvdz/c tightscf
|  2> %pal nprocs 16 end
|  3>
|  4> * xyz 0 1
|  5> O      0.219214   -0.692487    0.000002
|  6> O     -1.737049   -1.731787    0.000000
|  7> C     -1.131002   -0.695733    0.000000
|  8> C     -1.795334    0.594519   -0.000001
|  9> C      0.941706    0.562529    0.000002
| 10> C      2.364687    0.276671    0.000000
| 11> C     -2.399277    1.630600   -0.000004
| 12> C      3.545311    0.077874    0.000000
| 13> H      0.670540    1.140839    0.884807
| 14> H      0.670539    1.140839   -0.884803
| 15> H     -2.945518    2.542080   -0.000006
| 16> H      4.590571   -0.108328   -0.000001
| 17> *
| 18>
| 19>                          ****END OF INPUT****

CARTESIAN COORDINATES (ANGSTROEM)
---------------------------------
  O      0.219214   -0.692487    0.000002
  O     -1.737049   -1.731787    0.000000
  C     -1.131002   -0.695733    0.000000
  C     -1.795334    0.594519   -0.000001
  C      0.941706    0.562529    0.000002
  C      2.364687    0.276671    0.000000
  C     -2.399277    1.630600   -0.000004
  C      3.545311    0.077874    0.000000
  H      0.670540    1.140839    0.884807
  H      0.670539    1.140839   -0.884803
  H     -2.945518    2.542080   -0.000006
  H      4.590571   -0.108328   -0.000001

 Total Charge           Charge          ....    0
 Multiplicity           Mult            ....    1
 Number of Electrons    NEL             ....   56
 Basis Dimension        Dim             ....  220

ORBITAL ENERGIES
----------------

  NO   OCC          E(Eh)            E(eV)
   0   2.0000     -20.635465      -561.5196
   1   2.0000     -20.575664      -559.8923
   2   2.0000     -11.430808      -311.0481
   3   2.0000     -11.348328      -308.8037
   4   2.0000     -11.292634      -307.2882
   5   2.0000     -11.282832      -307.0215
   6   2.0000     -11.261865      -306.4509
   7   2.0000     -11.256136      -306.2950
   8   2.0000      -1.483820       -40.3768
   9   2.0000      -1.389938       -37.8221
  10   2.0000      -1.090762       -29.6812
  11   2.0000      -1.082795       -29.4644
  12   2.0000      -0.991255       -26.9734
  13   2.0000      -0.909258       -24.7422
  14   2.0000      -0.783242       -21.3131
  15   2.0000      -0.752965       -20.4892
  16   2.0000      -0.741238       -20.1701
  17   2.0000      -0.704304       -19.1651
  18   2.0000      -0.700000       -19.0480
  19   2.0000      -0.651246       -17.7213
  20   2.0000      -0.600912       -16.3517
  21   2.0000      -0.566744       -15.4219
  22   2.0000      -0.493112       -13.4183
  23   2.0000      -0.487509       -13.2658
  24   2.0000      -0.440628       -11.9901
  25   2.0000      -0.439306       -11.9541
  26   2.0000      -0.418275       -11.3818
  27   2.0000      -0.408324       -11.1111
  28   0.0000       0.025792         0.7018
  29   0.0000       0.034605         0.9417
  30   0.0000       0.047756         1.2995
  31   0.0000       0.051321         1.3965
  32   0.0000       0.069383         1.8880

MULLIKEN ATOMIC CHARGES
-----------------------
   0 O :   -0.851809
   1 O :   -0.733371
   2 C :    1.171431
   3 C :   -0.225168
   4 C :    0.644883
   5 C :   -0.533293
   6 C :    0.596780
   7 C :    1.102085
   8 H :   -0.065579
   9 H :   -0.065577
  10 H :   -0.480922
  11 H :   -0.559462
Sum of atomic charges:    0.0000000

LOEWDIN ATOMIC CHARGES
----------------------
   0 O :    0.084302
   1 O :    0.077988
   2 C :   -0.370818
   3 C :   -0.020754
   4 C :   -0.029494
   5 C :   -0.083223
   6 C :    0.257750
   7 C :    0.228137
   8 H :    0.018823
   9 H :    0.018823
  10 H :   -0.084634
  11 H :   -0.096900

  Mayer bond orders larger than 0.100000
B(  0-O ,  2-C ) :   0.5460 B(  0-O ,  3-C ) :   0.2493 B(  0-O ,  4-C ) :   0.5694
B(  1-O ,  2-C ) :   1.4749 B(  2-C ,  3-C ) :   0.9753 B(  2-C ,  6-C ) :   0.1151
B(  3-C ,  6-C ) :   2.8662 B(  3-C , 10-H ) :   0.3218 B(  4-C ,  5-C ) :   1.5894
B(  4-C ,  7-C ) :   0.2482 B(  4-C ,  8-H ) :   0.8594 B(  4-C ,  9-H ) :   0.8594
B(  5-C ,  7-C ) :   2.7287 B(  5-C , 11-H ) :   0.9221 B(  6-C , 10-H ) :   0.1196
B(  7-C , 11-H ) :  -0.6441

MP2 TOTAL ENERGY:     -380.326153464 Eh
FINAL SINGLE POINT ENERGY      -380.326153464104

DIPOLE MOMENT
-------------
                                X             Y             Z
Electronic contribution:     -2.45192      -2.60158       0.00000
Nuclear contribution   :      2.88208       4.55070      -0.00000
                        -----------------------------------------
Total Dipole Moment    :      0.43016       1.94912      -0.00000
                        -----------------------------------------
Magnitude (a.u.)       :      1.99602
Magnitude (Debye)      :      5.07349

Rotational constants in cm-1:     0.149383     0.038882     0.031031
Rotational constants in MHz :  4478.387388  1165.651576   930.286207

                             ****ORCA TERMINATED NORMALLY****
TOTAL RUN TIME: 0 days 0 hours 0 minutes 59 seconds 41 msec
