                         Program Version 5.0.3 -  RELEASE  -
|  1> !ri-mp2 aug-cc-pvdz aug-cc-pvdz/c tightscf
|  2> %pal nprocs 16 end
|  3>
|  4> * xyz 0 1
|  5> C      0.002824    1.104180    1.201145
|  6> C      0.002824    1.104180   -1.201145
|  7> C      0.002824   -0.282935    1.203368
|  8> C      0.002824   -0.282935   -1.203368
|  9> C      0.001749    1.821531    0.000000
| 10> C      0.002775   -0.973267    0.000000
| 11> N      0.059244    3.213615    0.000000
| 12> Cl     0.000656   -2.729245    0.000000
| 13> H      0.008179    1.636737    2.143798
| 14> H      0.008179    1.636737   -2.143798
| 15> H      0.002153   -0.824965    2.137851
| 16> H      0.002153   -0.824965   -2.137851
| 17> H     -0.270719    3.666897    0.836100
| 18> H     -0.270719    3.666897   -0.836100
| 19> *
| 20>
| 21>                          ****END OF INPUT****

CARTESIAN COORDINATES (ANGSTROEM)
---------------------------------
  C      0.002824    1.104180    1.201145
  C      0.002824    1.104180   -1.201145
  C      0.002824   -0.282935    1.203368
  C      0.002824   -0.282935   -1.203368
  C      0.001749    1.821531    0.000000
  C      0.002775   -0.973267    0.000000
  N      0.059244    3.213615    0.000000
  Cl     0.000656   -2.729245    0.000000
  H      0.008179    1.636737    2.143798
  H      0.008179    1.636737   -2.143798
  H      0.002153   -0.824965    2.137851
  H      0.002153   -0.824965   -2.137851
  H     -0.270719    3.666897    0.836100
  H     -0.270719    3.666897   -0.836100

 Total Charge           Charge          ....    0
 Multiplicity           Mult            ....    1
 Number of Electrons    NEL             ....   66
 Basis Dimension        Dim             ....  242

ORBITAL ENERGIES
----------------

  NO   OCC          E(Eh)            E(eV)
   0   2.0000    -104.830609     -2852.5859
   1   2.0000     -15.583317      -424.0436
   2   2.0000     -11.296381      -307.3902
   3   2.0000     -11.292696      -307.2899
   4   2.0000     -11.256601      -306.3077
   5   2.0000     -11.256565      -306.3067
   6   2.0000     -11.244119      -305.9680
   7   2.0000     -11.244099      -305.9675
   8   2.0000     -10.556444      -287.2555
   9   2.0000      -8.024246      -218.3508
  10   2.0000      -8.021022      -218.2631
  11   2.0000      -8.020835      -218.2580
  12   2.0000      -1.240298       -33.7502
  13   2.0000      -1.176116       -32.0037
  14   2.0000      -1.099563       -29.9206
  15   2.0000      -1.034005       -28.1367
  16   2.0000      -0.976671       -26.5766
  17   2.0000      -0.856102       -23.2957
  18   2.0000      -0.816573       -22.2201
  19   2.0000      -0.716879       -19.5073
  20   2.0000      -0.706057       -19.2128
  21   2.0000      -0.652027       -17.7426
  22   2.0000      -0.619435       -16.8557
  23   2.0000      -0.609230       -16.5780
  24   2.0000      -0.599739       -16.3197
  25   2.0000      -0.555089       -15.1047
  26   2.0000      -0.523586       -14.2475
  27   2.0000      -0.511742       -13.9252
  28   2.0000      -0.502601       -13.6765
  29   2.0000      -0.448119       -12.1939
  30   2.0000      -0.433473       -11.7954
  31   2.0000      -0.353101        -9.6084
  32   2.0000      -0.299404        -8.1472
  33   0.0000       0.028074         0.7639
  34   0.0000       0.038587         1.0500
  35   0.0000       0.046073         1.2537
  36   0.0000       0.056860         1.5472
  37   0.0000       0.063086         1.7167

MULLIKEN ATOMIC CHARGES
-----------------------
   0 C :    1.096530
   1 C :    1.096530
   2 C :    0.565316
   3 C :    0.565316
   4 C :   -0.030218
   5 C :   -0.444795
   6 N :   -0.389927
   7 Cl:   -0.386059
   8 H :   -0.588651
   9 H :   -0.588651
  10 H :   -0.403014
  11 H :   -0.403014
  12 H :   -0.044681
  13 H :   -0.044681
Sum of atomic charges:   -0.0000000

LOEWDIN ATOMIC CHARGES
----------------------
   0 C :    0.048763
   1 C :    0.048763
   2 C :   -0.017034
   3 C :   -0.017034
   4 C :   -0.235683
   5 C :   -0.557474
   6 N :    0.241685
   7 Cl:    0.538328
   8 H :    0.003015
   9 H :    0.003015
  10 H :    0.001442
  11 H :    0.001442
  12 H :   -0.029614
  13 H :   -0.029614

  Mayer bond orders larger than 0.100000
B(  0-C ,  2-C ) :   1.8609 B(  0-C ,  3-C ) :   0.2686 B(  0-C ,  4-C ) :   1.7357
B(  0-C ,  5-C ) :  -0.2603 B(  0-C ,  7-Cl) :   0.1203 B(  0-C ,  8-H ) :  -0.3807
B(  1-C ,  2-C ) :   0.2686 B(  1-C ,  3-C ) :   1.8609 B(  1-C ,  4-C ) :   1.7357
B(  1-C ,  5-C ) :  -0.2603 B(  1-C ,  7-Cl) :   0.1203 B(  1-C ,  9-H ) :  -0.3807
B(  2-C ,  4-C ) :  -0.2139 B(  2-C ,  5-C ) :   1.7395 B(  2-C ,  7-Cl) :  -0.2884
B(  2-C ,  8-H ) :   0.2994 B(  2-C , 10-H ) :   0.1755 B(  3-C ,  4-C ) :  -0.2139
B(  3-C ,  5-C ) :   1.7395 B(  3-C ,  7-Cl) :  -0.2884 B(  3-C ,  9-H ) :   0.2994
B(  3-C , 11-H ) :   0.1755 B(  4-C ,  5-C ) :   0.1765 B(  4-C ,  6-N ) :   0.8359
B(  4-C ,  8-H ) :   0.8151 B(  4-C ,  9-H ) :   0.8151 B(  4-C , 10-H ) :  -0.1041
B(  4-C , 11-H ) :  -0.1041 B(  5-C ,  7-Cl) :   1.0080 B(  5-C ,  8-H ) :  -0.2324
B(  5-C ,  9-H ) :  -0.2324 B(  5-C , 10-H ) :   0.4994 B(  5-C , 11-H ) :   0.4994
B(  6-N , 12-H ) :   1.1181 B(  6-N , 13-H ) :   1.1181

MP2 TOTAL ENERGY:     -745.827852274 Eh
FINAL SINGLE POINT ENERGY      -745.827852273681

DIPOLE MOMENT
-------------
                                X             Y             Z
Electronic contribution:      0.13350     -11.21297      -0.00000
Nuclear contribution   :     -0.50657      12.51519       0.00000
                        -----------------------------------------
Total Dipole Moment    :     -0.37307       1.30222      -0.00000
                        -----------------------------------------
Magnitude (a.u.)       :      1.35460
Magnitude (Debye)      :      3.44312

Rotational constants in cm-1:     0.188297     0.032173     0.027495
Rotational constants in MHz :  5645.006898   964.523691   824.293987

                             ****ORCA TERMINATED NORMALLY****
TOTAL RUN TIME: 0 days 0 hours 1 minutes 14 seconds 140 msec
