                         Program Version 5.0.3 -  RELEASE  -
|  1> !ri-mp2 aug-cc-pvdz aug-cc-pvdz/c tightscf
|  2> %pal nprocs 16 end
|  3> %maxcore 3800
|  4>
|  5> * xyz 0 1
|  6> C     -0.588673    0.514586   -0.092762
|  7> C      0.588673   -0.514586   -0.092763
|  8> C     -2.009338   -0.118245    0.074227
|  9> C      2.009338    0.118245    0.074228
| 10> F     -0.415550    1.394344    0.915469
| 11> F     -0.572838    1.184057   -1.260942
| 12> F      0.415550   -1.394345    0.915467
| 13> F      0.572838   -1.184055   -1.260944
| 14> F     -2.925528    0.830845   -0.129852
| 15> F      2.925528   -0.830845   -0.129853
| 16> F     -2.197432   -1.096346   -0.814973
| 17> F     -2.171696   -0.609091    1.302656
| 18> F      2.197432    1.096347   -0.814971
| 19> F      2.171696    0.609089    1.302657
| 20> *
| 21>
| 22>                          ****END OF INPUT****

CARTESIAN COORDINATES (ANGSTROEM)
---------------------------------
  C     -0.588673    0.514586   -0.092762
  C      0.588673   -0.514586   -0.092763
  C     -2.009338   -0.118245    0.074227
  C      2.009338    0.118245    0.074228
  F     -0.415550    1.394344    0.915469
  F     -0.572838    1.184057   -1.260942
  F      0.415550   -1.394345    0.915467
  F      0.572838   -1.184055   -1.260944
  F     -2.925528    0.830845   -0.129852
  F      2.925528   -0.830845   -0.129853
  F     -2.197432   -1.096346   -0.814973
  F     -2.171696   -0.609091    1.302656
  F      2.197432    1.096347   -0.814971
  F      2.171696    0.609089    1.302657

 Total Charge           Charge          ....    0
 Multiplicity           Mult            ....    1
 Number of Electrons    NEL             ....  114
 Basis Dimension        Dim             ....  322

ORBITAL ENERGIES
----------------

  NO   OCC          E(Eh)            E(eV)
   0   2.0000     -26.395446      -718.2566
   1   2.0000     -26.395445      -718.2566
   2   2.0000     -26.394918      -718.2422
   3   2.0000     -26.394918      -718.2422
   4   2.0000     -26.393329      -718.1990
   5   2.0000     -26.393328      -718.1990
   6   2.0000     -26.393295      -718.1981
   7   2.0000     -26.393294      -718.1980
   8   2.0000     -26.391871      -718.1593
   9   2.0000     -26.391870      -718.1593
  10   2.0000     -11.571644      -314.8805
  11   2.0000     -11.571644      -314.8804
  12   2.0000     -11.513413      -313.2959
  13   2.0000     -11.512874      -313.2812
  14   2.0000      -1.784824       -48.5675
  15   2.0000      -1.780739       -48.4564
  16   2.0000      -1.745868       -47.5075
  17   2.0000      -1.734020       -47.1851
  18   2.0000      -1.690630       -46.0044
  19   2.0000      -1.685059       -45.8528
  20   2.0000      -1.682578       -45.7853
  21   2.0000      -1.681692       -45.7612
  22   2.0000      -1.676733       -45.6262
  23   2.0000      -1.673032       -45.5255
  24   2.0000      -1.145602       -31.1734
  25   2.0000      -1.083435       -29.4818
  26   2.0000      -1.000429       -27.2231
  27   2.0000      -0.956406       -26.0251
  28   2.0000      -0.900284       -24.4980
  29   2.0000      -0.899653       -24.4808
  30   2.0000      -0.878692       -23.9104
  31   2.0000      -0.872247       -23.7351
  32   2.0000      -0.871181       -23.7060
  33   2.0000      -0.864896       -23.5350
  34   2.0000      -0.848440       -23.0872
  35   2.0000      -0.839639       -22.8477
  36   2.0000      -0.810272       -22.0486
  37   2.0000      -0.767314       -20.8797
  38   2.0000      -0.763287       -20.7701
  39   2.0000      -0.754935       -20.5428
  40   2.0000      -0.752975       -20.4895
  41   2.0000      -0.750533       -20.4230
  42   2.0000      -0.744477       -20.2583
  43   2.0000      -0.740146       -20.1404
  44   2.0000      -0.732594       -19.9349
  45   2.0000      -0.728842       -19.8328
  46   2.0000      -0.711267       -19.3546
  47   2.0000      -0.704366       -19.1668
  48   2.0000      -0.699650       -19.0384
  49   2.0000      -0.697612       -18.9830
  50   2.0000      -0.694985       -18.9115
  51   2.0000      -0.690625       -18.7929
  52   2.0000      -0.687289       -18.7021
  53   2.0000      -0.684370       -18.6226
  54   2.0000      -0.655432       -17.8352
  55   2.0000      -0.626751       -17.0547
  56   2.0000      -0.558748       -15.2043
  57   0.0000       0.065170         1.7734
  58   0.0000       0.070194         1.9101
  59   0.0000       0.074265         2.0209
  60   0.0000       0.082719         2.2509
  61   0.0000       0.094268         2.5652

MULLIKEN ATOMIC CHARGES
-----------------------
   0 C :    1.086340
   1 C :    1.086340
   2 C :    2.203088
   3 C :    2.203088
   4 F :   -0.721782
   5 F :   -0.708398
   6 F :   -0.721782
   7 F :   -0.708398
   8 F :   -0.615887
   9 F :   -0.615888
  10 F :   -0.631905
  11 F :   -0.611456
  12 F :   -0.631905
  13 F :   -0.611455
Sum of atomic charges:   -0.0000000

LOEWDIN ATOMIC CHARGES
----------------------
   0 C :   -0.251902
   1 C :   -0.251902
   2 C :   -0.323296
   3 C :   -0.323296
   4 F :    0.114205
   5 F :    0.115400
   6 F :    0.114205
   7 F :    0.115400
   8 F :    0.116223
   9 F :    0.116223
  10 F :    0.114633
  11 F :    0.114737
  12 F :    0.114633
  13 F :    0.114737

  Mayer bond orders larger than 0.100000
B(  0-C ,  1-C ) :   1.0046 B(  0-C ,  2-C ) :   0.9893 B(  0-C ,  6-F ) :   0.2140
B(  0-C ,  7-F ) :   0.2064 B(  0-C ,  8-F ) :   0.2456 B(  0-C , 10-F ) :   0.1787
B(  0-C , 11-F ) :   0.1440 B(  1-C ,  3-C ) :   0.9893 B(  1-C ,  4-F ) :   0.2140
B(  1-C ,  5-F ) :   0.2064 B(  1-C ,  9-F ) :   0.2456 B(  1-C , 12-F ) :   0.1787
B(  1-C , 13-F ) :   0.1440 B(  2-C ,  8-F ) :   0.2026 B(  2-C , 10-F ) :   0.2645
B(  2-C , 11-F ) :   0.2888 B(  3-C ,  9-F ) :   0.2026 B(  3-C , 12-F ) :   0.2645
B(  3-C , 13-F ) :   0.2888

MP2 TOTAL ENERGY:    -1148.552507602 Eh
FINAL SINGLE POINT ENERGY     -1148.552507602017

DIPOLE MOMENT
-------------
                                X             Y             Z
Electronic contribution:      0.00000       0.00000       0.03912
Nuclear contribution   :      0.00000      -0.00000      -0.02195
                        -----------------------------------------
Total Dipole Moment    :      0.00000       0.00000       0.01717
                        -----------------------------------------
Magnitude (a.u.)       :      0.01717
Magnitude (Debye)      :      0.04364

Rotational constants in cm-1:     0.041853     0.016940     0.016334
Rotational constants in MHz :  1254.721900   507.838845   489.688615

                             ****ORCA TERMINATED NORMALLY****
TOTAL RUN TIME: 0 days 0 hours 1 minutes 44 seconds 519 msec
