                         Program Version 5.0.3 -  RELEASE  -
|  1> !ri-mp2 aug-cc-pvdz aug-cc-pvdz/c tightscf
|  2> %pal nprocs 16 end
|  3>
|  4> * xyz 0 1
|  5> C      0.000000    0.000000    1.417677
|  6> C      0.000000    0.000000    0.218758
|  7> C      0.000000    0.000000   -1.236142
|  8> H      0.000000    0.000000    2.478402
|  9> H      0.000000    1.018882   -1.626721
| 10> H      0.882377   -0.509441   -1.626721
| 11> H     -0.882377   -0.509441   -1.626721
| 12> *
| 13>
| 14>                          ****END OF INPUT****

CARTESIAN COORDINATES (ANGSTROEM)
---------------------------------
  C      0.000000    0.000000    1.417677
  C      0.000000    0.000000    0.218758
  C      0.000000    0.000000   -1.236142
  H      0.000000    0.000000    2.478402
  H      0.000000    1.018882   -1.626721
  H      0.882377   -0.509441   -1.626721
  H     -0.882377   -0.509441   -1.626721

 Total Charge           Charge          ....    0
 Multiplicity           Mult            ....    1
 Number of Electrons    NEL             ....   22
 Basis Dimension        Dim             ....  105

ORBITAL ENERGIES
----------------

  NO   OCC          E(Eh)            E(eV)
   0   2.0000     -11.257557      -306.3337
   1   2.0000     -11.242678      -305.9288
   2   2.0000     -11.227041      -305.5033
   3   2.0000      -1.061744       -28.8915
   4   2.0000      -0.961413       -26.1614
   5   2.0000      -0.718961       -19.5639
   6   2.0000      -0.624103       -16.9827
   7   2.0000      -0.591533       -16.0964
   8   2.0000      -0.591533       -16.0964
   9   2.0000      -0.385579       -10.4921
  10   2.0000      -0.385579       -10.4921
  11   0.0000       0.035163         0.9568
  12   0.0000       0.041531         1.1301
  13   0.0000       0.060001         1.6327
  14   0.0000       0.060001         1.6327
  15   0.0000       0.090502         2.4627

MULLIKEN ATOMIC CHARGES
-----------------------
   0 C :    1.066823
   1 C :   -0.850481
   2 C :    0.227589
   3 H :   -0.513975
   4 H :    0.023349
   5 H :    0.023347
   6 H :    0.023347
Sum of atomic charges:    0.0000000

LOEWDIN ATOMIC CHARGES
----------------------
   0 C :    0.188641
   1 C :   -0.154468
   2 C :    0.108533
   3 H :   -0.111517
   4 H :   -0.010396
   5 H :   -0.010397
   6 H :   -0.010397

  Mayer bond orders larger than 0.100000
B(  0-C ,  1-C ) :   2.8058 B(  0-C ,  2-C ) :   0.1284 B(  0-C ,  3-H ) :  -0.1078
B(  1-C ,  2-C ) :   1.3611 B(  1-C ,  3-H ) :   0.4528 B(  1-C ,  4-H ) :   0.1203
B(  1-C ,  5-H ) :   0.1203 B(  1-C ,  6-H ) :   0.1203 B(  2-C ,  4-H ) :   0.8729
B(  2-C ,  5-H ) :   0.8729 B(  2-C ,  6-H ) :   0.8729

MP2 TOTAL ENERGY:     -116.286231014 Eh
FINAL SINGLE POINT ENERGY      -116.286231013851

DIPOLE MOMENT
-------------
                                X             Y             Z
Electronic contribution:     -0.00000      -0.00000       2.16427
Nuclear contribution   :      0.00000       0.00000      -2.47685
                        -----------------------------------------
Total Dipole Moment    :     -0.00000      -0.00000      -0.31258
                        -----------------------------------------
Magnitude (a.u.)       :      0.31258
Magnitude (Debye)      :      0.79451

Rotational constants in cm-1:     5.369918     0.287236     0.287236
Rotational constants in MHz : 160986.100087  8611.117914  8611.117551

                             ****ORCA TERMINATED NORMALLY****
TOTAL RUN TIME: 0 days 0 hours 0 minutes 50 seconds 463 msec
