                         Program Version 5.0.3 -  RELEASE  -
|  1> !ri-mp2 aug-cc-pvdz aug-cc-pvdz/c tightscf
|  2> %pal nprocs 16 end
|  3>
|  4> * xyz 0 1
|  5> H     -1.766142   -0.526208   -1.297472
|  6> C     -1.849296    0.110726   -0.416946
|  7> C     -0.795460   -0.266086    0.634887
|  8> C      0.604920   -0.137267    0.093049
|  9> O      1.306287   -1.044919   -0.274495
| 10> O      1.008287    1.158088    0.032116
| 11> H     -2.849620   -0.014338   -0.003869
| 12> H     -1.738498    1.147718   -0.730793
| 13> H     -0.895780    0.381920    1.506215
| 14> H      1.897322    1.160106   -0.352283
| 15> H     -0.924854   -1.298789    0.951287
| 16> *
| 17>
| 18>                          ****END OF INPUT****

CARTESIAN COORDINATES (ANGSTROEM)
---------------------------------
  H     -1.766142   -0.526208   -1.297472
  C     -1.849296    0.110726   -0.416946
  C     -0.795460   -0.266086    0.634887
  C      0.604920   -0.137267    0.093049
  O      1.306287   -1.044919   -0.274495
  O      1.008287    1.158088    0.032116
  H     -2.849620   -0.014338   -0.003869
  H     -1.738498    1.147718   -0.730793
  H     -0.895780    0.381920    1.506215
  H      1.897322    1.160106   -0.352283
  H     -0.924854   -1.298789    0.951287

 Total Charge           Charge          ....    0
 Multiplicity           Mult            ....    1
 Number of Electrons    NEL             ....   40
 Basis Dimension        Dim             ....  169

ORBITAL ENERGIES
----------------

  NO   OCC          E(Eh)            E(eV)
   0   2.0000     -20.621322      -561.1347
   1   2.0000     -20.560667      -559.4842
   2   2.0000     -11.394227      -310.0527
   3   2.0000     -11.254808      -306.2589
   4   2.0000     -11.241573      -305.8988
   5   2.0000      -1.468422       -39.9578
   6   2.0000      -1.365726       -37.1633
   7   2.0000      -1.070541       -29.1309
   8   2.0000      -0.913774       -24.8650
   9   2.0000      -0.811403       -22.0794
  10   2.0000      -0.707966       -19.2647
  11   2.0000      -0.684471       -18.6254
  12   2.0000      -0.637762       -17.3544
  13   2.0000      -0.617510       -16.8033
  14   2.0000      -0.595186       -16.1958
  15   2.0000      -0.546700       -14.8765
  16   2.0000      -0.528079       -14.3698
  17   2.0000      -0.513158       -13.9637
  18   2.0000      -0.481064       -13.0904
  19   2.0000      -0.447608       -12.1800
  20   0.0000       0.034058         0.9268
  21   0.0000       0.043291         1.1780
  22   0.0000       0.049300         1.3415
  23   0.0000       0.055577         1.5123
  24   0.0000       0.069299         1.8857

MULLIKEN ATOMIC CHARGES
-----------------------
   0 H :   -0.062811
   1 C :    0.305994
   2 C :    0.103509
   3 C :    1.083471
   4 O :   -0.758001
   5 O :   -0.684225
   6 H :   -0.068546
   7 H :   -0.051430
   8 H :    0.002597
   9 H :    0.171509
  10 H :   -0.042067
Sum of atomic charges:   -0.0000000

LOEWDIN ATOMIC CHARGES
----------------------
   0 H :   -0.013316
   1 C :    0.151648
   2 C :   -0.005019
   3 C :   -0.345834
   4 O :    0.035590
   5 O :    0.192391
   6 H :   -0.016955
   7 H :   -0.015682
   8 H :    0.018521
   9 H :   -0.020793
  10 H :    0.019450

  Mayer bond orders larger than 0.100000
B(  0-H ,  1-C ) :   0.9650 B(  1-C ,  2-C ) :   1.2136 B(  1-C ,  6-H ) :   0.9047
B(  1-C ,  7-H ) :   0.9550 B(  2-C ,  3-C ) :   1.0610 B(  2-C ,  8-H ) :   0.9036
B(  2-C , 10-H ) :   0.8000 B(  3-C ,  4-O ) :   1.3981 B(  3-C ,  5-O ) :   0.5014
B(  5-O ,  9-H ) :   1.0309

MP2 TOTAL ENERGY:     -267.709952890 Eh
FINAL SINGLE POINT ENERGY      -267.709952889714

DIPOLE MOMENT
-------------
                                X             Y             Z
Electronic contribution:      5.77353      -0.28732       0.11128
Nuclear contribution   :     -6.32903       0.86420       0.07024
                        -----------------------------------------
Total Dipole Moment    :     -0.55550       0.57688       0.18152
                        -----------------------------------------
Magnitude (a.u.)       :      0.82117
Magnitude (Debye)      :      2.08725

Rotational constants in cm-1:     0.287145     0.130058     0.104839
Rotational constants in MHz :  8608.387936  3899.043479  3142.996277

                             ****ORCA TERMINATED NORMALLY****
TOTAL RUN TIME: 0 days 0 hours 0 minutes 45 seconds 296 msec
