                         Program Version 5.0.3 -  RELEASE  -
|  1> !ri-mp2 aug-cc-pvdz aug-cc-pvdz/c tightscf
|  2> %pal nprocs 16 end
|  3>
|  4> * xyz 0 1
|  5> Cl    -1.342896   -0.692618   -0.000002
|  6> O     -0.259567    1.696079    0.000019
|  7> C     -0.024306    0.532850   -0.000069
|  8> C      1.265435   -0.081591   -0.000088
|  9> C      2.355970   -0.580206    0.000092
| 10> H      3.323175   -1.020441    0.000275
| 11> *
| 12>
| 13>                          ****END OF INPUT****

CARTESIAN COORDINATES (ANGSTROEM)
---------------------------------
  Cl    -1.342896   -0.692618   -0.000002
  O     -0.259567    1.696079    0.000019
  C     -0.024306    0.532850   -0.000069
  C      1.265435   -0.081591   -0.000088
  C      2.355970   -0.580206    0.000092
  H      3.323175   -1.020441    0.000275

 Total Charge           Charge          ....    0
 Multiplicity           Mult            ....    1
 Number of Electrons    NEL             ....   44
 Basis Dimension        Dim             ....  128

ORBITAL ENERGIES
----------------

  NO   OCC          E(Eh)            E(eV)
   0   2.0000    -104.861922     -2853.4380
   1   2.0000     -20.623876      -561.2042
   2   2.0000     -11.451556      -311.6127
   3   2.0000     -11.303435      -307.5821
   4   2.0000     -11.291920      -307.2688
   5   2.0000     -10.588180      -288.1190
   6   2.0000      -8.055700      -219.2067
   7   2.0000      -8.052418      -219.1174
   8   2.0000      -8.052256      -219.1130
   9   2.0000      -1.471422       -40.0394
  10   2.0000      -1.154272       -31.4093
  11   2.0000      -1.088282       -29.6137
  12   2.0000      -0.922136       -25.0926
  13   2.0000      -0.763716       -20.7818
  14   2.0000      -0.726160       -19.7598
  15   2.0000      -0.683366       -18.5953
  16   2.0000      -0.624387       -16.9904
  17   2.0000      -0.499923       -13.6036
  18   2.0000      -0.482362       -13.1257
  19   2.0000      -0.478733       -13.0270
  20   2.0000      -0.449481       -12.2310
  21   2.0000      -0.441698       -12.0192
  22   0.0000       0.028333         0.7710
  23   0.0000       0.045168         1.2291
  24   0.0000       0.072165         1.9637
  25   0.0000       0.084012         2.2861
  26   0.0000       0.089482         2.4349

MULLIKEN ATOMIC CHARGES
-----------------------
   0 Cl:   -0.101503
   1 O :   -0.618428
   2 C :    0.212646
   3 C :    0.255057
   4 C :    0.649723
   5 H :   -0.397496
Sum of atomic charges:   -0.0000000

LOEWDIN ATOMIC CHARGES
----------------------
   0 Cl:    0.510716
   1 O :    0.053115
   2 C :   -0.644870
   3 C :   -0.094330
   4 C :    0.258603
   5 H :   -0.083233

  Mayer bond orders larger than 0.100000
B(  0-Cl,  2-C ) :   1.2433 B(  0-Cl,  3-C ) :  -0.3502 B(  1-O ,  2-C ) :   1.5726
B(  2-C ,  3-C ) :   0.8717 B(  3-C ,  4-C ) :   2.7411 B(  4-C ,  5-H ) :   0.3947

MP2 TOTAL ENERGY:     -649.222544926 Eh
FINAL SINGLE POINT ENERGY      -649.222544925801

DIPOLE MOMENT
-------------
                                X             Y             Z
Electronic contribution:     -3.84671      -0.79334      -0.00021
Nuclear contribution   :      4.89342      -0.00262       0.00026
                        -----------------------------------------
Total Dipole Moment    :      1.04671      -0.79596       0.00005
                        -----------------------------------------
Magnitude (a.u.)       :      1.31498
Magnitude (Debye)      :      3.34241

Rotational constants in cm-1:     0.236199     0.104065     0.072238
Rotational constants in MHz :  7081.078228  3119.793234  2165.648306

                             ****ORCA TERMINATED NORMALLY****
TOTAL RUN TIME: 0 days 0 hours 0 minutes 35 seconds 763 msec
