                         Program Version 5.0.3 -  RELEASE  -
|  1> !ri-mp2 aug-cc-pvdz aug-cc-pvdz/c tightscf
|  2> %pal nprocs 16 end
|  3>
|  4> * xyz 0 1
|  5> O     -2.769216   -0.536264    0.000215
|  6> C     -0.546543    0.198083   -0.000698
|  7> C     -1.974175    0.375575    0.000309
|  8> C      0.660285    0.101518   -0.000632
|  9> C      2.012661   -0.024555   -0.000207
| 10> C      3.212576   -0.134634    0.000498
| 11> H     -2.304988    1.428398    0.001460
| 12> H      4.269894   -0.234210    0.001198
| 13> *
| 14>
| 15>                          ****END OF INPUT****

CARTESIAN COORDINATES (ANGSTROEM)
---------------------------------
  O     -2.769216   -0.536264    0.000215
  C     -0.546543    0.198083   -0.000698
  C     -1.974175    0.375575    0.000309
  C      0.660285    0.101518   -0.000632
  C      2.012661   -0.024555   -0.000207
  C      3.212576   -0.134634    0.000498
  H     -2.304988    1.428398    0.001460
  H      4.269894   -0.234210    0.001198

 Total Charge           Charge          ....    0
 Multiplicity           Mult            ....    1
 Number of Electrons    NEL             ....   40
 Basis Dimension        Dim             ....  156

ORBITAL ENERGIES
----------------

  NO   OCC          E(Eh)            E(eV)
   0   2.0000     -20.596113      -560.4487
   1   2.0000     -11.381723      -309.7124
   2   2.0000     -11.305028      -307.6255
   3   2.0000     -11.291284      -307.2515
   4   2.0000     -11.287227      -307.1411
   5   2.0000     -11.284796      -307.0749
   6   2.0000      -1.423478       -38.7348
   7   2.0000      -1.123183       -30.5634
   8   2.0000      -1.057390       -28.7731
   9   2.0000      -0.941277       -25.6135
  10   2.0000      -0.848016       -23.0757
  11   2.0000      -0.742570       -20.2064
  12   2.0000      -0.728371       -19.8200
  13   2.0000      -0.673257       -18.3202
  14   2.0000      -0.572024       -15.5656
  15   2.0000      -0.513423       -13.9710
  16   2.0000      -0.503048       -13.6886
  17   2.0000      -0.468569       -12.7504
  18   2.0000      -0.386940       -10.5292
  19   2.0000      -0.386821       -10.5259
  20   0.0000       0.028693         0.7808
  21   0.0000       0.034113         0.9283
  22   0.0000       0.036420         0.9910
  23   0.0000       0.071804         1.9539
  24   0.0000       0.077385         2.1058

MULLIKEN ATOMIC CHARGES
-----------------------
   0 O :   -0.666211
   1 C :   -1.470393
   2 C :    0.786131
   3 C :    1.609890
   4 C :    0.087769
   5 C :    0.407331
   6 H :   -0.070257
   7 H :   -0.684261
Sum of atomic charges:    0.0000000

LOEWDIN ATOMIC CHARGES
----------------------
   0 O :    0.043368
   1 C :    0.061351
   2 C :   -0.123982
   3 C :   -0.050476
   4 C :   -0.124872
   5 C :    0.267419
   6 H :    0.014924
   7 H :   -0.087731

  Mayer bond orders larger than 0.100000
B(  0-O ,  2-C ) :   1.6145 B(  1-C ,  2-C ) :   1.7756 B(  1-C ,  3-C ) :   1.4002
B(  1-C ,  4-C ) :  -1.5092 B(  1-C ,  5-C ) :   1.0678 B(  1-C ,  6-H ) :   0.3638
B(  1-C ,  7-H ) :   0.3131 B(  2-C ,  3-C ) :  -0.3439 B(  2-C ,  5-C ) :   0.2222
B(  2-C ,  6-H ) :   0.6354 B(  2-C ,  7-H ) :  -0.1096 B(  3-C ,  4-C ) :   2.1068
B(  3-C ,  5-C ) :  -1.3703 B(  3-C ,  7-H ) :  -0.1791 B(  4-C ,  5-C ) :   2.4033
B(  4-C ,  7-H ) :   0.8795 B(  5-C ,  7-H ) :  -0.5408

MP2 TOTAL ENERGY:     -266.077714020 Eh
FINAL SINGLE POINT ENERGY      -266.077714019865

DIPOLE MOMENT
-------------
                                X             Y             Z
Electronic contribution:     -0.66166      -0.35845      -0.00182
Nuclear contribution   :      1.84873       1.14097       0.00256
                        -----------------------------------------
Total Dipole Moment    :      1.18707       0.78252       0.00074
                        -----------------------------------------
Magnitude (a.u.)       :      1.42179
Magnitude (Debye)      :      3.61389

Rotational constants in cm-1:     1.840193     0.044993     0.043919
Rotational constants in MHz : 55167.592559  1348.845690  1316.653688

                             ****ORCA TERMINATED NORMALLY****
TOTAL RUN TIME: 0 days 0 hours 0 minutes 32 seconds 121 msec
