                         Program Version 5.0.3 -  RELEASE  -
|  1> !ri-mp2 aug-cc-pvdz aug-cc-pvdz/c tightscf
|  2> %pal nprocs 16 end
|  3>
|  4> * xyz 0 1
|  5> C      1.070710   -0.368234    0.146305
|  6> C     -1.282848    0.323971   -0.320122
|  7> C      0.020532    0.716170    0.346563
|  8> O      2.179848   -0.153436   -0.260150
|  9> O     -1.960910   -0.597247    0.054811
| 10> H      0.734564   -1.388064    0.407927
| 11> H     -1.572330    0.919367   -1.206311
| 12> H      0.403972    1.666523   -0.018102
| 13> H     -0.168069    0.776197    1.422723
| 14> *
| 15>
| 16>                          ****END OF INPUT****

CARTESIAN COORDINATES (ANGSTROEM)
---------------------------------
  C      1.070710   -0.368234    0.146305
  C     -1.282848    0.323971   -0.320122
  C      0.020532    0.716170    0.346563
  O      2.179848   -0.153436   -0.260150
  O     -1.960910   -0.597247    0.054811
  H      0.734564   -1.388064    0.407927
  H     -1.572330    0.919367   -1.206311
  H      0.403972    1.666523   -0.018102
  H     -0.168069    0.776197    1.422723

 Total Charge           Charge          ....    0
 Multiplicity           Mult            ....    1
 Number of Electrons    NEL             ....   38
 Basis Dimension        Dim             ....  151

ORBITAL ENERGIES
----------------

  NO   OCC          E(Eh)            E(eV)
   0   2.0000     -20.595078      -560.4206
   1   2.0000     -20.589520      -560.2693
   2   2.0000     -11.368511      -309.3529
   3   2.0000     -11.363733      -309.2229
   4   2.0000     -11.275815      -306.8305
   5   2.0000      -1.428967       -38.8842
   6   2.0000      -1.422184       -38.6996
   7   2.0000      -1.072567       -29.1860
   8   2.0000      -0.866258       -23.5721
   9   2.0000      -0.800812       -21.7912
  10   2.0000      -0.718434       -19.5496
  11   2.0000      -0.676415       -18.4062
  12   2.0000      -0.654467       -17.8090
  13   2.0000      -0.652860       -17.7652
  14   2.0000      -0.590453       -16.0670
  15   2.0000      -0.543982       -14.8025
  16   2.0000      -0.533374       -14.5138
  17   2.0000      -0.458620       -12.4797
  18   2.0000      -0.429902       -11.6982
  19   0.0000       0.033245         0.9046
  20   0.0000       0.041904         1.1403
  21   0.0000       0.049473         1.3462
  22   0.0000       0.058240         1.5848
  23   0.0000       0.073738         2.0065

MULLIKEN ATOMIC CHARGES
-----------------------
   0 C :    0.695755
   1 C :    0.828246
   2 C :   -0.084808
   3 O :   -0.645505
   4 O :   -0.698020
   5 H :   -0.057460
   6 H :   -0.081521
   7 H :   -0.077871
   8 H :    0.121185
Sum of atomic charges:    0.0000000

LOEWDIN ATOMIC CHARGES
----------------------
   0 C :   -0.078471
   1 C :   -0.083938
   2 C :    0.015282
   3 O :    0.036154
   4 O :    0.033195
   5 H :    0.019412
   6 H :    0.015039
   7 H :    0.016472
   8 H :    0.026855

  Mayer bond orders larger than 0.100000
B(  0-C ,  1-C ) :   0.1058 B(  0-C ,  2-C ) :   1.1157 B(  0-C ,  3-O ) :   1.5735
B(  0-C ,  5-H ) :   0.8695 B(  1-C ,  2-C ) :   1.1510 B(  1-C ,  4-O ) :   1.5749
B(  1-C ,  6-H ) :   0.8236 B(  2-C ,  7-H ) :   0.8485 B(  2-C ,  8-H ) :   0.8910

MP2 TOTAL ENERGY:     -266.465513454 Eh
FINAL SINGLE POINT ENERGY      -266.465513453624

DIPOLE MOMENT
-------------
                                X             Y             Z
Electronic contribution:      0.21679      -1.17651      -0.44997
Nuclear contribution   :     -0.59263       1.94323       0.59717
                        -----------------------------------------
Total Dipole Moment    :     -0.37584       0.76672       0.14720
                        -----------------------------------------
Magnitude (a.u.)       :      0.86648
Magnitude (Debye)      :      2.20242

Rotational constants in cm-1:     0.581957     0.092606     0.086168
Rotational constants in MHz : 17446.623915  2776.266398  2583.244406

                             ****ORCA TERMINATED NORMALLY****
TOTAL RUN TIME: 0 days 0 hours 0 minutes 51 seconds 752 msec
