                         Program Version 5.0.3 -  RELEASE  -
|  1> !ri-mp2 aug-cc-pvdz aug-cc-pvdz/c tightscf
|  2> %pal nprocs 16 end
|  3>
|  4> * xyz 0 1
|  5> C      1.288205    0.152169    0.000000
|  6> C      0.000000    0.471192    0.000000
|  7> C     -1.134493   -0.504884    0.000000
|  8> H      2.059749    0.910251    0.000000
|  9> H      1.617497   -0.880355    0.000000
| 10> H     -0.276862    1.521647    0.000000
| 11> H     -1.772629   -0.363826    0.876178
| 12> H     -0.777400   -1.534749    0.000000
| 13> H     -1.772629   -0.363826   -0.876178
| 14> *
| 15>
| 16>                          ****END OF INPUT****

CARTESIAN COORDINATES (ANGSTROEM)
---------------------------------
  C      1.288205    0.152169    0.000000
  C      0.000000    0.471192    0.000000
  C     -1.134493   -0.504884    0.000000
  H      2.059749    0.910251    0.000000
  H      1.617497   -0.880355    0.000000
  H     -0.276862    1.521647    0.000000
  H     -1.772629   -0.363826    0.876178
  H     -0.777400   -1.534749    0.000000
  H     -1.772629   -0.363826   -0.876178

 Total Charge           Charge          ....    0
 Multiplicity           Mult            ....    1
 Number of Electrons    NEL             ....   24
 Basis Dimension        Dim             ....  123

ORBITAL ENERGIES
----------------

  NO   OCC          E(Eh)            E(eV)
   0   2.0000     -11.239848      -305.8518
   1   2.0000     -11.228479      -305.5425
   2   2.0000     -11.223940      -305.4189
   3   2.0000      -1.067562       -29.0498
   4   2.0000      -0.935369       -25.4527
   5   2.0000      -0.758245       -20.6329
   6   2.0000      -0.639650       -17.4058
   7   2.0000      -0.584175       -15.8962
   8   2.0000      -0.566399       -15.4125
   9   2.0000      -0.523706       -14.2508
  10   2.0000      -0.489717       -13.3259
  11   2.0000      -0.359565        -9.7843
  12   0.0000       0.037654         1.0246
  13   0.0000       0.048662         1.3242
  14   0.0000       0.050157         1.3649
  15   0.0000       0.060485         1.6459
  16   0.0000       0.068501         1.8640

MULLIKEN ATOMIC CHARGES
-----------------------
   0 C :    0.528563
   1 C :    0.300900
   2 C :    0.224287
   3 H :   -0.272662
   4 H :   -0.285619
   5 H :   -0.382651
   6 H :    0.012855
   7 H :   -0.138528
   8 H :    0.012855
Sum of atomic charges:   -0.0000000

LOEWDIN ATOMIC CHARGES
----------------------
   0 C :    0.145808
   1 C :   -0.111266
   2 C :    0.123091
   3 H :   -0.047904
   4 H :   -0.043576
   5 H :   -0.009279
   6 H :   -0.018604
   7 H :   -0.019666
   8 H :   -0.018604

  Mayer bond orders larger than 0.100000
B(  0-C ,  1-C ) :   1.9390 B(  0-C ,  3-H ) :   0.7945 B(  0-C ,  4-H ) :   0.9324
B(  1-C ,  2-C ) :   1.2098 B(  1-C ,  3-H ) :   0.1084 B(  1-C ,  5-H ) :   0.8698
B(  2-C ,  6-H ) :   0.9184 B(  2-C ,  7-H ) :   0.9943 B(  2-C ,  8-H ) :   0.9184
B(  3-H ,  4-H ) :  -0.1730

MP2 TOTAL ENERGY:     -117.519012475 Eh
FINAL SINGLE POINT ENERGY      -117.519012474914

DIPOLE MOMENT
-------------
                                X             Y             Z
Electronic contribution:      0.82428       0.74259       0.00000
Nuclear contribution   :     -0.98786      -0.76141       0.00000
                        -----------------------------------------
Total Dipole Moment    :     -0.16359      -0.01882       0.00000
                        -----------------------------------------
Magnitude (a.u.)       :      0.16467
Magnitude (Debye)      :      0.41855

Rotational constants in cm-1:     1.576218     0.310497     0.272372
Rotational constants in MHz : 47253.827815  9308.479906  8165.498749

                             ****ORCA TERMINATED NORMALLY****
TOTAL RUN TIME: 0 days 0 hours 0 minutes 32 seconds 310 msec
