                         Program Version 5.0.3 -  RELEASE  -
|  1> !ri-mp2 aug-cc-pvdz aug-cc-pvdz/c tightscf
|  2> %pal nprocs 16 end
|  3> %maxcore 3800
|  4>
|  5> * xyz 0 1
|  6> C     -2.668057   -0.516202   -0.151817
|  7> C     -2.379219    0.990207    0.083732
|  8> C     -1.340914   -1.229360    0.139892
|  9> C     -0.838544    1.117468    0.194491
| 10> C     -0.268079   -0.224742   -0.304017
| 11> C      3.632805   -0.000756    0.134440
| 12> C      1.143001   -0.554336    0.179922
| 13> C      2.231894    0.390324   -0.333620
| 14> H     -3.488035   -0.885577    0.464020
| 15> H     -2.953947   -0.684716   -1.191912
| 16> H     -2.769755    1.593120   -0.736241
| 17> H     -2.864319    1.350360    0.991058
| 18> H     -1.236812   -1.414843    1.213997
| 19> H     -1.254830   -2.193162   -0.364168
| 20> H     -0.452275    1.972210   -0.360265
| 21> H     -0.546339    1.259696    1.238803
| 22> H     -0.259603   -0.208411   -1.401207
| 23> H      3.700615    0.007006    1.224348
| 24> H      3.895190   -1.005453   -0.203653
| 25> H      4.388824    0.686078   -0.248814
| 26> H      1.393620   -1.576741   -0.122604
| 27> H      1.150697   -0.552656    1.276131
| 28> H      2.014697    1.411417   -0.009971
| 29> H      2.204946    0.406052   -1.427659
| 30> *
| 31>
| 32>                          ****END OF INPUT****

CARTESIAN COORDINATES (ANGSTROEM)
---------------------------------
  C     -2.668057   -0.516202   -0.151817
  C     -2.379219    0.990207    0.083732
  C     -1.340914   -1.229360    0.139892
  C     -0.838544    1.117468    0.194491
  C     -0.268079   -0.224742   -0.304017
  C      3.632805   -0.000756    0.134440
  C      1.143001   -0.554336    0.179922
  C      2.231894    0.390324   -0.333620
  H     -3.488035   -0.885577    0.464020
  H     -2.953947   -0.684716   -1.191912
  H     -2.769755    1.593120   -0.736241
  H     -2.864319    1.350360    0.991058
  H     -1.236812   -1.414843    1.213997
  H     -1.254830   -2.193162   -0.364168
  H     -0.452275    1.972210   -0.360265
  H     -0.546339    1.259696    1.238803
  H     -0.259603   -0.208411   -1.401207
  H      3.700615    0.007006    1.224348
  H      3.895190   -1.005453   -0.203653
  H      4.388824    0.686078   -0.248814
  H      1.393620   -1.576741   -0.122604
  H      1.150697   -0.552656    1.276131
  H      2.014697    1.411417   -0.009971
  H      2.204946    0.406052   -1.427659

 Total Charge           Charge          ....    0
 Multiplicity           Mult            ....    1
 Number of Electrons    NEL             ....   64
 Basis Dimension        Dim             ....  328

ORBITAL ENERGIES
----------------

  NO   OCC          E(Eh)            E(eV)
   0   2.0000     -11.219954      -305.3105
   1   2.0000     -11.219259      -305.2916
   2   2.0000     -11.216479      -305.2159
   3   2.0000     -11.216222      -305.2089
   4   2.0000     -11.215845      -305.1987
   5   2.0000     -11.214977      -305.1750
   6   2.0000     -11.214455      -305.1608
   7   2.0000     -11.214182      -305.1534
   8   2.0000      -1.123511       -30.5723
   9   2.0000      -1.055786       -28.7294
  10   2.0000      -0.978205       -26.6183
  11   2.0000      -0.957049       -26.0426
  12   2.0000      -0.891671       -24.2636
  13   2.0000      -0.804645       -21.8955
  14   2.0000      -0.770940       -20.9783
  15   2.0000      -0.753958       -20.5162
  16   2.0000      -0.652202       -17.7473
  17   2.0000      -0.629548       -17.1309
  18   2.0000      -0.621730       -16.9181
  19   2.0000      -0.580053       -15.7840
  20   2.0000      -0.568152       -15.4602
  21   2.0000      -0.552554       -15.0358
  22   2.0000      -0.529204       -14.4004
  23   2.0000      -0.520116       -14.1531
  24   2.0000      -0.485158       -13.2018
  25   2.0000      -0.471202       -12.8221
  26   2.0000      -0.468255       -12.7419
  27   2.0000      -0.461230       -12.5507
  28   2.0000      -0.450281       -12.2528
  29   2.0000      -0.444420       -12.0933
  30   2.0000      -0.440135       -11.9767
  31   2.0000      -0.430150       -11.7050
  32   0.0000       0.037767         1.0277
  33   0.0000       0.041351         1.1252
  34   0.0000       0.043403         1.1811
  35   0.0000       0.045395         1.2353
  36   0.0000       0.057513         1.5650

MULLIKEN ATOMIC CHARGES
-----------------------
   0 C :    0.403660
   1 C :    0.333336
   2 C :    0.787204
   3 C :    0.557441
   4 C :   -0.568424
   5 C :    0.538090
   6 C :    0.372818
   7 C :    0.409484
   8 H :   -0.147387
   9 H :   -0.195838
  10 H :   -0.108060
  11 H :   -0.119587
  12 H :   -0.158495
  13 H :   -0.225005
  14 H :   -0.261191
  15 H :   -0.218956
  16 H :   -0.391285
  17 H :   -0.086442
  18 H :   -0.099934
  19 H :   -0.069916
  20 H :   -0.181083
  21 H :   -0.190122
  22 H :   -0.206724
  23 H :   -0.173584
Sum of atomic charges:    0.0000000

LOEWDIN ATOMIC CHARGES
----------------------
   0 C :   -0.001668
   1 C :    0.012174
   2 C :    0.005627
   3 C :    0.017071
   4 C :   -0.207731
   5 C :    0.132239
   6 C :   -0.015180
   7 C :   -0.067444
   8 H :    0.004844
   9 H :    0.007667
  10 H :    0.003172
  11 H :    0.003418
  12 H :    0.020034
  13 H :    0.015680
  14 H :    0.009207
  15 H :    0.015534
  16 H :    0.045990
  17 H :   -0.019839
  18 H :   -0.020439
  19 H :   -0.022140
  20 H :    0.019816
  21 H :    0.020880
  22 H :    0.007468
  23 H :    0.013622

  Mayer bond orders larger than 0.100000
B(  0-C ,  1-C ) :   1.3165 B(  0-C ,  2-C ) :   1.1769 B(  0-C ,  8-H ) :   0.8004
B(  0-C ,  9-H ) :   0.7016 B(  1-C ,  3-C ) :   1.2464 B(  1-C , 10-H ) :   0.7672
B(  1-C , 11-H ) :   0.7145 B(  2-C ,  4-C ) :   1.0482 B(  2-C , 12-H ) :   0.7342
B(  2-C , 13-H ) :   0.5979 B(  2-C , 15-H ) :  -0.1129 B(  2-C , 16-H ) :   0.1042
B(  3-C ,  4-C ) :   1.0389 B(  3-C , 11-H ) :   0.1409 B(  3-C , 14-H ) :   0.6531
B(  3-C , 15-H ) :   0.6460 B(  3-C , 16-H ) :   0.1192 B(  4-C ,  6-C ) :   1.1151
B(  4-C , 12-H ) :   0.1843 B(  4-C , 13-H ) :   0.2553 B(  4-C , 14-H ) :   0.1013
B(  4-C , 15-H ) :   0.2447 B(  4-C , 16-H ) :   0.2492 B(  4-C , 20-H ) :   0.1509
B(  5-C ,  7-C ) :   1.1583 B(  5-C , 17-H ) :   0.9082 B(  5-C , 18-H ) :   0.8968
B(  5-C , 19-H ) :   0.9174 B(  6-C ,  7-C ) :   1.1524 B(  6-C , 16-H ) :   0.1268
B(  6-C , 20-H ) :   0.6831 B(  6-C , 21-H ) :   0.8607 B(  6-C , 22-H ) :   0.1462
B(  6-C , 23-H ) :   0.1411 B(  7-C , 22-H ) :   0.6962 B(  7-C , 23-H ) :   0.7296
B(  8-H ,  9-H ) :  -0.1666 B( 10-H , 11-H ) :  -0.1527 B( 12-H , 13-H ) :  -0.1401
B( 14-H , 15-H ) :  -0.1645 B( 20-H , 21-H ) :  -0.1276

MP2 TOTAL ENERGY:     -313.489092198 Eh
FINAL SINGLE POINT ENERGY      -313.489092198117

DIPOLE MOMENT
-------------
                                X             Y             Z
Electronic contribution:     -3.14139      -0.16476      -0.40231
Nuclear contribution   :      3.13053       0.17607       0.36618
                        -----------------------------------------
Total Dipole Moment    :     -0.01086       0.01131      -0.03614
                        -----------------------------------------
Magnitude (a.u.)       :      0.03939
Magnitude (Debye)      :      0.10013

Rotational constants in cm-1:     0.174300     0.031345     0.028155
Rotational constants in MHz :  5225.368671   939.698244   844.057146

                             ****ORCA TERMINATED NORMALLY****
TOTAL RUN TIME: 0 days 0 hours 1 minutes 57 seconds 23 msec
