                         Program Version 5.0.3 -  RELEASE  -
|  1> !ri-mp2 aug-cc-pvdz aug-cc-pvdz/c tightscf
|  2> %pal nprocs 16 end
|  3> %maxcore 3800
|  4>
|  5> * xyz 0 1
|  6> C      0.900306   -3.825697    0.000000
|  7> C      0.901539   -3.124972    1.200332
|  8> C      0.901539   -3.124972   -1.200332
|  9> C      0.901539   -1.735317    1.197099
| 10> C      0.901539   -1.735317   -1.197099
| 11> C      0.899114   -1.017757    0.000000
| 12> C     -2.041142    4.699080    0.000000
| 13> C      0.860460    0.490669    0.000000
| 14> C     -2.015889    3.171462    0.000000
| 15> C     -0.566581    1.063132    0.000000
| 16> C     -0.600850    2.591122    0.000000
| 17> H      0.903787   -4.907472    0.000000
| 18> H      0.907522   -3.660707    2.140621
| 19> H      0.907522   -3.660707   -2.140621
| 20> H      0.909093   -1.198296    2.138067
| 21> H      0.909093   -1.198296   -2.138067
| 22> H     -1.536298    5.101628   -0.880619
| 23> H     -3.062669    5.081774    0.000000
| 24> H     -1.536298    5.101628    0.880619
| 25> H      1.394032    0.869083    0.875785
| 26> H      1.394032    0.869083   -0.875785
| 27> H     -2.557854    2.797729    0.873851
| 28> H     -2.557854    2.797729   -0.873851
| 29> H     -1.103777    0.683533    0.873971
| 30> H     -1.103777    0.683533   -0.873971
| 31> H     -0.058001    2.965583    0.874525
| 32> H     -0.058001    2.965583   -0.874525
| 33> *
| 34>
| 35>                          ****END OF INPUT****

CARTESIAN COORDINATES (ANGSTROEM)
---------------------------------
  C      0.900306   -3.825697    0.000000
  C      0.901539   -3.124972    1.200332
  C      0.901539   -3.124972   -1.200332
  C      0.901539   -1.735317    1.197099
  C      0.901539   -1.735317   -1.197099
  C      0.899114   -1.017757    0.000000
  C     -2.041142    4.699080    0.000000
  C      0.860460    0.490669    0.000000
  C     -2.015889    3.171462    0.000000
  C     -0.566581    1.063132    0.000000
  C     -0.600850    2.591122    0.000000
  H      0.903787   -4.907472    0.000000
  H      0.907522   -3.660707    2.140621
  H      0.907522   -3.660707   -2.140621
  H      0.909093   -1.198296    2.138067
  H      0.909093   -1.198296   -2.138067
  H     -1.536298    5.101628   -0.880619
  H     -3.062669    5.081774    0.000000
  H     -1.536298    5.101628    0.880619
  H      1.394032    0.869083    0.875785
  H      1.394032    0.869083   -0.875785
  H     -2.557854    2.797729    0.873851
  H     -2.557854    2.797729   -0.873851
  H     -1.103777    0.683533    0.873971
  H     -1.103777    0.683533   -0.873971
  H     -0.058001    2.965583    0.874525
  H     -0.058001    2.965583   -0.874525

 Total Charge           Charge          ....    0
 Multiplicity           Mult            ....    1
 Number of Electrons    NEL             ....   82
 Basis Dimension        Dim             ....  397

ORBITAL ENERGIES
----------------

  NO   OCC          E(Eh)            E(eV)
   0   2.0000     -11.241173      -305.8879
   1   2.0000     -11.236859      -305.7705
   2   2.0000     -11.236682      -305.7657
   3   2.0000     -11.232976      -305.6648
   4   2.0000     -11.232220      -305.6443
   5   2.0000     -11.232122      -305.6416
   6   2.0000     -11.229930      -305.5819
   7   2.0000     -11.223864      -305.4169
   8   2.0000     -11.222683      -305.3847
   9   2.0000     -11.221394      -305.3497
  10   2.0000     -11.217399      -305.2410
  11   2.0000      -1.156616       -31.4731
  12   2.0000      -1.088302       -29.6142
  13   2.0000      -1.048448       -28.5297
  14   2.0000      -1.013533       -27.5796
  15   2.0000      -0.993563       -27.0362
  16   2.0000      -0.920212       -25.0402
  17   2.0000      -0.839126       -22.8338
  18   2.0000      -0.825912       -22.4742
  19   2.0000      -0.792150       -21.5555
  20   2.0000      -0.786212       -21.3939
  21   2.0000      -0.692983       -18.8570
  22   2.0000      -0.654711       -17.8156
  23   2.0000      -0.632883       -17.2216
  24   2.0000      -0.628425       -17.1003
  25   2.0000      -0.592962       -16.1353
  26   2.0000      -0.586717       -15.9654
  27   2.0000      -0.579974       -15.7819
  28   2.0000      -0.565597       -15.3907
  29   2.0000      -0.560773       -15.2594
  30   2.0000      -0.525772       -14.3070
  31   2.0000      -0.509944       -13.8763
  32   2.0000      -0.502193       -13.6654
  33   2.0000      -0.489957       -13.3324
  34   2.0000      -0.483036       -13.1441
  35   2.0000      -0.473293       -12.8790
  36   2.0000      -0.463662       -12.6169
  37   2.0000      -0.460981       -12.5439
  38   2.0000      -0.448691       -12.2095
  39   2.0000      -0.333403        -9.0724
  40   2.0000      -0.322589        -8.7781
  41   0.0000       0.035231         0.9587
  42   0.0000       0.038852         1.0572
  43   0.0000       0.040298         1.0966
  44   0.0000       0.044222         1.2033
  45   0.0000       0.049539         1.3480

MULLIKEN ATOMIC CHARGES
-----------------------
   0 C :    0.582018
   1 C :    0.109412
   2 C :    0.109412
   3 C :    0.392901
   4 C :    0.392901
   5 C :    1.141433
   6 C :    0.505296
   7 C :    0.801718
   8 C :    0.378649
   9 C :    0.070241
  10 C :    0.226889
  11 H :   -0.446530
  12 H :   -0.458724
  13 H :   -0.458724
  14 H :   -0.675728
  15 H :   -0.675728
  16 H :   -0.089587
  17 H :   -0.076295
  18 H :   -0.089587
  19 H :   -0.241710
  20 H :   -0.241710
  21 H :   -0.177419
  22 H :   -0.177419
  23 H :   -0.251231
  24 H :   -0.251232
  25 H :   -0.199623
  26 H :   -0.199623
Sum of atomic charges:    0.0000000

LOEWDIN ATOMIC CHARGES
----------------------
   0 C :    0.001202
   1 C :    0.007044
   2 C :    0.007044
   3 C :    0.042217
   4 C :    0.042217
   5 C :   -0.178063
   6 C :    0.130486
   7 C :    0.003994
   8 C :   -0.071600
   9 C :   -0.021962
  10 C :   -0.040947
  11 H :   -0.003108
  12 H :   -0.000684
  13 H :   -0.000684
  14 H :    0.006597
  15 H :    0.006597
  16 H :   -0.020416
  17 H :   -0.022158
  18 H :   -0.020416
  19 H :    0.019544
  20 H :    0.019544
  21 H :    0.011229
  22 H :    0.011229
  23 H :    0.018919
  24 H :    0.018919
  25 H :    0.016629
  26 H :    0.016629

  Mayer bond orders larger than 0.100000
B(  0-C ,  1-C ) :   1.8179 B(  0-C ,  2-C ) :   1.8179 B(  0-C ,  3-C ) :  -0.1175
B(  0-C ,  4-C ) :  -0.1175 B(  0-C ,  5-C ) :   0.2624 B(  0-C , 11-H ) :   0.2463
B(  0-C , 12-H ) :   0.1465 B(  0-C , 13-H ) :   0.1465 B(  1-C ,  3-C ) :   1.9459
B(  1-C ,  5-C ) :  -0.4300 B(  1-C ,  7-C ) :   0.1794 B(  1-C ,  9-C ) :   0.1089
B(  1-C , 11-H ) :   0.2499 B(  1-C , 12-H ) :   0.2154 B(  1-C , 14-H ) :   0.3495
B(  2-C ,  4-C ) :   1.9459 B(  2-C ,  5-C ) :  -0.4300 B(  2-C ,  7-C ) :   0.1794
B(  2-C ,  9-C ) :   0.1089 B(  2-C , 11-H ) :   0.2499 B(  2-C , 13-H ) :   0.2154
B(  2-C , 15-H ) :   0.3495 B(  3-C ,  4-C ) :  -0.7804 B(  3-C ,  5-C ) :   1.6496
B(  3-C ,  7-C ) :  -0.3625 B(  3-C , 12-H ) :   0.3839 B(  3-C , 14-H ) :  -0.2722
B(  3-C , 15-H ) :  -0.1012 B(  4-C ,  5-C ) :   1.6496 B(  4-C ,  7-C ) :  -0.3625
B(  4-C , 13-H ) :   0.3839 B(  4-C , 14-H ) :  -0.1012 B(  4-C , 15-H ) :  -0.2722
B(  5-C ,  7-C ) :   1.5767 B(  5-C , 14-H ) :   0.5914 B(  5-C , 15-H ) :   0.5914
B(  5-C , 19-H ) :   0.1293 B(  5-C , 20-H ) :   0.1293 B(  5-C , 23-H ) :  -0.1006
B(  5-C , 24-H ) :  -0.1006 B(  6-C ,  8-C ) :   1.1667 B(  6-C , 16-H ) :   0.9220
B(  6-C , 17-H ) :   0.9198 B(  6-C , 18-H ) :   0.9220 B(  7-C ,  9-C ) :   1.1359
B(  7-C , 19-H ) :   0.5492 B(  7-C , 20-H ) :   0.5492 B(  8-C , 10-C ) :   1.2552
B(  8-C , 21-H ) :   0.7643 B(  8-C , 22-H ) :   0.7643 B(  9-C , 10-C ) :   1.3273
B(  9-C , 19-H ) :   0.1747 B(  9-C , 20-H ) :   0.1747 B(  9-C , 23-H ) :   0.7547
B(  9-C , 24-H ) :   0.7547 B( 10-C , 25-H ) :   0.7881 B( 10-C , 26-H ) :   0.7881

MP2 TOTAL ENERGY:     -427.483163069 Eh
FINAL SINGLE POINT ENERGY      -427.483163068951

DIPOLE MOMENT
-------------
                                X             Y             Z
Electronic contribution:      6.42413     -15.71216       0.00000
Nuclear contribution   :     -6.49196      15.88481       0.00000
                        -----------------------------------------
Total Dipole Moment    :     -0.06784       0.17265       0.00000
                        -----------------------------------------
Magnitude (a.u.)       :      0.18550
Magnitude (Debye)      :      0.47151

Rotational constants in cm-1:     0.120067     0.012418     0.011977
Rotational constants in MHz :  3599.532008   372.286641   359.051766

                             ****ORCA TERMINATED NORMALLY****
TOTAL RUN TIME: 0 days 0 hours 2 minutes 23 seconds 455 msec
