                         Program Version 5.0.3 -  RELEASE  -
|  1> !ri-mp2 aug-cc-pvdz aug-cc-pvdz/c tightscf
|  2> %pal nprocs 16 end
|  3>
|  4> * xyz 0 1
|  5> O      0.828981   -0.789180   -0.238022
|  6> C     -1.508266    0.097281   -0.148770
|  7> H     -1.418953    0.320203   -1.211647
|  8> H     -2.074015   -0.829198   -0.038726
|  9> H     -2.076905    0.897311    0.329487
| 10> C     -0.152980   -0.033489    0.484726
| 11> H     -0.154020   -0.247472    1.550696
| 12> C      1.040125    0.616650   -0.061363
| 13> H      0.954099    1.210204   -0.965902
| 14> H      1.864673    0.879739    0.592713
| 15> *
| 16>
| 17>                          ****END OF INPUT****

CARTESIAN COORDINATES (ANGSTROEM)
---------------------------------
  O      0.828981   -0.789180   -0.238022
  C     -1.508266    0.097281   -0.148770
  H     -1.418953    0.320203   -1.211647
  H     -2.074015   -0.829198   -0.038726
  H     -2.076905    0.897311    0.329487
  C     -0.152980   -0.033489    0.484726
  H     -0.154020   -0.247472    1.550696
  C      1.040125    0.616650   -0.061363
  H      0.954099    1.210204   -0.965902
  H      1.864673    0.879739    0.592713

 Total Charge           Charge          ....    0
 Multiplicity           Mult            ....    1
 Number of Electrons    NEL             ....   32
 Basis Dimension        Dim             ....  146

ORBITAL ENERGIES
----------------

  NO   OCC          E(Eh)            E(eV)
   0   2.0000     -20.575499      -559.8878
   1   2.0000     -11.293885      -307.3222
   2   2.0000     -11.286757      -307.1283
   3   2.0000     -11.232751      -305.6587
   4   2.0000      -1.410518       -38.3821
   5   2.0000      -1.015061       -27.6212
   6   2.0000      -0.910583       -24.7782
   7   2.0000      -0.816296       -22.2126
   8   2.0000      -0.696757       -18.9597
   9   2.0000      -0.643810       -17.5190
  10   2.0000      -0.586844       -15.9688
  11   2.0000      -0.562848       -15.3159
  12   2.0000      -0.525495       -14.2994
  13   2.0000      -0.516197       -14.0464
  14   2.0000      -0.444815       -12.1040
  15   2.0000      -0.433142       -11.7864
  16   0.0000       0.035438         0.9643
  17   0.0000       0.046366         1.2617
  18   0.0000       0.047425         1.2905
  19   0.0000       0.057623         1.5680
  20   0.0000       0.067817         1.8454

MULLIKEN ATOMIC CHARGES
-----------------------
   0 O :   -0.889027
   1 C :    0.228797
   2 H :   -0.046987
   3 H :    0.029186
   4 H :    0.023513
   5 C :    0.403134
   6 H :   -0.291639
   7 C :    0.990158
   8 H :   -0.231687
   9 H :   -0.215448
Sum of atomic charges:    0.0000000

LOEWDIN ATOMIC CHARGES
----------------------
   0 O :    0.008871
   1 C :    0.161358
   2 H :   -0.011207
   3 H :   -0.011999
   4 H :   -0.012005
   5 C :   -0.204014
   6 H :    0.020998
   7 C :    0.059803
   8 H :   -0.005070
   9 H :   -0.006733

  Mayer bond orders larger than 0.100000
B(  0-O ,  5-C ) :   0.4962 B(  0-O ,  7-C ) :   0.8081 B(  1-C ,  2-H ) :   0.9037
B(  1-C ,  3-H ) :   0.8758 B(  1-C ,  4-H ) :   0.9056 B(  1-C ,  5-C ) :   1.4032
B(  2-H ,  5-C ) :   0.1198 B(  5-C ,  6-H ) :   0.7931 B(  5-C ,  7-C ) :   1.0929
B(  7-C ,  8-H ) :   0.8867 B(  7-C ,  9-H ) :   0.8715 B(  8-H ,  9-H ) :  -0.1286

MP2 TOTAL ENERGY:     -192.568700281 Eh
FINAL SINGLE POINT ENERGY      -192.568700280837

DIPOLE MOMENT
-------------
                                X             Y             Z
Electronic contribution:      2.61806      -1.53713       0.04537
Nuclear contribution   :     -2.99255       2.29544       0.26166
                        -----------------------------------------
Total Dipole Moment    :     -0.37449       0.75831       0.30703
                        -----------------------------------------
Magnitude (a.u.)       :      0.89974
Magnitude (Debye)      :      2.28696

Rotational constants in cm-1:     0.607773     0.221998     0.197750
Rotational constants in MHz : 18220.569480  6655.339185  5928.407708

                             ****ORCA TERMINATED NORMALLY****
TOTAL RUN TIME: 0 days 0 hours 0 minutes 36 seconds 392 msec
