                         Program Version 5.0.3 -  RELEASE  -
|  1> !ri-mp2 aug-cc-pvdz aug-cc-pvdz/c tightscf
|  2> %pal nprocs 16 end
|  3>
|  4> * xyz 0 1
|  5> C      0.039427   -0.709559        0.000000
|  6> N      1.218194   -1.390076        0.000000
|  7> C     -1.186285   -1.412578        0.000000
|  8> C      2.313681   -0.674653        0.000000
|  9> N      2.413160    0.680885        0.000000
| 10> C      1.283002    1.344715        0.000000
| 11> C      0.020191    0.710676        0.000000
| 12> C     -2.369673   -0.719355        0.000000
| 13> C     -2.387537    0.694079        0.000000
| 14> C     -1.212893    1.400081        0.000000
| 15> H      3.255001   -1.211833        0.000000
| 16> H      1.342186    2.429877        0.000000
| 17> H     -3.335479    1.214343        0.000000
| 18> H     -3.307696   -1.258260        0.000000
| 19> H     -1.215242    2.482785        0.000000
| 20> H     -1.157726   -2.493006        0.000000
| 21> *
| 22>
| 23>                          ****END OF INPUT****

CARTESIAN COORDINATES (ANGSTROEM)
---------------------------------
  C      0.039427   -0.709559    0.000000
  N      1.218194   -1.390076    0.000000
  C     -1.186285   -1.412578    0.000000
  C      2.313681   -0.674653    0.000000
  N      2.413160    0.680885    0.000000
  C      1.283002    1.344715    0.000000
  C      0.020191    0.710676    0.000000
  C     -2.369673   -0.719355    0.000000
  C     -2.387537    0.694079    0.000000
  C     -1.212893    1.400081    0.000000
  H      3.255001   -1.211833    0.000000
  H      1.342186    2.429877    0.000000
  H     -3.335479    1.214343    0.000000
  H     -3.307696   -1.258260    0.000000
  H     -1.215242    2.482785    0.000000
  H     -1.157726   -2.493006    0.000000

 Total Charge           Charge          ....    0
 Multiplicity           Mult            ....    1
 Number of Electrons    NEL             ....   68
 Basis Dimension        Dim             ....  284

ORBITAL ENERGIES
----------------

  NO   OCC          E(Eh)            E(eV)
   0   2.0000     -15.582145      -424.0117
   1   2.0000     -15.577279      -423.8793
   2   2.0000     -11.318816      -308.0006
   3   2.0000     -11.311729      -307.8078
   4   2.0000     -11.298241      -307.4408
   5   2.0000     -11.266570      -306.5789
   6   2.0000     -11.265044      -306.5374
   7   2.0000     -11.261234      -306.4338
   8   2.0000     -11.256643      -306.3088
   9   2.0000     -11.250839      -306.1509
  10   2.0000      -1.316310       -35.8186
  11   2.0000      -1.206099       -32.8196
  12   2.0000      -1.165077       -31.7034
  13   2.0000      -1.060816       -28.8663
  14   2.0000      -1.034029       -28.1374
  15   2.0000      -0.913965       -24.8703
  16   2.0000      -0.888312       -24.1722
  17   2.0000      -0.844457       -22.9789
  18   2.0000      -0.749327       -20.3902
  19   2.0000      -0.737240       -20.0613
  20   2.0000      -0.705598       -19.2003
  21   2.0000      -0.648209       -17.6387
  22   2.0000      -0.632241       -17.2042
  23   2.0000      -0.613265       -16.6878
  24   2.0000      -0.590175       -16.0595
  25   2.0000      -0.588072       -16.0023
  26   2.0000      -0.551943       -15.0191
  27   2.0000      -0.526521       -14.3274
  28   2.0000      -0.494072       -13.4444
  29   2.0000      -0.469337       -12.7713
  30   2.0000      -0.441389       -12.0108
  31   2.0000      -0.410973       -11.1831
  32   2.0000      -0.356730        -9.7071
  33   2.0000      -0.326226        -8.8771
  34   0.0000       0.029803         0.8110
  35   0.0000       0.037572         1.0224
  36   0.0000       0.042878         1.1668
  37   0.0000       0.052238         1.4215
  38   0.0000       0.054186         1.4745

MULLIKEN ATOMIC CHARGES
-----------------------
   0 C :   -0.870544
   1 N :   -0.825589
   2 C :    1.314961
   3 C :    0.725324
   4 N :   -0.773399
   5 C :    0.414413
   6 C :    1.057520
   7 C :    0.385976
   8 C :    0.393402
   9 C :    0.829666
  10 H :   -0.281249
  11 H :   -0.369666
  12 H :   -0.470277
  13 H :   -0.442890
  14 H :   -0.552638
  15 H :   -0.535009
Sum of atomic charges:    0.0000000

LOEWDIN ATOMIC CHARGES
----------------------
   0 C :   -0.185642
   1 N :    0.071957
   2 C :    0.071232
   3 C :   -0.061550
   4 N :    0.041369
   5 C :    0.034859
   6 C :   -0.127835
   7 C :    0.029560
   8 C :    0.016750
   9 C :    0.057183
  10 H :    0.003304
  11 H :    0.019490
  12 H :    0.000549
  13 H :    0.006493
  14 H :    0.010948
  15 H :    0.011331

  Mayer bond orders larger than 0.100000
B(  0-C ,  1-N ) :   0.9896 B(  0-C ,  2-C ) :   1.6300 B(  0-C ,  5-C ) :  -0.1870
B(  0-C ,  6-C ) :   1.4613 B(  0-C ,  7-C ) :   0.1011 B(  0-C ,  9-C ) :  -1.0451
B(  0-C , 15-H ) :   1.1575 B(  1-N ,  2-C ) :  -0.4566 B(  1-N ,  3-C ) :   1.5135
B(  1-N ,  5-C ) :   0.1130 B(  1-N ,  6-C ) :   0.1888 B(  1-N , 10-H ) :  -0.1161
B(  2-C ,  5-C ) :   0.1636 B(  2-C ,  6-C ) :  -0.4044 B(  2-C ,  7-C ) :   1.6686
B(  2-C ,  8-C ) :   0.1540 B(  2-C , 13-H ) :   0.2254 B(  2-C , 15-H ) :  -0.5443
B(  3-C ,  4-N ) :   1.1465 B(  3-C ,  5-C ) :  -0.2298 B(  3-C , 10-H ) :   0.9896
B(  4-N ,  5-C ) :   1.3216 B(  5-C ,  6-C ) :   0.8027 B(  5-C ,  8-C ) :   0.1965
B(  5-C ,  9-C ) :  -0.3144 B(  5-C , 11-H ) :   0.7490 B(  6-C ,  7-C ) :   0.1765
B(  6-C ,  9-C ) :   1.7259 B(  6-C , 11-H ) :   0.1197 B(  6-C , 14-H ) :   0.7208
B(  6-C , 15-H ) :  -0.1599 B(  7-C ,  8-C ) :   1.7072 B(  7-C , 12-H ) :   0.2171
B(  7-C , 13-H ) :   0.3107 B(  7-C , 14-H ) :  -0.1284 B(  7-C , 15-H ) :   0.1612
B(  8-C ,  9-C ) :   1.3918 B(  8-C , 12-H ) :   0.2448 B(  8-C , 13-H ) :   0.1806
B(  8-C , 14-H ) :   0.1787 B(  9-C , 12-H ) :   0.2308 B(  9-C , 14-H ) :  -0.2582
B(  9-C , 15-H ) :   0.1081

MP2 TOTAL ENERGY:     -416.786782030 Eh
FINAL SINGLE POINT ENERGY      -416.786782029641

DIPOLE MOMENT
-------------
                                X             Y             Z
Electronic contribution:      3.27881      -0.58755       0.00000
Nuclear contribution   :     -4.31516       1.13799       0.00000
                        -----------------------------------------
Total Dipole Moment    :     -1.03635       0.55044       0.00000
                        -----------------------------------------
Magnitude (a.u.)       :      1.17346
Magnitude (Debye)      :      2.98269

Rotational constants in cm-1:     0.108513     0.042746     0.030666
Rotational constants in MHz :  3253.139386  1281.506487   919.348356

                             ****ORCA TERMINATED NORMALLY****
TOTAL RUN TIME: 0 days 0 hours 1 minutes 27 seconds 431 msec
