                         Program Version 5.0.3 -  RELEASE  -
|  1> !ri-mp2 aug-cc-pvdz aug-cc-pvdz/c tightscf
|  2> %pal nprocs 16 end
|  3> %maxcore 3800
|  4>
|  5> * xyz 0 1
|  6> C      2.686397   -0.273422        0.000000
|  7> C     -1.985691   -1.496841        0.000000
|  8> C      1.738404   -1.247442        0.000000
|  9> C     -2.345922   -0.171174        0.000000
| 10> C      2.286782    1.088692        0.000000
| 11> C     -0.649161   -1.894413        0.000000
| 12> C      0.967175    1.392721        0.000000
| 13> C      0.349704   -0.934931        0.000000
| 14> C     -1.385928    0.877093        0.000000
| 15> N      0.000000    0.414424        0.000000
| 16> O     -1.598324    2.082096        0.000000
| 17> H      3.736243   -0.531122        0.000000
| 18> H     -2.760364   -2.253013        0.000000
| 19> H      2.008743   -2.293604        0.000000
| 20> H     -3.380584    0.135967        0.000000
| 21> H      3.014749    1.885444        0.000000
| 22> H     -0.368672   -2.936075        0.000000
| 23> H      0.565928    2.392966        0.000000
| 24> *
| 25>
| 26>                          ****END OF INPUT****

CARTESIAN COORDINATES (ANGSTROEM)
---------------------------------
  C      2.686397   -0.273422    0.000000
  C     -1.985691   -1.496841    0.000000
  C      1.738404   -1.247442    0.000000
  C     -2.345922   -0.171174    0.000000
  C      2.286782    1.088692    0.000000
  C     -0.649161   -1.894413    0.000000
  C      0.967175    1.392721    0.000000
  C      0.349704   -0.934931    0.000000
  C     -1.385928    0.877093    0.000000
  N      0.000000    0.414424    0.000000
  O     -1.598324    2.082096    0.000000
  H      3.736243   -0.531122    0.000000
  H     -2.760364   -2.253013    0.000000
  H      2.008743   -2.293604    0.000000
  H     -3.380584    0.135967    0.000000
  H      3.014749    1.885444    0.000000
  H     -0.368672   -2.936075    0.000000
  H      0.565928    2.392966    0.000000

 Total Charge           Charge          ....    0
 Multiplicity           Mult            ....    1
 Number of Electrons    NEL             ....   76
 Basis Dimension        Dim             ....  316

ORBITAL ENERGIES
----------------

  NO   OCC          E(Eh)            E(eV)
   0   2.0000     -20.523909      -558.4840
   1   2.0000     -15.659673      -426.1214
   2   2.0000     -11.362503      -309.1894
   3   2.0000     -11.327014      -308.2237
   4   2.0000     -11.306542      -307.6666
   5   2.0000     -11.282462      -307.0114
   6   2.0000     -11.273784      -306.7753
   7   2.0000     -11.266013      -306.5638
   8   2.0000     -11.258159      -306.3501
   9   2.0000     -11.234632      -305.7099
  10   2.0000     -11.230396      -305.5946
  11   2.0000      -1.391430       -37.8627
  12   2.0000      -1.311201       -35.6796
  13   2.0000      -1.140434       -31.0328
  14   2.0000      -1.125731       -30.6327
  15   2.0000      -1.059757       -28.8374
  16   2.0000      -0.996523       -27.1168
  17   2.0000      -0.898084       -24.4381
  18   2.0000      -0.890378       -24.2284
  19   2.0000      -0.853418       -23.2227
  20   2.0000      -0.750670       -20.4268
  21   2.0000      -0.724439       -19.7130
  22   2.0000      -0.714955       -19.4549
  23   2.0000      -0.671610       -18.2754
  24   2.0000      -0.645797       -17.5730
  25   2.0000      -0.631979       -17.1970
  26   2.0000      -0.629677       -17.1344
  27   2.0000      -0.621910       -16.9230
  28   2.0000      -0.588922       -16.0254
  29   2.0000      -0.561320       -15.2743
  30   2.0000      -0.538185       -14.6447
  31   2.0000      -0.524929       -14.2840
  32   2.0000      -0.523058       -14.2331
  33   2.0000      -0.461263       -12.5516
  34   2.0000      -0.429427       -11.6853
  35   2.0000      -0.428672       -11.6648
  36   2.0000      -0.368978       -10.0404
  37   2.0000      -0.271941        -7.3999
  38   0.0000       0.026490         0.7208
  39   0.0000       0.033635         0.9153
  40   0.0000       0.041776         1.1368
  41   0.0000       0.051263         1.3949
  42   0.0000       0.056743         1.5441

MULLIKEN ATOMIC CHARGES
-----------------------
   0 C :   -0.403244
   1 C :   -0.455114
   2 C :    1.526337
   3 C :    0.961969
   4 C :    0.525732
   5 C :    1.496676
   6 C :    0.952779
   7 C :   -0.157969
   8 C :    0.799276
   9 N :   -0.912360
  10 O :   -0.881945
  11 H :   -0.418733
  12 H :   -0.420797
  13 H :   -0.566259
  14 H :   -0.518160
  15 H :   -0.438554
  16 H :   -0.553100
  17 H :   -0.536534
Sum of atomic charges:   -0.0000000

LOEWDIN ATOMIC CHARGES
----------------------
   0 C :    0.038170
   1 C :    0.017915
   2 C :    0.067227
   3 C :    0.057512
   4 C :    0.028467
   5 C :    0.029323
   6 C :    0.090830
   7 C :   -0.124571
   8 C :   -0.286037
   9 N :    0.023118
  10 O :    0.010711
  11 H :    0.012596
  12 H :    0.015962
  13 H :    0.013594
  14 H :    0.000877
  15 H :    0.002430
  16 H :   -0.003455
  17 H :    0.005331

  Mayer bond orders larger than 0.100000
B(  0-C ,  2-C ) :   1.5684 B(  0-C ,  4-C ) :   1.6070 B(  0-C ,  7-C ) :   0.3088
B(  0-C , 11-H ) :   0.4267 B(  0-C , 13-H ) :   0.4779 B(  0-C , 15-H ) :   0.2743
B(  0-C , 17-H ) :   0.1535 B(  1-C ,  3-C ) :   1.9308 B(  1-C ,  5-C ) :   1.1061
B(  1-C ,  7-C ) :   0.3343 B(  1-C ,  8-C ) :   0.1699 B(  1-C , 12-H ) :   0.4369
B(  1-C , 14-H ) :   0.3748 B(  1-C , 16-H ) :   0.4234 B(  2-C ,  5-C ) :  -0.2816
B(  2-C ,  7-C ) :   0.7968 B(  2-C ,  9-N ) :  -0.2055 B(  2-C , 11-H ) :   0.1618
B(  2-C , 13-H ) :  -0.4680 B(  2-C , 16-H ) :  -0.2132 B(  3-C ,  5-C ) :   0.3419
B(  3-C ,  6-C ) :  -0.1505 B(  3-C ,  7-C ) :  -0.1052 B(  3-C ,  8-C ) :   1.0198
B(  3-C ,  9-N ) :  -0.1014 B(  3-C , 12-H ) :   0.2201 B(  3-C , 17-H ) :  -0.1176
B(  4-C ,  6-C ) :   2.1164 B(  4-C ,  8-C ) :  -0.2045 B(  4-C ,  9-N ) :  -0.2352
B(  4-C , 11-H ) :   0.1578 B(  4-C , 15-H ) :   0.1452 B(  4-C , 17-H ) :   0.5913
B(  5-C ,  6-C ) :   0.1343 B(  5-C ,  7-C ) :   0.8944 B(  5-C ,  8-C ) :  -0.1704
B(  5-C ,  9-N ) :  -0.1758 B(  5-C , 13-H ) :  -0.1947 B(  5-C , 16-H ) :  -0.6078
B(  6-C ,  7-C ) :   0.1709 B(  6-C ,  9-N ) :   1.2912 B(  6-C , 10-O ) :  -0.1423
B(  6-C , 15-H ) :   0.3215 B(  6-C , 17-H ) :   0.2060 B(  7-C ,  8-C ) :   0.1963
B(  7-C ,  9-N ) :   0.9007 B(  7-C , 13-H ) :   0.8361 B(  7-C , 16-H ) :   1.0212
B(  8-C ,  9-N ) :   0.8931 B(  8-C , 10-O ) :   1.0415 B(  8-C , 14-H ) :   0.3802
B(  8-C , 17-H ) :  -0.3186

MP2 TOTAL ENERGY:     -475.819049983 Eh
FINAL SINGLE POINT ENERGY      -475.819049982867

DIPOLE MOMENT
-------------
                                X             Y             Z
Electronic contribution:     -1.39471       2.15200      -0.00000
Nuclear contribution   :      2.74418      -3.50458       0.00000
                        -----------------------------------------
Total Dipole Moment    :      1.34946      -1.35258      -0.00000
                        -----------------------------------------
Magnitude (a.u.)       :      1.91063
Magnitude (Debye)      :      4.85644

Rotational constants in cm-1:     0.068071     0.039397     0.024954
Rotational constants in MHz :  2040.724298  1181.100372   748.116510

                             ****ORCA TERMINATED NORMALLY****
TOTAL RUN TIME: 0 days 0 hours 1 minutes 58 seconds 751 msec
