                         Program Version 5.0.3 -  RELEASE  -
|  1> !ri-mp2 aug-cc-pvdz aug-cc-pvdz/c tightscf
|  2> %pal nprocs 16 end
|  3>
|  4> * xyz 0 1
|  5> C      0.000000    0.703651        0.000000
|  6> N     -1.128178    1.465945        0.000000
|  7> C      1.258493    1.350388        0.000000
|  8> C     -2.286918    0.851830        0.000000
|  9> C     -2.438097   -0.553100        0.000000
| 10> C     -1.316052   -1.335881        0.000000
| 11> C     -0.043208   -0.722482        0.000000
| 12> C      2.416244    0.616895        0.000000
| 13> C      2.373746   -0.794928        0.000000
| 14> C      1.170348   -1.450387        0.000000
| 15> H     -3.428480   -0.986603        0.000000
| 16> H     -3.168814    1.484250        0.000000
| 17> H      3.297826   -1.356965        0.000000
| 18> H      3.374149    1.119515        0.000000
| 19> H     -1.387749   -2.416474        0.000000
| 20> H      1.132723   -2.532563        0.000000
| 21> H      1.270259    2.431307        0.000000
| 22> *
| 23>
| 24>                          ****END OF INPUT****

CARTESIAN COORDINATES (ANGSTROEM)
---------------------------------
  C      0.000000    0.703651    0.000000
  N     -1.128178    1.465945    0.000000
  C      1.258493    1.350388    0.000000
  C     -2.286918    0.851830    0.000000
  C     -2.438097   -0.553100    0.000000
  C     -1.316052   -1.335881    0.000000
  C     -0.043208   -0.722482    0.000000
  C      2.416244    0.616895    0.000000
  C      2.373746   -0.794928    0.000000
  C      1.170348   -1.450387    0.000000
  H     -3.428480   -0.986603    0.000000
  H     -3.168814    1.484250    0.000000
  H      3.297826   -1.356965    0.000000
  H      3.374149    1.119515    0.000000
  H     -1.387749   -2.416474    0.000000
  H      1.132723   -2.532563    0.000000
  H      1.270259    2.431307    0.000000

 Total Charge           Charge          ....    0
 Multiplicity           Mult            ....    1
 Number of Electrons    NEL             ....   68
 Basis Dimension        Dim             ....  293

ORBITAL ENERGIES
----------------

  NO   OCC          E(Eh)            E(eV)
   0   2.0000     -15.572367      -423.7457
   1   2.0000     -11.285184      -307.0855
   2   2.0000     -11.280139      -306.9482
   3   2.0000     -11.266548      -306.5784
   4   2.0000     -11.254155      -306.2411
   5   2.0000     -11.250438      -306.1400
   6   2.0000     -11.248852      -306.0968
   7   2.0000     -11.248426      -306.0852
   8   2.0000     -11.246020      -306.0198
   9   2.0000     -11.240181      -305.8609
  10   2.0000      -1.266951       -34.4755
  11   2.0000      -1.151069       -31.3222
  12   2.0000      -1.098959       -29.9042
  13   2.0000      -1.026127       -27.9223
  14   2.0000      -1.014487       -27.6056
  15   2.0000      -0.882774       -24.0215
  16   2.0000      -0.862320       -23.4649
  17   2.0000      -0.826293       -22.4846
  18   2.0000      -0.730779       -19.8855
  19   2.0000      -0.709457       -19.3053
  20   2.0000      -0.698379       -19.0039
  21   2.0000      -0.632134       -17.2012
  22   2.0000      -0.618530       -16.8310
  23   2.0000      -0.601524       -16.3683
  24   2.0000      -0.581653       -15.8276
  25   2.0000      -0.574461       -15.6319
  26   2.0000      -0.561476       -15.2785
  27   2.0000      -0.516390       -14.0517
  28   2.0000      -0.504970       -13.7409
  29   2.0000      -0.469215       -12.7680
  30   2.0000      -0.414996       -11.2926
  31   2.0000      -0.414056       -11.2670
  32   2.0000      -0.327264        -8.9053
  33   2.0000      -0.311741        -8.4829
  34   0.0000       0.032051         0.8722
  35   0.0000       0.035914         0.9773
  36   0.0000       0.041715         1.1351
  37   0.0000       0.051541         1.4025
  38   0.0000       0.054544         1.4842

MULLIKEN ATOMIC CHARGES
-----------------------
   0 C :   -1.002044
   1 N :   -0.692186
   2 C :    1.235170
   3 C :    0.347195
   4 C :    0.474307
   5 C :    0.512589
   6 C :    1.062794
   7 C :    0.386679
   8 C :    0.423198
   9 C :    0.665140
  10 H :   -0.425534
  11 H :   -0.369485
  12 H :   -0.472458
  13 H :   -0.445921
  14 H :   -0.563037
  15 H :   -0.584066
  16 H :   -0.552342
Sum of atomic charges:    0.0000000

LOEWDIN ATOMIC CHARGES
----------------------
   0 C :   -0.181944
   1 N :    0.069042
   2 C :    0.063081
   3 C :   -0.023493
   4 C :    0.026440
   5 C :    0.065395
   6 C :   -0.135453
   7 C :    0.018352
   8 C :    0.011969
   9 C :    0.049617
  10 H :   -0.001136
  11 H :    0.004004
  12 H :   -0.000320
  13 H :    0.002129
  14 H :    0.015319
  15 H :    0.007174
  16 H :    0.009822

  Mayer bond orders larger than 0.100000
B(  0-C ,  1-N ) :   1.0245 B(  0-C ,  2-C ) :   1.5335 B(  0-C ,  3-C ) :   0.1838
B(  0-C ,  4-C ) :  -0.2434 B(  0-C ,  5-C ) :  -0.8478 B(  0-C ,  6-C ) :   1.7646
B(  0-C ,  7-C ) :   0.1575 B(  0-C ,  8-C ) :  -0.1681 B(  0-C ,  9-C ) :  -0.8448
B(  0-C , 11-H ) :   0.1182 B(  0-C , 16-H ) :   1.2624 B(  1-N ,  2-C ) :  -0.4804
B(  1-N ,  3-C ) :   1.5786 B(  1-N ,  4-C ) :  -0.1040 B(  1-N ,  6-C ) :   0.3329
B(  1-N , 11-H ) :  -0.1227 B(  1-N , 16-H ) :  -0.1142 B(  2-C ,  5-C ) :   0.4538
B(  2-C ,  6-C ) :  -0.6403 B(  2-C ,  7-C ) :   1.7557 B(  2-C ,  8-C ) :   0.1562
B(  2-C , 13-H ) :   0.2779 B(  2-C , 16-H ) :  -0.5722 B(  3-C ,  4-C ) :   1.1089
B(  3-C ,  5-C ) :   0.2886 B(  3-C ,  6-C ) :  -0.2638 B(  3-C ,  9-C ) :   0.1550
B(  3-C , 11-H ) :   0.8152 B(  4-C ,  5-C ) :   1.4655 B(  4-C ,  6-C ) :   0.2273
B(  4-C ,  9-C ) :   0.2402 B(  4-C , 10-H ) :   0.3878 B(  4-C , 14-H ) :   0.2189
B(  5-C ,  6-C ) :   1.6338 B(  5-C ,  8-C ) :   0.4520 B(  5-C ,  9-C ) :  -1.2635
B(  5-C , 10-H ) :   0.3200 B(  5-C , 14-H ) :  -0.1143 B(  6-C ,  8-C ) :  -0.3859
B(  6-C ,  9-C ) :   1.5896 B(  6-C , 10-H ) :   0.1130 B(  6-C , 14-H ) :   0.6857
B(  6-C , 15-H ) :   0.8581 B(  6-C , 16-H ) :  -0.1950 B(  7-C ,  8-C ) :   1.6613
B(  7-C , 12-H ) :   0.1872 B(  7-C , 13-H ) :   0.2883 B(  7-C , 15-H ) :  -0.1022
B(  7-C , 16-H ) :   0.1507 B(  8-C ,  9-C ) :   1.4728 B(  8-C , 12-H ) :   0.1911
B(  8-C , 13-H ) :   0.1563 B(  8-C , 15-H ) :   0.2205 B(  8-C , 16-H ) :  -0.1016
B(  9-C , 12-H ) :   0.3190 B(  9-C , 14-H ) :  -0.1655 B(  9-C , 15-H ) :  -0.3282
B(  9-C , 16-H ) :   0.1244

MP2 TOTAL ENERGY:     -400.760726745 Eh
FINAL SINGLE POINT ENERGY      -400.760726744880

DIPOLE MOMENT
-------------
                                X             Y             Z
Electronic contribution:     -1.09877       1.36741      -0.00000
Nuclear contribution   :      1.07110      -2.22363       0.00000
                        -----------------------------------------
Total Dipole Moment    :     -0.02766      -0.85622      -0.00000
                        -----------------------------------------
Magnitude (a.u.)       :      0.85667
Magnitude (Debye)      :      2.17747

Rotational constants in cm-1:     0.105723     0.042568     0.030349
Rotational constants in MHz :  3169.495081  1276.153969   909.825243

                             ****ORCA TERMINATED NORMALLY****
TOTAL RUN TIME: 0 days 0 hours 1 minutes 34 seconds 141 msec
