                         Program Version 5.0.3 -  RELEASE  -
|  1> !ri-mp2 aug-cc-pvdz aug-cc-pvdz/c tightscf
|  2> %pal nprocs 16 end
|  3>
|  4> * xyz 0 1
|  5> C    -0.756547     0.773373   -0.707390
|  6> C     0.756547     0.773373   -0.707390
|  7> C     0.000000     1.149648    0.549230
|  8> C    -0.756547    -0.773373   -0.707390
|  9> C     0.756547    -0.773373   -0.707390
| 10> C     0.000000    -1.149648    0.549230
| 11> C     0.000000     0.000000    1.534441
| 12> H    -1.443256     1.422663   -1.227100
| 13> H     1.443256     1.422663   -1.227100
| 14> H     0.000000     2.180720    0.872633
| 15> H    -1.443256    -1.422663   -1.227100
| 16> H     1.443256    -1.422663   -1.227100
| 17> H     0.000000    -2.180720    0.872633
| 18> H     0.887300     0.000000    2.171546
| 19> H    -0.887300     0.000000    2.171546
| 20> *
| 21>
| 22>                          ****END OF INPUT****

CARTESIAN COORDINATES (ANGSTROEM)
---------------------------------
  C     -0.756547    0.773373   -0.707390
  C      0.756547    0.773373   -0.707390
  C      0.000000    1.149648    0.549230
  C     -0.756547   -0.773373   -0.707390
  C      0.756547   -0.773373   -0.707390
  C      0.000000   -1.149648    0.549230
  C      0.000000    0.000000    1.534441
  H     -1.443256    1.422663   -1.227100
  H      1.443256    1.422663   -1.227100
  H      0.000000    2.180720    0.872633
  H     -1.443256   -1.422663   -1.227100
  H      1.443256   -1.422663   -1.227100
  H      0.000000   -2.180720    0.872633
  H      0.887300    0.000000    2.171546
  H     -0.887300    0.000000    2.171546

 Total Charge           Charge          ....    0
 Multiplicity           Mult            ....    1
 Number of Electrons    NEL             ....   50
 Basis Dimension        Dim             ....  233

ORBITAL ENERGIES
----------------

  NO   OCC          E(Eh)            E(eV)
   0   2.0000     -11.231430      -305.6227
   1   2.0000     -11.231315      -305.6196
   2   2.0000     -11.230466      -305.5965
   3   2.0000     -11.230138      -305.5876
   4   2.0000     -11.230044      -305.5850
   5   2.0000     -11.229601      -305.5730
   6   2.0000     -11.222214      -305.3720
   7   2.0000      -1.244520       -33.8651
   8   2.0000      -1.048878       -28.5414
   9   2.0000      -0.990723       -26.9589
  10   2.0000      -0.867582       -23.6081
  11   2.0000      -0.770779       -20.9740
  12   2.0000      -0.755901       -20.5691
  13   2.0000      -0.716922       -19.5084
  14   2.0000      -0.714048       -19.4302
  15   2.0000      -0.598036       -16.2734
  16   2.0000      -0.590253       -16.0616
  17   2.0000      -0.585603       -15.9351
  18   2.0000      -0.538192       -14.6449
  19   2.0000      -0.488133       -13.2828
  20   2.0000      -0.482996       -13.1430
  21   2.0000      -0.437457       -11.9038
  22   2.0000      -0.398068       -10.8320
  23   2.0000      -0.386965       -10.5298
  24   2.0000      -0.331227        -9.0131
  25   0.0000       0.035241         0.9589
  26   0.0000       0.041743         1.1359
  27   0.0000       0.043759         1.1907
  28   0.0000       0.047073         1.2809
  29   0.0000       0.061492         1.6733

MULLIKEN ATOMIC CHARGES
-----------------------
   0 C :    0.398265
   1 C :    0.398265
   2 C :    0.472644
   3 C :    0.398265
   4 C :    0.398265
   5 C :    0.472644
   6 C :    0.327515
   7 H :   -0.449877
   8 H :   -0.449877
   9 H :   -0.427718
  10 H :   -0.449877
  11 H :   -0.449877
  12 H :   -0.427718
  13 H :   -0.105460
  14 H :   -0.105460
Sum of atomic charges:   -0.0000000

LOEWDIN ATOMIC CHARGES
----------------------
   0 C :   -0.011615
   1 C :   -0.011615
   2 C :   -0.074132
   3 C :   -0.011615
   4 C :   -0.011615
   5 C :   -0.074132
   6 C :    0.043546
   7 H :    0.013838
   8 H :    0.013838
   9 H :    0.027986
  10 H :    0.013838
  11 H :    0.013838
  12 H :    0.027986
  13 H :    0.019928
  14 H :    0.019928

  Mayer bond orders larger than 0.100000
B(  0-C ,  1-C ) :   1.0188 B(  0-C ,  2-C ) :   0.9142 B(  0-C ,  3-C ) :   1.3408
B(  0-C ,  7-H ) :   0.4477 B(  0-C ,  8-H ) :   0.1108 B(  0-C , 10-H ) :   0.1636
B(  1-C ,  2-C ) :   0.9142 B(  1-C ,  4-C ) :   1.3408 B(  1-C ,  7-H ) :   0.1108
B(  1-C ,  8-H ) :   0.4477 B(  1-C , 11-H ) :   0.1636 B(  2-C ,  6-C ) :   1.1741
B(  2-C ,  9-H ) :   0.5276 B(  3-C ,  4-C ) :   1.0188 B(  3-C ,  5-C ) :   0.9142
B(  3-C ,  7-H ) :   0.1636 B(  3-C , 10-H ) :   0.4477 B(  3-C , 11-H ) :   0.1108
B(  4-C ,  5-C ) :   0.9142 B(  4-C ,  8-H ) :   0.1636 B(  4-C , 10-H ) :   0.1108
B(  4-C , 11-H ) :   0.4477 B(  5-C ,  6-C ) :   1.1741 B(  5-C , 12-H ) :   0.5276
B(  6-C , 13-H ) :   0.7410 B(  6-C , 14-H ) :   0.7410 B( 13-H , 14-H ) :  -0.1318

MP2 TOTAL ENERGY:     -270.621978643 Eh
FINAL SINGLE POINT ENERGY      -270.621978643139

DIPOLE MOMENT
-------------
                                X             Y             Z
Electronic contribution:      0.00000      -0.00000      -1.21595
Nuclear contribution   :      0.00000       0.00000       1.20253
                        -----------------------------------------
Total Dipole Moment    :      0.00000      -0.00000      -0.01342
                        -----------------------------------------
Magnitude (a.u.)       :      0.01342
Magnitude (Debye)      :      0.03410

Rotational constants in cm-1:     0.147679     0.145680     0.108830
Rotational constants in MHz :  4427.320002  4367.363527  3262.646512

                             ****ORCA TERMINATED NORMALLY****
TOTAL RUN TIME: 0 days 0 hours 0 minutes 56 seconds 51 msec
