                         Program Version 5.0.3 -  RELEASE  -
|  1> !ri-mp2 aug-cc-pvdz aug-cc-pvdz/c tightscf
|  2> %pal nprocs 16 end
|  3> %maxcore 3800
|  4>
|  5> * xyz 0 1
|  6> N     0.000000     0.000000    1.286725
|  7> C     0.000000     1.384344    0.796964
|  8> C    -1.198877    -0.692172    0.796964
|  9> C     1.198877    -0.692172    0.796964
| 10> C     0.000000     1.443662   -0.760521
| 11> C    -1.250248    -0.721831   -0.760521
| 12> C     1.250248    -0.721831   -0.760521
| 13> C     0.000000     0.000000   -1.290089
| 14> H     0.877475     1.885976    1.207931
| 15> H    -0.877475     1.885976    1.207931
| 16> H    -2.072040    -0.183072    1.207931
| 17> H    -1.194565    -1.702903    1.207931
| 18> H     1.194565    -1.702903    1.207931
| 19> H     2.072040    -0.183072    1.207931
| 20> H     0.877284     1.977815   -1.131569
| 21> H    -0.877284     1.977815   -1.131569
| 22> H    -2.151480    -0.229157   -1.131569
| 23> H    -1.274196    -1.748657   -1.131569
| 24> H     1.274196    -1.748657   -1.131569
| 25> H     2.151480    -0.229157   -1.131569
| 26> H     0.000000     0.000000   -2.380678
| 27> *
| 28>
| 29>                          ****END OF INPUT****

CARTESIAN COORDINATES (ANGSTROEM)
---------------------------------
  N      0.000000    0.000000    1.286725
  C      0.000000    1.384344    0.796964
  C     -1.198877   -0.692172    0.796964
  C      1.198877   -0.692172    0.796964
  C      0.000000    1.443662   -0.760521
  C     -1.250248   -0.721831   -0.760521
  C      1.250248   -0.721831   -0.760521
  C      0.000000    0.000000   -1.290089
  H      0.877475    1.885976    1.207931
  H     -0.877475    1.885976    1.207931
  H     -2.072040   -0.183072    1.207931
  H     -1.194565   -1.702903    1.207931
  H      1.194565   -1.702903    1.207931
  H      2.072040   -0.183072    1.207931
  H      0.877284    1.977815   -1.131569
  H     -0.877284    1.977815   -1.131569
  H     -2.151480   -0.229157   -1.131569
  H     -1.274196   -1.748657   -1.131569
  H      1.274196   -1.748657   -1.131569
  H      2.151480   -0.229157   -1.131569
  H      0.000000    0.000000   -2.380678

 Total Charge           Charge          ....    0
 Multiplicity           Mult            ....    1
 Number of Electrons    NEL             ....   62
 Basis Dimension        Dim             ....  301

ORBITAL ENERGIES
----------------

  NO   OCC          E(Eh)            E(eV)
   0   2.0000     -15.544257      -422.9807
   1   2.0000     -11.244974      -305.9913
   2   2.0000     -11.244973      -305.9913
   3   2.0000     -11.244949      -305.9906
   4   2.0000     -11.226737      -305.4950
   5   2.0000     -11.218281      -305.2650
   6   2.0000     -11.218281      -305.2650
   7   2.0000     -11.218233      -305.2636
   8   2.0000      -1.237381       -33.6708
   9   2.0000      -1.069381       -29.0993
  10   2.0000      -1.006088       -27.3770
  11   2.0000      -1.006088       -27.3770
  12   2.0000      -0.845601       -23.0100
  13   2.0000      -0.845601       -23.0100
  14   2.0000      -0.827571       -22.5193
  15   2.0000      -0.695582       -18.9278
  16   2.0000      -0.663366       -18.0511
  17   2.0000      -0.655984       -17.8502
  18   2.0000      -0.655984       -17.8502
  19   2.0000      -0.561544       -15.2804
  20   2.0000      -0.548947       -14.9376
  21   2.0000      -0.548947       -14.9376
  22   2.0000      -0.521430       -14.1888
  23   2.0000      -0.521430       -14.1888
  24   2.0000      -0.508248       -13.8301
  25   2.0000      -0.508248       -13.8301
  26   2.0000      -0.492786       -13.4094
  27   2.0000      -0.459702       -12.5091
  28   2.0000      -0.426183       -11.5970
  29   2.0000      -0.426183       -11.5970
  30   2.0000      -0.336409        -9.1542
  31   0.0000       0.035305         0.9607
  32   0.0000       0.045386         1.2350
  33   0.0000       0.045386         1.2350
  34   0.0000       0.046911         1.2765
  35   0.0000       0.061360         1.6697

MULLIKEN ATOMIC CHARGES
-----------------------
   0 N :   -0.728863
   1 C :    0.662275
   2 C :    0.662277
   3 C :    0.662277
   4 C :    0.533529
   5 C :    0.533529
   6 C :    0.533529
   7 C :   -0.373166
   8 H :   -0.205606
   9 H :   -0.205606
  10 H :   -0.205606
  11 H :   -0.205607
  12 H :   -0.205607
  13 H :   -0.205606
  14 H :   -0.179973
  15 H :   -0.179973
  16 H :   -0.179972
  17 H :   -0.179974
  18 H :   -0.179974
  19 H :   -0.179972
  20 H :   -0.171912
Sum of atomic charges:   -0.0000000

LOEWDIN ATOMIC CHARGES
----------------------
   0 N :   -0.125517
   1 C :    0.012252
   2 C :    0.012253
   3 C :    0.012253
   4 C :    0.032715
   5 C :    0.032715
   6 C :    0.032715
   7 C :   -0.209997
   8 H :    0.014610
   9 H :    0.014610
  10 H :    0.014610
  11 H :    0.014609
  12 H :    0.014609
  13 H :    0.014610
  14 H :    0.012514
  15 H :    0.012514
  16 H :    0.012514
  17 H :    0.012514
  18 H :    0.012514
  19 H :    0.012514
  20 H :    0.037870

  Mayer bond orders larger than 0.100000
B(  0-N ,  1-C ) :   0.8957 B(  0-N ,  2-C ) :   0.8957 B(  0-N ,  3-C ) :   0.8957
B(  0-N ,  7-C ) :  -0.3497 B(  1-C ,  4-C ) :   1.2810 B(  1-C ,  8-H ) :   0.8514
B(  1-C ,  9-H ) :   0.8514 B(  2-C ,  5-C ) :   1.2810 B(  2-C , 10-H ) :   0.8514
B(  2-C , 11-H ) :   0.8514 B(  3-C ,  6-C ) :   1.2810 B(  3-C , 12-H ) :   0.8514
B(  3-C , 13-H ) :   0.8514 B(  4-C ,  7-C ) :   1.0526 B(  4-C , 14-H ) :   0.7132
B(  4-C , 15-H ) :   0.7132 B(  5-C ,  7-C ) :   1.0526 B(  5-C , 16-H ) :   0.7132
B(  5-C , 17-H ) :   0.7132 B(  6-C ,  7-C ) :   1.0526 B(  6-C , 18-H ) :   0.7132
B(  6-C , 19-H ) :   0.7132 B(  7-C , 20-H ) :   0.5961 B(  8-H ,  9-H ) :  -0.2358
B( 10-H , 11-H ) :  -0.2358 B( 12-H , 13-H ) :  -0.2358 B( 14-H , 15-H ) :  -0.2310
B( 16-H , 17-H ) :  -0.2310 B( 18-H , 19-H ) :  -0.2310

MP2 TOTAL ENERGY:     -328.313500504 Eh
FINAL SINGLE POINT ENERGY      -328.313500504003

DIPOLE MOMENT
-------------
                                X             Y             Z
Electronic contribution:     -0.00000      -0.00000       1.53599
Nuclear contribution   :      0.00000       0.00000      -2.00542
                        -----------------------------------------
Total Dipole Moment    :     -0.00000      -0.00000      -0.46943
                        -----------------------------------------
Magnitude (a.u.)       :      0.46943
Magnitude (Debye)      :      1.19320

Rotational constants in cm-1:     0.084868     0.080862     0.080862
Rotational constants in MHz :  2544.270501  2424.172289  2424.172280

                             ****ORCA TERMINATED NORMALLY****
TOTAL RUN TIME: 0 days 0 hours 1 minutes 26 seconds 797 msec
