                         Program Version 5.0.3 -  RELEASE  -
|  1> !ri-mp2 aug-cc-pvdz aug-cc-pvdz/c tightscf
|  2> %pal nprocs 16 end
|  3> %maxcore 3800
|  4>
|  5> * xyz 0 1
|  6> C      0.000000    0.706926    2.368951
|  7> C      0.000000   -0.706926    2.368951
|  8> C      0.000000    1.406054    1.190448
|  9> C      0.000000   -1.406054    1.190448
| 10> C      0.000000    0.708403   -2.312800
| 11> C      0.000000   -0.708403   -2.312800
| 12> C      0.000000    0.712878   -0.041323
| 13> C      0.000000   -0.712878   -0.041323
| 14> N      0.000000    1.410993   -1.208183
| 15> N      0.000000   -1.410993   -1.208183
| 16> H      0.000000    1.237156    3.311638
| 17> H      0.000000   -1.237156    3.311638
| 18> H      0.000000    2.486877    1.166492
| 19> H      0.000000   -2.486877    1.166492
| 20> H      0.000000    1.250205   -3.252504
| 21> H      0.000000   -1.250205   -3.252504
| 22> *
| 23>
| 24>                          ****END OF INPUT****

CARTESIAN COORDINATES (ANGSTROEM)
---------------------------------
  C      0.000000    0.706926    2.368951
  C      0.000000   -0.706926    2.368951
  C      0.000000    1.406054    1.190448
  C      0.000000   -1.406054    1.190448
  C      0.000000    0.708403   -2.312800
  C      0.000000   -0.708403   -2.312800
  C      0.000000    0.712878   -0.041323
  C      0.000000   -0.712878   -0.041323
  N      0.000000    1.410993   -1.208183
  N      0.000000   -1.410993   -1.208183
  H      0.000000    1.237156    3.311638
  H      0.000000   -1.237156    3.311638
  H      0.000000    2.486877    1.166492
  H      0.000000   -2.486877    1.166492
  H      0.000000    1.250205   -3.252504
  H      0.000000   -1.250205   -3.252504

 Total Charge           Charge          ....    0
 Multiplicity           Mult            ....    1
 Number of Electrons    NEL             ....   68
 Basis Dimension        Dim             ....  284

ORBITAL ENERGIES
----------------

  NO   OCC          E(Eh)            E(eV)
   0   2.0000     -15.599447      -424.4825
   1   2.0000     -15.599431      -424.4821
   2   2.0000     -11.295409      -307.3637
   3   2.0000     -11.294362      -307.3352
   4   2.0000     -11.288081      -307.1643
   5   2.0000     -11.287041      -307.1360
   6   2.0000     -11.254744      -306.2571
   7   2.0000     -11.253712      -306.2291
   8   2.0000     -11.249805      -306.1227
   9   2.0000     -11.249794      -306.1225
  10   2.0000      -1.313947       -35.7543
  11   2.0000      -1.229184       -33.4478
  12   2.0000      -1.155605       -31.4456
  13   2.0000      -1.040246       -28.3065
  14   2.0000      -1.031184       -28.0599
  15   2.0000      -0.917501       -24.9665
  16   2.0000      -0.886067       -24.1111
  17   2.0000      -0.836954       -22.7747
  18   2.0000      -0.746883       -20.3237
  19   2.0000      -0.735760       -20.0211
  20   2.0000      -0.706302       -19.2194
  21   2.0000      -0.649769       -17.6811
  22   2.0000      -0.624225       -16.9860
  23   2.0000      -0.610414       -16.6102
  24   2.0000      -0.600793       -16.3484
  25   2.0000      -0.588553       -16.0153
  26   2.0000      -0.525489       -14.2993
  27   2.0000      -0.524957       -14.2848
  28   2.0000      -0.497367       -13.5340
  29   2.0000      -0.479559       -13.0495
  30   2.0000      -0.458267       -12.4701
  31   2.0000      -0.406987       -11.0747
  32   2.0000      -0.334503        -9.1023
  33   2.0000      -0.327749        -8.9185
  34   0.0000       0.034196         0.9305
  35   0.0000       0.036001         0.9796
  36   0.0000       0.042533         1.1574
  37   0.0000       0.045364         1.2344
  38   0.0000       0.052154         1.4192

MULLIKEN ATOMIC CHARGES
-----------------------
   0 C :    0.632783
   1 C :    0.632783
   2 C :    1.088334
   3 C :    1.088334
   4 C :    0.687015
   5 C :    0.687015
   6 C :   -0.272312
   7 C :   -0.272312
   8 N :   -0.851267
   9 N :   -0.851267
  10 H :   -0.447258
  11 H :   -0.447258
  12 H :   -0.518815
  13 H :   -0.518815
  14 H :   -0.318479
  15 H :   -0.318479
Sum of atomic charges:   -0.0000000

LOEWDIN ATOMIC CHARGES
----------------------
   0 C :    0.019349
   1 C :    0.019349
   2 C :    0.062196
   3 C :    0.062196
   4 C :   -0.005648
   5 C :   -0.005648
   6 C :   -0.179173
   7 C :   -0.179173
   8 N :    0.086832
   9 N :    0.086832
  10 H :    0.002266
  11 H :    0.002266
  12 H :    0.010722
  13 H :    0.010722
  14 H :    0.003454
  15 H :    0.003454

  Mayer bond orders larger than 0.100000
B(  0-C ,  1-C ) :   1.5846 B(  0-C ,  2-C ) :   1.7448 B(  0-C , 10-H ) :   0.2893
B(  0-C , 11-H ) :   0.1352 B(  0-C , 12-H ) :   0.1452 B(  1-C ,  3-C ) :   1.7448
B(  1-C , 10-H ) :   0.1352 B(  1-C , 11-H ) :   0.2893 B(  1-C , 13-H ) :   0.1452
B(  2-C ,  3-C ) :   0.4209 B(  2-C ,  6-C ) :   1.7179 B(  2-C ,  7-C ) :  -0.3140
B(  2-C ,  8-N ) :  -0.4072 B(  2-C , 10-H ) :   0.2767 B(  2-C , 12-H ) :  -0.3195
B(  3-C ,  6-C ) :  -0.3140 B(  3-C ,  7-C ) :   1.7179 B(  3-C ,  9-N ) :  -0.4072
B(  3-C , 11-H ) :   0.2767 B(  3-C , 13-H ) :  -0.3195 B(  4-C ,  5-C ) :   1.0834
B(  4-C ,  6-C ) :  -0.1791 B(  4-C ,  8-N ) :   1.4863 B(  4-C , 14-H ) :   0.8796
B(  5-C ,  7-C ) :  -0.1791 B(  5-C ,  9-N ) :   1.4863 B(  5-C , 15-H ) :   0.8796
B(  6-C ,  7-C ) :   1.3887 B(  6-C ,  8-N ) :   1.1138 B(  6-C ,  9-N ) :   0.2750
B(  6-C , 12-H ) :   1.0055 B(  6-C , 13-H ) :  -0.1505 B(  6-C , 14-H ) :   0.1017
B(  7-C ,  8-N ) :   0.2750 B(  7-C ,  9-N ) :   1.1138 B(  7-C , 12-H ) :  -0.1505
B(  7-C , 13-H ) :   1.0055 B(  7-C , 15-H ) :   0.1017

MP2 TOTAL ENERGY:     -416.782253160 Eh
FINAL SINGLE POINT ENERGY      -416.782253159993

DIPOLE MOMENT
-------------
                                X             Y             Z
Electronic contribution:      0.00000       0.00000      -2.32172
Nuclear contribution   :      0.00000       0.00000       2.39136
                        -----------------------------------------
Total Dipole Moment    :      0.00000       0.00000       0.06964
                        -----------------------------------------
Magnitude (a.u.)       :      0.06964
Magnitude (Debye)      :      0.17700

Rotational constants in cm-1:     0.106534     0.043853     0.031065
Rotational constants in MHz :  3193.817508  1314.670975   931.314163

                             ****ORCA TERMINATED NORMALLY****
TOTAL RUN TIME: 0 days 0 hours 1 minutes 27 seconds 95 msec
