                         Program Version 5.0.3 -  RELEASE  -
|  1> !ri-mp2 aug-cc-pvdz aug-cc-pvdz/c tightscf
|  2> %pal nprocs 16 end
|  3>
|  4> * xyz 0 1
|  5> Cl    -0.963836    1.196188   -1.568576
|  6> Cl     0.963836   -1.196188    1.568576
|  7> C     -1.877280   -0.439478    0.405978
|  8> C      1.877280    0.439478   -0.405978
|  9> C     -0.655802    0.388883    0.056013
| 10> C      0.655802   -0.388883   -0.056013
| 11> H     -2.768750    0.184001    0.395510
| 12> H      2.768750   -0.184001   -0.395510
| 13> H      1.763930    0.869887   -1.399295
| 14> H     -1.763930   -0.869887    1.399295
| 15> H     -2.014805   -1.248691   -0.311234
| 16> H      2.014805    1.248691    0.311234
| 17> H      0.528989   -1.216949   -0.749644
| 18> H     -0.528989    1.216949    0.749644
| 19> *
| 20>
| 21>                          ****END OF INPUT****

CARTESIAN COORDINATES (ANGSTROEM)
---------------------------------
  Cl    -0.963836    1.196188   -1.568576
  Cl     0.963836   -1.196188    1.568576
  C     -1.877280   -0.439478    0.405978
  C      1.877280    0.439478   -0.405978
  C     -0.655802    0.388883    0.056013
  C      0.655802   -0.388883   -0.056013
  H     -2.768750    0.184001    0.395510
  H      2.768750   -0.184001   -0.395510
  H      1.763930    0.869887   -1.399295
  H     -1.763930   -0.869887    1.399295
  H     -2.014805   -1.248691   -0.311234
  H      2.014805    1.248691    0.311234
  H      0.528989   -1.216949   -0.749644
  H     -0.528989    1.216949    0.749644

 Total Charge           Charge          ....    0
 Multiplicity           Mult            ....    1
 Number of Electrons    NEL             ....   66
 Basis Dimension        Dim             ....  218

ORBITAL ENERGIES
----------------

  NO   OCC          E(Eh)            E(eV)
   0   2.0000    -104.827764     -2852.5085
   1   2.0000    -104.827763     -2852.5085
   2   2.0000     -11.324961      -308.1679
   3   2.0000     -11.324354      -308.1513
   4   2.0000     -11.242849      -305.9335
   5   2.0000     -11.242848      -305.9335
   6   2.0000     -10.553751      -287.1822
   7   2.0000     -10.553743      -287.1819
   8   2.0000      -8.021232      -218.2688
   9   2.0000      -8.021231      -218.2688
  10   2.0000      -8.018328      -218.1898
  11   2.0000      -8.018328      -218.1898
  12   2.0000      -8.018231      -218.1872
  13   2.0000      -8.018231      -218.1871
  14   2.0000      -1.182119       -32.1671
  15   2.0000      -1.115350       -30.3502
  16   2.0000      -1.012780       -27.5591
  17   2.0000      -1.008297       -27.4371
  18   2.0000      -0.889079       -24.1931
  19   2.0000      -0.801935       -21.8218
  20   2.0000      -0.653105       -17.7719
  21   2.0000      -0.643470       -17.5097
  22   2.0000      -0.610580       -16.6147
  23   2.0000      -0.607968       -16.5437
  24   2.0000      -0.554568       -15.0906
  25   2.0000      -0.536707       -14.6045
  26   2.0000      -0.527053       -14.3418
  27   2.0000      -0.519448       -14.1349
  28   2.0000      -0.489862       -13.3298
  29   2.0000      -0.459127       -12.4935
  30   2.0000      -0.443381       -12.0650
  31   2.0000      -0.440442       -11.9850
  32   2.0000      -0.430832       -11.7235
  33   0.0000       0.038809         1.0560
  34   0.0000       0.043481         1.1832
  35   0.0000       0.046613         1.2684
  36   0.0000       0.058273         1.5857
  37   0.0000       0.064336         1.7507

MULLIKEN ATOMIC CHARGES
-----------------------
   0 Cl:   -0.177847
   1 Cl:   -0.177847
   2 C :    0.682841
   3 C :    0.682841
   4 C :   -0.368549
   5 C :   -0.368549
   6 H :   -0.028007
   7 H :   -0.028007
   8 H :    0.000111
   9 H :    0.000111
  10 H :   -0.016523
  11 H :   -0.016523
  12 H :   -0.092027
  13 H :   -0.092027
Sum of atomic charges:    0.0000000

LOEWDIN ATOMIC CHARGES
----------------------
   0 Cl:    0.507123
   1 Cl:    0.507123
   2 C :    0.091155
   3 C :    0.091155
   4 C :   -0.529188
   5 C :   -0.529188
   6 H :   -0.018245
   7 H :   -0.018245
   8 H :   -0.035873
   9 H :   -0.035873
  10 H :   -0.011787
  11 H :   -0.011787
  12 H :   -0.003186
  13 H :   -0.003186

  Mayer bond orders larger than 0.100000
B(  0-Cl,  4-C ) :   1.0171 B(  1-Cl,  5-C ) :   1.0171 B(  2-C ,  4-C ) :   1.2474
B(  2-C ,  6-H ) :   0.8730 B(  2-C ,  9-H ) :   0.8392 B(  2-C , 10-H ) :   0.9506
B(  3-C ,  5-C ) :   1.2474 B(  3-C ,  7-H ) :   0.8730 B(  3-C ,  8-H ) :   0.8392
B(  3-C , 11-H ) :   0.9506 B(  4-C ,  5-C ) :   1.1575 B(  4-C ,  6-H ) :   0.1065
B(  4-C , 13-H ) :   0.8384 B(  5-C ,  7-H ) :   0.1065 B(  5-C , 12-H ) :   0.8384

MP2 TOTAL ENERGY:    -1076.068069612 Eh
FINAL SINGLE POINT ENERGY     -1076.068069611837

DIPOLE MOMENT
-------------
                                X             Y             Z
Electronic contribution:     -0.00000      -0.00000      -0.00000
Nuclear contribution   :      0.00000       0.00000       0.00000
                        -----------------------------------------
Total Dipole Moment    :     -0.00000      -0.00000      -0.00000
                        -----------------------------------------
Magnitude (a.u.)       :      0.00000
Magnitude (Debye)      :      0.00000

Rotational constants in cm-1:     0.122452     0.046127     0.034930
Rotational constants in MHz :  3671.007759  1382.840011  1047.178016

                             ****ORCA TERMINATED NORMALLY****
TOTAL RUN TIME: 0 days 0 hours 0 minutes 40 seconds 9 msec
