                         Program Version 5.0.3 -  RELEASE  -
|  1> !ri-mp2 aug-cc-pvdz aug-cc-pvdz/c tightscf
|  2> %pal nprocs 16 end
|  3>
|  4> * xyz 0 1
|  5> S     -0.581423    0.778059   -0.046508
|  6> S      2.290563   -0.099694   -0.028882
|  7> N     -3.075461   -0.603242    0.072586
|  8> C      0.575090   -0.674352   -0.075835
|  9> C     -2.060382   -0.051436    0.023082
| 10> H      2.304288    0.255860    1.269161
| 11> H      0.444681   -1.205612   -1.013319
| 12> H      0.344772   -1.326672    0.758810
| 13> *
| 14>
| 15>                          ****END OF INPUT****

CARTESIAN COORDINATES (ANGSTROEM)
---------------------------------
  S     -0.581423    0.778059   -0.046508
  S      2.290563   -0.099694   -0.028882
  N     -3.075461   -0.603242    0.072586
  C      0.575090   -0.674352   -0.075835
  C     -2.060382   -0.051436    0.023082
  H      2.304288    0.255860    1.269161
  H      0.444681   -1.205612   -1.013319
  H      0.344772   -1.326672    0.758810

 Total Charge           Charge          ....    0
 Multiplicity           Mult            ....    1
 Number of Electrons    NEL             ....   54
 Basis Dimension        Dim             ....  150

ORBITAL ENERGIES
----------------

  NO   OCC          E(Eh)            E(eV)
   0   2.0000     -92.028617     -2504.2260
   1   2.0000     -91.999328     -2503.4290
   2   2.0000     -15.599898      -424.4948
   3   2.0000     -11.342773      -308.6526
   4   2.0000     -11.311417      -307.7993
   5   2.0000      -9.029128      -245.6951
   6   2.0000      -9.000817      -244.9247
   7   2.0000      -6.711282      -182.6233
   8   2.0000      -6.709172      -182.5659
   9   2.0000      -6.707081      -182.5089
  10   2.0000      -6.682807      -181.8484
  11   2.0000      -6.681444      -181.8113
  12   2.0000      -6.679261      -181.7519
  13   2.0000      -1.240840       -33.7650
  14   2.0000      -1.125686       -30.6315
  15   2.0000      -1.023160       -27.8416
  16   2.0000      -0.886831       -24.1319
  17   2.0000      -0.696117       -18.9423
  18   2.0000      -0.672264       -18.2932
  19   2.0000      -0.586580       -15.9617
  20   2.0000      -0.577341       -15.7102
  21   2.0000      -0.543221       -14.7818
  22   2.0000      -0.525946       -14.3117
  23   2.0000      -0.505256       -13.7487
  24   2.0000      -0.466123       -12.6838
  25   2.0000      -0.397298       -10.8110
  26   2.0000      -0.391414       -10.6509
  27   0.0000       0.029941         0.8147
  28   0.0000       0.043337         1.1793
  29   0.0000       0.053062         1.4439
  30   0.0000       0.067871         1.8469
  31   0.0000       0.079338         2.1589

MULLIKEN ATOMIC CHARGES
-----------------------
   0 S :    0.679673
   1 S :    0.282528
   2 N :   -0.317048
   3 C :   -0.414488
   4 C :   -0.272582
   5 H :    0.134233
   6 H :   -0.011076
   7 H :   -0.081240
Sum of atomic charges:    0.0000000

LOEWDIN ATOMIC CHARGES
----------------------
   0 S :    0.816360
   1 S :    0.701238
   2 N :   -0.014336
   3 C :   -0.577870
   4 C :   -0.554841
   5 H :   -0.216483
   6 H :   -0.078878
   7 H :   -0.075189

  Mayer bond orders larger than 0.100000
B(  0-S ,  3-C ) :   1.0574 B(  0-S ,  4-C ) :   0.8982 B(  1-S ,  3-C ) :   1.1380
B(  1-S ,  5-H ) :   0.9472 B(  1-S ,  6-H ) :  -0.1041 B(  2-N ,  4-C ) :   2.4961
B(  3-C ,  6-H ) :   1.0033 B(  3-C ,  7-H ) :   1.0695

MP2 TOTAL ENERGY:     -927.708224491 Eh
FINAL SINGLE POINT ENERGY      -927.708224491473

DIPOLE MOMENT
-------------
                                X             Y             Z
Electronic contribution:     -1.54915       2.20890      -0.74148
Nuclear contribution   :      2.91496      -2.21870       0.98106
                        -----------------------------------------
Total Dipole Moment    :      1.36581      -0.00980       0.23958
                        -----------------------------------------
Magnitude (a.u.)       :      1.38670
Magnitude (Debye)      :      3.52471

Rotational constants in cm-1:     0.455278     0.044889     0.041554
Rotational constants in MHz : 13648.888286  1345.724786  1245.757372

                             ****ORCA TERMINATED NORMALLY****
TOTAL RUN TIME: 0 days 0 hours 0 minutes 54 seconds 253 msec
