                         Program Version 5.0.3 -  RELEASE  -
|  1> !ri-mp2 aug-cc-pvdz aug-cc-pvdz/c tightscf
|  2> %pal nprocs 16 end
|  3>
|  4> * xyz 0 1
|  5> C     -0.591523   -0.910088    0.000000
|  6> C      1.806424    0.511742    0.000000
|  7> O     -1.751511   -1.205927    0.000000
|  8> S      0.000000    0.769997    0.000000
|  9> H      0.228373   -1.652841    0.000000
| 10> H      2.021441   -0.556170    0.000000
| 11> H      2.236433    0.963278    0.889535
| 12> H      2.236433    0.963278   -0.889535
| 13> *
| 14>
| 15>                          ****END OF INPUT****

CARTESIAN COORDINATES (ANGSTROEM)
---------------------------------
  C     -0.591523   -0.910088    0.000000
  C      1.806424    0.511742    0.000000
  O     -1.751511   -1.205927    0.000000
  S      0.000000    0.769997    0.000000
  H      0.228373   -1.652841    0.000000
  H      2.021441   -0.556170    0.000000
  H      2.236433    0.963278    0.889535
  H      2.236433    0.963278   -0.889535

 Total Charge           Charge          ....    0
 Multiplicity           Mult            ....    1
 Number of Electrons    NEL             ....   40
 Basis Dimension        Dim             ....  132

ORBITAL ENERGIES
----------------

  NO   OCC          E(Eh)            E(eV)
   0   2.0000     -91.982954     -2502.9834
   1   2.0000     -20.582619      -560.0815
   2   2.0000     -11.380030      -309.6664
   3   2.0000     -11.287006      -307.1350
   4   2.0000      -8.985906      -244.5189
   5   2.0000      -6.667601      -181.4347
   6   2.0000      -6.666212      -181.3968
   7   2.0000      -6.664419      -181.3481
   8   2.0000      -1.421444       -38.6794
   9   2.0000      -1.079910       -29.3859
  10   2.0000      -0.930320       -25.3153
  11   2.0000      -0.805366       -21.9151
  12   2.0000      -0.678518       -18.4634
  13   2.0000      -0.643617       -17.5137
  14   2.0000      -0.615798       -16.7567
  15   2.0000      -0.585551       -15.9336
  16   2.0000      -0.561134       -15.2692
  17   2.0000      -0.490198       -13.3390
  18   2.0000      -0.421039       -11.4571
  19   2.0000      -0.378069       -10.2878
  20   0.0000       0.029230         0.7954
  21   0.0000       0.046025         1.2524
  22   0.0000       0.051250         1.3946
  23   0.0000       0.060141         1.6365
  24   0.0000       0.088448         2.4068

MULLIKEN ATOMIC CHARGES
-----------------------
   0 C :    0.414344
   1 C :    0.057168
   2 O :   -0.618855
   3 S :    0.443174
   4 H :   -0.119353
   5 H :   -0.190536
   6 H :    0.007028
   7 H :    0.007028
Sum of atomic charges:    0.0000000

LOEWDIN ATOMIC CHARGES
----------------------
   0 C :   -0.410878
   1 C :   -0.115119
   2 O :   -0.040062
   3 S :    0.831213
   4 H :   -0.046467
   5 H :   -0.078435
   6 H :   -0.070126
   7 H :   -0.070126

  Mayer bond orders larger than 0.100000
B(  0-C ,  2-O ) :   1.6338 B(  0-C ,  3-S ) :   1.0170 B(  0-C ,  4-H ) :   1.0014
B(  1-C ,  3-S ) :   1.0521 B(  1-C ,  5-H ) :   1.0954 B(  1-C ,  6-H ) :   0.9549
B(  1-C ,  7-H ) :   0.9549

MP2 TOTAL ENERGY:     -551.091520819 Eh
FINAL SINGLE POINT ENERGY      -551.091520818878

DIPOLE MOMENT
-------------
                                X             Y             Z
Electronic contribution:     -4.89707       0.39709      -0.00000
Nuclear contribution   :      6.60798      -0.32099       0.00000
                        -----------------------------------------
Total Dipole Moment    :      1.71091       0.07609      -0.00000
                        -----------------------------------------
Magnitude (a.u.)       :      1.71260
Magnitude (Debye)      :      4.35308

Rotational constants in cm-1:     0.649475     0.117320     0.101275
Rotational constants in MHz : 19470.782017  3517.168893  3036.138957

                             ****ORCA TERMINATED NORMALLY****
TOTAL RUN TIME: 0 days 0 hours 0 minutes 25 seconds 969 msec
