                         Program Version 5.0.3 -  RELEASE  -
|  1> !ri-mp2 aug-cc-pvdz aug-cc-pvdz/c tightscf
|  2> %pal nprocs 16 end
|  3>
|  4> * xyz 0 1
|  5> C      1.333065    3.036686    0.000000
|  6> C     -0.058033    3.001626    0.000000
|  7> C      2.057969    1.849796    0.000000
|  8> C     -0.721944    1.784420    0.000000
|  9> C      1.395636    0.630072    0.000000
| 10> C      0.000000    0.587581    0.000000
| 11> C     -0.775412   -0.687600    0.000000
| 12> C     -1.161168   -3.408295    0.000000
| 13> O     -1.984399   -0.723520    0.000000
| 14> S      0.197665   -2.203581    0.000000
| 15> H      1.851085    3.986336    0.000000
| 16> H     -0.623442    3.923567    0.000000
| 17> H      3.139026    1.874086    0.000000
| 18> H     -1.801297    1.738555    0.000000
| 19> H      1.969563   -0.285827    0.000000
| 20> H     -1.773676   -3.283052    0.887927
| 21> H     -0.695712   -4.390868    0.000000
| 22> H     -1.773676   -3.283052   -0.887927
| 23> *
| 24>
| 25>                          ****END OF INPUT****

CARTESIAN COORDINATES (ANGSTROEM)
---------------------------------
  C      1.333065    3.036686    0.000000
  C     -0.058033    3.001626    0.000000
  C      2.057969    1.849796    0.000000
  C     -0.721944    1.784420    0.000000
  C      1.395636    0.630072    0.000000
  C      0.000000    0.587581    0.000000
  C     -0.775412   -0.687600    0.000000
  C     -1.161168   -3.408295    0.000000
  O     -1.984399   -0.723520    0.000000
  S      0.197665   -2.203581    0.000000
  H      1.851085    3.986336    0.000000
  H     -0.623442    3.923567    0.000000
  H      3.139026    1.874086    0.000000
  H     -1.801297    1.738555    0.000000
  H      1.969563   -0.285827    0.000000
  H     -1.773676   -3.283052    0.887927
  H     -0.695712   -4.390868    0.000000
  H     -1.773676   -3.283052   -0.887927

 Total Charge           Charge          ....    0
 Multiplicity           Mult            ....    1
 Number of Electrons    NEL             ....   80
 Basis Dimension        Dim             ....  306

ORBITAL ENERGIES
----------------

  NO   OCC          E(Eh)            E(eV)
   0   2.0000     -91.969831     -2502.6263
   1   2.0000     -20.566378      -559.6396
   2   2.0000     -11.373422      -309.4866
   3   2.0000     -11.265220      -306.5422
   4   2.0000     -11.262683      -306.4732
   5   2.0000     -11.261400      -306.4383
   6   2.0000     -11.260604      -306.4166
   7   2.0000     -11.256746      -306.3116
   8   2.0000     -11.252949      -306.2083
   9   2.0000     -11.251568      -306.1707
  10   2.0000      -8.972786      -244.1619
  11   2.0000      -6.654724      -181.0842
  12   2.0000      -6.653141      -181.0412
  13   2.0000      -6.651438      -180.9948
  14   2.0000      -1.408621       -38.3305
  15   2.0000      -1.176068       -32.0024
  16   2.0000      -1.070902       -29.1407
  17   2.0000      -1.042294       -28.3623
  18   2.0000      -1.034500       -28.1502
  19   2.0000      -0.921892       -25.0860
  20   2.0000      -0.859723       -23.3942
  21   2.0000      -0.838643       -22.8206
  22   2.0000      -0.760779       -20.7019
  23   2.0000      -0.711122       -19.3506
  24   2.0000      -0.660578       -17.9752
  25   2.0000      -0.657914       -17.9028
  26   2.0000      -0.627041       -17.0627
  27   2.0000      -0.617763       -16.8102
  28   2.0000      -0.604444       -16.4477
  29   2.0000      -0.601957       -16.3801
  30   2.0000      -0.562805       -15.3147
  31   2.0000      -0.556175       -15.1343
  32   2.0000      -0.529164       -14.3993
  33   2.0000      -0.509158       -13.8549
  34   2.0000      -0.507404       -13.8072
  35   2.0000      -0.482384       -13.1263
  36   2.0000      -0.408974       -11.1287
  37   2.0000      -0.375045       -10.2055
  38   2.0000      -0.350852        -9.5472
  39   2.0000      -0.348350        -9.4791
  40   0.0000       0.031970         0.8699
  41   0.0000       0.038057         1.0356
  42   0.0000       0.041693         1.1345
  43   0.0000       0.052038         1.4160
  44   0.0000       0.057695         1.5700

MULLIKEN ATOMIC CHARGES
-----------------------
   0 C :    0.388897
   1 C :    0.653571
   2 C :    0.555053
   3 C :   -0.213071
   4 C :    0.343195
   5 C :    1.857149
   6 C :   -0.420936
   7 C :    0.051245
   8 O :   -0.813066
   9 S :    0.261371
  10 H :   -0.437570
  11 H :   -0.430591
  12 H :   -0.465247
  13 H :   -0.636603
  14 H :   -0.505229
  15 H :   -0.017925
  16 H :   -0.152317
  17 H :   -0.017925
Sum of atomic charges:    0.0000000

LOEWDIN ATOMIC CHARGES
----------------------
   0 C :    0.023782
   1 C :    0.021853
   2 C :    0.016751
   3 C :    0.064503
   4 C :    0.029805
   5 C :   -0.196105
   6 C :   -0.521338
   7 C :   -0.111853
   8 O :    0.001363
   9 S :    0.865387
  10 H :    0.004854
  11 H :    0.002185
  12 H :    0.002049
  13 H :    0.009249
  14 H :   -0.025040
  15 H :   -0.059473
  16 H :   -0.068499
  17 H :   -0.059473

  Mayer bond orders larger than 0.100000
B(  0-C ,  1-C ) :   1.6714 B(  0-C ,  2-C ) :   1.6817 B(  0-C ,  3-C ) :   0.2271
B(  0-C ,  5-C ) :  -0.1091 B(  0-C , 10-H ) :   0.3954 B(  0-C , 11-H ) :   0.1051
B(  0-C , 12-H ) :   0.1597 B(  1-C ,  3-C ) :   2.1472 B(  1-C ,  5-C ) :  -0.4915
B(  1-C ,  6-C ) :   0.1011 B(  1-C , 10-H ) :   0.1920 B(  1-C , 11-H ) :   0.1815
B(  1-C , 12-H ) :  -0.1256 B(  1-C , 13-H ) :   0.1717 B(  2-C ,  3-C ) :   0.2196
B(  2-C ,  4-C ) :   1.7202 B(  2-C ,  5-C ) :  -0.3475 B(  2-C ,  6-C ) :   0.2832
B(  2-C , 10-H ) :   0.1360 B(  2-C , 11-H ) :  -0.1103 B(  2-C , 14-H ) :   0.1387
B(  3-C ,  4-C ) :  -0.7219 B(  3-C ,  5-C ) :   0.9285 B(  3-C ,  6-C ) :  -0.8018
B(  3-C ,  8-O ) :  -0.1281 B(  3-C , 11-H ) :   0.4681 B(  4-C ,  5-C ) :   2.0968
B(  4-C ,  6-C ) :  -0.5560 B(  4-C ,  9-S ) :   0.1264 B(  4-C , 12-H ) :   0.6248
B(  5-C ,  6-C ) :   0.8301 B(  5-C ,  7-C ) :   0.1446 B(  5-C ,  8-O ) :  -0.1980
B(  5-C ,  9-S ) :  -0.2800 B(  5-C , 13-H ) :   0.4424 B(  5-C , 14-H ) :   0.4792
B(  6-C ,  8-O ) :   1.5270 B(  6-C ,  9-S ) :   1.1172 B(  7-C ,  9-S ) :   1.1299
B(  7-C , 15-H ) :   0.9822 B(  7-C , 16-H ) :   1.0278 B(  7-C , 17-H ) :   0.9822

MP2 TOTAL ENERGY:     -781.478107301 Eh
FINAL SINGLE POINT ENERGY      -781.478107301345

DIPOLE MOMENT
-------------
                                X             Y             Z
Electronic contribution:      0.40273      -0.10029       0.00000
Nuclear contribution   :      0.25120       0.33199       0.00000
                        -----------------------------------------
Total Dipole Moment    :      0.65394       0.23170       0.00000
                        -----------------------------------------
Magnitude (a.u.)       :      0.69377
Magnitude (Debye)      :      1.76343

Rotational constants in cm-1:     0.103180     0.022387     0.018459
Rotational constants in MHz :  3093.250381   671.134706   553.400898

                             ****ORCA TERMINATED NORMALLY****
TOTAL RUN TIME: 0 days 0 hours 1 minutes 31 seconds 625 msec
