                         Program Version 5.0.3 -  RELEASE  -
|  1> !ri-mp2 aug-cc-pvdz aug-cc-pvdz/c tightscf
|  2> %pal nprocs 16 end
|  3>
|  4> * xyz 0 1
|  5> C     0.000000    0.000000    0.000000
|  6> C     0.000000    1.177445    0.958848
|  7> C     0.000000   -1.177445    0.958848
|  8> C     1.177445    0.000000   -0.958848
|  9> C    -1.177445    0.000000   -0.958848
| 10> C     0.000000    0.734608    2.223211
| 11> C     0.000000   -0.734608    2.223211
| 12> C     0.734608    0.000000   -2.223211
| 13> C    -0.734608    0.000000   -2.223211
| 14> H     0.000000    2.201549    0.620322
| 15> H     0.000000   -2.201549    0.620322
| 16> H     2.201549    0.000000   -0.620322
| 17> H    -2.201549    0.000000   -0.620322
| 18> H     0.000000    1.348828    3.111832
| 19> H     0.000000   -1.348828    3.111832
| 20> H     1.348828    0.000000   -3.111832
| 21> H    -1.348828    0.000000   -3.111832
| 22> *
| 23>
| 24>                          ****END OF INPUT****

CARTESIAN COORDINATES (ANGSTROEM)
---------------------------------
  C      0.000000    0.000000    0.000000
  C      0.000000    1.177445    0.958848
  C      0.000000   -1.177445    0.958848
  C      1.177445    0.000000   -0.958848
  C     -1.177445    0.000000   -0.958848
  C      0.000000    0.734608    2.223211
  C      0.000000   -0.734608    2.223211
  C      0.734608    0.000000   -2.223211
  C     -0.734608    0.000000   -2.223211
  H      0.000000    2.201549    0.620322
  H      0.000000   -2.201549    0.620322
  H      2.201549    0.000000   -0.620322
  H     -2.201549    0.000000   -0.620322
  H      0.000000    1.348828    3.111832
  H      0.000000   -1.348828    3.111832
  H      1.348828    0.000000   -3.111832
  H     -1.348828    0.000000   -3.111832

 Total Charge           Charge          ....    0
 Multiplicity           Mult            ....    1
 Number of Electrons    NEL             ....   62
 Basis Dimension        Dim             ....  279

ORBITAL ENERGIES
----------------

  NO   OCC          E(Eh)            E(eV)
   0   2.0000     -11.251161      -306.1597
   1   2.0000     -11.237904      -305.7989
   2   2.0000     -11.237886      -305.7984
   3   2.0000     -11.237581      -305.7901
   4   2.0000     -11.237581      -305.7901
   5   2.0000     -11.236272      -305.7545
   6   2.0000     -11.236249      -305.7539
   7   2.0000     -11.235826      -305.7424
   8   2.0000     -11.235826      -305.7424
   9   2.0000      -1.186113       -32.2758
  10   2.0000      -1.121697       -30.5229
  11   2.0000      -0.972578       -26.4652
  12   2.0000      -0.972578       -26.4652
  13   2.0000      -0.958902       -26.0930
  14   2.0000      -0.810068       -22.0431
  15   2.0000      -0.737705       -20.0740
  16   2.0000      -0.737705       -20.0740
  17   2.0000      -0.728279       -19.8175
  18   2.0000      -0.706554       -19.2263
  19   2.0000      -0.661396       -17.9975
  20   2.0000      -0.567790       -15.4504
  21   2.0000      -0.567790       -15.4504
  22   2.0000      -0.533457       -14.5161
  23   2.0000      -0.533457       -14.5161
  24   2.0000      -0.532557       -14.4916
  25   2.0000      -0.521774       -14.1982
  26   2.0000      -0.486172       -13.2294
  27   2.0000      -0.418226       -11.3805
  28   2.0000      -0.418226       -11.3805
  29   2.0000      -0.340976        -9.2784
  30   2.0000      -0.287203        -7.8152
  31   0.0000       0.035762         0.9731
  32   0.0000       0.039197         1.0666
  33   0.0000       0.046299         1.2599
  34   0.0000       0.046299         1.2599
  35   0.0000       0.055014         1.4970

MULLIKEN ATOMIC CHARGES
-----------------------
   0 C :    0.018616
   1 C :    0.454997
   2 C :    0.454997
   3 C :    0.454997
   4 C :    0.454997
   5 C :    0.251888
   6 C :    0.251888
   7 C :    0.251888
   8 C :    0.251888
   9 H :   -0.405471
  10 H :   -0.405471
  11 H :   -0.405471
  12 H :   -0.405471
  13 H :   -0.306068
  14 H :   -0.306068
  15 H :   -0.306068
  16 H :   -0.306068
Sum of atomic charges:    0.0000000

LOEWDIN ATOMIC CHARGES
----------------------
   0 C :   -0.380370
   1 C :    0.075025
   2 C :    0.075025
   3 C :    0.075025
   4 C :    0.075025
   5 C :    0.018973
   6 C :    0.018973
   7 C :    0.018973
   8 C :    0.018973
   9 H :    0.007869
  10 H :    0.007869
  11 H :    0.007869
  12 H :    0.007869
  13 H :   -0.006774
  14 H :   -0.006774
  15 H :   -0.006774
  16 H :   -0.006774

  Mayer bond orders larger than 0.100000
B(  0-C ,  1-C ) :   0.6873 B(  0-C ,  2-C ) :   0.6873 B(  0-C ,  3-C ) :   0.6873
B(  0-C ,  4-C ) :   0.6873 B(  0-C ,  5-C ) :  -0.6692 B(  0-C ,  6-C ) :  -0.6692
B(  0-C ,  7-C ) :  -0.6692 B(  0-C ,  8-C ) :  -0.6692 B(  0-C ,  9-H ) :  -0.1916
B(  0-C , 10-H ) :  -0.1916 B(  0-C , 11-H ) :  -0.1916 B(  0-C , 12-H ) :  -0.1916
B(  1-C ,  3-C ) :   0.2682 B(  1-C ,  4-C ) :   0.2682 B(  1-C ,  5-C ) :   2.2471
B(  1-C ,  7-C ) :   0.1455 B(  1-C ,  8-C ) :   0.1455 B(  1-C ,  9-H ) :   0.5207
B(  1-C , 11-H ) :   0.1390 B(  1-C , 12-H ) :   0.1390 B(  1-C , 13-H ) :   0.1772
B(  2-C ,  3-C ) :   0.2682 B(  2-C ,  4-C ) :   0.2682 B(  2-C ,  6-C ) :   2.2471
B(  2-C ,  7-C ) :   0.1455 B(  2-C ,  8-C ) :   0.1455 B(  2-C , 10-H ) :   0.5207
B(  2-C , 11-H ) :   0.1390 B(  2-C , 12-H ) :   0.1390 B(  2-C , 14-H ) :   0.1772
B(  3-C ,  5-C ) :   0.1455 B(  3-C ,  6-C ) :   0.1455 B(  3-C ,  7-C ) :   2.2471
B(  3-C ,  9-H ) :   0.1390 B(  3-C , 10-H ) :   0.1390 B(  3-C , 11-H ) :   0.5207
B(  3-C , 15-H ) :   0.1772 B(  4-C ,  5-C ) :   0.1455 B(  4-C ,  6-C ) :   0.1455
B(  4-C ,  8-C ) :   2.2471 B(  4-C ,  9-H ) :   0.1390 B(  4-C , 10-H ) :   0.1390
B(  4-C , 12-H ) :   0.5207 B(  4-C , 16-H ) :   0.1772 B(  5-C ,  6-C ) :   1.4133
B(  5-C , 13-H ) :   0.6557 B(  6-C , 14-H ) :   0.6557 B(  7-C ,  8-C ) :   1.4133
B(  7-C , 15-H ) :   0.6557 B(  8-C , 16-H ) :   0.6557

MP2 TOTAL ENERGY:     -346.643865648 Eh
FINAL SINGLE POINT ENERGY      -346.643865647634

DIPOLE MOMENT
-------------
                                X             Y             Z
Electronic contribution:     -0.00000       0.00000       0.00000
Nuclear contribution   :      0.00000       0.00000       0.00000
                        -----------------------------------------
Total Dipole Moment    :     -0.00000       0.00000       0.00000
                        -----------------------------------------
Magnitude (a.u.)       :      0.00000
Magnitude (Debye)      :      0.00000

Rotational constants in cm-1:     0.141172     0.044137     0.044137
Rotational constants in MHz :  4232.236700  1323.197753  1323.197753

                             ****ORCA TERMINATED NORMALLY****
TOTAL RUN TIME: 0 days 0 hours 1 minutes 11 seconds 67 msec
