                         Program Version 5.0.3 -  RELEASE  -
|  1> !ri-mp2 aug-cc-pvdz aug-cc-pvdz/c tightscf
|  2> %pal nprocs 16 end
|  3>
|  4> * xyz 0 1
|  5> O     -2.569105   -0.409889   -0.572480
|  6> C     -1.603311   -0.035392    0.038272
|  7> C     -0.692304    1.087981   -0.403001
|  8> C      0.695435    1.135208    0.232886
|  9> C      1.604629   -0.043381   -0.033539
| 10> O      2.579645   -0.312785    0.616746
| 11> O      1.230271   -0.763568   -1.119024
| 12> O     -1.243334   -0.568197    1.231448
| 13> H     -1.222247    2.014615   -0.166974
| 14> H     -0.636885    1.034304   -1.487924
| 15> H      0.640007    1.245840    1.313535
| 16> H      1.226901    2.014895   -0.139503
| 17> H      1.873901   -1.480386   -1.220794
| 18> H     -1.888183   -1.260241    1.440431
| 19> *
| 20>
| 21>                          ****END OF INPUT****

CARTESIAN COORDINATES (ANGSTROEM)
---------------------------------
  O     -2.569105   -0.409889   -0.572480
  C     -1.603311   -0.035392    0.038272
  C     -0.692304    1.087981   -0.403001
  C      0.695435    1.135208    0.232886
  C      1.604629   -0.043381   -0.033539
  O      2.579645   -0.312785    0.616746
  O      1.230271   -0.763568   -1.119024
  O     -1.243334   -0.568197    1.231448
  H     -1.222247    2.014615   -0.166974
  H     -0.636885    1.034304   -1.487924
  H      0.640007    1.245840    1.313535
  H      1.226901    2.014895   -0.139503
  H      1.873901   -1.480386   -1.220794
  H     -1.888183   -1.260241    1.440431

 Total Charge           Charge          ....    0
 Multiplicity           Mult            ....    1
 Number of Electrons    NEL             ....   62
 Basis Dimension        Dim             ....  238

ORBITAL ENERGIES
----------------

  NO   OCC          E(Eh)            E(eV)
   0   2.0000     -20.632530      -561.4397
   1   2.0000     -20.632434      -561.4371
   2   2.0000     -20.567267      -559.6638
   3   2.0000     -20.567207      -559.6621
   4   2.0000     -11.405787      -310.3672
   5   2.0000     -11.405684      -310.3644
   6   2.0000     -11.272212      -306.7325
   7   2.0000     -11.271607      -306.7160
   8   2.0000      -1.480847       -40.2959
   9   2.0000      -1.477677       -40.2096
  10   2.0000      -1.376005       -37.4430
  11   2.0000      -1.375752       -37.4361
  12   2.0000      -1.104267       -30.0486
  13   2.0000      -0.970425       -26.4066
  14   2.0000      -0.849924       -23.1276
  15   2.0000      -0.823569       -22.4105
  16   2.0000      -0.718855       -19.5610
  17   2.0000      -0.717434       -19.5224
  18   2.0000      -0.709224       -19.2990
  19   2.0000      -0.668329       -18.1861
  20   2.0000      -0.659980       -17.9590
  21   2.0000      -0.650974       -17.7139
  22   2.0000      -0.599844       -16.3226
  23   2.0000      -0.597981       -16.2719
  24   2.0000      -0.573369       -15.6022
  25   2.0000      -0.569282       -15.4910
  26   2.0000      -0.540271       -14.7015
  27   2.0000      -0.493327       -13.4241
  28   2.0000      -0.487473       -13.2648
  29   2.0000      -0.458372       -12.4729
  30   2.0000      -0.455392       -12.3918
  31   0.0000       0.029638         0.8065
  32   0.0000       0.039969         1.0876
  33   0.0000       0.041897         1.1401
  34   0.0000       0.055403         1.5076
  35   0.0000       0.058469         1.5910

MULLIKEN ATOMIC CHARGES
-----------------------
   0 O :   -0.771330
   1 C :    1.022931
   2 C :    0.169411
   3 C :    0.166334
   4 C :    1.019708
   5 O :   -0.772647
   6 O :   -0.725661
   7 O :   -0.726454
   8 H :    0.067890
   9 H :    0.039351
  10 H :    0.042340
  11 H :    0.067368
  12 H :    0.200467
  13 H :    0.200292
Sum of atomic charges:    0.0000000

LOEWDIN ATOMIC CHARGES
----------------------
   0 O :    0.044015
   1 C :   -0.335434
   2 C :    0.039305
   3 C :    0.039553
   4 C :   -0.334995
   5 O :    0.043874
   6 O :    0.206254
   7 O :    0.205981
   8 H :    0.032744
   9 H :    0.026998
  10 H :    0.026992
  11 H :    0.032701
  12 H :   -0.013944
  13 H :   -0.014042

  Mayer bond orders larger than 0.100000
B(  0-O ,  1-C ) :   1.3626 B(  0-O ,  2-C ) :   0.1350 B(  1-C ,  2-C ) :   1.0044
B(  1-C ,  7-O ) :   0.5249 B(  1-C ,  9-H ) :   0.1035 B(  2-C ,  3-C ) :   1.3332
B(  2-C ,  7-O ) :   0.1779 B(  2-C ,  8-H ) :   0.8675 B(  2-C ,  9-H ) :   0.7716
B(  3-C ,  4-C ) :   1.0014 B(  3-C ,  5-O ) :   0.1354 B(  3-C ,  6-O ) :   0.1799
B(  3-C , 10-H ) :   0.7731 B(  3-C , 11-H ) :   0.8669 B(  4-C ,  5-O ) :   1.3624
B(  4-C ,  6-O ) :   0.5251 B(  4-C , 10-H ) :   0.1007 B(  6-O , 12-H ) :   1.0216
B(  7-O , 13-H ) :   1.0212

MP2 TOTAL ENERGY:     -455.868434585 Eh
FINAL SINGLE POINT ENERGY      -455.868434584976

DIPOLE MOMENT
-------------
                                X             Y             Z
Electronic contribution:      0.00049      -3.07416       0.22977
Nuclear contribution   :     -0.00645       3.48730      -0.25515
                        -----------------------------------------
Total Dipole Moment    :     -0.00596       0.41314      -0.02538
                        -----------------------------------------
Magnitude (a.u.)       :      0.41396
Magnitude (Debye)      :      1.05220

Rotational constants in cm-1:     0.130836     0.041286     0.040984
Rotational constants in MHz :  3922.359749  1237.731637  1228.666001

                             ****ORCA TERMINATED NORMALLY****
TOTAL RUN TIME: 0 days 0 hours 1 minutes 0 seconds 630 msec
