                         Program Version 5.0.3 -  RELEASE  -
|  1> !ri-mp2 aug-cc-pvdz aug-cc-pvdz/c tightscf
|  2> %pal nprocs 16 end
|  3>
|  4> * xyz 0 1
|  5> C    -0.780890     0.782120    0.714182
|  6> C     0.780890     0.782120    0.714182
|  7> C     0.780890    -0.782120    0.714182
|  8> C    -0.780890    -0.782120    0.714182
|  9> C    -1.552994     0.779426   -0.630946
| 10> C    -1.552994    -0.779426   -0.630946
| 11> H    -1.230266     1.359101    1.520382
| 12> H    -1.230266    -1.359101    1.520382
| 13> H    -1.058422     1.259186   -1.474246
| 14> H    -2.550804     1.207825   -0.545553
| 15> H    -2.550804    -1.207825   -0.545553
| 16> H    -1.058422    -1.259186   -1.474246
| 17> C     1.552994    -0.779426   -0.630946
| 18> C     1.552994     0.779426   -0.630946
| 19> H     1.230266     1.359101    1.520382
| 20> H     1.230266    -1.359101    1.520382
| 21> H     2.550804    -1.207825   -0.545553
| 22> H     1.058422    -1.259186   -1.474246
| 23> H     2.550804     1.207825   -0.545553
| 24> H     1.058422     1.259186   -1.474246
| 25> *
| 26>
| 27>                          ****END OF INPUT****

CARTESIAN COORDINATES (ANGSTROEM)
---------------------------------
  C     -0.780890    0.782120    0.714182
  C      0.780890    0.782120    0.714182
  C      0.780890   -0.782120    0.714182
  C     -0.780890   -0.782120    0.714182
  C     -1.552994    0.779426   -0.630946
  C     -1.552994   -0.779426   -0.630946
  H     -1.230266    1.359101    1.520382
  H     -1.230266   -1.359101    1.520382
  H     -1.058422    1.259186   -1.474246
  H     -2.550804    1.207825   -0.545553
  H     -2.550804   -1.207825   -0.545553
  H     -1.058422   -1.259186   -1.474246
  C      1.552994   -0.779426   -0.630946
  C      1.552994    0.779426   -0.630946
  H      1.230266    1.359101    1.520382
  H      1.230266   -1.359101    1.520382
  H      2.550804   -1.207825   -0.545553
  H      1.058422   -1.259186   -1.474246
  H      2.550804    1.207825   -0.545553
  H      1.058422    1.259186   -1.474246

 Total Charge           Charge          ....    0
 Multiplicity           Mult            ....    1
 Number of Electrons    NEL             ....   60
 Basis Dimension        Dim             ....  292

ORBITAL ENERGIES
----------------

  NO   OCC          E(Eh)            E(eV)
   0   2.0000     -11.221106      -305.3418
   1   2.0000     -11.220612      -305.3284
   2   2.0000     -11.220598      -305.3280
   3   2.0000     -11.220095      -305.3143
   4   2.0000     -11.218542      -305.2720
   5   2.0000     -11.218540      -305.2720
   6   2.0000     -11.218020      -305.2578
   7   2.0000     -11.218018      -305.2578
   8   2.0000      -1.172627       -31.9088
   9   2.0000      -1.071254       -29.1503
  10   2.0000      -0.948936       -25.8219
  11   2.0000      -0.927839       -25.2478
  12   2.0000      -0.854136       -23.2422
  13   2.0000      -0.810230       -22.0475
  14   2.0000      -0.766950       -20.8698
  15   2.0000      -0.687034       -18.6951
  16   2.0000      -0.660324       -17.9683
  17   2.0000      -0.644878       -17.5480
  18   2.0000      -0.609287       -16.5796
  19   2.0000      -0.567954       -15.4548
  20   2.0000      -0.564124       -15.3506
  21   2.0000      -0.546276       -14.8649
  22   2.0000      -0.504008       -13.7148
  23   2.0000      -0.473422       -12.8825
  24   2.0000      -0.471854       -12.8398
  25   2.0000      -0.449237       -12.2244
  26   2.0000      -0.420532       -11.4432
  27   2.0000      -0.405227       -11.0268
  28   2.0000      -0.396484       -10.7889
  29   2.0000      -0.367627       -10.0036
  30   0.0000       0.035770         0.9734
  31   0.0000       0.041923         1.1408
  32   0.0000       0.044103         1.2001
  33   0.0000       0.047086         1.2813
  34   0.0000       0.056857         1.5472

MULLIKEN ATOMIC CHARGES
-----------------------
   0 C :    0.265995
   1 C :    0.265995
   2 C :    0.265995
   3 C :    0.265995
   4 C :    0.704835
   5 C :    0.704835
   6 H :   -0.454705
   7 H :   -0.454705
   8 H :   -0.249596
   9 H :   -0.266530
  10 H :   -0.266530
  11 H :   -0.249596
  12 C :    0.704835
  13 C :    0.704835
  14 H :   -0.454705
  15 H :   -0.454705
  16 H :   -0.266530
  17 H :   -0.249596
  18 H :   -0.266530
  19 H :   -0.249596
Sum of atomic charges:    0.0000000

LOEWDIN ATOMIC CHARGES
----------------------
   0 C :   -0.066104
   1 C :   -0.066104
   2 C :   -0.066104
   3 C :   -0.066104
   4 C :    0.056600
   5 C :    0.056600
   6 H :    0.019733
   7 H :    0.019733
   8 H :   -0.011331
   9 H :    0.001101
  10 H :    0.001101
  11 H :   -0.011331
  12 C :    0.056600
  13 C :    0.056600
  14 H :    0.019733
  15 H :    0.019733
  16 H :    0.001101
  17 H :   -0.011331
  18 H :    0.001101
  19 H :   -0.011331

  Mayer bond orders larger than 0.100000
B(  0-C ,  1-C ) :   1.3039 B(  0-C ,  2-C ) :  -0.2080 B(  0-C ,  3-C ) :   1.3545
B(  0-C ,  4-C ) :   1.2322 B(  0-C ,  5-C ) :  -0.1511 B(  0-C ,  7-H ) :   0.3606
B(  0-C ,  8-H ) :   0.1096 B(  0-C , 14-H ) :   0.2535 B(  0-C , 15-H ) :  -0.1032
B(  1-C ,  2-C ) :   1.3545 B(  1-C ,  3-C ) :  -0.2080 B(  1-C ,  6-H ) :   0.2535
B(  1-C ,  7-H ) :  -0.1032 B(  1-C , 12-C ) :  -0.1511 B(  1-C , 13-C ) :   1.2322
B(  1-C , 15-H ) :   0.3606 B(  1-C , 19-H ) :   0.1096 B(  2-C ,  3-C ) :   1.3039
B(  2-C ,  6-H ) :  -0.1032 B(  2-C ,  7-H ) :   0.2535 B(  2-C , 12-C ) :   1.2322
B(  2-C , 13-C ) :  -0.1511 B(  2-C , 14-H ) :   0.3606 B(  2-C , 17-H ) :   0.1096
B(  3-C ,  4-C ) :  -0.1511 B(  3-C ,  5-C ) :   1.2322 B(  3-C ,  6-H ) :   0.3606
B(  3-C , 11-H ) :   0.1096 B(  3-C , 14-H ) :  -0.1032 B(  3-C , 15-H ) :   0.2535
B(  4-C ,  5-C ) :   1.2631 B(  4-C ,  6-H ) :   0.2407 B(  4-C ,  8-H ) :   0.6227
B(  4-C ,  9-H ) :   0.7350 B(  5-C ,  7-H ) :   0.2407 B(  5-C , 10-H ) :   0.7350
B(  5-C , 11-H ) :   0.6227 B(  8-H ,  9-H ) :  -0.2368 B( 10-H , 11-H ) :  -0.2368
B( 12-C , 13-C ) :   1.2631 B( 12-C , 15-H ) :   0.2407 B( 12-C , 16-H ) :   0.7350
B( 12-C , 17-H ) :   0.6227 B( 13-C , 14-H ) :   0.2407 B( 13-C , 18-H ) :   0.7350
B( 13-C , 19-H ) :   0.6227 B( 16-H , 17-H ) :  -0.2368 B( 18-H , 19-H ) :  -0.2368

MP2 TOTAL ENERGY:     -311.002790944 Eh
FINAL SINGLE POINT ENERGY      -311.002790944427

DIPOLE MOMENT
-------------
                                X             Y             Z
Electronic contribution:     -0.00000       0.00000       2.14433
Nuclear contribution   :     -0.00000       0.00000      -2.08077
                        -----------------------------------------
Total Dipole Moment    :     -0.00000       0.00000       0.06356
                        -----------------------------------------
Magnitude (a.u.)       :      0.06356
Magnitude (Debye)      :      0.16156

Rotational constants in cm-1:     0.119408     0.068835     0.064757
Rotational constants in MHz :  3579.762258  2063.607387  1941.365406

                             ****ORCA TERMINATED NORMALLY****
TOTAL RUN TIME: 0 days 0 hours 1 minutes 16 seconds 681 msec
