                         Program Version 5.0.3 -  RELEASE  -
|  1> !ri-mp2 aug-cc-pvdz aug-cc-pvdz/c tightscf
|  2> %pal nprocs 16 end
|  3>
|  4> * xyz 0 1
|  5> C     -1.392165    1.170066    0.000000
|  6> C     -1.428012    2.519619    0.000000
|  7> C      0.691129    1.983502    0.000000
|  8> C      0.000000    0.807541    0.000000
|  9> C      0.635993   -0.516796    0.000000
| 10> C      0.661715   -3.268787    0.000000
| 11> O      1.835393   -0.684653    0.000000
| 12> O     -0.157808    3.030443    0.000000
| 13> S     -0.521930   -1.891204    0.000000
| 14> H     -2.241204    0.509673    0.000000
| 15> H     -2.223626    3.241441    0.000000
| 16> H      1.742596    2.204050    0.000000
| 17> H      1.285248   -3.226145    0.888112
| 18> H      1.285248   -3.226145   -0.888112
| 19> H      0.069983   -4.180792    0.000000
| 20> *
| 21>
| 22>                          ****END OF INPUT****

CARTESIAN COORDINATES (ANGSTROEM)
---------------------------------
  C     -1.392165    1.170066    0.000000
  C     -1.428012    2.519619    0.000000
  C      0.691129    1.983502    0.000000
  C      0.000000    0.807541    0.000000
  C      0.635993   -0.516796    0.000000
  C      0.661715   -3.268787    0.000000
  O      1.835393   -0.684653    0.000000
  O     -0.157808    3.030443    0.000000
  S     -0.521930   -1.891204    0.000000
  H     -2.241204    0.509673    0.000000
  H     -2.223626    3.241441    0.000000
  H      1.742596    2.204050    0.000000
  H      1.285248   -3.226145    0.888112
  H      1.285248   -3.226145   -0.888112
  H      0.069983   -4.180792    0.000000

 Total Charge           Charge          ....    0
 Multiplicity           Mult            ....    1
 Number of Electrons    NEL             ....   74
 Basis Dimension        Dim             ....  265

ORBITAL ENERGIES
----------------

  NO   OCC          E(Eh)            E(eV)
   0   2.0000     -91.973132     -2502.7161
   1   2.0000     -20.656453      -562.0907
   2   2.0000     -20.565904      -559.6267
   3   2.0000     -11.377870      -309.6076
   4   2.0000     -11.326621      -308.2130
   5   2.0000     -11.310653      -307.7785
   6   2.0000     -11.267873      -306.6144
   7   2.0000     -11.258367      -306.3557
   8   2.0000     -11.256410      -306.3025
   9   2.0000      -8.976079      -244.2515
  10   2.0000      -6.658031      -181.1742
  11   2.0000      -6.656408      -181.1301
  12   2.0000      -6.654737      -181.0846
  13   2.0000      -1.488350       -40.5001
  14   2.0000      -1.407294       -38.2944
  15   2.0000      -1.123626       -30.5754
  16   2.0000      -1.061071       -28.8732
  17   2.0000      -1.035647       -28.1814
  18   2.0000      -0.933990       -25.4152
  19   2.0000      -0.853312       -23.2198
  20   2.0000      -0.806304       -21.9407
  21   2.0000      -0.778255       -21.1774
  22   2.0000      -0.709144       -19.2968
  23   2.0000      -0.657083       -17.8801
  24   2.0000      -0.645826       -17.5738
  25   2.0000      -0.641136       -17.4462
  26   2.0000      -0.620310       -16.8795
  27   2.0000      -0.602528       -16.3956
  28   2.0000      -0.591811       -16.1040
  29   2.0000      -0.574596       -15.6356
  30   2.0000      -0.556607       -15.1460
  31   2.0000      -0.542372       -14.7587
  32   2.0000      -0.486697       -13.2437
  33   2.0000      -0.417733       -11.3671
  34   2.0000      -0.414342       -11.2748
  35   2.0000      -0.369674       -10.0593
  36   2.0000      -0.339451        -9.2369
  37   0.0000       0.033603         0.9144
  38   0.0000       0.037776         1.0279
  39   0.0000       0.046542         1.2665
  40   0.0000       0.055705         1.5158
  41   0.0000       0.061558         1.6751

MULLIKEN ATOMIC CHARGES
-----------------------
   0 C :    0.383642
   1 C :    0.706412
   2 C :    0.568388
   3 C :    0.896808
   4 C :    0.039014
   5 C :    0.081779
   6 O :   -0.831744
   7 O :   -0.854421
   8 S :    0.324752
   9 H :   -0.413927
  10 H :   -0.297502
  11 H :   -0.429111
  12 H :   -0.014121
  13 H :   -0.014121
  14 H :   -0.145848
Sum of atomic charges:    0.0000000

LOEWDIN ATOMIC CHARGES
----------------------
   0 C :    0.016935
   1 C :    0.027833
   2 C :    0.095797
   3 C :   -0.234599
   4 C :   -0.546442
   5 C :   -0.110930
   6 O :   -0.005898
   7 O :    0.083851
   8 S :    0.862290
   9 H :   -0.010963
  10 H :   -0.006193
  11 H :    0.015405
  12 H :   -0.059268
  13 H :   -0.059268
  14 H :   -0.068549

  Mayer bond orders larger than 0.100000
B(  0-C ,  1-C ) :   1.7253 B(  0-C ,  2-C ) :  -0.2290 B(  0-C ,  3-C ) :   1.5344
B(  0-C ,  4-C ) :  -0.3227 B(  0-C ,  7-O ) :   0.1928 B(  0-C ,  9-H ) :   0.4791
B(  0-C , 10-H ) :  -0.1107 B(  1-C ,  4-C ) :   0.1517 B(  1-C ,  7-O ) :   0.4371
B(  1-C , 10-H ) :   0.8920 B(  2-C ,  3-C ) :   1.2417 B(  2-C ,  4-C ) :   0.1975
B(  2-C ,  7-O ) :   0.6132 B(  2-C , 11-H ) :   0.9793 B(  3-C ,  4-C ) :   0.7585
B(  3-C ,  5-C ) :   0.1111 B(  3-C ,  6-O ) :  -0.1375 B(  3-C ,  7-O ) :   0.1469
B(  3-C ,  8-S ) :  -0.1260 B(  3-C ,  9-H ) :   0.3139 B(  3-C , 10-H ) :   0.1118
B(  3-C , 11-H ) :  -0.1921 B(  4-C ,  5-C ) :  -0.1226 B(  4-C ,  6-O ) :   1.4559
B(  4-C ,  8-S ) :   0.9652 B(  5-C ,  8-S ) :   1.0729 B(  5-C , 12-H ) :   0.9778
B(  5-C , 13-H ) :   0.9778 B(  5-C , 14-H ) :   1.0389

MP2 TOTAL ENERGY:     -779.329570090 Eh
FINAL SINGLE POINT ENERGY      -779.329570090351

DIPOLE MOMENT
-------------
                                X             Y             Z
Electronic contribution:     -0.62614       4.44494      -0.00000
Nuclear contribution   :     -0.03832      -4.47961       0.00000
                        -----------------------------------------
Total Dipole Moment    :     -0.66447      -0.03467      -0.00000
                        -----------------------------------------
Magnitude (a.u.)       :      0.66537
Magnitude (Debye)      :      1.69124

Rotational constants in cm-1:     0.130401     0.027206     0.022606
Rotational constants in MHz :  3909.312514   815.615862   677.702322

                             ****ORCA TERMINATED NORMALLY****
TOTAL RUN TIME: 0 days 0 hours 0 minutes 59 seconds 607 msec
