                         Program Version 5.0.3 -  RELEASE  -
|  1> !ri-mp2 aug-cc-pvdz aug-cc-pvdz/c tightscf
|  2> %pal nprocs 16 end
|  3>
|  4> * xyz 0 1
|  5> H     -1.062995    1.233708   -0.007749
|  6> N     -1.287298    0.301061   -0.329906
|  7> H     -2.668450   -0.329662    1.188710
|  8> H     -2.886524   -1.049290   -0.414325
|  9> H     -3.337280    0.630006   -0.147704
| 10> C     -2.603422   -0.132820    0.107415
| 11> H     -0.323323   -1.023463    1.042073
| 12> H     -0.185290   -1.445839   -0.662916
| 13> C     -0.216255   -0.595054    0.027536
| 14> O      1.244161    1.313708    0.076402
| 15> C      1.122183    0.123838    0.016980
| 16> H      1.964442   -1.602938   -0.095392
| 17> O      2.217773   -0.675674   -0.014519
| 18> *
| 19>
| 20>                          ****END OF INPUT****

CARTESIAN COORDINATES (ANGSTROEM)
---------------------------------
  H     -1.062995    1.233708   -0.007749
  N     -1.287298    0.301061   -0.329906
  H     -2.668450   -0.329662    1.188710
  H     -2.886524   -1.049290   -0.414325
  H     -3.337280    0.630006   -0.147704
  C     -2.603422   -0.132820    0.107415
  H     -0.323323   -1.023463    1.042073
  H     -0.185290   -1.445839   -0.662916
  C     -0.216255   -0.595054    0.027536
  O      1.244161    1.313708    0.076402
  C      1.122183    0.123838    0.016980
  H      1.964442   -1.602938   -0.095392
  O      2.217773   -0.675674   -0.014519

 Total Charge           Charge          ....    0
 Multiplicity           Mult            ....    1
 Number of Electrons    NEL             ....   48
 Basis Dimension        Dim             ....  201

ORBITAL ENERGIES
----------------

  NO   OCC          E(Eh)            E(eV)
   0   2.0000     -20.629723      -561.3633
   1   2.0000     -20.563554      -559.5628
   2   2.0000     -15.564153      -423.5221
   3   2.0000     -11.401279      -310.2446
   4   2.0000     -11.294964      -307.3516
   5   2.0000     -11.262985      -306.4814
   6   2.0000      -1.472336       -40.0643
   7   2.0000      -1.378317       -37.5059
   8   2.0000      -1.226197       -33.3665
   9   2.0000      -1.007063       -27.4036
  10   2.0000      -0.895788       -24.3756
  11   2.0000      -0.834278       -22.7019
  12   2.0000      -0.747652       -20.3446
  13   2.0000      -0.677321       -18.4308
  14   2.0000      -0.676224       -18.4010
  15   2.0000      -0.633721       -17.2444
  16   2.0000      -0.616244       -16.7689
  17   2.0000      -0.609930       -16.5970
  18   2.0000      -0.569790       -15.5048
  19   2.0000      -0.544050       -14.8044
  20   2.0000      -0.528757       -14.3882
  21   2.0000      -0.487228       -13.2582
  22   2.0000      -0.456817       -12.4306
  23   2.0000      -0.383697       -10.4409
  24   0.0000       0.025642         0.6978
  25   0.0000       0.038992         1.0610
  26   0.0000       0.046231         1.2580
  27   0.0000       0.054781         1.4907
  28   0.0000       0.067012         1.8235

MULLIKEN ATOMIC CHARGES
-----------------------
   0 H :    0.015395
   1 N :   -0.633826
   2 H :   -0.088055
   3 H :   -0.117369
   4 H :   -0.209224
   5 C :    0.691271
   6 H :   -0.010590
   7 H :   -0.216191
   8 C :    0.682699
   9 O :   -0.710002
  10 C :    1.095477
  11 H :    0.196772
  12 O :   -0.696358
Sum of atomic charges:    0.0000000

LOEWDIN ATOMIC CHARGES
----------------------
   0 H :   -0.032529
   1 N :    0.011307
   2 H :   -0.019751
   3 H :   -0.019600
   4 H :   -0.018358
   5 C :    0.125081
   6 H :    0.028077
   7 H :    0.019143
   8 C :   -0.006793
   9 O :    0.063605
  10 C :   -0.319847
  11 H :   -0.038252
  12 O :    0.207918

  Mayer bond orders larger than 0.100000
B(  0-H ,  1-N ) :   1.0522 B(  1-N ,  5-C ) :   0.8872 B(  1-N ,  8-C ) :   0.9117
B(  2-H ,  5-C ) :   0.9039 B(  3-H ,  5-C ) :   0.9692 B(  4-H ,  5-C ) :   1.0421
B(  6-H ,  8-C ) :   0.8576 B(  7-H ,  8-C ) :   0.8585 B(  8-C , 10-C ) :   1.0189
B(  8-C , 12-O ) :   0.1572 B(  9-O , 10-C ) :   1.6001 B( 10-C , 12-O ) :   0.3785
B( 11-H , 12-O ) :   1.0211

MP2 TOTAL ENERGY:     -322.901394075 Eh
FINAL SINGLE POINT ENERGY      -322.901394075257

DIPOLE MOMENT
-------------
                                X             Y             Z
Electronic contribution:      7.68550       2.09434      -0.60117
Nuclear contribution   :     -8.55235      -3.61793       0.91240
                        -----------------------------------------
Total Dipole Moment    :     -0.86685      -1.52359       0.31122
                        -----------------------------------------
Magnitude (a.u.)       :      1.78035
Magnitude (Debye)      :      4.52528

Rotational constants in cm-1:     0.309318     0.064865     0.055351
Rotational constants in MHz :  9273.121779  1944.612106  1659.388650

                             ****ORCA TERMINATED NORMALLY****
TOTAL RUN TIME: 0 days 0 hours 0 minutes 55 seconds 242 msec
