                         Program Version 5.0.3 -  RELEASE  -
|  1> !ri-mp2 aug-cc-pvdz aug-cc-pvdz/c tightscf
|  2> %pal nprocs 16 end
|  3> %maxcore 3800
|  4>
|  5> * xyz 0 1
|  6> C      2.857988   -0.186371   -0.233131
|  7> C      2.053766    0.384179   -1.214486
|  8> C      2.290498   -0.563987    0.976902
|  9> C      0.697008    0.573868   -0.984913
| 10> C      0.930680   -0.371454    1.200202
| 11> C      0.110355    0.199210    0.227134
| 12> C     -2.106231   -1.897819   -0.384502
| 13> C     -1.735472    1.906080    0.469313
| 14> C     -2.268736   -0.382193   -0.478594
| 15> C     -1.370680    0.413775    0.488686
| 16> H      3.914630   -0.333895   -0.411250
| 17> H      2.484835    0.682992   -2.161028
| 18> H      2.904128   -1.009341    1.748912
| 19> H      0.089544    1.020400   -1.761714
| 20> H      0.498685   -0.670061    2.147496
| 21> H     -2.781757   -2.406774   -1.073300
| 22> H     -1.088989   -2.207419   -0.625697
| 23> H     -2.330630   -2.254856    0.622994
| 24> H     -1.578291    2.339587   -0.519828
| 25> H     -2.785198    2.048697    0.731767
| 26> H     -1.128084    2.469271    1.178299
| 27> H     -2.072665   -0.053669   -1.503150
| 28> H     -3.308762   -0.116218   -0.270236
| 29> H     -1.572502    0.039560    1.497058
| 30> *
| 31>
| 32>                          ****END OF INPUT****

CARTESIAN COORDINATES (ANGSTROEM)
---------------------------------
  C      2.857988   -0.186371   -0.233131
  C      2.053766    0.384179   -1.214486
  C      2.290498   -0.563987    0.976902
  C      0.697008    0.573868   -0.984913
  C      0.930680   -0.371454    1.200202
  C      0.110355    0.199210    0.227134
  C     -2.106231   -1.897819   -0.384502
  C     -1.735472    1.906080    0.469313
  C     -2.268736   -0.382193   -0.478594
  C     -1.370680    0.413775    0.488686
  H      3.914630   -0.333895   -0.411250
  H      2.484835    0.682992   -2.161028
  H      2.904128   -1.009341    1.748912
  H      0.089544    1.020400   -1.761714
  H      0.498685   -0.670061    2.147496
  H     -2.781757   -2.406774   -1.073300
  H     -1.088989   -2.207419   -0.625697
  H     -2.330630   -2.254856    0.622994
  H     -1.578291    2.339587   -0.519828
  H     -2.785198    2.048697    0.731767
  H     -1.128084    2.469271    1.178299
  H     -2.072665   -0.053669   -1.503150
  H     -3.308762   -0.116218   -0.270236
  H     -1.572502    0.039560    1.497058

 Total Charge           Charge          ....    0
 Multiplicity           Mult            ....    1
 Number of Electrons    NEL             ....   74
 Basis Dimension        Dim             ....  356

ORBITAL ENERGIES
----------------

  NO   OCC          E(Eh)            E(eV)
   0   2.0000     -11.239866      -305.8523
   1   2.0000     -11.237380      -305.7847
   2   2.0000     -11.236890      -305.7713
   3   2.0000     -11.236128      -305.7506
   4   2.0000     -11.233374      -305.6756
   5   2.0000     -11.232290      -305.6462
   6   2.0000     -11.232109      -305.6412
   7   2.0000     -11.224572      -305.4361
   8   2.0000     -11.219584      -305.3004
   9   2.0000     -11.214397      -305.1593
  10   2.0000      -1.158281       -31.5184
  11   2.0000      -1.089573       -29.6488
  12   2.0000      -1.013835       -27.5879
  13   2.0000      -1.010441       -27.4955
  14   2.0000      -0.976349       -26.5678
  15   2.0000      -0.870047       -23.6752
  16   2.0000      -0.834529       -22.7087
  17   2.0000      -0.822149       -22.3718
  18   2.0000      -0.766699       -20.8629
  19   2.0000      -0.694608       -18.9012
  20   2.0000      -0.647993       -17.6328
  21   2.0000      -0.624605       -16.9964
  22   2.0000      -0.608571       -16.5600
  23   2.0000      -0.592339       -16.1184
  24   2.0000      -0.582955       -15.8630
  25   2.0000      -0.572494       -15.5783
  26   2.0000      -0.569012       -15.4836
  27   2.0000      -0.535494       -14.5715
  28   2.0000      -0.513656       -13.9773
  29   2.0000      -0.498950       -13.5771
  30   2.0000      -0.494448       -13.4546
  31   2.0000      -0.488034       -13.2801
  32   2.0000      -0.463728       -12.6187
  33   2.0000      -0.460195       -12.5225
  34   2.0000      -0.452114       -12.3027
  35   2.0000      -0.333615        -9.0781
  36   2.0000      -0.323545        -8.8041
  37   0.0000       0.034649         0.9428
  38   0.0000       0.039555         1.0764
  39   0.0000       0.041199         1.1211
  40   0.0000       0.046229         1.2580
  41   0.0000       0.053810         1.4642

MULLIKEN ATOMIC CHARGES
-----------------------
   0 C :    0.633936
   1 C :    0.143132
   2 C :    0.282370
   3 C :    0.561478
   4 C :    0.391351
   5 C :    0.979686
   6 C :    0.469856
   7 C :    0.733674
   8 C :    0.530365
   9 C :   -0.748500
  10 H :   -0.462835
  11 H :   -0.475444
  12 H :   -0.461201
  13 H :   -0.704969
  14 H :   -0.699434
  15 H :   -0.101351
  16 H :   -0.064915
  17 H :   -0.076305
  18 H :   -0.057191
  19 H :   -0.117677
  20 H :   -0.096695
  21 H :   -0.141802
  22 H :   -0.169983
  23 H :   -0.347546
Sum of atomic charges:    0.0000000

LOEWDIN ATOMIC CHARGES
----------------------
   0 C :    0.002752
   1 C :    0.010506
   2 C :    0.009847
   3 C :    0.045056
   4 C :    0.043516
   5 C :   -0.157432
   6 C :    0.144081
   7 C :    0.171881
   8 C :   -0.037554
   9 C :   -0.210462
  10 H :   -0.002739
  11 H :   -0.000070
  12 H :   -0.000348
  13 H :    0.004526
  14 H :    0.005723
  15 H :   -0.019451
  16 H :   -0.018689
  17 H :   -0.015402
  18 H :   -0.015065
  19 H :   -0.013954
  20 H :   -0.008984
  21 H :    0.012353
  22 H :    0.014249
  23 H :    0.035661

  Mayer bond orders larger than 0.100000
B(  0-C ,  1-C ) :   1.7988 B(  0-C ,  2-C ) :   1.7618 B(  0-C ,  5-C ) :   0.2176
B(  0-C , 10-H ) :   0.1626 B(  0-C , 11-H ) :   0.1539 B(  1-C ,  3-C ) :   1.8310
B(  1-C ,  4-C ) :   0.1009 B(  1-C ,  5-C ) :  -0.8215 B(  1-C ,  8-C ) :   0.1150
B(  1-C ,  9-C ) :   0.4136 B(  1-C , 10-H ) :   0.2869 B(  1-C , 11-H ) :   0.1800
B(  1-C , 13-H ) :   0.3611 B(  2-C ,  4-C ) :   1.6621 B(  2-C ,  5-C ) :  -0.6090
B(  2-C ,  9-C ) :   0.3914 B(  2-C , 10-H ) :   0.2651 B(  2-C , 11-H ) :  -0.1071
B(  2-C , 12-H ) :   0.2002 B(  2-C , 14-H ) :   0.3488 B(  3-C ,  4-C ) :  -0.5859
B(  3-C ,  5-C ) :   1.7638 B(  3-C ,  9-C ) :  -0.7958 B(  3-C , 11-H ) :   0.3822
B(  3-C , 13-H ) :  -0.3968 B(  4-C ,  5-C ) :   1.6718 B(  4-C ,  9-C ) :  -0.7058
B(  4-C , 12-H ) :   0.3850 B(  4-C , 14-H ) :  -0.4165 B(  4-C , 23-H ) :  -0.1635
B(  5-C ,  6-C ) :   0.2548 B(  5-C ,  9-C ) :   1.7373 B(  5-C , 13-H ) :   0.5584
B(  5-C , 14-H ) :   0.6614 B(  5-C , 23-H ) :   0.4009 B(  6-C ,  8-C ) :   1.1810
B(  6-C ,  9-C ) :  -0.1317 B(  6-C , 15-H ) :   0.8653 B(  6-C , 16-H ) :   0.9293
B(  6-C , 17-H ) :   0.8998 B(  7-C ,  8-C ) :  -0.2060 B(  7-C ,  9-C ) :   1.2672
B(  7-C , 18-H ) :   0.9173 B(  7-C , 19-H ) :   0.7613 B(  7-C , 20-H ) :   0.8253
B(  8-C ,  9-C ) :   1.1574 B(  8-C , 21-H ) :   0.7696 B(  8-C , 22-H ) :   0.6933
B(  9-C , 18-H ) :   0.1321 B(  9-C , 19-H ) :   0.1410 B(  9-C , 20-H ) :   0.1130
B(  9-C , 22-H ) :   0.1243 B(  9-C , 23-H ) :   0.3928 B( 19-H , 20-H ) :  -0.1007
B( 21-H , 22-H ) :  -0.1394

MP2 TOTAL ENERGY:     -388.299922777 Eh
FINAL SINGLE POINT ENERGY      -388.299922776746

DIPOLE MOMENT
-------------
                                X             Y             Z
Electronic contribution:      8.91148       0.48309       0.42798
Nuclear contribution   :     -9.06524      -0.46773      -0.41384
                        -----------------------------------------
Total Dipole Moment    :     -0.15376       0.01536       0.01414
                        -----------------------------------------
Magnitude (a.u.)       :      0.15517
Magnitude (Debye)      :      0.39442

Rotational constants in cm-1:     0.072770     0.029587     0.027476
Rotational constants in MHz :  2181.586404   886.986923   823.717078

                             ****ORCA TERMINATED NORMALLY****
TOTAL RUN TIME: 0 days 0 hours 2 minutes 18 seconds 329 msec
