                         Program Version 5.0.3 -  RELEASE  -
|  1> !ri-mp2 aug-cc-pvdz aug-cc-pvdz/c tightscf
|  2> %pal nprocs 16 end
|  3>
|  4> * xyz 0 1
|  5> C      0.646281   -2.178017        0.000000
|  6> C      1.654479   -1.222905        0.000000
|  7> C     -0.685207   -1.768319        0.000000
|  8> C      1.332018    0.128421        0.000000
|  9> C     -1.004470   -0.419868        0.000000
| 10> C      0.000000    0.557656        0.000000
| 11> C     -1.470206    2.598351        0.000000
| 12> C     -0.279787    1.999196        0.000000
| 13> H      0.891660   -3.231362        0.000000
| 14> H      2.692244   -1.528409        0.000000
| 15> H     -1.476757   -2.505897        0.000000
| 16> H      2.123019    0.867889        0.000000
| 17> H     -2.044665   -0.124640        0.000000
| 18> H     -1.545935    3.676443        0.000000
| 19> H     -2.403023    2.050610        0.000000
| 20> H      0.604810    2.628272        0.000000
| 21> *
| 22>
| 23>                          ****END OF INPUT****

CARTESIAN COORDINATES (ANGSTROEM)
---------------------------------
  C      0.646281   -2.178017    0.000000
  C      1.654479   -1.222905    0.000000
  C     -0.685207   -1.768319    0.000000
  C      1.332018    0.128421    0.000000
  C     -1.004470   -0.419868    0.000000
  C      0.000000    0.557656    0.000000
  C     -1.470206    2.598351    0.000000
  C     -0.279787    1.999196    0.000000
  H      0.891660   -3.231362    0.000000
  H      2.692244   -1.528409    0.000000
  H     -1.476757   -2.505897    0.000000
  H      2.123019    0.867889    0.000000
  H     -2.044665   -0.124640    0.000000
  H     -1.545935    3.676443    0.000000
  H     -2.403023    2.050610    0.000000
  H      0.604810    2.628272    0.000000

 Total Charge           Charge          ....    0
 Multiplicity           Mult            ....    1
 Number of Electrons    NEL             ....   56
 Basis Dimension        Dim             ....  256

ORBITAL ENERGIES
----------------

  NO   OCC          E(Eh)            E(eV)
   0   2.0000     -11.250300      -306.1362
   1   2.0000     -11.246669      -306.0374
   2   2.0000     -11.242761      -305.9311
   3   2.0000     -11.242310      -305.9188
   4   2.0000     -11.241298      -305.8913
   5   2.0000     -11.240789      -305.8774
   6   2.0000     -11.240480      -305.8690
   7   2.0000     -11.234827      -305.7152
   8   2.0000      -1.164065       -31.6758
   9   2.0000      -1.075650       -29.2699
  10   2.0000      -1.021360       -27.7926
  11   2.0000      -0.994409       -27.0592
  12   2.0000      -0.855109       -23.2687
  13   2.0000      -0.829963       -22.5844
  14   2.0000      -0.768505       -20.9121
  15   2.0000      -0.702541       -19.1171
  16   2.0000      -0.656427       -17.8623
  17   2.0000      -0.636129       -17.3100
  18   2.0000      -0.611643       -16.6437
  19   2.0000      -0.588658       -16.0182
  20   2.0000      -0.580651       -15.8003
  21   2.0000      -0.527496       -14.3539
  22   2.0000      -0.515136       -14.0176
  23   2.0000      -0.495868       -13.4933
  24   2.0000      -0.487736       -13.2720
  25   2.0000      -0.411655       -11.2017
  26   2.0000      -0.340067        -9.2537
  27   2.0000      -0.305994        -8.3265
  28   0.0000       0.035273         0.9598
  29   0.0000       0.038790         1.0555
  30   0.0000       0.040692         1.1073
  31   0.0000       0.053886         1.4663
  32   0.0000       0.054836         1.4922

MULLIKEN ATOMIC CHARGES
-----------------------
   0 C :    0.265854
   1 C :    0.376808
   2 C :    0.072812
   3 C :    0.195115
   4 C :    0.492084
   5 C :    1.094541
   6 C :    0.526995
   7 C :    0.786658
   8 H :   -0.439568
   9 H :   -0.455200
  10 H :   -0.472590
  11 H :   -0.592952
  12 H :   -0.575139
  13 H :   -0.376300
  14 H :   -0.326385
  15 H :   -0.572733
Sum of atomic charges:    0.0000000

LOEWDIN ATOMIC CHARGES
----------------------
   0 C :    0.008299
   1 C :    0.009701
   2 C :    0.011032
   3 C :    0.043253
   4 C :    0.052030
   5 C :   -0.189967
   6 C :    0.184523
   7 C :   -0.031616
   8 H :   -0.001419
   9 H :    0.000318
  10 H :    0.000570
  11 H :    0.003683
  12 H :   -0.002548
  13 H :   -0.042467
  14 H :   -0.045014
  15 H :   -0.000380

  Mayer bond orders larger than 0.100000
B(  0-C ,  1-C ) :   1.7626 B(  0-C ,  2-C ) :   1.9234 B(  0-C ,  3-C ) :   0.2163
B(  0-C ,  7-C ) :  -0.1210 B(  0-C ,  8-H ) :   0.3414 B(  0-C ,  9-H ) :   0.1780
B(  0-C , 10-H ) :   0.2352 B(  1-C ,  3-C ) :   1.6989 B(  1-C ,  4-C ) :   0.1788
B(  1-C ,  5-C ) :  -0.7468 B(  1-C ,  6-C ) :   0.1242 B(  1-C ,  7-C ) :   0.2567
B(  1-C ,  8-H ) :   0.2431 B(  1-C ,  9-H ) :   0.2037 B(  1-C , 10-H ) :  -0.1155
B(  1-C , 11-H ) :   0.1295 B(  2-C ,  4-C ) :   1.7779 B(  2-C ,  5-C ) :  -0.7861
B(  2-C ,  7-C ) :   0.4199 B(  2-C ,  8-H ) :   0.1460 B(  2-C ,  9-H ) :  -0.1114
B(  2-C , 10-H ) :   0.1788 B(  2-C , 12-H ) :   0.2491 B(  3-C ,  4-C ) :  -0.9602
B(  3-C ,  5-C ) :   1.5885 B(  3-C ,  6-C ) :   0.3648 B(  3-C ,  7-C ) :  -0.8133
B(  3-C ,  9-H ) :   0.4097 B(  3-C , 15-H ) :  -0.1318 B(  4-C ,  5-C ) :   2.1730
B(  4-C ,  7-C ) :  -0.9029 B(  4-C , 10-H ) :   0.4104 B(  5-C ,  7-C ) :   1.5175
B(  5-C , 11-H ) :   0.5514 B(  5-C , 12-H ) :   0.3376 B(  5-C , 13-H ) :   0.1509
B(  5-C , 14-H ) :  -0.1321 B(  5-C , 15-H ) :   0.5194 B(  6-C ,  7-C ) :   1.7520
B(  6-C , 13-H ) :   0.6688 B(  6-C , 14-H ) :   0.7180 B(  6-C , 15-H ) :   0.2363
B(  7-C , 13-H ) :   0.2031 B(  7-C , 14-H ) :   0.1978 B( 13-H , 14-H ) :  -0.2310

MP2 TOTAL ENERGY:     -308.702871219 Eh
FINAL SINGLE POINT ENERGY      -308.702871219471

DIPOLE MOMENT
-------------
                                X             Y             Z
Electronic contribution:      1.19468      -1.91337       0.00000
Nuclear contribution   :     -1.17000       1.85086       0.00000
                        -----------------------------------------
Total Dipole Moment    :      0.02469      -0.06251       0.00000
                        -----------------------------------------
Magnitude (a.u.)       :      0.06721
Magnitude (Debye)      :      0.17083

Rotational constants in cm-1:     0.174163     0.051529     0.039764
Rotational constants in MHz :  5221.282678  1544.814388  1192.107138

                             ****ORCA TERMINATED NORMALLY****
TOTAL RUN TIME: 0 days 0 hours 1 minutes 3 seconds 152 msec
