                         Program Version 5.0.3 -  RELEASE  -
|  1> !ri-mp2 aug-cc-pvdz aug-cc-pvdz/c tightscf
|  2> %pal nprocs 16 end
|  3>
|  4> * xyz 0 1
|  5> C     0.422954     0.646920    0.000000
|  6> C    -0.422954    -0.646920    0.000000
|  7> C    -0.422954     1.834859    0.000000
|  8> C     0.422954    -1.834859    0.000000
|  9> N     1.107673    -2.757950    0.000000
| 10> N    -1.107673     2.757950    0.000000
| 11> H     1.069525     0.672423    0.877634
| 12> H     1.069525     0.672423   -0.877634
| 13> H    -1.069525    -0.672423    0.877634
| 14> H    -1.069525    -0.672423   -0.877634
| 15> *
| 16>
| 17>                          ****END OF INPUT****

CARTESIAN COORDINATES (ANGSTROEM)
---------------------------------
  C      0.422954    0.646920    0.000000
  C     -0.422954   -0.646920    0.000000
  C     -0.422954    1.834859    0.000000
  C      0.422954   -1.834859    0.000000
  N      1.107673   -2.757950    0.000000
  N     -1.107673    2.757950    0.000000
  H      1.069525    0.672423    0.877634
  H      1.069525    0.672423   -0.877634
  H     -1.069525   -0.672423    0.877634
  H     -1.069525   -0.672423   -0.877634

 Total Charge           Charge          ....    0
 Multiplicity           Mult            ....    1
 Number of Electrons    NEL             ....   42
 Basis Dimension        Dim             ....  174

ORBITAL ENERGIES
----------------

  NO   OCC          E(Eh)            E(eV)
   0   2.0000     -15.603703      -424.5983
   1   2.0000     -15.603703      -424.5983
   2   2.0000     -11.326656      -308.2140
   3   2.0000     -11.326100      -308.1989
   4   2.0000     -11.304803      -307.6193
   5   2.0000     -11.304802      -307.6193
   6   2.0000      -1.253193       -34.1011
   7   2.0000      -1.247661       -33.9506
   8   2.0000      -1.135284       -30.8926
   9   2.0000      -0.987834       -26.8803
  10   2.0000      -0.757427       -20.6106
  11   2.0000      -0.706924       -19.2364
  12   2.0000      -0.696144       -18.9430
  13   2.0000      -0.624278       -16.9875
  14   2.0000      -0.603003       -16.4086
  15   2.0000      -0.580990       -15.8095
  16   2.0000      -0.570989       -15.5374
  17   2.0000      -0.498462       -13.5638
  18   2.0000      -0.484602       -13.1867
  19   2.0000      -0.482249       -13.1227
  20   2.0000      -0.475000       -12.9254
  21   0.0000       0.026235         0.7139
  22   0.0000       0.039185         1.0663
  23   0.0000       0.041400         1.1266
  24   0.0000       0.061947         1.6857
  25   0.0000       0.067039         1.8242

MULLIKEN ATOMIC CHARGES
-----------------------
   0 C :    0.580791
   1 C :    0.580791
   2 C :   -0.206727
   3 C :   -0.206727
   4 N :   -0.308083
   5 N :   -0.308083
   6 H :   -0.032990
   7 H :   -0.032990
   8 H :   -0.032990
   9 H :   -0.032990
Sum of atomic charges:    0.0000000

LOEWDIN ATOMIC CHARGES
----------------------
   0 C :   -0.013899
   1 C :   -0.013899
   2 C :   -0.139160
   3 C :   -0.139160
   4 N :    0.084354
   5 N :    0.084354
   6 H :    0.034352
   7 H :    0.034352
   8 H :    0.034352
   9 H :    0.034352

  Mayer bond orders larger than 0.100000
B(  0-C ,  1-C ) :   1.2486 B(  0-C ,  2-C ) :   0.6970 B(  0-C ,  5-N ) :  -0.1003
B(  0-C ,  6-H ) :   0.8260 B(  0-C ,  7-H ) :   0.8260 B(  1-C ,  3-C ) :   0.6970
B(  1-C ,  4-N ) :  -0.1003 B(  1-C ,  8-H ) :   0.8260 B(  1-C ,  9-H ) :   0.8260
B(  2-C ,  5-N ) :   2.7199 B(  3-C ,  4-N ) :   2.7199

MP2 TOTAL ENERGY:     -263.579020813 Eh
FINAL SINGLE POINT ENERGY      -263.579020813199

DIPOLE MOMENT
-------------
                                X             Y             Z
Electronic contribution:     -0.00000       0.00000       0.00000
Nuclear contribution   :      0.00000       0.00000       0.00000
                        -----------------------------------------
Total Dipole Moment    :     -0.00000       0.00000       0.00000
                        -----------------------------------------
Magnitude (a.u.)       :      0.00000
Magnitude (Debye)      :      0.00000

Rotational constants in cm-1:     0.857872     0.049585     0.047700
Rotational constants in MHz : 25718.344128  1486.528616  1429.999926

                             ****ORCA TERMINATED NORMALLY****
TOTAL RUN TIME: 0 days 0 hours 0 minutes 49 seconds 925 msec
