                         Program Version 5.0.3 -  RELEASE  -
|  1> !ri-mp2 aug-cc-pvdz aug-cc-pvdz/c tightscf
|  2> %pal nprocs 16 end
|  3>
|  4> * xyz 0 1
|  5> S     -1.708055   -0.944543    0.238777
|  6> O      2.543314    1.082665   -0.736842
|  7> O      3.099840   -0.995616   -0.091408
|  8> O     -3.637533    0.704920   -0.308545
|  9> N      0.648212    1.175180    1.198357
| 10> N     -2.500457    0.538811   -0.543859
| 11> C      0.958154   -0.108039    0.596436
| 12> C     -0.057481   -0.638317   -0.450388
| 13> C      2.322002   -0.078776   -0.081186
| 14> H      1.047909   -0.847293    1.390980
| 15> H      0.293305   -1.573053   -0.885849
| 16> H     -0.196720    0.090629   -1.251576
| 17> H     -0.227541    1.132950    1.703394
| 18> H      0.584033    1.910377    0.505497
| 19> H      3.412596    1.016178   -1.159186
| 20> *
| 21>
| 22>                          ****END OF INPUT****

CARTESIAN COORDINATES (ANGSTROEM)
---------------------------------
  S     -1.708055   -0.944543    0.238777
  O      2.543314    1.082665   -0.736842
  O      3.099840   -0.995616   -0.091408
  O     -3.637533    0.704920   -0.308545
  N      0.648212    1.175180    1.198357
  N     -2.500457    0.538811   -0.543859
  C      0.958154   -0.108039    0.596436
  C     -0.057481   -0.638317   -0.450388
  C      2.322002   -0.078776   -0.081186
  H      1.047909   -0.847293    1.390980
  H      0.293305   -1.573053   -0.885849
  H     -0.196720    0.090629   -1.251576
  H     -0.227541    1.132950    1.703394
  H      0.584033    1.910377    0.505497
  H      3.412596    1.016178   -1.159186

 Total Charge           Charge          ....    0
 Multiplicity           Mult            ....    1
 Number of Electrons    NEL             ....   78
 Basis Dimension        Dim             ....  265

ORBITAL ENERGIES
----------------

  NO   OCC          E(Eh)            E(eV)
   0   2.0000     -92.005414     -2503.5946
   1   2.0000     -20.683511      -562.8269
   2   2.0000     -20.637420      -561.5727
   3   2.0000     -20.576182      -559.9064
   4   2.0000     -15.776651      -429.3045
   5   2.0000     -15.573372      -423.7730
   6   2.0000     -11.409419      -310.4661
   7   2.0000     -11.307226      -307.6853
   8   2.0000     -11.297010      -307.4073
   9   2.0000      -9.005776      -245.0596
  10   2.0000      -6.687086      -181.9649
  11   2.0000      -6.685817      -181.9303
  12   2.0000      -6.683775      -181.8748
  13   2.0000      -1.588557       -43.2268
  14   2.0000      -1.485949       -40.4347
  15   2.0000      -1.383309       -37.6418
  16   2.0000      -1.222121       -33.2556
  17   2.0000      -1.102927       -30.0122
  18   2.0000      -1.020388       -27.7662
  19   2.0000      -0.938262       -25.5314
  20   2.0000      -0.856554       -23.3080
  21   2.0000      -0.826914       -22.5015
  22   2.0000      -0.731939       -19.9171
  23   2.0000      -0.715304       -19.4644
  24   2.0000      -0.708751       -19.2861
  25   2.0000      -0.701441       -19.0872
  26   2.0000      -0.668795       -18.1988
  27   2.0000      -0.657835       -17.9006
  28   2.0000      -0.648524       -17.6472
  29   2.0000      -0.625766       -17.0280
  30   2.0000      -0.609765       -16.5925
  31   2.0000      -0.589767       -16.0484
  32   2.0000      -0.550236       -14.9727
  33   2.0000      -0.509573       -13.8662
  34   2.0000      -0.497846       -13.5471
  35   2.0000      -0.465512       -12.6672
  36   2.0000      -0.420542       -11.4435
  37   2.0000      -0.394932       -10.7467
  38   2.0000      -0.389299       -10.5934
  39   0.0000       0.032355         0.8804
  40   0.0000       0.045031         1.2253
  41   0.0000       0.046998         1.2789
  42   0.0000       0.051113         1.3909
  43   0.0000       0.058539         1.5929

MULLIKEN ATOMIC CHARGES
-----------------------
   0 S :    0.634205
   1 O :   -0.745533
   2 O :   -0.773896
   3 O :   -0.504057
   4 N :   -0.356260
   5 N :    0.031700
   6 C :    0.351860
   7 C :    0.042599
   8 C :    1.250918
   9 H :   -0.133860
  10 H :   -0.062164
  11 H :    0.019890
  12 H :    0.023454
  13 H :    0.025979
  14 H :    0.195166
Sum of atomic charges:    0.0000000

LOEWDIN ATOMIC CHARGES
----------------------
   0 S :    0.797419
   1 O :    0.209692
   2 O :    0.052155
   3 O :   -0.032648
   4 N :    0.207435
   5 N :   -0.254530
   6 C :   -0.257066
   7 C :   -0.272068
   8 C :   -0.313272
   9 H :    0.038884
  10 H :   -0.027275
  11 H :   -0.032453
  12 H :   -0.058703
  13 H :   -0.045380
  14 H :   -0.012190

  Mayer bond orders larger than 0.100000
B(  0-S ,  5-N ) :   0.8499 B(  0-S ,  6-C ) :  -0.1542 B(  0-S ,  7-C ) :   1.0194
B(  0-S , 10-H ) :  -0.1238 B(  1-O ,  7-C ) :   0.1045 B(  1-O ,  8-C ) :   0.4639
B(  1-O , 14-H ) :   1.0309 B(  2-O ,  8-C ) :   1.3078 B(  3-O ,  5-N ) :   1.4218
B(  4-N ,  6-C ) :   1.0114 B(  4-N , 12-H ) :   1.0289 B(  4-N , 13-H ) :   1.0339
B(  6-C ,  7-C ) :   1.2403 B(  6-C ,  8-C ) :   1.0073 B(  6-C ,  9-H ) :   0.6480
B(  6-C , 10-H ) :   0.1549 B(  6-C , 11-H ) :   0.1455 B(  7-C , 10-H ) :   0.8960
B(  7-C , 11-H ) :   0.8515 B(  8-C ,  9-H ) :   0.1113

MP2 TOTAL ENERGY:     -849.611449241 Eh
FINAL SINGLE POINT ENERGY      -849.611449240933

DIPOLE MOMENT
-------------
                                X             Y             Z
Electronic contribution:     -4.80398      -1.39503      -0.74874
Nuclear contribution   :      4.86539       1.73803       0.27494
                        -----------------------------------------
Total Dipole Moment    :      0.06142       0.34300      -0.47380
                        -----------------------------------------
Magnitude (a.u.)       :      0.58814
Magnitude (Debye)      :      1.49493

Rotational constants in cm-1:     0.104735     0.021152     0.019742
Rotational constants in MHz :  3139.889000   634.124971   591.840875

                             ****ORCA TERMINATED NORMALLY****
TOTAL RUN TIME: 0 days 0 hours 1 minutes 4 seconds 977 msec
