                         Program Version 5.0.3 -  RELEASE  -
|  1> !ri-mp2 aug-cc-pvdz aug-cc-pvdz/c tightscf
|  2> %pal nprocs 16 end
|  3>
|  4> * xyz 0 1
|  5> N     -0.177991    1.757044   -0.045284
|  6> C     -0.174557    0.454696    0.630245
|  7> C      1.009523   -0.385808    0.110632
|  8> O      1.076352   -1.580041    0.246542
|  9> O      1.963473    0.331956   -0.488889
| 10> H      1.615569    1.250303   -0.522903
| 11> C     -1.479889   -0.332217    0.505893
| 12> O     -1.818406   -0.558856   -0.858546
| 13> H      0.029220    0.618593    1.692314
| 14> H     -2.295702    0.252625    0.931383
| 15> H     -1.398556   -1.270636    1.055345
| 16> H     -1.310349   -1.313636   -1.174889
| 17> H     -0.748545    1.709812   -0.883078
| 18> H     -0.547515    2.489126    0.545335
| 19> *
| 20>
| 21>                          ****END OF INPUT****

CARTESIAN COORDINATES (ANGSTROEM)
---------------------------------
  N     -0.177991    1.757044   -0.045284
  C     -0.174557    0.454696    0.630245
  C      1.009523   -0.385808    0.110632
  O      1.076352   -1.580041    0.246542
  O      1.963473    0.331956   -0.488889
  H      1.615569    1.250303   -0.522903
  C     -1.479889   -0.332217    0.505893
  O     -1.818406   -0.558856   -0.858546
  H      0.029220    0.618593    1.692314
  H     -2.295702    0.252625    0.931383
  H     -1.398556   -1.270636    1.055345
  H     -1.310349   -1.313636   -1.174889
  H     -0.748545    1.709812   -0.883078
  H     -0.547515    2.489126    0.545335

 Total Charge           Charge          ....    0
 Multiplicity           Mult            ....    1
 Number of Electrons    NEL             ....   56
 Basis Dimension        Dim             ....  224

ORBITAL ENERGIES
----------------

  NO   OCC          E(Eh)            E(eV)
   0   2.0000     -20.612150      -560.8851
   1   2.0000     -20.586103      -560.1764
   2   2.0000     -20.556122      -559.3605
   3   2.0000     -15.592153      -424.2840
   4   2.0000     -11.392487      -310.0053
   5   2.0000     -11.303358      -307.5800
   6   2.0000     -11.302588      -307.5591
   7   2.0000      -1.464374       -39.8476
   8   2.0000      -1.382794       -37.6277
   9   2.0000      -1.368387       -37.2357
  10   2.0000      -1.224993       -33.3338
  11   2.0000      -1.021561       -27.7981
  12   2.0000      -0.901363       -24.5273
  13   2.0000      -0.813339       -22.1321
  14   2.0000      -0.746970       -20.3261
  15   2.0000      -0.717070       -19.5125
  16   2.0000      -0.700292       -19.0559
  17   2.0000      -0.672245       -18.2927
  18   2.0000      -0.638078       -17.3630
  19   2.0000      -0.626203       -17.0399
  20   2.0000      -0.612145       -16.6573
  21   2.0000      -0.585283       -15.9264
  22   2.0000      -0.554001       -15.0751
  23   2.0000      -0.515544       -14.0287
  24   2.0000      -0.490882       -13.3576
  25   2.0000      -0.475569       -12.9409
  26   2.0000      -0.461261       -12.5516
  27   2.0000      -0.421714       -11.4754
  28   0.0000       0.024715         0.6725
  29   0.0000       0.040926         1.1136
  30   0.0000       0.047049         1.2803
  31   0.0000       0.049394         1.3441
  32   0.0000       0.068154         1.8546

MULLIKEN ATOMIC CHARGES
-----------------------
   0 N :   -0.543856
   1 C :   -0.279886
   2 C :    1.234519
   3 O :   -0.761762
   4 O :   -0.691117
   5 H :    0.280398
   6 C :    1.372285
   7 O :   -0.704275
   8 H :    0.045116
   9 H :   -0.169608
  10 H :   -0.095609
  11 H :    0.162359
  12 H :    0.101633
  13 H :    0.049803
Sum of atomic charges:    0.0000000

LOEWDIN ATOMIC CHARGES
----------------------
   0 N :    0.223804
   1 C :   -0.168619
   2 C :   -0.318213
   3 O :    0.044543
   4 O :    0.218270
   5 H :   -0.086599
   6 C :   -0.007524
   7 O :    0.124956
   8 H :    0.054424
   9 H :    0.010910
  10 H :    0.014036
  11 H :   -0.053893
  12 H :   -0.025842
  13 H :   -0.030253

  Mayer bond orders larger than 0.100000
B(  0-N ,  1-C ) :   0.6799 B(  0-N , 12-H ) :   1.0491 B(  0-N , 13-H ) :   1.0344
B(  1-C ,  2-C ) :   0.9849 B(  1-C ,  4-O ) :   0.2330 B(  1-C ,  6-C ) :   1.1373
B(  1-C ,  7-O ) :   0.1210 B(  1-C ,  8-H ) :   0.8814 B(  1-C , 10-H ) :   0.1042
B(  2-C ,  3-O ) :   1.4977 B(  2-C ,  4-O ) :   0.4642 B(  4-O ,  5-H ) :   0.9420
B(  6-C ,  7-O ) :   0.5201 B(  6-C ,  9-H ) :   0.8776 B(  6-C , 10-H ) :   0.8025
B(  7-O , 11-H ) :   1.0319 B(  9-H , 10-H ) :  -0.1389

MP2 TOTAL ENERGY:     -397.993349009 Eh
FINAL SINGLE POINT ENERGY      -397.993349009182

DIPOLE MOMENT
-------------
                                X             Y             Z
Electronic contribution:      3.69620      -2.35395      -1.03287
Nuclear contribution   :     -4.64116       3.72081       1.62711
                        -----------------------------------------
Total Dipole Moment    :     -0.94496       1.36686       0.59424
                        -----------------------------------------
Magnitude (a.u.)       :      1.76476
Magnitude (Debye)      :      4.48567

Rotational constants in cm-1:     0.118621     0.077663     0.057178
Rotational constants in MHz :  3556.167214  2328.277482  1714.144266

                             ****ORCA TERMINATED NORMALLY****
TOTAL RUN TIME: 0 days 0 hours 0 minutes 51 seconds 703 msec
