                         Program Version 5.0.3 -  RELEASE  -
|  1> !ri-mp2 aug-cc-pvdz aug-cc-pvdz/c tightscf
|  2> %pal nprocs 16 end
|  3>
|  4> * xyz 0 1
|  5> O     -2.357106   -0.826508    0.000023
|  6> C     -1.415289   -0.075802    0.000085
|  7> S      0.232683   -0.804196   -0.000140
|  8> H     -1.076024    1.860038    0.880271
|  9> H     -2.611239    1.674996    0.000488
| 10> H     -1.076214    1.860311   -0.879564
| 11> C     -1.552652    1.427474    0.000338
| 12> H      1.252246    1.209742   -0.884316
| 13> H      1.252388    1.209438    0.884567
| 14> C      1.422814    0.598820    0.000007
| 15> H      3.026676   -0.571696    0.882060
| 16> H      3.561268    0.860316   -0.000120
| 17> H      3.026534   -0.571397   -0.882700
| 18> C      2.841508    0.040750   -0.000202
| 19> *
| 20>
| 21>                          ****END OF INPUT****

CARTESIAN COORDINATES (ANGSTROEM)
---------------------------------
  O     -2.357106   -0.826508    0.000023
  C     -1.415289   -0.075802    0.000085
  S      0.232683   -0.804196   -0.000140
  H     -1.076024    1.860038    0.880271
  H     -2.611239    1.674996    0.000488
  H     -1.076214    1.860311   -0.879564
  C     -1.552652    1.427474    0.000338
  H      1.252246    1.209742   -0.884316
  H      1.252388    1.209438    0.884567
  C      1.422814    0.598820    0.000007
  H      3.026676   -0.571696    0.882060
  H      3.561268    0.860316   -0.000120
  H      3.026534   -0.571397   -0.882700
  C      2.841508    0.040750   -0.000202

 Total Charge           Charge          ....    0
 Multiplicity           Mult            ....    1
 Number of Electrons    NEL             ....   56
 Basis Dimension        Dim             ....  214

ORBITAL ENERGIES
----------------

  NO   OCC          E(Eh)            E(eV)
   0   2.0000     -91.967569     -2502.5648
   1   2.0000     -20.566249      -559.6361
   2   2.0000     -11.373011      -309.4754
   3   2.0000     -11.283375      -307.0362
   4   2.0000     -11.257079      -306.3207
   5   2.0000     -11.246363      -306.0291
   6   2.0000      -8.970202      -244.0916
   7   2.0000      -6.651993      -181.0099
   8   2.0000      -6.650418      -180.9671
   9   2.0000      -6.648672      -180.9196
  10   2.0000      -1.408790       -38.3351
  11   2.0000      -1.094071       -29.7712
  12   2.0000      -1.031181       -28.0599
  13   2.0000      -0.961266       -26.1574
  14   2.0000      -0.850703       -23.1488
  15   2.0000      -0.738626       -20.0990
  16   2.0000      -0.663808       -18.0631
  17   2.0000      -0.649458       -17.6727
  18   2.0000      -0.635415       -17.2905
  19   2.0000      -0.614026       -16.7085
  20   2.0000      -0.587028       -15.9739
  21   2.0000      -0.549054       -14.9405
  22   2.0000      -0.541590       -14.7374
  23   2.0000      -0.526289       -14.3211
  24   2.0000      -0.523050       -14.2329
  25   2.0000      -0.457255       -12.4425
  26   2.0000      -0.406177       -11.0526
  27   2.0000      -0.366075        -9.9614
  28   0.0000       0.027963         0.7609
  29   0.0000       0.039516         1.0753
  30   0.0000       0.045485         1.2377
  31   0.0000       0.051210         1.3935
  32   0.0000       0.062502         1.7008

MULLIKEN ATOMIC CHARGES
-----------------------
   0 O :   -0.730001
   1 C :    0.120663
   2 S :    0.514378
   3 H :    0.078373
   4 H :   -0.191116
   5 H :    0.078368
   6 C :    0.250775
   7 H :   -0.102341
   8 H :   -0.102346
   9 C :   -0.146592
  10 H :   -0.048234
  11 H :   -0.040578
  12 H :   -0.048236
  13 C :    0.366887
Sum of atomic charges:   -0.0000000

LOEWDIN ATOMIC CHARGES
----------------------
   0 O :   -0.021679
   1 C :   -0.597928
   2 S :    0.904404
   3 H :   -0.014595
   4 H :   -0.010146
   5 H :   -0.014592
   6 C :    0.139726
   7 H :   -0.037611
   8 H :   -0.037611
   9 C :   -0.316919
  10 H :   -0.022904
  11 H :   -0.018956
  12 H :   -0.022904
  13 C :    0.071715

  Mayer bond orders larger than 0.100000
B(  0-O ,  1-C ) :   1.4675 B(  1-C ,  2-S ) :   0.9686 B(  1-C ,  6-C ) :   1.0688
B(  2-S ,  9-C ) :   0.9912 B(  3-H ,  6-C ) :   0.9145 B(  4-H ,  6-C ) :   0.9149
B(  5-H ,  6-C ) :   0.9145 B(  7-H ,  9-C ) :   0.8947 B(  8-H ,  9-C ) :   0.8947
B(  9-C , 13-C ) :   1.2839 B( 10-H , 13-C ) :   0.9397 B( 11-H , 13-C ) :   0.9081
B( 12-H , 13-C ) :   0.9397

MP2 TOTAL ENERGY:     -629.477724962 Eh
FINAL SINGLE POINT ENERGY      -629.477724962361

DIPOLE MOMENT
-------------
                                X             Y             Z
Electronic contribution:     -6.19711      -6.08012      -0.00053
Nuclear contribution   :      7.38184       7.61632       0.00070
                        -----------------------------------------
Total Dipole Moment    :      1.18474       1.53620       0.00017
                        -----------------------------------------
Magnitude (a.u.)       :      1.93998
Magnitude (Debye)      :      4.93103

Rotational constants in cm-1:     0.214074     0.053881     0.044107
Rotational constants in MHz :  6417.783569  1615.313179  1322.292488

                             ****ORCA TERMINATED NORMALLY****
TOTAL RUN TIME: 0 days 0 hours 0 minutes 37 seconds 765 msec
