                         Program Version 5.0.3 -  RELEASE  -
|  1> !ri-mp2 aug-cc-pvdz aug-cc-pvdz/c tightscf
|  2> %pal nprocs 16 end
|  3>
|  4> * xyz 0 1
|  5> S     -1.717687   -0.094549    0.004331
|  6> O      2.473344   -0.005347   -0.104993
|  7> C     -0.032037    0.049767   -0.007089
|  8> C      1.170348    0.011478    0.003985
|  9> H     -2.024932    1.220216    0.023363
| 10> H      2.891302   -0.032124    0.765910
| 11> *
| 12>
| 13>                          ****END OF INPUT****

CARTESIAN COORDINATES (ANGSTROEM)
---------------------------------
  S     -1.717687   -0.094549    0.004331
  O      2.473344   -0.005347   -0.104993
  C     -0.032037    0.049767   -0.007089
  C      1.170348    0.011478    0.003985
  H     -2.024932    1.220216    0.023363
  H      2.891302   -0.032124    0.765910

 Total Charge           Charge          ....    0
 Multiplicity           Mult            ....    1
 Number of Electrons    NEL             ....   38
 Basis Dimension        Dim             ....  114

ORBITAL ENERGIES
----------------

  NO   OCC          E(Eh)            E(eV)
   0   2.0000     -91.995079     -2503.3134
   1   2.0000     -20.652855      -561.9928
   2   2.0000     -11.311238      -307.7944
   3   2.0000     -11.257077      -306.3206
   4   2.0000      -8.995073      -244.7684
   5   2.0000      -6.677461      -181.7030
   6   2.0000      -6.675864      -181.6595
   7   2.0000      -6.673710      -181.6009
   8   2.0000      -1.459470       -39.7142
   9   2.0000      -1.077462       -29.3192
  10   2.0000      -0.975903       -26.5557
  11   2.0000      -0.822609       -22.3843
  12   2.0000      -0.678885       -18.4734
  13   2.0000      -0.645572       -17.5669
  14   2.0000      -0.625115       -17.0102
  15   2.0000      -0.529647       -14.4124
  16   2.0000      -0.468973       -12.7614
  17   2.0000      -0.376118       -10.2347
  18   2.0000      -0.340904        -9.2765
  19   0.0000       0.027521         0.7489
  20   0.0000       0.043203         1.1756
  21   0.0000       0.081356         2.2138
  22   0.0000       0.096223         2.6183
  23   0.0000       0.098005         2.6669

MULLIKEN ATOMIC CHARGES
-----------------------
   0 S :    0.154553
   1 O :   -0.519832
   2 C :    0.290604
   3 C :   -0.180314
   4 H :    0.088898
   5 H :    0.166091
Sum of atomic charges:   -0.0000000

LOEWDIN ATOMIC CHARGES
----------------------
   0 S :    0.750327
   1 O :    0.179587
   2 C :   -0.482655
   3 C :   -0.224332
   4 H :   -0.204866
   5 H :   -0.018062

  Mayer bond orders larger than 0.100000
B(  0-S ,  2-C ) :   1.0627 B(  0-S ,  4-H ) :   0.9941 B(  1-O ,  2-C ) :  -0.1964
B(  1-O ,  3-C ) :   0.9259 B(  1-O ,  5-H ) :   1.0001 B(  2-C ,  3-C ) :   2.2916

MP2 TOTAL ENERGY:     -549.817489189 Eh
FINAL SINGLE POINT ENERGY      -549.817489188804

DIPOLE MOMENT
-------------
                                X             Y             Z
Electronic contribution:     -0.52064      -0.83819      -0.15058
Nuclear contribution   :      0.92305       1.14704       0.75847
                        -----------------------------------------
Total Dipole Moment    :      0.40241       0.30885       0.60789
                        -----------------------------------------
Magnitude (a.u.)       :      0.79174
Magnitude (Debye)      :      2.01244

Rotational constants in cm-1:     6.710131     0.075844     0.075494
Rotational constants in MHz : 201164.669192  2273.758326  2263.250215

                             ****ORCA TERMINATED NORMALLY****
TOTAL RUN TIME: 0 days 0 hours 0 minutes 57 seconds 610 msec
