                         Program Version 5.0.3 -  RELEASE  -
|  1> !ri-mp2 aug-cc-pvdz aug-cc-pvdz/c tightscf
|  2> %pal nprocs 16 end
|  3>
|  4> * xyz 0 1
|  5> Cl     1.676546   -0.809324   -0.064042
|  6> S     -1.948152   -0.418639   -0.243515
|  7> O      0.873755    1.670610   -0.356742
|  8> C      0.580777    0.624501    0.110504
|  9> C     -0.682958    0.310390    0.867857
| 10> H     -2.149817    0.689707   -0.979994
| 11> H     -1.058018    1.227789    1.313361
| 12> H     -0.499959   -0.434986    1.635345
| 13> *
| 14>
| 15>                          ****END OF INPUT****

CARTESIAN COORDINATES (ANGSTROEM)
---------------------------------
  Cl     1.676546   -0.809324   -0.064042
  S     -1.948152   -0.418639   -0.243515
  O      0.873755    1.670610   -0.356742
  C      0.580777    0.624501    0.110504
  C     -0.682958    0.310390    0.867857
  H     -2.149817    0.689707   -0.979994
  H     -1.058018    1.227789    1.313361
  H     -0.499959   -0.434986    1.635345

 Total Charge           Charge          ....    0
 Multiplicity           Mult            ....    1
 Number of Electrons    NEL             ....   56
 Basis Dimension        Dim             ....  150

ORBITAL ENERGIES
----------------

  NO   OCC          E(Eh)            E(eV)
   0   2.0000    -104.850930     -2853.1388
   1   2.0000     -91.992425     -2503.2412
   2   2.0000     -20.616456      -561.0023
   3   2.0000     -11.430299      -311.0343
   4   2.0000     -11.317276      -307.9587
   5   2.0000     -10.577465      -287.8274
   6   2.0000      -8.993476      -244.7249
   7   2.0000      -8.044928      -218.9136
   8   2.0000      -8.041783      -218.8280
   9   2.0000      -8.041629      -218.8238
  10   2.0000      -6.675420      -181.6474
  11   2.0000      -6.674103      -181.6116
  12   2.0000      -6.671835      -181.5499
  13   2.0000      -1.467498       -39.9326
  14   2.0000      -1.144967       -31.1561
  15   2.0000      -1.084975       -29.5237
  16   2.0000      -0.935855       -25.4659
  17   2.0000      -0.785758       -21.3816
  18   2.0000      -0.699853       -19.0440
  19   2.0000      -0.689077       -18.7507
  20   2.0000      -0.627426       -17.0731
  21   2.0000      -0.618197       -16.8220
  22   2.0000      -0.553399       -15.0588
  23   2.0000      -0.499362       -13.5883
  24   2.0000      -0.474798       -12.9199
  25   2.0000      -0.471514       -12.8306
  26   2.0000      -0.461627       -12.5615
  27   2.0000      -0.389911       -10.6100
  28   0.0000       0.033576         0.9137
  29   0.0000       0.045432         1.2363
  30   0.0000       0.054060         1.4711
  31   0.0000       0.072223         1.9653
  32   0.0000       0.087103         2.3702

MULLIKEN ATOMIC CHARGES
-----------------------
   0 Cl:   -0.119067
   1 S :    0.248216
   2 O :   -0.584499
   3 C :    0.287334
   4 C :   -0.011569
   5 H :    0.140586
   6 H :   -0.027164
   7 H :    0.066163
Sum of atomic charges:   -0.0000000

LOEWDIN ATOMIC CHARGES
----------------------
   0 Cl:    0.472929
   1 S :    0.747941
   2 O :    0.034409
   3 C :   -0.643894
   4 C :   -0.334488
   5 H :   -0.210488
   6 H :   -0.024577
   7 H :   -0.041833

  Mayer bond orders larger than 0.100000
B(  0-Cl,  3-C ) :   1.0575 B(  1-S ,  4-C ) :   1.0974 B(  1-S ,  5-H ) :   0.9356
B(  2-O ,  3-C ) :   1.6157 B(  3-C ,  4-C ) :   0.9879 B(  4-C ,  6-H ) :   0.9634
B(  4-C ,  7-H ) :   0.9565

MP2 TOTAL ENERGY:    -1010.168169267 Eh
FINAL SINGLE POINT ENERGY     -1010.168169267178

DIPOLE MOMENT
-------------
                                X             Y             Z
Electronic contribution:      5.03063      -2.54499      -1.32188
Nuclear contribution   :     -5.73859       2.54909       1.96176
                        -----------------------------------------
Total Dipole Moment    :     -0.70797       0.00410       0.63988
                        -----------------------------------------
Magnitude (a.u.)       :      0.95430
Magnitude (Debye)      :      2.42563

Rotational constants in cm-1:     0.168414     0.063007     0.051026
Rotational constants in MHz :  5048.911410  1888.888733  1529.732123

                             ****ORCA TERMINATED NORMALLY****
TOTAL RUN TIME: 0 days 0 hours 0 minutes 41 seconds 575 msec
