                         Program Version 5.0.3 -  RELEASE  -
|  1> !ri-mp2 aug-cc-pvdz aug-cc-pvdz/c tightscf
|  2> %pal nprocs 16 end
|  3>
|  4> * xyz 0 1
|  5> S      2.048400   -0.290055   -0.000004
|  6> O      0.344735   -0.570900    0.000028
|  7> O      0.114295    1.662368   -0.000031
|  8> O     -2.201166   -1.044702   -0.000050
|  9> C     -0.370001    0.558920    0.000004
| 10> C     -1.869456    0.327817    0.000042
| 11> H      2.266181   -1.618423    0.000025
| 12> H     -3.158635   -1.130729    0.000000
| 13> H     -2.254090    0.847812   -0.883395
| 14> H     -2.254023    0.847674    0.883591
| 15> *
| 16>
| 17>                          ****END OF INPUT****

CARTESIAN COORDINATES (ANGSTROEM)
---------------------------------
  S      2.048400   -0.290055   -0.000004
  O      0.344735   -0.570900    0.000028
  O      0.114295    1.662368   -0.000031
  O     -2.201166   -1.044702   -0.000050
  C     -0.370001    0.558920    0.000004
  C     -1.869456    0.327817    0.000042
  H      2.266181   -1.618423    0.000025
  H     -3.158635   -1.130729    0.000000
  H     -2.254090    0.847812   -0.883395
  H     -2.254023    0.847674    0.883591

 Total Charge           Charge          ....    0
 Multiplicity           Mult            ....    1
 Number of Electrons    NEL             ....   56
 Basis Dimension        Dim             ....  178

ORBITAL ENERGIES
----------------

  NO   OCC          E(Eh)            E(eV)
   0   2.0000     -92.031338     -2504.3000
   1   2.0000     -20.644820      -561.7741
   2   2.0000     -20.594452      -560.4035
   3   2.0000     -20.568294      -559.6917
   4   2.0000     -11.406244      -310.3797
   5   2.0000     -11.321254      -308.0670
   6   2.0000      -9.026054      -245.6114
   7   2.0000      -6.708028      -182.5347
   8   2.0000      -6.706108      -182.4825
   9   2.0000      -6.703234      -182.4043
  10   2.0000      -1.482494       -40.3407
  11   2.0000      -1.391948       -37.8768
  12   2.0000      -1.376393       -37.4535
  13   2.0000      -1.030402       -28.0387
  14   2.0000      -0.965222       -26.2650
  15   2.0000      -0.782290       -21.2872
  16   2.0000      -0.733279       -19.9535
  17   2.0000      -0.712165       -19.3790
  18   2.0000      -0.689705       -18.7678
  19   2.0000      -0.667915       -18.1749
  20   2.0000      -0.626160       -17.0387
  21   2.0000      -0.596325       -16.2268
  22   2.0000      -0.547686       -14.9033
  23   2.0000      -0.514075       -13.9887
  24   2.0000      -0.504665       -13.7326
  25   2.0000      -0.468432       -12.7467
  26   2.0000      -0.462865       -12.5952
  27   2.0000      -0.379981       -10.3398
  28   0.0000       0.028780         0.7831
  29   0.0000       0.042956         1.1689
  30   0.0000       0.054249         1.4762
  31   0.0000       0.054710         1.4887
  32   0.0000       0.070452         1.9171

MULLIKEN ATOMIC CHARGES
-----------------------
   0 S :    0.465780
   1 O :   -0.922935
   2 O :   -0.739583
   3 O :   -0.654697
   4 C :    0.755327
   5 C :    0.805773
   6 H :    0.100231
   7 H :    0.156483
   8 H :    0.016804
   9 H :    0.016816
Sum of atomic charges:   -0.0000000

LOEWDIN ATOMIC CHARGES
----------------------
   0 S :    0.767983
   1 O :   -0.216029
   2 O :    0.011248
   3 O :    0.125780
   4 C :   -0.444895
   5 C :    0.007863
   6 H :   -0.233282
   7 H :   -0.053342
   8 H :    0.017336
   9 H :    0.017337

  Mayer bond orders larger than 0.100000
B(  0-S ,  1-O ) :   0.6485 B(  0-S ,  6-H ) :   0.9734 B(  1-O ,  4-C ) :   0.7326
B(  1-O ,  5-C ) :   0.1410 B(  2-O ,  4-C ) :   1.4552 B(  3-O ,  5-C ) :   0.5102
B(  3-O ,  7-H ) :   1.0666 B(  4-C ,  5-C ) :   0.9696 B(  5-C ,  8-H ) :   0.9239
B(  5-C ,  9-H ) :   0.9239

MP2 TOTAL ENERGY:     -701.205635603 Eh
FINAL SINGLE POINT ENERGY      -701.205635602725

DIPOLE MOMENT
-------------
                                X             Y             Z
Electronic contribution:      4.48830       0.39052      -0.00011
Nuclear contribution   :     -5.34196      -1.01560       0.00021
                        -----------------------------------------
Total Dipole Moment    :     -0.85366      -0.62507       0.00010
                        -----------------------------------------
Magnitude (a.u.)       :      1.05805
Magnitude (Debye)      :      2.68934

Rotational constants in cm-1:     0.206843     0.059229     0.046444
Rotational constants in MHz :  6201.006412  1775.655468  1392.352316

                             ****ORCA TERMINATED NORMALLY****
TOTAL RUN TIME: 0 days 0 hours 0 minutes 57 seconds 759 msec
