                         Program Version 5.0.3 -  RELEASE  -
|  1> !ri-mp2 aug-cc-pvdz aug-cc-pvdz/c tightscf
|  2> %pal nprocs 16 end
|  3>
|  4> * xyz 0 1
|  5> S     1.777893   -1.017043   -0.098312
|  6> O     3.331071   -0.521658   -0.383927
|  7> O     1.564558    1.616301   -0.260640
|  8> O     3.903677    0.151691    0.784045
|  9> C     0.945852    0.577476   -0.185281
| 10> C    -0.473005    0.441711   -0.112433
| 11> C    -1.670367    0.263764   -0.051931
| 12> C    -3.011782    0.084916    0.015677
| 13> C    -4.208213   -0.073703    0.076329
| 14> C    -5.641659   -0.262465    0.148528
| 15> H     3.588858    1.056127    0.611506
| 16> H    -6.026208   -0.654858   -0.794688
| 17> H    -6.149180    0.680904    0.356636
| 18> H    -5.899149   -0.970358    0.938381
| 19> *
| 20>
| 21>                          ****END OF INPUT****

CARTESIAN COORDINATES (ANGSTROEM)
---------------------------------
  S      1.777893   -1.017043   -0.098312
  O      3.331071   -0.521658   -0.383927
  O      1.564558    1.616301   -0.260640
  O      3.903677    0.151691    0.784045
  C      0.945852    0.577476   -0.185281
  C     -0.473005    0.441711   -0.112433
  C     -1.670367    0.263764   -0.051931
  C     -3.011782    0.084916    0.015677
  C     -4.208213   -0.073703    0.076329
  C     -5.641659   -0.262465    0.148528
  H      3.588858    1.056127    0.611506
  H     -6.026208   -0.654858   -0.794688
  H     -6.149180    0.680904    0.356636
  H     -5.899149   -0.970358    0.938381

 Total Charge           Charge          ....    0
 Multiplicity           Mult            ....    1
 Number of Electrons    NEL             ....   80
 Basis Dimension        Dim             ....  270

ORBITAL ENERGIES
----------------

  NO   OCC          E(Eh)            E(eV)
   0   2.0000     -92.046828     -2504.7215
   1   2.0000     -20.676098      -562.6252
   2   2.0000     -20.652189      -561.9746
   3   2.0000     -20.600982      -560.5812
   4   2.0000     -11.416085      -310.6475
   5   2.0000     -11.316012      -307.9243
   6   2.0000     -11.298966      -307.4605
   7   2.0000     -11.287339      -307.1441
   8   2.0000     -11.286907      -307.1324
   9   2.0000     -11.279191      -306.9224
  10   2.0000      -9.042977      -246.0719
  11   2.0000      -6.724906      -182.9940
  12   2.0000      -6.722625      -182.9319
  13   2.0000      -6.720552      -182.8755
  14   2.0000      -1.495070       -40.6829
  15   2.0000      -1.435896       -39.0727
  16   2.0000      -1.255259       -34.1573
  17   2.0000      -1.134185       -30.8627
  18   2.0000      -1.092337       -29.7240
  19   2.0000      -1.029648       -28.0182
  20   2.0000      -0.990758       -26.9599
  21   2.0000      -0.898528       -24.4502
  22   2.0000      -0.824722       -22.4418
  23   2.0000      -0.730098       -19.8670
  24   2.0000      -0.714616       -19.4457
  25   2.0000      -0.691731       -18.8230
  26   2.0000      -0.668845       -18.2002
  27   2.0000      -0.646069       -17.5804
  28   2.0000      -0.624226       -16.9861
  29   2.0000      -0.623671       -16.9709
  30   2.0000      -0.602996       -16.4084
  31   2.0000      -0.588404       -16.0113
  32   2.0000      -0.541170       -14.7260
  33   2.0000      -0.507959       -13.8223
  34   2.0000      -0.501353       -13.6425
  35   2.0000      -0.498191       -13.5565
  36   2.0000      -0.444754       -12.1024
  37   2.0000      -0.403100       -10.9689
  38   2.0000      -0.381005       -10.3677
  39   2.0000      -0.377389       -10.2693
  40   0.0000       0.022626         0.6157
  41   0.0000       0.033446         0.9101
  42   0.0000       0.048617         1.3229
  43   0.0000       0.049501         1.3470
  44   0.0000       0.052846         1.4380

MULLIKEN ATOMIC CHARGES
-----------------------
   0 S :    0.806452
   1 O :   -0.633812
   2 O :   -0.785072
   3 O :   -0.276314
   4 C :   -0.232835
   5 C :   -0.963473
   6 C :    1.301690
   7 C :    2.210131
   8 C :   -2.790445
   9 C :    0.523120
  10 H :    0.313314
  11 H :    0.177666
  12 H :    0.174751
  13 H :    0.174826
Sum of atomic charges:   -0.0000000

LOEWDIN ATOMIC CHARGES
----------------------
   0 S :    0.896120
   1 O :   -0.338573
   2 O :    0.016638
   3 O :    0.078495
   4 C :   -0.618795
   5 C :    0.008475
   6 C :   -0.039385
   7 C :   -0.034490
   8 C :   -0.001826
   9 C :    0.143066
  10 H :   -0.111149
  11 H :    0.000942
  12 H :   -0.000016
  13 H :    0.000497

  Mayer bond orders larger than 0.100000
B(  0-S ,  1-O ) :   0.6148 B(  0-S ,  4-C ) :   1.1320 B(  0-S ,  5-C ) :  -0.2824
B(  0-S ,  6-C ) :   0.1468 B(  1-O ,  3-O ) :   0.8925 B(  2-O ,  4-C ) :   1.5085
B(  3-O ,  4-C ) :   0.1106 B(  3-O ,  5-C ) :  -0.1096 B(  3-O , 10-H ) :   0.8610
B(  4-C ,  5-C ) :   2.2588 B(  4-C ,  6-C ) :  -1.4233 B(  4-C ,  7-C ) :   0.2909
B(  5-C ,  6-C ) :   1.8615 B(  5-C ,  7-C ) :  -4.3239 B(  5-C ,  8-C ) :   3.6477
B(  5-C ,  9-C ) :   0.1074 B(  6-C ,  7-C ) :   3.5333 B(  6-C ,  8-C ) :  -3.2229
B(  7-C ,  8-C ) :  -0.1414 B(  7-C ,  9-C ) :   0.1968 B(  8-C ,  9-C ) :   1.8066
B(  8-C , 11-H ) :   0.4233 B(  8-C , 12-H ) :   0.4134 B(  8-C , 13-H ) :   0.4220
B(  9-C , 11-H ) :   0.6374 B(  9-C , 12-H ) :   0.6461 B(  9-C , 13-H ) :   0.6347

MP2 TOTAL ENERGY:     -852.981816063 Eh
FINAL SINGLE POINT ENERGY      -852.981816062701

DIPOLE MOMENT
-------------
                                X             Y             Z
Electronic contribution:     11.35166      -0.46880      -0.90560
Nuclear contribution   :    -13.85684       0.15668       1.07480
                        -----------------------------------------
Total Dipole Moment    :     -2.50518      -0.31212       0.16920
                        -----------------------------------------
Magnitude (a.u.)       :      2.53021
Magnitude (Debye)      :      6.43128

Rotational constants in cm-1:     0.157110     0.011620     0.011054
Rotational constants in MHz :  4710.045530   348.346402   331.394307

                             ****ORCA TERMINATED NORMALLY****
TOTAL RUN TIME: 0 days 0 hours 0 minutes 55 seconds 92 msec
