                         Program Version 5.0.3 -  RELEASE  -
|  1> !ri-mp2 aug-cc-pvdz aug-cc-pvdz/c tightscf
|  2> %pal nprocs 16 end
|  3>
|  4> * xyz 0 1
|  5> C      2.274150    1.388749   -0.000069
|  6> C      3.234944    0.386128    0.000107
|  7> C      0.927785    1.052725   -0.000171
|  8> C      2.801859   -0.932997    0.000173
|  9> C      0.607018   -0.304386   -0.000074
| 10> C     -2.244819    0.347643    0.000025
| 11> C     -3.658489   -0.190391    0.000171
| 12> N      1.514712   -1.276021    0.000089
| 13> O     -1.993920    1.525908    0.000110
| 14> S     -1.049030   -0.997881   -0.000205
| 15> H      2.565776    2.430616   -0.000132
| 16> H      4.290895    0.616050    0.000187
| 17> H      0.153685    1.800661   -0.000305
| 18> H      3.511957   -1.751445    0.000302
| 19> H     -4.172879    0.194508   -0.880641
| 20> H     -4.172111    0.193012    0.882092
| 21> H     -3.699155   -1.277234   -0.000689
| 22> *
| 23>
| 24>                          ****END OF INPUT****

CARTESIAN COORDINATES (ANGSTROEM)
---------------------------------
  C      2.274150    1.388749   -0.000069
  C      3.234944    0.386128    0.000107
  C      0.927785    1.052725   -0.000171
  C      2.801859   -0.932997    0.000173
  C      0.607018   -0.304386   -0.000074
  C     -2.244819    0.347643    0.000025
  C     -3.658489   -0.190391    0.000171
  N      1.514712   -1.276021    0.000089
  O     -1.993920    1.525908    0.000110
  S     -1.049030   -0.997881   -0.000205
  H      2.565776    2.430616   -0.000132
  H      4.290895    0.616050    0.000187
  H      0.153685    1.800661   -0.000305
  H      3.511957   -1.751445    0.000302
  H     -4.172879    0.194508   -0.880641
  H     -4.172111    0.193012    0.882092
  H     -3.699155   -1.277234   -0.000689

 Total Charge           Charge          ....    0
 Multiplicity           Mult            ....    1
 Number of Electrons    NEL             ....   80
 Basis Dimension        Dim             ....  297

ORBITAL ENERGIES
----------------

  NO   OCC          E(Eh)            E(eV)
   0   2.0000     -91.985618     -2503.0559
   1   2.0000     -20.576401      -559.9123
   2   2.0000     -15.583440      -424.0470
   3   2.0000     -11.384541      -309.7891
   4   2.0000     -11.323861      -308.1379
   5   2.0000     -11.289660      -307.2073
   6   2.0000     -11.269923      -306.6702
   7   2.0000     -11.257907      -306.3432
   8   2.0000     -11.251585      -306.1712
   9   2.0000     -11.249621      -306.1178
  10   2.0000      -8.988444      -244.5880
  11   2.0000      -6.670347      -181.5094
  12   2.0000      -6.668390      -181.4561
  13   2.0000      -6.666860      -181.4145
  14   2.0000      -1.419694       -38.6318
  15   2.0000      -1.282176       -34.8898
  16   2.0000      -1.100804       -29.9544
  17   2.0000      -1.083762       -29.4907
  18   2.0000      -1.041907       -28.3517
  19   2.0000      -0.973687       -26.4954
  20   2.0000      -0.873817       -23.7778
  21   2.0000      -0.850944       -23.1554
  22   2.0000      -0.763575       -20.7779
  23   2.0000      -0.706476       -19.2242
  24   2.0000      -0.681782       -18.5522
  25   2.0000      -0.670396       -18.2424
  26   2.0000      -0.643716       -17.5164
  27   2.0000      -0.623384       -16.9632
  28   2.0000      -0.622350       -16.9350
  29   2.0000      -0.589144       -16.0314
  30   2.0000      -0.565332       -15.3835
  31   2.0000      -0.564241       -15.3538
  32   2.0000      -0.560925       -15.2635
  33   2.0000      -0.526962       -14.3394
  34   2.0000      -0.490095       -13.3362
  35   2.0000      -0.426829       -11.6146
  36   2.0000      -0.423829       -11.5330
  37   2.0000      -0.414138       -11.2693
  38   2.0000      -0.386201       -10.5091
  39   2.0000      -0.330633        -8.9970
  40   0.0000       0.032732         0.8907
  41   0.0000       0.035373         0.9625
  42   0.0000       0.044542         1.2121
  43   0.0000       0.054926         1.4946
  44   0.0000       0.057023         1.5517

MULLIKEN ATOMIC CHARGES
-----------------------
   0 C :    0.078256
   1 C :    0.947093
   2 C :    0.998030
   3 C :    0.392258
   4 C :   -0.475073
   5 C :   -0.160033
   6 C :    0.615560
   7 N :   -0.537837
   8 O :   -0.787345
   9 S :    0.678021
  10 H :   -0.439803
  11 H :   -0.421210
  12 H :   -0.501852
  13 H :   -0.352090
  14 H :    0.037940
  15 H :    0.038129
  16 H :   -0.110044
Sum of atomic charges:   -0.0000000

LOEWDIN ATOMIC CHARGES
----------------------
   0 C :    0.026282
   1 C :    0.019729
   2 C :    0.017296
   3 C :   -0.030986
   4 C :   -0.484496
   5 C :   -0.572123
   6 C :    0.134772
   7 N :   -0.016200
   8 O :    0.005861
   9 S :    0.972243
  10 H :    0.010361
  11 H :   -0.001151
  12 H :   -0.041198
  13 H :    0.003422
  14 H :   -0.005433
  15 H :   -0.005424
  16 H :   -0.032953

  Mayer bond orders larger than 0.100000
B(  0-C ,  1-C ) :   1.4735 B(  0-C ,  2-C ) :   1.7036 B(  0-C ,  3-C ) :   0.2396
B(  0-C ,  4-C ) :   0.1383 B(  0-C , 10-H ) :   0.2820 B(  0-C , 11-H ) :   0.2173
B(  0-C , 12-H ) :   0.1987 B(  1-C ,  3-C ) :   1.1765 B(  1-C ,  7-N ) :  -0.1491
B(  1-C , 10-H ) :   0.1084 B(  1-C , 11-H ) :   0.4962 B(  2-C ,  4-C ) :   1.1694
B(  2-C ,  7-N ) :  -0.1569 B(  2-C ,  9-S ) :   0.1393 B(  2-C , 10-H ) :   0.3632
B(  2-C , 12-H ) :   0.2007 B(  3-C ,  4-C ) :   0.1812 B(  3-C ,  7-N ) :   1.3742
B(  3-C , 13-H ) :   0.8911 B(  4-C ,  7-N ) :   1.3666 B(  4-C ,  9-S ) :   0.8304
B(  4-C , 13-H ) :   0.1162 B(  5-C ,  6-C ) :   1.2138 B(  5-C ,  8-O ) :   1.3568
B(  5-C ,  9-S ) :   0.9526 B(  5-C , 14-H ) :   0.1084 B(  5-C , 15-H ) :   0.1084
B(  5-C , 16-H ) :   0.1122 B(  6-C , 14-H ) :   0.8698 B(  6-C , 15-H ) :   0.8698
B(  6-C , 16-H ) :   0.8474 B(  7-N ,  9-S ) :  -0.1985 B(  7-N , 13-H ) :  -0.1226

MP2 TOTAL ENERGY:     -797.496651585 Eh
FINAL SINGLE POINT ENERGY      -797.496651585146

DIPOLE MOMENT
-------------
                                X             Y             Z
Electronic contribution:      1.58431      -2.02918      -0.00078
Nuclear contribution   :     -1.48286       2.21008       0.00081
                        -----------------------------------------
Total Dipole Moment    :      0.10145       0.18090       0.00002
                        -----------------------------------------
Magnitude (a.u.)       :      0.20741
Magnitude (Debye)      :      0.52718

Rotational constants in cm-1:     0.105628     0.022863     0.018861
Rotational constants in MHz :  3166.648159   685.412948   565.429114

                             ****ORCA TERMINATED NORMALLY****
TOTAL RUN TIME: 0 days 0 hours 1 minutes 26 seconds 480 msec
