                         Program Version 5.0.3 -  RELEASE  -
|  1> !ri-mp2 aug-cc-pvdz aug-cc-pvdz/c tightscf
|  2> %pal nprocs 16 end
|  3>
|  4> * xyz 0 1
|  5> C     0.000000     0.000000    0.000000
|  6> C     0.000000     0.763303    1.266524
|  7> C     0.000000    -0.763303    1.266524
|  8> C    -0.763303     0.000000   -1.266524
|  9> C     0.763303     0.000000   -1.266524
| 10> H     0.910461     1.264133    1.569347
| 11> H    -0.910461     1.264133    1.569347
| 12> H    -0.910461    -1.264133    1.569347
| 13> H     0.910461    -1.264133    1.569347
| 14> H    -1.264133    -0.910461   -1.569347
| 15> H    -1.264133     0.910461   -1.569347
| 16> H     1.264133     0.910461   -1.569347
| 17> H     1.264133    -0.910461   -1.569347
| 18> *
| 19>
| 20>                          ****END OF INPUT****

CARTESIAN COORDINATES (ANGSTROEM)
---------------------------------
  C      0.000000    0.000000    0.000000
  C      0.000000    0.763303    1.266524
  C      0.000000   -0.763303    1.266524
  C     -0.763303    0.000000   -1.266524
  C      0.763303    0.000000   -1.266524
  H      0.910461    1.264133    1.569347
  H     -0.910461    1.264133    1.569347
  H     -0.910461   -1.264133    1.569347
  H      0.910461   -1.264133    1.569347
  H     -1.264133   -0.910461   -1.569347
  H     -1.264133    0.910461   -1.569347
  H      1.264133    0.910461   -1.569347
  H      1.264133   -0.910461   -1.569347

 Total Charge           Charge          ....    0
 Multiplicity           Mult            ....    1
 Number of Electrons    NEL             ....   38
 Basis Dimension        Dim             ....  187

ORBITAL ENERGIES
----------------

  NO   OCC          E(Eh)            E(eV)
   0   2.0000     -11.238526      -305.8158
   1   2.0000     -11.229223      -305.5627
   2   2.0000     -11.229143      -305.5605
   3   2.0000     -11.228609      -305.5460
   4   2.0000     -11.228609      -305.5460
   5   2.0000      -1.173549       -31.9339
   6   2.0000      -1.062059       -28.9001
   7   2.0000      -0.824836       -22.4449
   8   2.0000      -0.824836       -22.4449
   9   2.0000      -0.740185       -20.1415
  10   2.0000      -0.653190       -17.7742
  11   2.0000      -0.637164       -17.3381
  12   2.0000      -0.637164       -17.3381
  13   2.0000      -0.520347       -14.1594
  14   2.0000      -0.504500       -13.7281
  15   2.0000      -0.485286       -13.2053
  16   2.0000      -0.411534       -11.1984
  17   2.0000      -0.411534       -11.1984
  18   2.0000      -0.386402       -10.5145
  19   0.0000       0.039205         1.0668
  20   0.0000       0.046898         1.2762
  21   0.0000       0.048312         1.3146
  22   0.0000       0.048312         1.3146
  23   0.0000       0.066987         1.8228

MULLIKEN ATOMIC CHARGES
-----------------------
   0 C :   -0.068685
   1 C :    0.558466
   2 C :    0.558466
   3 C :    0.558466
   4 C :    0.558466
   5 H :   -0.270647
   6 H :   -0.270647
   7 H :   -0.270647
   8 H :   -0.270647
   9 H :   -0.270647
  10 H :   -0.270647
  11 H :   -0.270647
  12 H :   -0.270647
Sum of atomic charges:    0.0000000

LOEWDIN ATOMIC CHARGES
----------------------
   0 C :   -0.386640
   1 C :    0.096909
   2 C :    0.096909
   3 C :    0.096909
   4 C :    0.096909
   5 H :   -0.000124
   6 H :   -0.000124
   7 H :   -0.000124
   8 H :   -0.000124
   9 H :   -0.000124
  10 H :   -0.000124
  11 H :   -0.000124
  12 H :   -0.000124

  Mayer bond orders larger than 0.100000
B(  0-C ,  1-C ) :   0.8203 B(  0-C ,  2-C ) :   0.8203 B(  0-C ,  3-C ) :   0.8203
B(  0-C ,  4-C ) :   0.8203 B(  1-C ,  2-C ) :   1.2022 B(  1-C ,  5-H ) :   0.7473
B(  1-C ,  6-H ) :   0.7473 B(  2-C ,  7-H ) :   0.7473 B(  2-C ,  8-H ) :   0.7473
B(  3-C ,  4-C ) :   1.2022 B(  3-C ,  9-H ) :   0.7473 B(  3-C , 10-H ) :   0.7473
B(  4-C , 11-H ) :   0.7473 B(  4-C , 12-H ) :   0.7473 B(  5-H ,  6-H ) :  -0.1820
B(  7-H ,  8-H ) :  -0.1820 B(  9-H , 10-H ) :  -0.1820 B( 11-H , 12-H ) :  -0.1820

MP2 TOTAL ENERGY:     -194.650506911 Eh
FINAL SINGLE POINT ENERGY      -194.650506910549

DIPOLE MOMENT
-------------
                                X             Y             Z
Electronic contribution:      0.00000      -0.00000       0.00000
Nuclear contribution   :      0.00000       0.00000       0.00000
                        -----------------------------------------
Total Dipole Moment    :      0.00000      -0.00000       0.00000
                        -----------------------------------------
Magnitude (a.u.)       :      0.00000
Magnitude (Debye)      :      0.00000

Rotational constants in cm-1:     0.354427     0.139656     0.139656
Rotational constants in MHz : 10625.465361  4186.775882  4186.775882

                             ****ORCA TERMINATED NORMALLY****
TOTAL RUN TIME: 0 days 0 hours 0 minutes 53 seconds 49 msec
