                         Program Version 5.0.3 -  RELEASE  -
|  1> !ri-mp2 aug-cc-pvdz aug-cc-pvdz/c tightscf
|  2> %pal nprocs 16 end
|  3>
|  4> * xyz 0 1
|  5> C     -2.865077    0.100616    0.165518
|  6> C     -2.070507    1.223857    0.366327
|  7> C     -2.286294   -1.104138   -0.223924
|  8> C     -0.692839    1.148380    0.186907
|  9> C     -0.911773   -1.187321   -0.409725
| 10> C     -0.127095   -0.061385   -0.186065
| 11> C      2.115664   -0.968781    1.096612
| 12> O      2.191158    1.279499   -0.345256
| 13> S      1.671473   -0.126541   -0.469671
| 14> H     -3.936059    0.164368    0.301992
| 15> H     -2.522707    2.162209    0.657897
| 16> H     -2.905625   -1.974771   -0.391995
| 17> H     -0.051411    2.009136    0.320028
| 18> H     -0.461290   -2.117623   -0.732907
| 19> H      1.639276   -1.946560    1.131766
| 20> H      1.794165   -0.342110    1.925393
| 21> H      3.198354   -1.073357    1.090709
| 22> *
| 23>
| 24>                          ****END OF INPUT****

CARTESIAN COORDINATES (ANGSTROEM)
---------------------------------
  C     -2.865077    0.100616    0.165518
  C     -2.070507    1.223857    0.366327
  C     -2.286294   -1.104138   -0.223924
  C     -0.692839    1.148380    0.186907
  C     -0.911773   -1.187321   -0.409725
  C     -0.127095   -0.061385   -0.186065
  C      2.115664   -0.968781    1.096612
  O      2.191158    1.279499   -0.345256
  S      1.671473   -0.126541   -0.469671
  H     -3.936059    0.164368    0.301992
  H     -2.522707    2.162209    0.657897
  H     -2.905625   -1.974771   -0.391995
  H     -0.051411    2.009136    0.320028
  H     -0.461290   -2.117623   -0.732907
  H      1.639276   -1.946560    1.131766
  H      1.794165   -0.342110    1.925393
  H      3.198354   -1.073357    1.090709

 Total Charge           Charge          ....    0
 Multiplicity           Mult            ....    1
 Number of Electrons    NEL             ....   74
 Basis Dimension        Dim             ....  283

ORBITAL ENERGIES
----------------

  NO   OCC          E(Eh)            E(eV)
   0   2.0000     -92.083181     -2505.7107
   1   2.0000     -20.517365      -558.3059
   2   2.0000     -11.276803      -306.8574
   3   2.0000     -11.271556      -306.7146
   4   2.0000     -11.264672      -306.5273
   5   2.0000     -11.258636      -306.3631
   6   2.0000     -11.257240      -306.3251
   7   2.0000     -11.255830      -306.2867
   8   2.0000     -11.254680      -306.2554
   9   2.0000      -9.071301      -246.8426
  10   2.0000      -6.753684      -183.7771
  11   2.0000      -6.752804      -183.7531
  12   2.0000      -6.750872      -183.7006
  13   2.0000      -1.340521       -36.4774
  14   2.0000      -1.177946       -32.0536
  15   2.0000      -1.065611       -28.9968
  16   2.0000      -1.037586       -28.2341
  17   2.0000      -1.011577       -27.5264
  18   2.0000      -0.885681       -24.1006
  19   2.0000      -0.849071       -23.1044
  20   2.0000      -0.804788       -21.8994
  21   2.0000      -0.718660       -19.5557
  22   2.0000      -0.653561       -17.7843
  23   2.0000      -0.649148       -17.6642
  24   2.0000      -0.624560       -16.9952
  25   2.0000      -0.617099       -16.7921
  26   2.0000      -0.606295       -16.4981
  27   2.0000      -0.589225       -16.0336
  28   2.0000      -0.575607       -15.6631
  29   2.0000      -0.531525       -14.4635
  30   2.0000      -0.518171       -14.1001
  31   2.0000      -0.516265       -14.0483
  32   2.0000      -0.510056       -13.8793
  33   2.0000      -0.419776       -11.4227
  34   2.0000      -0.386368       -10.5136
  35   2.0000      -0.354119        -9.6361
  36   2.0000      -0.342447        -9.3184
  37   0.0000       0.029454         0.8015
  38   0.0000       0.036652         0.9973
  39   0.0000       0.041810         1.1377
  40   0.0000       0.051060         1.3894
  41   0.0000       0.056480         1.5369

MULLIKEN ATOMIC CHARGES
-----------------------
   0 C :    0.398600
   1 C :    0.683813
   2 C :    0.701053
   3 C :   -0.219216
   4 C :    0.082410
   5 C :    0.764010
   6 C :    0.101422
   7 O :   -1.183463
   8 S :    1.179517
   9 H :   -0.442569
  10 H :   -0.437112
  11 H :   -0.445638
  12 H :   -0.531375
  13 H :   -0.495549
  14 H :   -0.064137
  15 H :   -0.020854
  16 H :   -0.070911
Sum of atomic charges:    0.0000000

LOEWDIN ATOMIC CHARGES
----------------------
   0 C :    0.015399
   1 C :    0.019353
   2 C :    0.009055
   3 C :    0.000709
   4 C :   -0.017019
   5 C :   -0.356021
   6 C :   -0.001129
   7 O :   -0.546611
   8 S :    1.028587
   9 H :    0.002328
  10 H :    0.002978
  11 H :    0.001757
  12 H :   -0.006605
  13 H :    0.000015
  14 H :   -0.054670
  15 H :   -0.043263
  16 H :   -0.054864

  Mayer bond orders larger than 0.100000
B(  0-C ,  1-C ) :   1.6708 B(  0-C ,  2-C ) :   1.6725 B(  0-C ,  3-C ) :   0.1332
B(  0-C ,  4-C ) :   0.1534 B(  0-C ,  9-H ) :   0.3574 B(  0-C , 10-H ) :   0.1197
B(  0-C , 11-H ) :   0.1910 B(  1-C ,  3-C ) :   1.8559 B(  1-C ,  4-C ) :   0.1204
B(  1-C ,  5-C ) :  -0.2851 B(  1-C ,  9-H ) :   0.1979 B(  1-C , 10-H ) :   0.2129
B(  1-C , 12-H ) :   0.1878 B(  2-C ,  4-C ) :   1.7984 B(  2-C ,  5-C ) :  -0.2327
B(  2-C ,  9-H ) :   0.1838 B(  2-C , 10-H ) :  -0.1052 B(  2-C , 11-H ) :   0.2521
B(  3-C ,  5-C ) :   1.7168 B(  3-C , 10-H ) :   0.4163 B(  3-C , 11-H ) :   0.1042
B(  3-C , 12-H ) :   0.2278 B(  4-C ,  5-C ) :   1.4057 B(  4-C ,  8-S ) :  -0.1614
B(  4-C , 11-H ) :   0.3298 B(  4-C , 13-H ) :   0.2361 B(  5-C ,  6-C ) :  -0.1380
B(  5-C ,  7-O ) :   0.1210 B(  5-C ,  8-S ) :   0.8863 B(  5-C , 11-H ) :  -0.1005
B(  5-C , 12-H ) :   0.2752 B(  5-C , 13-H ) :   0.4232 B(  6-C ,  8-S ) :   1.0066
B(  6-C , 14-H ) :   0.9772 B(  6-C , 15-H ) :   0.9795 B(  6-C , 16-H ) :   0.9968
B(  7-O ,  8-S ) :   0.7537

MP2 TOTAL ENERGY:     -743.419877068 Eh
FINAL SINGLE POINT ENERGY      -743.419877067830

DIPOLE MOMENT
-------------
                                X             Y             Z
Electronic contribution:      2.18358       1.73264      -3.67018
Nuclear contribution   :     -3.23388      -3.06765       4.27433
                        -----------------------------------------
Total Dipole Moment    :     -1.05030      -1.33501       0.60416
                        -----------------------------------------
Magnitude (a.u.)       :      1.80288
Magnitude (Debye)      :      4.58257

Rotational constants in cm-1:     0.104155     0.031671     0.027108
Rotational constants in MHz :  3122.481385   949.487424   812.683839

                             ****ORCA TERMINATED NORMALLY****
TOTAL RUN TIME: 0 days 0 hours 1 minutes 24 seconds 860 msec
