                         Program Version 5.0.3 -  RELEASE  -
|  1> !ri-mp2 aug-cc-pvdz aug-cc-pvdz/c tightscf
|  2> %pal nprocs 16 end
|  3>
|  4> * xyz 0 1
|  5> C     0.000000    0.000000     0.251893
|  6> F     0.000000    0.000000     1.591574
|  7> Cl    0.000000    1.691025    -0.310500
|  8> Cl    1.464470   -0.845512    -0.310500
|  9> Cl   -1.464470   -0.845512    -0.310500
| 10> *
| 11>
| 12>                          ****END OF INPUT****

CARTESIAN COORDINATES (ANGSTROEM)
---------------------------------
  C      0.000000    0.000000    0.251893
  F      0.000000    0.000000    1.591574
  Cl     0.000000    1.691025   -0.310500
  Cl     1.464470   -0.845512   -0.310500
  Cl    -1.464470   -0.845512   -0.310500

 Total Charge           Charge          ....    0
 Multiplicity           Mult            ....    1
 Number of Electrons    NEL             ....   66
 Basis Dimension        Dim             ....  127

ORBITAL ENERGIES
----------------

  NO   OCC          E(Eh)            E(eV)
   0   2.0000    -104.880171     -2853.9345
   1   2.0000    -104.880171     -2853.9345
   2   2.0000    -104.880170     -2853.9345
   3   2.0000     -26.381138      -717.8673
   4   2.0000     -11.537253      -313.9446
   5   2.0000     -10.606754      -288.6245
   6   2.0000     -10.606754      -288.6245
   7   2.0000     -10.606709      -288.6232
   8   2.0000      -8.074441      -219.7167
   9   2.0000      -8.074441      -219.7167
  10   2.0000      -8.074437      -219.7166
  11   2.0000      -8.070589      -219.6119
  12   2.0000      -8.070589      -219.6119
  13   2.0000      -8.070587      -219.6118
  14   2.0000      -8.070579      -219.6116
  15   2.0000      -8.070577      -219.6116
  16   2.0000      -8.070577      -219.6116
  17   2.0000      -1.702994       -46.3408
  18   2.0000      -1.242490       -33.8099
  19   2.0000      -1.135659       -30.9029
  20   2.0000      -1.135659       -30.9029
  21   2.0000      -0.905502       -24.6400
  22   2.0000      -0.768537       -20.9130
  23   2.0000      -0.768537       -20.9130
  24   2.0000      -0.743550       -20.2330
  25   2.0000      -0.607305       -16.5256
  26   2.0000      -0.607305       -16.5256
  27   2.0000      -0.525677       -14.3044
  28   2.0000      -0.512349       -13.9417
  29   2.0000      -0.512349       -13.9417
  30   2.0000      -0.480153       -13.0656
  31   2.0000      -0.480153       -13.0656
  32   2.0000      -0.465644       -12.6708
  33   0.0000       0.057453         1.5634
  34   0.0000       0.081846         2.2271
  35   0.0000       0.081846         2.2271
  36   0.0000       0.090550         2.4640
  37   0.0000       0.111256         3.0274

MULLIKEN ATOMIC CHARGES
-----------------------
   0 C :   -0.103541
   1 F :   -0.420183
   2 Cl:    0.174575
   3 Cl:    0.174575
   4 Cl:    0.174575
Sum of atomic charges:    0.0000000

LOEWDIN ATOMIC CHARGES
----------------------
   0 C :   -1.376737
   1 F :   -0.043786
   2 Cl:    0.473507
   3 Cl:    0.473508
   4 Cl:    0.473508

  Mayer bond orders larger than 0.100000
B(  0-C ,  1-F ) :   0.4295 B(  0-C ,  2-Cl) :   1.1418 B(  0-C ,  3-Cl) :   1.1418
B(  0-C ,  4-Cl) :   1.1418

MP2 TOTAL ENERGY:    -1516.596485549 Eh
FINAL SINGLE POINT ENERGY     -1516.596485549443

DIPOLE MOMENT
-------------
                                X             Y             Z
Electronic contribution:      0.00000      -0.00000       0.02378
Nuclear contribution   :      0.00000      -0.00000      -0.21581
                        -----------------------------------------
Total Dipole Moment    :      0.00000      -0.00000      -0.19203
                        -----------------------------------------
Magnitude (a.u.)       :      0.19203
Magnitude (Debye)      :      0.48810

Rotational constants in cm-1:     0.079815     0.079815     0.055427
Rotational constants in MHz :  2392.783022  2392.782270  1661.665367

                             ****ORCA TERMINATED NORMALLY****
TOTAL RUN TIME: 0 days 0 hours 0 minutes 43 seconds 296 msec
