                         Program Version 5.0.3 -  RELEASE  -
|  1> !ri-mp2 aug-cc-pvdz aug-cc-pvdz/c tightscf
|  2> %pal nprocs 16 end
|  3>
|  4> * xyz 0 1
|  5> C     -2.277189    0.125824    0.212360
|  6> H     -2.220830    0.016412    1.295791
|  7> H     -2.855694    1.024383   -0.016248
|  8> H     -2.824192   -0.729215   -0.185129
|  9> S      0.123265   -1.298216   -0.068974
| 10> C      1.676730   -0.364875    0.283148
| 11> H      2.502112   -0.834989   -0.246639
| 12> H      1.880084   -0.410297    1.352120
| 13> C     -0.886248    0.229699   -0.395836
| 14> H     -0.974067    0.321657   -1.479581
| 15> C      1.420648    1.071535   -0.176011
| 16> H      1.587312    1.148737   -1.252546
| 17> H      2.105520    1.766873    0.312872
| 18> C     -0.039816    1.384131    0.141919
| 19> H     -0.360577    2.332565   -0.294901
| 20> H     -0.176661    1.457447    1.224367
| 21> *
| 22>
| 23>                          ****END OF INPUT****

CARTESIAN COORDINATES (ANGSTROEM)
---------------------------------
  C     -2.277189    0.125824    0.212360
  H     -2.220830    0.016412    1.295791
  H     -2.855694    1.024383   -0.016248
  H     -2.824192   -0.729215   -0.185129
  S      0.123265   -1.298216   -0.068974
  C      1.676730   -0.364875    0.283148
  H      2.502112   -0.834989   -0.246639
  H      1.880084   -0.410297    1.352120
  C     -0.886248    0.229699   -0.395836
  H     -0.974067    0.321657   -1.479581
  C      1.420648    1.071535   -0.176011
  H      1.587312    1.148737   -1.252546
  H      2.105520    1.766873    0.312872
  C     -0.039816    1.384131    0.141919
  H     -0.360577    2.332565   -0.294901
  H     -0.176661    1.457447    1.224367

 Total Charge           Charge          ....    0
 Multiplicity           Mult            ....    1
 Number of Electrons    NEL             ....   56
 Basis Dimension        Dim             ....  232

ORBITAL ENERGIES
----------------

  NO   OCC          E(Eh)            E(eV)
   0   2.0000     -91.933175     -2501.6289
   1   2.0000     -11.264343      -306.5183
   2   2.0000     -11.257701      -306.3376
   3   2.0000     -11.237923      -305.7994
   4   2.0000     -11.235679      -305.7384
   5   2.0000     -11.226320      -305.4837
   6   2.0000      -8.934908      -243.1312
   7   2.0000      -6.616668      -180.0487
   8   2.0000      -6.615579      -180.0191
   9   2.0000      -6.613550      -179.9638
  10   2.0000      -1.130818       -30.7711
  11   2.0000      -1.026028       -27.9196
  12   2.0000      -0.966482       -26.2993
  13   2.0000      -0.903038       -24.5729
  14   2.0000      -0.793300       -21.5868
  15   2.0000      -0.760513       -20.6946
  16   2.0000      -0.651902       -17.7392
  17   2.0000      -0.629629       -17.1331
  18   2.0000      -0.604848       -16.4587
  19   2.0000      -0.570072       -15.5124
  20   2.0000      -0.557996       -15.1839
  21   2.0000      -0.517667       -14.0864
  22   2.0000      -0.495049       -13.4710
  23   2.0000      -0.477978       -13.0065
  24   2.0000      -0.476689       -12.9714
  25   2.0000      -0.454811       -12.3760
  26   2.0000      -0.412200       -11.2165
  27   2.0000      -0.328101        -8.9281
  28   0.0000       0.035212         0.9582
  29   0.0000       0.042434         1.1547
  30   0.0000       0.046497         1.2652
  31   0.0000       0.050047         1.3619
  32   0.0000       0.063343         1.7237

MULLIKEN ATOMIC CHARGES
-----------------------
   0 C :    0.581830
   1 H :   -0.025792
   2 H :   -0.044431
   3 H :   -0.075025
   4 S :    0.385901
   5 C :    0.007599
   6 H :   -0.087594
   7 H :   -0.108546
   8 C :   -0.462434
   9 H :   -0.206444
  10 C :    0.381314
  11 H :   -0.184038
  12 H :   -0.071558
  13 C :    0.231357
  14 H :   -0.128211
  15 H :   -0.193928
Sum of atomic charges:    0.0000000

LOEWDIN ATOMIC CHARGES
----------------------
   0 C :    0.099005
   1 H :   -0.018236
   2 H :   -0.014827
   3 H :   -0.021107
   4 S :    0.845407
   5 C :   -0.257250
   6 H :   -0.038085
   7 H :   -0.037544
   8 C :   -0.469990
   9 H :   -0.008398
  10 C :   -0.081349
  11 H :    0.014225
  12 H :    0.012893
  13 C :   -0.063290
  14 H :    0.019977
  15 H :    0.018569

  Mayer bond orders larger than 0.100000
B(  0-C ,  1-H ) :   0.9599 B(  0-C ,  2-H ) :   0.8254 B(  0-C ,  3-H ) :   0.8710
B(  0-C ,  8-C ) :   1.2601 B(  3-H ,  8-C ) :   0.1127 B(  4-S ,  5-C ) :   1.1107
B(  4-S ,  8-C ) :   0.8331 B(  4-S , 10-C ) :  -0.1358 B(  5-C ,  6-H ) :   0.8828
B(  5-C ,  7-H ) :   0.8776 B(  5-C , 10-C ) :   1.2387 B(  6-H ,  7-H ) :  -0.1084
B(  6-H , 10-C ) :   0.1085 B(  8-C ,  9-H ) :   0.7180 B(  8-C , 13-C ) :   1.1851
B(  9-H , 13-C ) :   0.1990 B( 10-C , 11-H ) :   0.7589 B( 10-C , 12-H ) :   0.8324
B( 10-C , 13-C ) :   1.1877 B( 11-H , 12-H ) :  -0.1224 B( 13-C , 14-H ) :   0.7349
B( 13-C , 15-H ) :   0.8860 B( 14-H , 15-H ) :  -0.1078

MP2 TOTAL ENERGY:     -593.604836758 Eh
FINAL SINGLE POINT ENERGY      -593.604836758259

DIPOLE MOMENT
-------------
                                X             Y             Z
Electronic contribution:      1.53023      -5.42767      -0.73138
Nuclear contribution   :     -1.37986       6.31231       0.73298
                        -----------------------------------------
Total Dipole Moment    :      0.15037       0.88464       0.00161
                        -----------------------------------------
Magnitude (a.u.)       :      0.89733
Magnitude (Debye)      :      2.28084

Rotational constants in cm-1:     0.139515     0.092263     0.060854
Rotational constants in MHz :  4182.563957  2765.973836  1824.351987

                             ****ORCA TERMINATED NORMALLY****
TOTAL RUN TIME: 0 days 0 hours 1 minutes 0 seconds 235 msec
