                         Program Version 5.0.3 -  RELEASE  -
|  1> !ri-mp2 aug-cc-pvdz aug-cc-pvdz/c tightscf
|  2> %pal nprocs 16 end
|  3>
|  4> * xyz 0 1
|  5> C      0.000000    0.336443    0.000000
|  6> C     -0.894961   -0.655241    0.000000
|  7> C      1.437530    0.059783    0.000000
|  8> C     -2.376114   -0.496353    0.000000
|  9> O      2.302239    0.907893    0.000000
| 10> H     -0.296890    1.379137    0.000000
| 11> H     -0.520454   -1.676347    0.000000
| 12> H      1.704005   -1.017594    0.000000
| 13> H     -2.814656   -0.983507    0.874815
| 14> H     -2.814656   -0.983507   -0.874815
| 15> H     -2.673991    0.550880    0.000000
| 16> *
| 17>
| 18>                          ****END OF INPUT****

CARTESIAN COORDINATES (ANGSTROEM)
---------------------------------
  C      0.000000    0.336443    0.000000
  C     -0.894961   -0.655241    0.000000
  C      1.437530    0.059783    0.000000
  C     -2.376114   -0.496353    0.000000
  O      2.302239    0.907893    0.000000
  H     -0.296890    1.379137    0.000000
  H     -0.520454   -1.676347    0.000000
  H      1.704005   -1.017594    0.000000
  H     -2.814656   -0.983507    0.874815
  H     -2.814656   -0.983507   -0.874815
  H     -2.673991    0.550880    0.000000

 Total Charge           Charge          ....    0
 Multiplicity           Mult            ....    1
 Number of Electrons    NEL             ....   38
 Basis Dimension        Dim             ....  169

ORBITAL ENERGIES
----------------

  NO   OCC          E(Eh)            E(eV)
   0   2.0000     -20.559876      -559.4627
   1   2.0000     -11.337396      -308.5062
   2   2.0000     -11.281448      -306.9838
   3   2.0000     -11.253460      -306.2222
   4   2.0000     -11.248876      -306.0975
   5   2.0000      -1.390018       -37.8243
   6   2.0000      -1.111593       -30.2480
   7   2.0000      -0.990829       -26.9618
   8   2.0000      -0.839565       -22.8457
   9   2.0000      -0.783186       -21.3116
  10   2.0000      -0.679171       -18.4812
  11   2.0000      -0.648864       -17.6565
  12   2.0000      -0.594073       -16.1656
  13   2.0000      -0.592813       -16.1313
  14   2.0000      -0.567034       -15.4298
  15   2.0000      -0.535904       -14.5827
  16   2.0000      -0.531868       -14.4729
  17   2.0000      -0.423004       -11.5105
  18   2.0000      -0.383132       -10.4256
  19   0.0000       0.029418         0.8005
  20   0.0000       0.041197         1.1210
  21   0.0000       0.049982         1.3601
  22   0.0000       0.051263         1.3949
  23   0.0000       0.066150         1.8000

MULLIKEN ATOMIC CHARGES
-----------------------
   0 C :    0.668610
   1 C :    0.157148
   2 C :    0.730041
   3 C :    0.182573
   4 O :   -0.729543
   5 H :   -0.462707
   6 H :   -0.454913
   7 H :   -0.149181
   8 H :    0.083766
   9 H :    0.083766
  10 H :   -0.109558
Sum of atomic charges:    0.0000000

LOEWDIN ATOMIC CHARGES
----------------------
   0 C :   -0.000277
   1 C :   -0.024483
   2 C :   -0.120446
   3 C :    0.148356
   4 O :    0.008198
   5 H :    0.004077
   6 H :    0.005594
   7 H :    0.010221
   8 H :   -0.009437
   9 H :   -0.009437
  10 H :   -0.012367

  Mayer bond orders larger than 0.100000
B(  0-C ,  1-C ) :   2.0299 B(  0-C ,  2-C ) :   1.1235 B(  0-C ,  3-C ) :  -0.1521
B(  0-C ,  5-H ) :   0.5562 B(  1-C ,  3-C ) :   1.3053 B(  1-C ,  5-H ) :   0.1551
B(  1-C ,  6-H ) :   0.7108 B(  2-C ,  4-O ) :   1.4817 B(  2-C ,  7-H ) :   0.8545
B(  3-C ,  8-H ) :   0.8823 B(  3-C ,  9-H ) :   0.8823 B(  3-C , 10-H ) :   0.9670

MP2 TOTAL ENERGY:     -230.582123379 Eh
FINAL SINGLE POINT ENERGY      -230.582123378930

DIPOLE MOMENT
-------------
                                X             Y             Z
Electronic contribution:      5.98233       1.80068      -0.00000
Nuclear contribution   :     -7.51468      -2.76607       0.00000
                        -----------------------------------------
Total Dipole Moment    :     -1.53235      -0.96539      -0.00000
                        -----------------------------------------
Magnitude (a.u.)       :      1.81110
Magnitude (Debye)      :      4.60345

Rotational constants in cm-1:     1.110886     0.072877     0.069258
Rotational constants in MHz : 33303.526914  2184.803321  2076.290147

                             ****ORCA TERMINATED NORMALLY****
TOTAL RUN TIME: 0 days 0 hours 0 minutes 46 seconds 298 msec
