                         Program Version 5.0.3 -  RELEASE  -
|  1> !ri-mp2 aug-cc-pvdz aug-cc-pvdz/c tightscf
|  2> %pal nprocs 16 end
|  3>
|  4> * xyz 0 1
|  5> S     -0.904941   -0.785080   -0.000054
|  6> O      2.696807    0.929615    0.000054
|  7> O      1.923496   -1.150439   -0.000102
|  8> N     -3.304099    0.760189    0.000086
|  9> C      0.294332    0.611111    0.000040
| 10> C      1.693547    0.022896   -0.000011
| 11> C     -2.320544    0.152967    0.000030
| 12> H      0.138262    1.224382    0.886861
| 13> H      0.138251    1.224511   -0.886690
| 14> H      2.364788    1.835806    0.000127
| 15> *
| 16>
| 17>                          ****END OF INPUT****

CARTESIAN COORDINATES (ANGSTROEM)
---------------------------------
  S     -0.904941   -0.785080   -0.000054
  O      2.696807    0.929615    0.000054
  O      1.923496   -1.150439   -0.000102
  N     -3.304099    0.760189    0.000086
  C      0.294332    0.611111    0.000040
  C      1.693547    0.022896   -0.000011
  C     -2.320544    0.152967    0.000030
  H      0.138262    1.224382    0.886861
  H      0.138251    1.224511   -0.886690
  H      2.364788    1.835806    0.000127

 Total Charge           Charge          ....    0
 Multiplicity           Mult            ....    1
 Number of Electrons    NEL             ....   60
 Basis Dimension        Dim             ....  192

ORBITAL ENERGIES
----------------

  NO   OCC          E(Eh)            E(eV)
   0   2.0000     -92.039264     -2504.5157
   1   2.0000     -20.658458      -562.1452
   2   2.0000     -20.595390      -560.4291
   3   2.0000     -15.605551      -424.6486
   4   2.0000     -11.438045      -311.2450
   5   2.0000     -11.340169      -308.5817
   6   2.0000     -11.317090      -307.9537
   7   2.0000      -9.039087      -245.9661
   8   2.0000      -6.721140      -182.8915
   9   2.0000      -6.719215      -182.8391
  10   2.0000      -6.716936      -182.7771
  11   2.0000      -1.503404       -40.9097
  12   2.0000      -1.410213       -38.3738
  13   2.0000      -1.247313       -33.9411
  14   2.0000      -1.130089       -30.7513
  15   2.0000      -0.999368       -27.1942
  16   2.0000      -0.869176       -23.6515
  17   2.0000      -0.765041       -20.8178
  18   2.0000      -0.713075       -19.4038
  19   2.0000      -0.703995       -19.1567
  20   2.0000      -0.686164       -18.6715
  21   2.0000      -0.625090       -17.0096
  22   2.0000      -0.614702       -16.7269
  23   2.0000      -0.575597       -15.6628
  24   2.0000      -0.552391       -15.0313
  25   2.0000      -0.531949       -14.4751
  26   2.0000      -0.516697       -14.0600
  27   2.0000      -0.495958       -13.4957
  28   2.0000      -0.468311       -12.7434
  29   2.0000      -0.399369       -10.8674
  30   0.0000       0.014520         0.3951
  31   0.0000       0.041963         1.1419
  32   0.0000       0.048232         1.3125
  33   0.0000       0.065005         1.7689
  34   0.0000       0.075918         2.0658

MULLIKEN ATOMIC CHARGES
-----------------------
   0 S :    0.819813
   1 O :   -0.694817
   2 O :   -0.630596
   3 N :   -0.331226
   4 C :   -0.215060
   5 C :    1.086578
   6 C :   -0.277075
   7 H :    0.016988
   8 H :    0.016990
   9 H :    0.208404
Sum of atomic charges:   -0.0000000

LOEWDIN ATOMIC CHARGES
----------------------
   0 S :    0.927233
   1 O :    0.213985
   2 O :    0.050614
   3 N :   -0.009276
   4 C :   -0.188482
   5 C :   -0.398675
   6 C :   -0.541933
   7 H :   -0.011539
   8 H :   -0.011539
   9 H :   -0.030388

  Mayer bond orders larger than 0.100000
B(  0-S ,  4-C ) :   1.0213 B(  0-S ,  6-C ) :   0.8946 B(  1-O ,  4-C ) :   0.1118
B(  1-O ,  5-C ) :   0.4604 B(  1-O ,  9-H ) :   0.9976 B(  2-O ,  5-C ) :   1.6962
B(  3-N ,  6-C ) :   2.4788 B(  4-C ,  5-C ) :   1.0314 B(  4-C ,  7-H ) :   0.9567
B(  4-C ,  8-H ) :   0.9567

MP2 TOTAL ENERGY:     -718.185519907 Eh
FINAL SINGLE POINT ENERGY      -718.185519907485

DIPOLE MOMENT
-------------
                                X             Y             Z
Electronic contribution:     -1.81929      -2.86825      -0.00020
Nuclear contribution   :      2.61951       4.14661       0.00029
                        -----------------------------------------
Total Dipole Moment    :      0.80022       1.27836       0.00009
                        -----------------------------------------
Magnitude (a.u.)       :      1.50816
Magnitude (Debye)      :      3.83343

Rotational constants in cm-1:     0.223519     0.036477     0.031545
Rotational constants in MHz :  6700.931449  1093.553838   945.707939

                             ****ORCA TERMINATED NORMALLY****
TOTAL RUN TIME: 0 days 0 hours 0 minutes 46 seconds 115 msec
