                         Program Version 5.0.3 -  RELEASE  -
|  1> !ri-mp2 aug-cc-pvdz aug-cc-pvdz/c tightscf
|  2> %pal nprocs 16 end
|  3>
|  4> * xyz 0 1
|  5> C      0.000000    0.000000    2.819994
|  6> C      0.000000    0.000000   -2.819994
|  7> C      0.000000    1.212111    0.691573
|  8> C      0.000000    1.212111   -0.691573
|  9> C      0.000000   -1.212111    0.691573
| 10> C      0.000000   -1.212111   -0.691573
| 11> C      0.000000    0.000000    1.390135
| 12> C      0.000000    0.000000   -1.390135
| 13> N      0.000000    0.000000    3.971955
| 14> N      0.000000    0.000000   -3.971955
| 15> H      0.000000    2.144546    1.236677
| 16> H      0.000000    2.144546   -1.236677
| 17> H      0.000000   -2.144546    1.236677
| 18> H      0.000000   -2.144546   -1.236677
| 19> *
| 20>
| 21>                          ****END OF INPUT****

CARTESIAN COORDINATES (ANGSTROEM)
---------------------------------
  C      0.000000    0.000000    2.819994
  C      0.000000    0.000000   -2.819994
  C      0.000000    1.212111    0.691573
  C      0.000000    1.212111   -0.691573
  C      0.000000   -1.212111    0.691573
  C      0.000000   -1.212111   -0.691573
  C      0.000000    0.000000    1.390135
  C      0.000000    0.000000   -1.390135
  N      0.000000    0.000000    3.971955
  N      0.000000    0.000000   -3.971955
  H      0.000000    2.144546    1.236677
  H      0.000000    2.144546   -1.236677
  H      0.000000   -2.144546    1.236677
  H      0.000000   -2.144546   -1.236677

 Total Charge           Charge          ....    0
 Multiplicity           Mult            ....    1
 Number of Electrons    NEL             ....   66
 Basis Dimension        Dim             ....  266

ORBITAL ENERGIES
----------------

  NO   OCC          E(Eh)            E(eV)
   0   2.0000     -15.605729      -424.6535
   1   2.0000     -15.605728      -424.6535
   2   2.0000     -11.325817      -308.1911
   3   2.0000     -11.325796      -308.1906
   4   2.0000     -11.305105      -307.6276
   5   2.0000     -11.305105      -307.6275
   6   2.0000     -11.302190      -307.5482
   7   2.0000     -11.302128      -307.5465
   8   2.0000     -11.300902      -307.5132
   9   2.0000     -11.300883      -307.5127
  10   2.0000      -1.256615       -34.1942
  11   2.0000      -1.249532       -34.0015
  12   2.0000      -1.215668       -33.0800
  13   2.0000      -1.109193       -30.1827
  14   2.0000      -1.082109       -29.4457
  15   2.0000      -0.948701       -25.8155
  16   2.0000      -0.894844       -24.3499
  17   2.0000      -0.797153       -21.6916
  18   2.0000      -0.788665       -21.4607
  19   2.0000      -0.702852       -19.1256
  20   2.0000      -0.670645       -18.2492
  21   2.0000      -0.648516       -17.6470
  22   2.0000      -0.615715       -16.7544
  23   2.0000      -0.590437       -16.0666
  24   2.0000      -0.579379       -15.7657
  25   2.0000      -0.567189       -15.4340
  26   2.0000      -0.564356       -15.3569
  27   2.0000      -0.535715       -14.5775
  28   2.0000      -0.490243       -13.3402
  29   2.0000      -0.489639       -13.3237
  30   2.0000      -0.484387       -13.1808
  31   2.0000      -0.394446       -10.7334
  32   2.0000      -0.378288       -10.2937
  33   0.0000       0.022006         0.5988
  34   0.0000       0.025141         0.6841
  35   0.0000       0.032482         0.8839
  36   0.0000       0.046835         1.2745
  37   0.0000       0.055815         1.5188

MULLIKEN ATOMIC CHARGES
-----------------------
   0 C :   -1.197440
   1 C :   -1.197440
   2 C :    0.121052
   3 C :    0.121052
   4 C :    0.121052
   5 C :    0.121052
   6 C :    2.272917
   7 C :    2.272917
   8 N :   -0.189820
   9 N :   -0.189820
  10 H :   -0.563881
  11 H :   -0.563881
  12 H :   -0.563881
  13 H :   -0.563881
Sum of atomic charges:    0.0000000

LOEWDIN ATOMIC CHARGES
----------------------
   0 C :   -0.113201
   1 C :   -0.113201
   2 C :    0.081727
   3 C :    0.081727
   4 C :    0.081727
   5 C :    0.081727
   6 C :   -0.195612
   7 C :   -0.195612
   8 N :    0.101392
   9 N :    0.101392
  10 H :    0.021983
  11 H :    0.021983
  12 H :    0.021983
  13 H :    0.021983

  Mayer bond orders larger than 0.100000
B(  0-C ,  2-C ) :  -0.2207 B(  0-C ,  4-C ) :  -0.2207 B(  0-C ,  6-C ) :  -0.9497
B(  0-C ,  8-N ) :   2.5507 B(  1-C ,  3-C ) :  -0.2207 B(  1-C ,  5-C ) :  -0.2207
B(  1-C ,  7-C ) :  -0.9497 B(  1-C ,  9-N ) :   2.5507 B(  2-C ,  3-C ) :   2.8099
B(  2-C ,  4-C ) :  -0.5649 B(  2-C ,  6-C ) :   1.3437 B(  2-C ,  7-C ) :  -0.4014
B(  2-C , 11-H ) :   0.4281 B(  3-C ,  5-C ) :  -0.5649 B(  3-C ,  6-C ) :  -0.4014
B(  3-C ,  7-C ) :   1.3437 B(  3-C , 10-H ) :   0.4281 B(  4-C ,  5-C ) :   2.8099
B(  4-C ,  6-C ) :   1.3437 B(  4-C ,  7-C ) :  -0.4014 B(  4-C , 13-H ) :   0.4281
B(  5-C ,  6-C ) :  -0.4014 B(  5-C ,  7-C ) :   1.3437 B(  5-C , 12-H ) :   0.4281
B(  6-C ,  7-C ) :   0.6652 B(  6-C ,  8-N ) :  -0.2235 B(  6-C , 10-H ) :   0.4630
B(  6-C , 11-H ) :  -0.1232 B(  6-C , 12-H ) :   0.4630 B(  6-C , 13-H ) :  -0.1232
B(  7-C ,  9-N ) :  -0.2235 B(  7-C , 10-H ) :  -0.1232 B(  7-C , 11-H ) :   0.4630
B(  7-C , 12-H ) :  -0.1232 B(  7-C , 13-H ) :   0.4630

MP2 TOTAL ENERGY:     -415.576154746 Eh
FINAL SINGLE POINT ENERGY      -415.576154745577

DIPOLE MOMENT
-------------
                                X             Y             Z
Electronic contribution:      0.00000       0.00000      -0.00000
Nuclear contribution   :      0.00000       0.00000       0.00000
                        -----------------------------------------
Total Dipole Moment    :      0.00000       0.00000      -0.00000
                        -----------------------------------------
Magnitude (a.u.)       :      0.00000
Magnitude (Debye)      :      0.00000

Rotational constants in cm-1:     0.189135     0.023791     0.021133
Rotational constants in MHz :  5670.116393   713.249626   633.554207

                             ****ORCA TERMINATED NORMALLY****
TOTAL RUN TIME: 0 days 0 hours 1 minutes 14 seconds 675 msec
