                         Program Version 5.0.3 -  RELEASE  -
|  1> !ri-mp2 aug-cc-pvdz aug-cc-pvdz/c tightscf
|  2> %pal nprocs 16 end
|  3>
|  4> * xyz 0 1
|  5> C      0.000000    0.000000    0.669101
|  6> C      0.000000    0.000000   -0.669101
|  7> Cl     0.000000    1.454916    1.595675
|  8> Cl     0.000000   -1.454916    1.595675
|  9> Cl     0.000000   -1.454916   -1.595675
| 10> Cl     0.000000    1.454916   -1.595675
| 11> *
| 12>
| 13>                          ****END OF INPUT****

CARTESIAN COORDINATES (ANGSTROEM)
---------------------------------
  C      0.000000    0.000000    0.669101
  C      0.000000    0.000000   -0.669101
  Cl     0.000000    1.454916    1.595675
  Cl     0.000000   -1.454916    1.595675
  Cl     0.000000   -1.454916   -1.595675
  Cl     0.000000    1.454916   -1.595675

 Total Charge           Charge          ....    0
 Multiplicity           Mult            ....    1
 Number of Electrons    NEL             ....   80
 Basis Dimension        Dim             ....  154

ORBITAL ENERGIES
----------------

  NO   OCC          E(Eh)            E(eV)
   0   2.0000    -104.878628     -2853.8926
   1   2.0000    -104.878628     -2853.8926
   2   2.0000    -104.878627     -2853.8925
   3   2.0000    -104.878627     -2853.8925
   4   2.0000     -11.396975      -310.1275
   5   2.0000     -11.395355      -310.0834
   6   2.0000     -10.604730      -288.5694
   7   2.0000     -10.604712      -288.5689
   8   2.0000     -10.604706      -288.5687
   9   2.0000     -10.604687      -288.5682
  10   2.0000      -8.072601      -219.6666
  11   2.0000      -8.072600      -219.6666
  12   2.0000      -8.072599      -219.6666
  13   2.0000      -8.072597      -219.6665
  14   2.0000      -8.068787      -219.5629
  15   2.0000      -8.068786      -219.5628
  16   2.0000      -8.068786      -219.5628
  17   2.0000      -8.068785      -219.5628
  18   2.0000      -8.068708      -219.5607
  19   2.0000      -8.068707      -219.5607
  20   2.0000      -8.068706      -219.5607
  21   2.0000      -8.068705      -219.5606
  22   2.0000      -1.269499       -34.5448
  23   2.0000      -1.197287       -32.5798
  24   2.0000      -1.145630       -31.1742
  25   2.0000      -1.119574       -30.4652
  26   2.0000      -0.992833       -27.0164
  27   2.0000      -0.754865       -20.5409
  28   2.0000      -0.682419       -18.5696
  29   2.0000      -0.668893       -18.2015
  30   2.0000      -0.618427       -16.8283
  31   2.0000      -0.578381       -15.7385
  32   2.0000      -0.535181       -14.5630
  33   2.0000      -0.515477       -14.0268
  34   2.0000      -0.505466       -13.7544
  35   2.0000      -0.501052       -13.6343
  36   2.0000      -0.493307       -13.4236
  37   2.0000      -0.486325       -13.2336
  38   2.0000      -0.453736       -12.3468
  39   2.0000      -0.370249       -10.0750
  40   0.0000       0.057247         1.5578
  41   0.0000       0.071757         1.9526
  42   0.0000       0.071998         1.9592
  43   0.0000       0.095076         2.5872
  44   0.0000       0.095671         2.6033

MULLIKEN ATOMIC CHARGES
-----------------------
   0 C :    0.208831
   1 C :    0.208831
   2 Cl:   -0.104415
   3 Cl:   -0.104415
   4 Cl:   -0.104415
   5 Cl:   -0.104415
Sum of atomic charges:   -0.0000000

LOEWDIN ATOMIC CHARGES
----------------------
   0 C :   -1.102217
   1 C :   -1.102217
   2 Cl:    0.551109
   3 Cl:    0.551109
   4 Cl:    0.551109
   5 Cl:    0.551109

  Mayer bond orders larger than 0.100000
B(  0-C ,  1-C ) :   1.1605 B(  0-C ,  2-Cl) :   1.1110 B(  0-C ,  3-Cl) :   1.1110
B(  0-C ,  4-Cl) :  -0.2549 B(  0-C ,  5-Cl) :  -0.2549 B(  1-C ,  2-Cl) :  -0.2549
B(  1-C ,  3-Cl) :  -0.2549 B(  1-C ,  4-Cl) :   1.1110 B(  1-C ,  5-Cl) :   1.1110

MP2 TOTAL ENERGY:    -1914.570456485 Eh
FINAL SINGLE POINT ENERGY     -1914.570456485196

DIPOLE MOMENT
-------------
                                X             Y             Z
Electronic contribution:     -0.00000       0.00000       0.00000
Nuclear contribution   :      0.00000       0.00000       0.00000
                        -----------------------------------------
Total Dipole Moment    :     -0.00000       0.00000       0.00000
                        -----------------------------------------
Magnitude (a.u.)       :      0.00000
Magnitude (Debye)      :      0.00000

Rotational constants in cm-1:     0.056158     0.045337     0.025085
Rotational constants in MHz :  1683.560711  1359.156228   752.032500

                             ****ORCA TERMINATED NORMALLY****
TOTAL RUN TIME: 0 days 0 hours 0 minutes 40 seconds 387 msec
