                         Program Version 5.0.3 -  RELEASE  -
|  1> !ri-mp2 aug-cc-pvdz aug-cc-pvdz/c tightscf
|  2> %pal nprocs 16 end
|  3>
|  4> * xyz 0 1
|  5> N     -1.772399    1.554665    0.469600
|  6> C     -1.366140    0.325170    0.092859
|  7> S     -2.456819   -0.860510   -0.315837
|  8> C      0.106704    0.129865    0.044612
|  9> C      0.966492    1.187191   -0.276202
| 10> C      2.340741    0.991999   -0.324842
| 11> C      2.877285   -0.257721   -0.040450
| 12> C      2.030458   -1.315064    0.278402
| 13> C      0.657396   -1.126729    0.311776
| 14> H     -2.760372    1.733207    0.530743
| 15> H     -1.135771    2.217677    0.877192
| 16> H      0.563130    2.157313   -0.533805
| 17> H      2.990082    1.814218   -0.593305
| 18> H      3.947644   -0.409333   -0.073904
| 19> H      2.441819   -2.290833    0.498199
| 20> H     -0.008244   -1.945015    0.544143
| 21> *
| 22>
| 23>                          ****END OF INPUT****

CARTESIAN COORDINATES (ANGSTROEM)
---------------------------------
  N     -1.772399    1.554665    0.469600
  C     -1.366140    0.325170    0.092859
  S     -2.456819   -0.860510   -0.315837
  C      0.106704    0.129865    0.044612
  C      0.966492    1.187191   -0.276202
  C      2.340741    0.991999   -0.324842
  C      2.877285   -0.257721   -0.040450
  C      2.030458   -1.315064    0.278402
  C      0.657396   -1.126729    0.311776
  H     -2.760372    1.733207    0.530743
  H     -1.135771    2.217677    0.877192
  H      0.563130    2.157313   -0.533805
  H      2.990082    1.814218   -0.593305
  H      3.947644   -0.409333   -0.073904
  H      2.441819   -2.290833    0.498199
  H     -0.008244   -1.945015    0.544143

 Total Charge           Charge          ....    0
 Multiplicity           Mult            ....    1
 Number of Electrons    NEL             ....   72
 Basis Dimension        Dim             ....  274

ORBITAL ENERGIES
----------------

  NO   OCC          E(Eh)            E(eV)
   0   2.0000     -91.901901     -2500.7779
   1   2.0000     -15.618268      -424.9947
   2   2.0000     -11.361734      -309.1685
   3   2.0000     -11.268825      -306.6403
   4   2.0000     -11.265205      -306.5418
   5   2.0000     -11.260694      -306.4191
   6   2.0000     -11.256725      -306.3111
   7   2.0000     -11.256668      -306.3095
   8   2.0000     -11.253499      -306.2233
   9   2.0000      -8.905287      -242.3252
  10   2.0000      -6.587600      -179.2577
  11   2.0000      -6.584995      -179.1868
  12   2.0000      -6.583825      -179.1550
  13   2.0000      -1.276575       -34.7374
  14   2.0000      -1.175194       -31.9786
  15   2.0000      -1.061943       -28.8969
  16   2.0000      -1.037840       -28.2411
  17   2.0000      -0.985661       -26.8212
  18   2.0000      -0.871897       -23.7255
  19   2.0000      -0.845788       -23.0151
  20   2.0000      -0.791693       -21.5431
  21   2.0000      -0.751184       -20.4408
  22   2.0000      -0.708012       -19.2660
  23   2.0000      -0.669367       -18.2144
  24   2.0000      -0.643682       -17.5155
  25   2.0000      -0.615034       -16.7359
  26   2.0000      -0.605672       -16.4812
  27   2.0000      -0.550023       -14.9669
  28   2.0000      -0.539762       -14.6877
  29   2.0000      -0.514828       -14.0092
  30   2.0000      -0.507213       -13.8020
  31   2.0000      -0.492669       -13.4062
  32   2.0000      -0.367308        -9.9950
  33   2.0000      -0.354872        -9.6566
  34   2.0000      -0.331926        -9.0322
  35   2.0000      -0.318220        -8.6592
  36   0.0000       0.025991         0.7073
  37   0.0000       0.034280         0.9328
  38   0.0000       0.041183         1.1206
  39   0.0000       0.049833         1.3560
  40   0.0000       0.052867         1.4386

MULLIKEN ATOMIC CHARGES
-----------------------
   0 N :   -0.349140
   1 C :   -0.100353
   2 S :   -0.154234
   3 C :    1.674685
   4 C :    0.157884
   5 C :    0.432050
   6 C :    0.246744
   7 C :    0.604278
   8 C :   -0.072302
   9 H :    0.020198
  10 H :   -0.021063
  11 H :   -0.616411
  12 H :   -0.449319
  13 H :   -0.430461
  14 H :   -0.433820
  15 H :   -0.508737
Sum of atomic charges:   -0.0000000

LOEWDIN ATOMIC CHARGES
----------------------
   0 N :    0.209763
   1 C :   -0.665524
   2 S :    0.545821
   3 C :   -0.204941
   4 C :    0.045483
   5 C :    0.015593
   6 C :    0.021857
   7 C :    0.022699
   8 C :    0.042626
   9 H :   -0.014277
  10 H :   -0.019965
  11 H :    0.002688
  12 H :    0.001994
  13 H :    0.004289
  14 H :    0.003764
  15 H :   -0.011869

  Mayer bond orders larger than 0.100000
B(  0-N ,  1-C ) :   0.9393 B(  0-N ,  9-H ) :   1.0695 B(  0-N , 10-H ) :   1.1375
B(  1-C ,  2-S ) :   1.8267 B(  1-C ,  3-C ) :   0.7101 B(  1-C ,  4-C ) :  -0.3474
B(  1-C ,  7-C ) :   0.1205 B(  1-C ,  8-C ) :  -0.3413 B(  1-C , 10-H ) :  -0.1637
B(  2-S ,  3-C ) :  -0.1938 B(  3-C ,  4-C ) :   1.2863 B(  3-C ,  5-C ) :  -0.2922
B(  3-C ,  6-C ) :  -0.1331 B(  3-C ,  7-C ) :  -0.3262 B(  3-C ,  8-C ) :   1.5548
B(  3-C , 11-H ) :   0.4093 B(  3-C , 15-H ) :   0.2410 B(  4-C ,  5-C ) :   1.9646
B(  4-C ,  6-C ) :   0.2007 B(  4-C ,  7-C ) :   0.1194 B(  4-C ,  8-C ) :  -0.4795
B(  4-C , 12-H ) :   0.4034 B(  5-C ,  6-C ) :   1.7143 B(  5-C ,  7-C ) :  -0.1054
B(  5-C , 11-H ) :   0.1750 B(  5-C , 12-H ) :   0.2134 B(  5-C , 13-H ) :   0.1838
B(  6-C ,  7-C ) :   1.6982 B(  6-C ,  8-C ) :   0.2100 B(  6-C , 12-H ) :   0.1582
B(  6-C , 13-H ) :   0.4031 B(  6-C , 14-H ) :   0.1884 B(  7-C ,  8-C ) :   1.8805
B(  7-C , 12-H ) :  -0.1148 B(  7-C , 13-H ) :   0.1492 B(  7-C , 14-H ) :   0.2367
B(  8-C , 14-H ) :   0.3435 B(  8-C , 15-H ) :   0.3381 B(  9-H , 10-H ) :  -0.1005

MP2 TOTAL ENERGY:     -722.442639261 Eh
FINAL SINGLE POINT ENERGY      -722.442639261058

DIPOLE MOMENT
-------------
                                X             Y             Z
Electronic contribution:     -4.74649      -1.90969      -0.66236
Nuclear contribution   :      6.01566       3.26513       1.24357
                        -----------------------------------------
Total Dipole Moment    :      1.26917       1.35544       0.58120
                        -----------------------------------------
Magnitude (a.u.)       :      1.94572
Magnitude (Debye)      :      4.94562

Rotational constants in cm-1:     0.103676     0.030982     0.024759
Rotational constants in MHz :  3108.139701   928.821524   742.260500

                             ****ORCA TERMINATED NORMALLY****
TOTAL RUN TIME: 0 days 0 hours 1 minutes 14 seconds 679 msec
