                         Program Version 5.0.3 -  RELEASE  -
|  1> !ri-mp2 aug-cc-pvdz aug-cc-pvdz/c tightscf
|  2> %pal nprocs 16 end
|  3>
|  4> * xyz 0 1
|  5> Cl     0.000000    1.435076   -0.846417
|  6> C      0.000000    0.000000    0.142885
|  7> Cl     0.000000   -1.435076   -0.846417
|  8> S      0.000000    0.000000    1.745054
|  9> *
| 10>
| 11>                          ****END OF INPUT****

CARTESIAN COORDINATES (ANGSTROEM)
---------------------------------
  Cl     0.000000    1.435076   -0.846417
  C      0.000000    0.000000    0.142885
  Cl     0.000000   -1.435076   -0.846417
  S      0.000000    0.000000    1.745054

 Total Charge           Charge          ....    0
 Multiplicity           Mult            ....    1
 Number of Electrons    NEL             ....   56
 Basis Dimension        Dim             ....  104

ORBITAL ENERGIES
----------------

  NO   OCC          E(Eh)            E(eV)
   0   2.0000    -104.885650     -2854.0836
   1   2.0000    -104.885649     -2854.0836
   2   2.0000     -91.984197     -2503.0172
   3   2.0000     -11.454416      -311.6905
   4   2.0000     -10.611961      -288.7661
   5   2.0000     -10.611929      -288.7653
   6   2.0000      -8.987824      -244.5711
   7   2.0000      -8.079655      -219.8586
   8   2.0000      -8.079652      -219.8585
   9   2.0000      -8.075936      -219.7574
  10   2.0000      -8.075933      -219.7573
  11   2.0000      -8.075708      -219.7512
  12   2.0000      -8.075706      -219.7511
  13   2.0000      -6.669556      -181.4878
  14   2.0000      -6.667582      -181.4341
  15   2.0000      -6.665446      -181.3760
  16   2.0000      -1.244516       -33.8650
  17   2.0000      -1.135494       -30.8984
  18   2.0000      -1.047144       -28.4942
  19   2.0000      -0.773229       -21.0406
  20   2.0000      -0.645079       -17.5535
  21   2.0000      -0.610199       -16.6043
  22   2.0000      -0.585173       -15.9234
  23   2.0000      -0.506291       -13.7769
  24   2.0000      -0.496009       -13.4971
  25   2.0000      -0.478063       -13.0088
  26   2.0000      -0.411198       -11.1893
  27   2.0000      -0.383619       -10.4388
  28   0.0000       0.016872         0.4591
  29   0.0000       0.059195         1.6108
  30   0.0000       0.075139         2.0446
  31   0.0000       0.082184         2.2364
  32   0.0000       0.109807         2.9880

MULLIKEN ATOMIC CHARGES
-----------------------
   0 Cl:    0.033683
   1 C :   -0.550857
   2 Cl:    0.033683
   3 S :    0.483491
Sum of atomic charges:    0.0000000

LOEWDIN ATOMIC CHARGES
----------------------
   0 Cl:    0.473520
   1 C :   -1.521775
   2 Cl:    0.473520
   3 S :    0.574734

  Mayer bond orders larger than 0.100000
B(  0-Cl,  1-C ) :   1.0390 B(  1-C ,  2-Cl) :   1.0390 B(  1-C ,  3-S ) :   1.7533

MP2 TOTAL ENERGY:    -1354.949179476 Eh
FINAL SINGLE POINT ENERGY     -1354.949179476123

DIPOLE MOMENT
-------------
                                X             Y             Z
Electronic contribution:      0.00000      -0.00000      -2.41266
Nuclear contribution   :      0.00000       0.00000       2.16608
                        -----------------------------------------
Total Dipole Moment    :      0.00000      -0.00000      -0.24658
                        -----------------------------------------
Magnitude (a.u.)       :      0.24658
Magnitude (Debye)      :      0.62676

Rotational constants in cm-1:     0.115442     0.113424     0.057212
Rotational constants in MHz :  3460.866243  3400.362208  1715.173728

                             ****ORCA TERMINATED NORMALLY****
TOTAL RUN TIME: 0 days 0 hours 0 minutes 43 seconds 145 msec
