                         Program Version 5.0.3 -  RELEASE  -
|  1> !ri-mp2 aug-cc-pvdz aug-cc-pvdz/c tightscf
|  2> %pal nprocs 16 end
|  3> %maxcore 3800
|  4>
|  5> * xyz 0 1
|  6> C     -3.388472   -0.000044    0.286846
|  7> C     -2.807439    0.000148   -0.978192
|  8> C     -2.578343   -0.000206    1.414731
|  9> C     -1.425809    0.000177   -1.109541
| 10> C     -1.192222   -0.000179    1.283865
| 11> C     -0.608039    0.000014    0.021203
| 12> C      1.023124    2.379898   -0.470319
| 13> C      1.023043   -2.379763   -0.470812
| 14> C      2.948244   -0.000221    1.058956
| 15> C      0.905320    0.000039   -0.194792
| 16> O      1.326351    1.086368   -0.980293
| 17> O      1.326380   -1.086139   -0.980478
| 18> O      1.520552   -0.000056    1.068131
| 19> H     -4.465338   -0.000067    0.390194
| 20> H     -3.431913    0.000275   -1.861615
| 21> H     -3.022627   -0.000356    2.401202
| 22> H     -0.970398    0.000327   -2.090355
| 23> H     -0.562616   -0.000306    2.160548
| 24> H      1.487995    3.084722   -1.155242
| 25> H      1.431223    2.525679    0.531882
| 26> H     -0.053609    2.559742   -0.444154
| 27> H      1.430937   -2.525742    0.531445
| 28> H      1.488048   -3.084462   -1.155774
| 29> H     -0.053696   -2.559606   -0.444897
| 30> H      3.344275    0.885053    0.560867
| 31> H      3.344088   -0.886340    0.562212
| 32> H      3.250946    0.000524    2.103146
| 33> *
| 34>
| 35>                          ****END OF INPUT****

CARTESIAN COORDINATES (ANGSTROEM)
---------------------------------
  C     -3.388472   -0.000044    0.286846
  C     -2.807439    0.000148   -0.978192
  C     -2.578343   -0.000206    1.414731
  C     -1.425809    0.000177   -1.109541
  C     -1.192222   -0.000179    1.283865
  C     -0.608039    0.000014    0.021203
  C      1.023124    2.379898   -0.470319
  C      1.023043   -2.379763   -0.470812
  C      2.948244   -0.000221    1.058956
  C      0.905320    0.000039   -0.194792
  O      1.326351    1.086368   -0.980293
  O      1.326380   -1.086139   -0.980478
  O      1.520552   -0.000056    1.068131
  H     -4.465338   -0.000067    0.390194
  H     -3.431913    0.000275   -1.861615
  H     -3.022627   -0.000356    2.401202
  H     -0.970398    0.000327   -2.090355
  H     -0.562616   -0.000306    2.160548
  H      1.487995    3.084722   -1.155242
  H      1.431223    2.525679    0.531882
  H     -0.053609    2.559742   -0.444154
  H      1.430937   -2.525742    0.531445
  H      1.488048   -3.084462   -1.155774
  H     -0.053696   -2.559606   -0.444897
  H      3.344275    0.885053    0.560867
  H      3.344088   -0.886340    0.562212
  H      3.250946    0.000524    2.103146

 Total Charge           Charge          ....    0
 Multiplicity           Mult            ....    1
 Number of Electrons    NEL             ....   98
 Basis Dimension        Dim             ....  425

ORBITAL ENERGIES
----------------

  NO   OCC          E(Eh)            E(eV)
   0   2.0000     -20.577120      -559.9319
   1   2.0000     -20.572287      -559.8004
   2   2.0000     -20.572273      -559.8000
   3   2.0000     -11.401486      -310.2502
   4   2.0000     -11.277607      -306.8793
   5   2.0000     -11.275290      -306.8163
   6   2.0000     -11.275288      -306.8162
   7   2.0000     -11.243676      -305.9560
   8   2.0000     -11.242521      -305.9246
   9   2.0000     -11.240707      -305.8752
  10   2.0000     -11.240228      -305.8621
  11   2.0000     -11.238882      -305.8255
  12   2.0000     -11.238693      -305.8204
  13   2.0000      -1.458906       -39.6988
  14   2.0000      -1.354448       -36.8564
  15   2.0000      -1.351412       -36.7738
  16   2.0000      -1.159304       -31.5463
  17   2.0000      -1.043049       -28.3828
  18   2.0000      -1.019248       -27.7351
  19   2.0000      -0.983567       -26.7642
  20   2.0000      -0.944317       -25.6962
  21   2.0000      -0.912543       -24.8316
  22   2.0000      -0.854647       -23.2561
  23   2.0000      -0.828529       -22.5454
  24   2.0000      -0.782737       -21.2994
  25   2.0000      -0.727964       -19.8089
  26   2.0000      -0.708393       -19.2764
  27   2.0000      -0.701720       -19.0948
  28   2.0000      -0.671832       -18.2815
  29   2.0000      -0.644863       -17.5476
  30   2.0000      -0.628866       -17.1123
  31   2.0000      -0.622019       -16.9260
  32   2.0000      -0.611042       -16.6273
  33   2.0000      -0.600268       -16.3341
  34   2.0000      -0.587984       -15.9999
  35   2.0000      -0.585163       -15.9231
  36   2.0000      -0.563207       -15.3257
  37   2.0000      -0.561948       -15.2914
  38   2.0000      -0.537516       -14.6265
  39   2.0000      -0.512173       -13.9369
  40   2.0000      -0.511904       -13.9296
  41   2.0000      -0.501226       -13.6390
  42   2.0000      -0.493999       -13.4424
  43   2.0000      -0.461229       -12.5507
  44   2.0000      -0.452327       -12.3085
  45   2.0000      -0.444787       -12.1033
  46   2.0000      -0.436234       -11.8705
  47   2.0000      -0.338582        -9.2133
  48   2.0000      -0.336663        -9.1611
  49   0.0000       0.032762         0.8915
  50   0.0000       0.038355         1.0437
  51   0.0000       0.042654         1.1607
  52   0.0000       0.046332         1.2608
  53   0.0000       0.053311         1.4507

MULLIKEN ATOMIC CHARGES
-----------------------
   0 C :    0.774900
   1 C :    0.465022
   2 C :    0.263229
   3 C :   -0.269232
   4 C :    0.311732
   5 C :    1.694180
   6 C :    0.861473
   7 C :    0.861461
   8 C :    0.761574
   9 C :    1.650804
  10 O :   -1.039448
  11 O :   -1.039261
  12 O :   -1.119801
  13 H :   -0.475775
  14 H :   -0.481845
  15 H :   -0.486400
  16 H :   -0.735809
  17 H :   -0.761277
  18 H :   -0.299948
  19 H :   -0.106764
  20 H :   -0.058523
  21 H :   -0.106877
  22 H :   -0.299968
  23 H :   -0.058529
  24 H :   -0.029741
  25 H :   -0.029831
  26 H :   -0.245348
Sum of atomic charges:    0.0000000

LOEWDIN ATOMIC CHARGES
----------------------
   0 C :    0.009434
   1 C :    0.014748
   2 C :    0.013940
   3 C :    0.058039
   4 C :    0.055198
   5 C :   -0.141847
   6 C :    0.160082
   7 C :    0.160078
   8 C :    0.160910
   9 C :   -0.406696
  10 O :    0.035360
  11 O :    0.035372
  12 O :    0.023186
  13 H :    0.000226
  14 H :    0.000296
  15 H :   -0.000162
  16 H :    0.020891
  17 H :   -0.000034
  18 H :   -0.021269
  19 H :   -0.021372
  20 H :   -0.022503
  21 H :   -0.021377
  22 H :   -0.021267
  23 H :   -0.022502
  24 H :   -0.023105
  25 H :   -0.023122
  26 H :   -0.022505

  Mayer bond orders larger than 0.100000
B(  0-C ,  1-C ) :   1.6463 B(  0-C ,  2-C ) :   1.6770 B(  0-C ,  5-C ) :   0.2399
B(  0-C ,  9-C ) :  -0.1203 B(  0-C , 13-H ) :   0.1429 B(  0-C , 16-H ) :  -0.1354
B(  1-C ,  3-C ) :   2.2153 B(  1-C ,  4-C ) :   0.2427 B(  1-C ,  5-C ) :  -0.8684
B(  1-C ,  9-C ) :   0.3935 B(  1-C , 13-H ) :   0.2604 B(  1-C , 15-H ) :  -0.1053
B(  1-C , 16-H ) :   0.4131 B(  2-C ,  4-C ) :   2.0045 B(  2-C ,  5-C ) :  -1.0416
B(  2-C ,  9-C ) :   0.7012 B(  2-C , 13-H ) :   0.2678 B(  2-C , 14-H ) :  -0.1330
B(  2-C , 15-H ) :   0.1046 B(  2-C , 17-H ) :   0.5915 B(  3-C ,  4-C ) :  -0.7447
B(  3-C ,  5-C ) :   1.2822 B(  3-C ,  9-C ) :  -0.6213 B(  3-C , 14-H ) :   0.6299
B(  3-C , 16-H ) :  -0.3618 B(  4-C ,  5-C ) :   1.3241 B(  4-C ,  9-C ) :  -0.6201
B(  4-C , 15-H ) :   0.4626 B(  4-C , 17-H ) :  -0.4150 B(  5-C ,  6-C ) :   0.1095
B(  5-C ,  7-C ) :   0.1094 B(  5-C ,  9-C ) :   1.1541 B(  5-C , 10-O ) :  -0.1534
B(  5-C , 11-O ) :  -0.1537 B(  5-C , 12-O ) :   0.7341 B(  5-C , 16-H ) :   0.5642
B(  5-C , 17-H ) :   0.3211 B(  6-C ,  9-C ) :   0.1264 B(  6-C , 10-O ) :   0.7780
B(  6-C , 18-H ) :   0.9556 B(  6-C , 19-H ) :   0.9206 B(  6-C , 20-H ) :   0.9364
B(  7-C ,  9-C ) :   0.1263 B(  7-C , 11-O ) :   0.7779 B(  7-C , 21-H ) :   0.9206
B(  7-C , 22-H ) :   0.9556 B(  7-C , 23-H ) :   0.9364 B(  8-C , 12-O ) :   0.8170
B(  8-C , 24-H ) :   0.9399 B(  8-C , 25-H ) :   0.9397 B(  8-C , 26-H ) :   0.9803
B(  9-C , 10-O ) :   0.2360 B(  9-C , 11-O ) :   0.2364 B(  9-C , 12-O ) :  -0.5539
B(  9-C , 17-H ) :   0.1075 B(  9-C , 19-H ) :   0.1150 B(  9-C , 21-H ) :   0.1149
B( 12-O , 17-H ) :  -0.1125 B( 18-H , 19-H ) :  -0.1062 B( 18-H , 20-H ) :  -0.1016
B( 21-H , 22-H ) :  -0.1062 B( 22-H , 23-H ) :  -0.1016

MP2 TOTAL ENERGY:     -613.465169299 Eh
FINAL SINGLE POINT ENERGY      -613.465169298937

DIPOLE MOMENT
-------------
                                X             Y             Z
Electronic contribution:     -3.48465       0.00046      -1.59103
Nuclear contribution   :      3.31611      -0.00056       2.09625
                        -----------------------------------------
Total Dipole Moment    :     -0.16854      -0.00010       0.50522
                        -----------------------------------------
Magnitude (a.u.)       :      0.53259
Magnitude (Debye)      :      1.35375

Rotational constants in cm-1:     0.043536     0.020024     0.018815
Rotational constants in MHz :  1305.189719   600.302147   564.073804

                             ****ORCA TERMINATED NORMALLY****
TOTAL RUN TIME: 0 days 0 hours 3 minutes 49 seconds 319 msec
