                         Program Version 5.0.3 -  RELEASE  -
|  1> !ri-mp2 aug-cc-pvdz aug-cc-pvdz/c tightscf
|  2> %pal nprocs 16 end
|  3>
|  4> * xyz 0 1
|  5> C      0.000000    0.766501   -0.994198
|  6> C      0.000000   -0.766501   -0.994198
|  7> C      0.461326    1.081053    0.428368
|  8> C     -0.461326   -1.081053    0.428368
|  9> O      0.000000    0.000000    1.249603
| 10> H      0.652460    1.198961   -1.751443
| 11> H     -1.009869    1.145990   -1.159921
| 12> H     -0.652460   -1.198961   -1.751443
| 13> H      1.009869   -1.145990   -1.159921
| 14> H      1.553740    1.135699    0.488606
| 15> H      0.050023    2.012637    0.819323
| 16> H     -1.553740   -1.135699    0.488606
| 17> H     -0.050023   -2.012637    0.819323
| 18> *
| 19>
| 20>                          ****END OF INPUT****

CARTESIAN COORDINATES (ANGSTROEM)
---------------------------------
  C      0.000000    0.766501   -0.994198
  C      0.000000   -0.766501   -0.994198
  C      0.461326    1.081053    0.428368
  C     -0.461326   -1.081053    0.428368
  O      0.000000    0.000000    1.249603
  H      0.652460    1.198961   -1.751443
  H     -1.009869    1.145990   -1.159921
  H     -0.652460   -1.198961   -1.751443
  H      1.009869   -1.145990   -1.159921
  H      1.553740    1.135699    0.488606
  H      0.050023    2.012637    0.819323
  H     -1.553740   -1.135699    0.488606
  H     -0.050023   -2.012637    0.819323

 Total Charge           Charge          ....    0
 Multiplicity           Mult            ....    1
 Number of Electrons    NEL             ....   40
 Basis Dimension        Dim             ....  187

ORBITAL ENERGIES
----------------

  NO   OCC          E(Eh)            E(eV)
   0   2.0000     -20.552916      -559.2733
   1   2.0000     -11.274651      -306.7989
   2   2.0000     -11.274626      -306.7982
   3   2.0000     -11.231437      -305.6230
   4   2.0000     -11.230841      -305.6067
   5   2.0000      -1.365265       -37.1508
   6   2.0000      -1.060588       -28.8601
   7   2.0000      -0.992213       -26.9995
   8   2.0000      -0.810610       -22.0578
   9   2.0000      -0.809598       -22.0303
  10   2.0000      -0.681817       -18.5532
  11   2.0000      -0.670938       -18.2572
  12   2.0000      -0.589856       -16.0508
  13   2.0000      -0.588675       -16.0187
  14   2.0000      -0.560018       -15.2389
  15   2.0000      -0.501839       -13.6557
  16   2.0000      -0.492852       -13.4112
  17   2.0000      -0.474693       -12.9170
  18   2.0000      -0.463723       -12.6185
  19   2.0000      -0.405872       -11.0443
  20   0.0000       0.035930         0.9777
  21   0.0000       0.046042         1.2529
  22   0.0000       0.046710         1.2710
  23   0.0000       0.050808         1.3826
  24   0.0000       0.068882         1.8744

MULLIKEN ATOMIC CHARGES
-----------------------
   0 C :    0.113268
   1 C :    0.113268
   2 C :    1.045483
   3 C :    1.045483
   4 O :   -0.959663
   5 H :   -0.062986
   6 H :   -0.202333
   7 H :   -0.062986
   8 H :   -0.202333
   9 H :   -0.219602
  10 H :   -0.193999
  11 H :   -0.219602
  12 H :   -0.193999
Sum of atomic charges:   -0.0000000

LOEWDIN ATOMIC CHARGES
----------------------
   0 C :   -0.016555
   1 C :   -0.016555
   2 C :   -0.008305
   3 C :   -0.008305
   4 O :   -0.012209
   5 H :    0.012160
   6 H :    0.013041
   7 H :    0.012160
   8 H :    0.013041
   9 H :    0.003779
  10 H :    0.001984
  11 H :    0.003779
  12 H :    0.001984

  Mayer bond orders larger than 0.100000
B(  0-C ,  1-C ) :   1.2212 B(  0-C ,  2-C ) :   1.2135 B(  0-C ,  5-H ) :   0.8507
B(  0-C ,  6-H ) :   0.7864 B(  1-C ,  3-C ) :   1.2135 B(  1-C ,  7-H ) :   0.8507
B(  1-C ,  8-H ) :   0.7864 B(  2-C ,  4-O ) :   0.5783 B(  2-C ,  9-H ) :   0.8319
B(  2-C , 10-H ) :   0.8981 B(  3-C ,  4-O ) :   0.5783 B(  3-C , 11-H ) :   0.8319
B(  3-C , 12-H ) :   0.8981 B(  5-H ,  6-H ) :  -0.1183 B(  7-H ,  8-H ) :  -0.1183
B(  9-H , 10-H ) :  -0.1098 B( 11-H , 12-H ) :  -0.1098

MP2 TOTAL ENERGY:     -231.784501577 Eh
FINAL SINGLE POINT ENERGY      -231.784501576664

DIPOLE MOMENT
-------------
                                X             Y             Z
Electronic contribution:      0.00000       0.00000       2.54504
Nuclear contribution   :     -0.00000       0.00000      -3.32048
                        -----------------------------------------
Total Dipole Moment    :      0.00000       0.00000      -0.77544
                        -----------------------------------------
Magnitude (a.u.)       :      0.77544
Magnitude (Debye)      :      1.97101

Rotational constants in cm-1:     0.236108     0.233673     0.133042
Rotational constants in MHz :  7078.340302  7005.344776  3988.494368

                             ****ORCA TERMINATED NORMALLY****
TOTAL RUN TIME: 0 days 0 hours 0 minutes 52 seconds 599 msec
