                         Program Version 5.0.3 -  RELEASE  -
|  1> !ri-mp2 aug-cc-pvdz aug-cc-pvdz/c tightscf
|  2> %pal nprocs 16 end
|  3>
|  4> * xyz 0 1
|  5> C      0.328492    0.194175    0.000000
|  6> O     -1.058695    0.337244    0.000000
|  7> F      0.765646    1.447109    0.000000
|  8> F      0.765646   -0.443615    1.077970
|  9> F      0.765646   -0.443615   -1.077970
| 10> F     -1.574869   -0.989103    0.000000
| 11> *
| 12>
| 13>                          ****END OF INPUT****

CARTESIAN COORDINATES (ANGSTROEM)
---------------------------------
  C      0.328492    0.194175    0.000000
  O     -1.058695    0.337244    0.000000
  F      0.765646    1.447109    0.000000
  F      0.765646   -0.443615    1.077970
  F      0.765646   -0.443615   -1.077970
  F     -1.574869   -0.989103    0.000000

 Total Charge           Charge          ....    0
 Multiplicity           Mult            ....    1
 Number of Electrons    NEL             ....   50
 Basis Dimension        Dim             ....  138

ORBITAL ENERGIES
----------------

  NO   OCC          E(Eh)            E(eV)
   0   2.0000     -26.411814      -718.7020
   1   2.0000     -26.401103      -718.4105
   2   2.0000     -26.394785      -718.2386
   3   2.0000     -26.394763      -718.2380
   4   2.0000     -20.759933      -564.9065
   5   2.0000     -11.614955      -316.0590
   6   2.0000      -1.796677       -48.8901
   7   2.0000      -1.702251       -46.3206
   8   2.0000      -1.692442       -46.0537
   9   2.0000      -1.687187       -45.9107
  10   2.0000      -1.401338       -38.1324
  11   2.0000      -1.005134       -27.3511
  12   2.0000      -0.887140       -24.1403
  13   2.0000      -0.886713       -24.1287
  14   2.0000      -0.881611       -23.9899
  15   2.0000      -0.781478       -21.2651
  16   2.0000      -0.768865       -20.9219
  17   2.0000      -0.742060       -20.1925
  18   2.0000      -0.738656       -20.0998
  19   2.0000      -0.714142       -19.4328
  20   2.0000      -0.704352       -19.1664
  21   2.0000      -0.698620       -19.0104
  22   2.0000      -0.691168       -18.8076
  23   2.0000      -0.640580       -17.4311
  24   2.0000      -0.593235       -16.1427
  25   0.0000       0.076231         2.0744
  26   0.0000       0.082947         2.2571
  27   0.0000       0.089959         2.4479
  28   0.0000       0.091168         2.4808
  29   0.0000       0.121823         3.3150

MULLIKEN ATOMIC CHARGES
-----------------------
   0 C :    2.240970
   1 O :   -0.294565
   2 F :   -0.536717
   3 F :   -0.540113
   4 F :   -0.540113
   5 F :   -0.329461
Sum of atomic charges:    0.0000000

LOEWDIN ATOMIC CHARGES
----------------------
   0 C :   -0.445567
   1 O :    0.091488
   2 F :    0.114201
   3 F :    0.106598
   4 F :    0.106598
   5 F :    0.026681

  Mayer bond orders larger than 0.100000
B(  0-C ,  1-O ) :   0.5515 B(  0-C ,  2-F ) :   0.5527 B(  0-C ,  3-F ) :   0.5568
B(  0-C ,  4-F ) :   0.5568 B(  0-C ,  5-F ) :  -0.1251 B(  1-O ,  5-F ) :   0.8294

MP2 TOTAL ENERGY:     -511.558407094 Eh
FINAL SINGLE POINT ENERGY      -511.558407093523

DIPOLE MOMENT
-------------
                                X             Y             Z
Electronic contribution:      0.77127      -0.27417      -0.00000
Nuclear contribution   :     -0.65893       0.38754       0.00000
                        -----------------------------------------
Total Dipole Moment    :      0.11234       0.11336      -0.00000
                        -----------------------------------------
Magnitude (a.u.)       :      0.15960
Magnitude (Debye)      :      0.40566

Rotational constants in cm-1:     0.183878     0.102480     0.100420
Rotational constants in MHz :  5512.512944  3072.270089  3010.513577

                             ****ORCA TERMINATED NORMALLY****
TOTAL RUN TIME: 0 days 0 hours 0 minutes 43 seconds 369 msec
