                         Program Version 5.0.3 -  RELEASE  -
|  1> !ri-mp2 aug-cc-pvdz aug-cc-pvdz/c tightscf
|  2> %pal nprocs 16 end
|  3> %maxcore 3800
|  4>
|  5> * xyz 0 1
|  6> C      0.892185    0.423300   -1.115386
|  7> C      1.127635   -1.387733    0.424444
|  8> C      2.194801    0.827052   -0.845555
|  9> C      2.427792   -0.998183    0.705423
| 10> C      0.332695   -0.688148   -0.487319
| 11> C      2.965844    0.116591    0.068362
| 12> C     -2.186401    0.883216    0.310248
| 13> C     -1.089329   -1.109749   -0.762062
| 14> C     -2.127374   -0.636628    0.291467
| 15> N     -3.490056   -1.105655    0.051276
| 16> O     -2.617114    1.551395   -0.596087
| 17> O      4.254274    0.460267    0.375386
| 18> O     -1.697499    1.415760    1.446528
| 19> H      0.304511    0.985498   -1.829904
| 20> H      0.725773   -2.261652    0.922750
| 21> H      2.610134    1.691457   -1.350405
| 22> H      3.037227   -1.547870    1.408931
| 23> H     -1.411636   -0.739805   -1.736775
| 24> H     -1.153616   -2.200087   -0.793954
| 25> H     -1.814661   -0.977674    1.277619
| 26> H     -3.514304   -2.114400   -0.027753
| 27> H     -3.850384   -0.712728   -0.810813
| 28> H      4.512609    1.239394   -0.126667
| 29> H     -1.759650    2.379779    1.363694
| 30> *
| 31>
| 32>                          ****END OF INPUT****

CARTESIAN COORDINATES (ANGSTROEM)
---------------------------------
  C      0.892185    0.423300   -1.115386
  C      1.127635   -1.387733    0.424444
  C      2.194801    0.827052   -0.845555
  C      2.427792   -0.998183    0.705423
  C      0.332695   -0.688148   -0.487319
  C      2.965844    0.116591    0.068362
  C     -2.186401    0.883216    0.310248
  C     -1.089329   -1.109749   -0.762062
  C     -2.127374   -0.636628    0.291467
  N     -3.490056   -1.105655    0.051276
  O     -2.617114    1.551395   -0.596087
  O      4.254274    0.460267    0.375386
  O     -1.697499    1.415760    1.446528
  H      0.304511    0.985498   -1.829904
  H      0.725773   -2.261652    0.922750
  H      2.610134    1.691457   -1.350405
  H      3.037227   -1.547870    1.408931
  H     -1.411636   -0.739805   -1.736775
  H     -1.153616   -2.200087   -0.793954
  H     -1.814661   -0.977674    1.277619
  H     -3.514304   -2.114400   -0.027753
  H     -3.850384   -0.712728   -0.810813
  H      4.512609    1.239394   -0.126667
  H     -1.759650    2.379779    1.363694

 Total Charge           Charge          ....    0
 Multiplicity           Mult            ....    1
 Number of Electrons    NEL             ....   96
 Basis Dimension        Dim             ....  398

ORBITAL ENERGIES
----------------

  NO   OCC          E(Eh)            E(eV)
   0   2.0000     -20.624151      -561.2117
   1   2.0000     -20.603754      -560.6566
   2   2.0000     -20.562210      -559.5262
   3   2.0000     -15.562739      -423.4837
   4   2.0000     -11.395026      -310.0744
   5   2.0000     -11.311638      -307.8053
   6   2.0000     -11.286850      -307.1308
   7   2.0000     -11.249054      -306.1023
   8   2.0000     -11.248864      -306.0972
   9   2.0000     -11.247166      -306.0509
  10   2.0000     -11.244126      -305.9682
  11   2.0000     -11.243349      -305.9471
  12   2.0000     -11.238716      -305.8210
  13   2.0000      -1.472435       -40.0670
  14   2.0000      -1.412438       -38.4344
  15   2.0000      -1.369356       -37.2621
  16   2.0000      -1.205398       -32.8006
  17   2.0000      -1.162212       -31.6254
  18   2.0000      -1.060747       -28.8644
  19   2.0000      -1.028523       -27.9875
  20   2.0000      -0.985956       -26.8292
  21   2.0000      -0.915720       -24.9180
  22   2.0000      -0.855696       -23.2847
  23   2.0000      -0.821297       -22.3486
  24   2.0000      -0.790698       -21.5160
  25   2.0000      -0.742133       -20.1945
  26   2.0000      -0.727623       -19.7996
  27   2.0000      -0.705670       -19.2023
  28   2.0000      -0.678527       -18.4636
  29   2.0000      -0.657327       -17.8868
  30   2.0000      -0.653596       -17.7852
  31   2.0000      -0.631502       -17.1840
  32   2.0000      -0.618113       -16.8197
  33   2.0000      -0.596386       -16.2285
  34   2.0000      -0.594286       -16.1713
  35   2.0000      -0.590196       -16.0600
  36   2.0000      -0.588088       -16.0027
  37   2.0000      -0.569374       -15.4934
  38   2.0000      -0.555493       -15.1157
  39   2.0000      -0.528979       -14.3943
  40   2.0000      -0.513098       -13.9621
  41   2.0000      -0.494186       -13.4475
  42   2.0000      -0.484888       -13.1945
  43   2.0000      -0.479458       -13.0467
  44   2.0000      -0.451801       -12.2941
  45   2.0000      -0.404921       -11.0185
  46   2.0000      -0.347772        -9.4633
  47   2.0000      -0.313294        -8.5252
  48   0.0000       0.030080         0.8185
  49   0.0000       0.033332         0.9070
  50   0.0000       0.042063         1.1446
  51   0.0000       0.044820         1.2196
  52   0.0000       0.052346         1.4244

MULLIKEN ATOMIC CHARGES
-----------------------
   0 C :    0.403178
   1 C :    0.593142
   2 C :    0.216827
   3 C :    0.358186
   4 C :    1.230409
   5 C :    0.631079
   6 C :    1.214000
   7 C :    0.456483
   8 C :    0.440676
   9 N :   -0.378459
  10 O :   -0.815764
  11 O :   -0.890783
  12 O :   -0.748908
  13 H :   -0.709467
  14 H :   -0.715540
  15 H :   -0.589435
  16 H :   -0.498993
  17 H :   -0.127483
  18 H :   -0.128116
  19 H :   -0.298753
  20 H :   -0.020084
  21 H :    0.028654
  22 H :    0.167998
  23 H :    0.181153
Sum of atomic charges:   -0.0000000

LOEWDIN ATOMIC CHARGES
----------------------
   0 C :    0.049357
   1 C :    0.051090
   2 C :    0.048057
   3 C :    0.058012
   4 C :   -0.183731
   5 C :   -0.227917
   6 C :   -0.311995
   7 C :    0.041968
   8 C :   -0.179914
   9 N :    0.219868
  10 O :    0.048308
  11 O :    0.182198
  12 O :    0.219295
  13 H :    0.013996
  14 H :    0.011961
  15 H :    0.001524
  16 H :    0.008883
  17 H :    0.025869
  18 H :    0.022711
  19 H :    0.038505
  20 H :   -0.042609
  21 H :   -0.041211
  22 H :   -0.041019
  23 H :   -0.013208

  Mayer bond orders larger than 0.100000
B(  0-C ,  1-C ) :  -1.0223 B(  0-C ,  2-C ) :   2.0334 B(  0-C ,  4-C ) :   1.8416
B(  0-C ,  5-C ) :  -0.1227 B(  0-C ,  7-C ) :  -0.6206 B(  0-C ,  8-C ) :  -0.1141
B(  0-C , 13-H ) :  -0.5230 B(  0-C , 15-H ) :   0.3719 B(  1-C ,  2-C ) :   0.2924
B(  1-C ,  3-C ) :   2.1276 B(  1-C ,  4-C ) :   1.9036 B(  1-C ,  5-C ) :  -0.1085
B(  1-C ,  7-C ) :  -0.4898 B(  1-C , 13-H ) :  -0.1139 B(  1-C , 14-H ) :  -0.7397
B(  1-C , 16-H ) :   0.3320 B(  2-C ,  4-C ) :  -0.6623 B(  2-C ,  5-C ) :   1.4619
B(  2-C ,  7-C ) :   0.3240 B(  2-C , 11-O ) :   0.1896 B(  2-C , 13-H ) :   0.3998
B(  2-C , 14-H ) :   0.1235 B(  2-C , 15-H ) :  -0.1128 B(  3-C ,  4-C ) :  -0.7190
B(  3-C ,  5-C ) :   1.6774 B(  3-C ,  7-C ) :   0.3788 B(  3-C , 13-H ) :   0.1115
B(  3-C , 14-H ) :   0.5155 B(  3-C , 16-H ) :  -0.2539 B(  4-C ,  5-C ) :   0.5737
B(  4-C ,  7-C ) :   1.6668 B(  4-C ,  8-C ) :  -0.2235 B(  4-C , 13-H ) :   0.6884
B(  4-C , 14-H ) :   0.8389 B(  4-C , 16-H ) :  -0.1134 B(  4-C , 17-H ) :   0.1317
B(  5-C , 13-H ) :  -0.1759 B(  5-C , 14-H ) :  -0.2621 B(  5-C , 15-H ) :   0.3999
B(  5-C , 16-H ) :   0.6168 B(  5-C , 22-H ) :  -0.1392 B(  6-C ,  8-C ) :   0.9247
B(  6-C , 10-O ) :   1.2184 B(  6-C , 12-O ) :   0.3556 B(  6-C , 19-H ) :   0.2236
B(  7-C ,  8-C ) :   1.2228 B(  7-C , 13-H ) :   0.1254 B(  7-C , 17-H ) :   0.6096
B(  7-C , 18-H ) :   0.7152 B(  7-C , 19-H ) :   0.1309 B(  8-C ,  9-N ) :   0.9927
B(  8-C , 10-O ) :   0.1020 B(  8-C , 12-O ) :   0.1309 B(  8-C , 17-H ) :   0.1298
B(  8-C , 18-H ) :   0.1160 B(  8-C , 19-H ) :   0.4225 B(  9-N , 20-H ) :   1.0398
B(  9-N , 21-H ) :   1.0240 B( 10-O , 12-O ) :   0.1193 B( 11-O , 22-H ) :   1.0626
B( 12-O , 23-H ) :   1.0432 B( 17-H , 18-H ) :  -0.1690

MP2 TOTAL ENERGY:     -628.366554406 Eh
FINAL SINGLE POINT ENERGY      -628.366554405657

DIPOLE MOMENT
-------------
                                X             Y             Z
Electronic contribution:      2.78842       4.02327       1.42195
Nuclear contribution   :     -2.32388      -4.18973      -1.67533
                        -----------------------------------------
Total Dipole Moment    :      0.46454      -0.16646      -0.25338
                        -----------------------------------------
Magnitude (a.u.)       :      0.55471
Magnitude (Debye)      :      1.40996

Rotational constants in cm-1:     0.055767     0.014309     0.013187
Rotational constants in MHz :  1671.845406   428.966660   395.338513

                             ****ORCA TERMINATED NORMALLY****
TOTAL RUN TIME: 0 days 0 hours 3 minutes 11 seconds 998 msec
