                         Program Version 5.0.3 -  RELEASE  -
|  1> !ri-mp2 aug-cc-pvdz aug-cc-pvdz/c tightscf
|  2> %pal nprocs 16 end
|  3>
|  4> * xyz 0 1
|  5> S      0.340727    1.046092    0.000000
|  6> C     -0.205833   -0.304647    1.150622
|  7> C     -0.205833   -0.304647   -1.150622
|  8> C     -0.205833   -1.328854    0.000000
|  9> H     -1.195905   -0.094659    1.550789
| 10> H      0.484953   -0.493732    1.967693
| 11> H     -1.195905   -0.094659   -1.550789
| 12> H      0.484953   -0.493732   -1.967693
| 13> H     -1.043401   -2.027484    0.000000
| 14> H      0.718680   -1.904316    0.000000
| 15> *
| 16>
| 17>                          ****END OF INPUT****

CARTESIAN COORDINATES (ANGSTROEM)
---------------------------------
  S      0.340727    1.046092    0.000000
  C     -0.205833   -0.304647    1.150622
  C     -0.205833   -0.304647   -1.150622
  C     -0.205833   -1.328854    0.000000
  H     -1.195905   -0.094659    1.550789
  H      0.484953   -0.493732    1.967693
  H     -1.195905   -0.094659   -1.550789
  H      0.484953   -0.493732   -1.967693
  H     -1.043401   -2.027484    0.000000
  H      0.718680   -1.904316    0.000000

 Total Charge           Charge          ....    0
 Multiplicity           Mult            ....    1
 Number of Electrons    NEL             ....   40
 Basis Dimension        Dim             ....  150

ORBITAL ENERGIES
----------------

  NO   OCC          E(Eh)            E(eV)
   0   2.0000     -91.941818     -2501.8641
   1   2.0000     -11.264789      -306.5305
   2   2.0000     -11.264789      -306.5305
   3   2.0000     -11.247219      -306.0524
   4   2.0000      -8.943169      -243.3560
   5   2.0000      -6.624484      -180.2614
   6   2.0000      -6.624082      -180.2504
   7   2.0000      -6.621553      -180.1816
   8   2.0000      -1.128473       -30.7073
   9   2.0000      -0.924114       -25.1464
  10   2.0000      -0.906887       -24.6776
  11   2.0000      -0.759965       -20.6797
  12   2.0000      -0.656275       -17.8582
  13   2.0000      -0.620382       -16.8814
  14   2.0000      -0.569152       -15.4874
  15   2.0000      -0.514551       -14.0016
  16   2.0000      -0.506474       -13.7818
  17   2.0000      -0.460478       -12.5303
  18   2.0000      -0.405597       -11.0369
  19   2.0000      -0.335197        -9.1212
  20   0.0000       0.036351         0.9892
  21   0.0000       0.045005         1.2246
  22   0.0000       0.047934         1.3044
  23   0.0000       0.054930         1.4947
  24   0.0000       0.069250         1.8844

MULLIKEN ATOMIC CHARGES
-----------------------
   0 S :    0.337392
   1 C :    0.123933
   2 C :    0.123933
   3 C :    0.378297
   4 H :   -0.150491
   5 H :   -0.191333
   6 H :   -0.150491
   7 H :   -0.191333
   8 H :   -0.146166
   9 H :   -0.133740
Sum of atomic charges:    0.0000000

LOEWDIN ATOMIC CHARGES
----------------------
   0 S :    0.756247
   1 C :   -0.233097
   2 C :   -0.233097
   3 C :   -0.114124
   4 H :   -0.042237
   5 H :   -0.044884
   6 H :   -0.042237
   7 H :   -0.044884
   8 H :   -0.003331
   9 H :    0.001644

  Mayer bond orders larger than 0.100000
B(  0-S ,  1-C ) :   1.1166 B(  0-S ,  2-C ) :   1.1166 B(  0-S ,  3-C ) :  -0.2080
B(  1-C ,  3-C ) :   1.1607 B(  1-C ,  4-H ) :   0.8962 B(  1-C ,  5-H ) :   0.9202
B(  2-C ,  3-C ) :   1.1607 B(  2-C ,  6-H ) :   0.8962 B(  2-C ,  7-H ) :   0.9202
B(  3-C ,  8-H ) :   0.8884 B(  3-C ,  9-H ) :   0.8256 B(  8-H ,  9-H ) :  -0.1019

MP2 TOTAL ENERGY:     -515.194202574 Eh
FINAL SINGLE POINT ENERGY      -515.194202573830

DIPOLE MOMENT
-------------
                                X             Y             Z
Electronic contribution:      1.46234       4.37564       0.00000
Nuclear contribution   :     -1.78041      -5.20895       0.00000
                        -----------------------------------------
Total Dipole Moment    :     -0.31807      -0.83330       0.00000
                        -----------------------------------------
Magnitude (a.u.)       :      0.89194
Magnitude (Debye)      :      2.26714

Rotational constants in cm-1:     0.336402     0.219896     0.145998
Rotational constants in MHz : 10085.067511  6592.307659  4376.899282

                             ****ORCA TERMINATED NORMALLY****
TOTAL RUN TIME: 0 days 0 hours 0 minutes 46 seconds 466 msec
