                         Program Version 5.0.3 -  RELEASE  -
|  1> !ri-mp2 aug-cc-pvdz aug-cc-pvdz/c tightscf
|  2> %pal nprocs 16 end
|  3>
|  4> * xyz 0 1
|  5> C     -1.390811    0.856682   -1.268373
|  6> C     -1.015837    0.089879   -0.000005
|  7> C     -1.643181   -1.309663   -0.000111
|  8> C     -1.390836    0.856501    1.268466
|  9> S      0.822500   -0.225263   -0.000009
| 10> C      1.634089    1.387915    0.000134
| 11> O      1.168494   -0.878127    1.262513
| 12> O      1.168524   -0.877920   -1.262630
| 13> H     -1.046643    0.337279   -2.160653
| 14> H     -2.477629    0.942211   -1.319652
| 15> H     -0.985355    1.868581   -1.272654
| 16> H     -1.352891   -1.874065    0.884264
| 17> H     -2.728961   -1.202794   -0.000121
| 18> H     -1.352864   -1.873940   -0.884557
| 19> H     -0.985387    1.868403    1.272894
| 20> H     -2.477655    0.942016    1.319740
| 21> H     -1.046678    0.336974    2.160677
| 22> H      2.695942    1.152116    0.000133
| 23> H      1.370739    1.934035   -0.900315
| 24> H      1.370708    1.933886    0.900664
| 25> *
| 26>
| 27>                          ****END OF INPUT****

CARTESIAN COORDINATES (ANGSTROEM)
---------------------------------
  C     -1.390811    0.856682   -1.268373
  C     -1.015837    0.089879   -0.000005
  C     -1.643181   -1.309663   -0.000111
  C     -1.390836    0.856501    1.268466
  S      0.822500   -0.225263   -0.000009
  C      1.634089    1.387915    0.000134
  O      1.168494   -0.878127    1.262513
  O      1.168524   -0.877920   -1.262630
  H     -1.046643    0.337279   -2.160653
  H     -2.477629    0.942211   -1.319652
  H     -0.985355    1.868581   -1.272654
  H     -1.352891   -1.874065    0.884264
  H     -2.728961   -1.202794   -0.000121
  H     -1.352864   -1.873940   -0.884557
  H     -0.985387    1.868403    1.272894
  H     -2.477655    0.942016    1.319740
  H     -1.046678    0.336974    2.160677
  H      2.695942    1.152116    0.000133
  H      1.370739    1.934035   -0.900315
  H      1.370708    1.933886    0.900664

 Total Charge           Charge          ....    0
 Multiplicity           Mult            ....    1
 Number of Electrons    NEL             ....   74
 Basis Dimension        Dim             ....  296

ORBITAL ENERGIES
----------------

  NO   OCC          E(Eh)            E(eV)
   0   2.0000     -92.183633     -2508.4442
   1   2.0000     -20.543562      -559.0188
   2   2.0000     -20.543545      -559.0183
   3   2.0000     -11.297532      -307.4215
   4   2.0000     -11.280162      -306.9488
   5   2.0000     -11.247305      -306.0547
   6   2.0000     -11.247287      -306.0542
   7   2.0000     -11.238257      -305.8085
   8   2.0000      -9.157552      -249.1897
   9   2.0000      -6.842685      -186.1989
  10   2.0000      -6.841348      -186.1625
  11   2.0000      -6.840905      -186.1505
  12   2.0000      -1.439409       -39.1683
  13   2.0000      -1.325902       -36.0796
  14   2.0000      -1.131589       -30.7921
  15   2.0000      -1.035421       -28.1752
  16   2.0000      -0.965616       -26.2757
  17   2.0000      -0.958811       -26.0906
  18   2.0000      -0.874661       -23.8007
  19   2.0000      -0.755287       -20.5524
  20   2.0000      -0.692632       -18.8475
  21   2.0000      -0.659775       -17.9534
  22   2.0000      -0.649333       -17.6692
  23   2.0000      -0.629116       -17.1191
  24   2.0000      -0.628413       -17.1000
  25   2.0000      -0.601276       -16.3615
  26   2.0000      -0.592591       -16.1252
  27   2.0000      -0.565671       -15.3927
  28   2.0000      -0.565216       -15.3803
  29   2.0000      -0.551112       -14.9965
  30   2.0000      -0.539889       -14.6911
  31   2.0000      -0.500433       -13.6175
  32   2.0000      -0.500004       -13.6058
  33   2.0000      -0.482433       -13.1277
  34   2.0000      -0.472635       -12.8611
  35   2.0000      -0.455157       -12.3854
  36   2.0000      -0.410152       -11.1608
  37   0.0000       0.028486         0.7751
  38   0.0000       0.037856         1.0301
  39   0.0000       0.044476         1.2103
  40   0.0000       0.048422         1.3176
  41   0.0000       0.060376         1.6429

MULLIKEN ATOMIC CHARGES
-----------------------
   0 C :    1.047067
   1 C :   -3.141802
   2 C :    1.268359
   3 C :    1.047067
   4 S :    2.576230
   5 C :    0.049847
   6 O :   -1.269652
   7 O :   -1.269653
   8 H :   -0.003660
   9 H :   -0.004021
  10 H :   -0.131400
  11 H :   -0.015117
  12 H :   -0.047039
  13 H :   -0.015119
  14 H :   -0.131397
  15 H :   -0.004025
  16 H :   -0.003661
  17 H :    0.025859
  18 H :    0.011057
  19 H :    0.011059
Sum of atomic charges:   -0.0000000

LOEWDIN ATOMIC CHARGES
----------------------
   0 C :    0.154680
   1 C :   -0.537164
   2 C :    0.157455
   3 C :    0.154680
   4 S :    0.958852
   5 C :    0.091953
   6 O :   -0.399829
   7 O :   -0.399829
   8 H :   -0.007071
   9 H :   -0.002094
  10 H :   -0.018510
  11 H :   -0.007505
  12 H :   -0.004041
  13 H :   -0.007505
  14 H :   -0.018509
  15 H :   -0.002094
  16 H :   -0.007071
  17 H :   -0.028567
  18 H :   -0.038915
  19 H :   -0.038916

  Mayer bond orders larger than 0.100000
B(  0-C ,  1-C ) :   1.7055 B(  0-C ,  2-C ) :  -0.1497 B(  0-C ,  8-H ) :   0.7266
B(  0-C ,  9-H ) :   0.6715 B(  0-C , 10-H ) :   0.7706 B(  1-C ,  2-C ) :   1.6489
B(  1-C ,  3-C ) :   1.7055 B(  1-C ,  4-S ) :   0.3135 B(  1-C ,  6-O ) :   0.1281
B(  1-C ,  7-O ) :   0.1281 B(  1-C ,  8-H ) :   0.2332 B(  1-C ,  9-H ) :   0.2672
B(  1-C , 10-H ) :   0.1817 B(  1-C , 11-H ) :   0.2821 B(  1-C , 12-H ) :   0.1696
B(  1-C , 13-H ) :   0.2821 B(  1-C , 14-H ) :   0.1817 B(  1-C , 15-H ) :   0.2672
B(  1-C , 16-H ) :   0.2332 B(  2-C ,  3-C ) :  -0.1497 B(  2-C , 11-H ) :   0.6887
B(  2-C , 12-H ) :   0.7305 B(  2-C , 13-H ) :   0.6887 B(  3-C , 14-H ) :   0.7706
B(  3-C , 15-H ) :   0.6715 B(  3-C , 16-H ) :   0.7266 B(  4-S ,  5-C ) :   1.1983
B(  4-S ,  6-O ) :   0.6013 B(  4-S ,  7-O ) :   0.6013 B(  5-C , 17-H ) :   0.9207
B(  5-C , 18-H ) :   0.8986 B(  5-C , 19-H ) :   0.8986 B(  6-O ,  7-O ) :   0.1213
B(  8-H ,  9-H ) :  -0.1092 B(  8-H , 10-H ) :  -0.1206 B(  9-H , 10-H ) :  -0.1057
B( 11-H , 12-H ) :  -0.1028 B( 11-H , 13-H ) :  -0.1079 B( 12-H , 13-H ) :  -0.1028
B( 14-H , 15-H ) :  -0.1057 B( 14-H , 16-H ) :  -0.1206 B( 15-H , 16-H ) :  -0.1092

MP2 TOTAL ENERGY:     -744.873918137 Eh
FINAL SINGLE POINT ENERGY      -744.873918137473

DIPOLE MOMENT
-------------
                                X             Y             Z
Electronic contribution:      8.01955      -4.73204      -0.00030
Nuclear contribution   :     -9.18824       6.47291       0.00043
                        -----------------------------------------
Total Dipole Moment    :     -1.16869       1.74087       0.00013
                        -----------------------------------------
Magnitude (a.u.)       :      2.09677
Magnitude (Debye)      :      5.32958

Rotational constants in cm-1:     0.075753     0.050093     0.049444
Rotational constants in MHz :  2271.004152  1501.765274  1482.284159

                             ****ORCA TERMINATED NORMALLY****
TOTAL RUN TIME: 0 days 0 hours 1 minutes 39 seconds 748 msec
