                         Program Version 5.0.3 -  RELEASE  -
|  1> !ri-mp2 aug-cc-pvdz aug-cc-pvdz/c tightscf
|  2> %pal nprocs 16 end
|  3>
|  4> * xyz 0 1
|  5> C     -0.389046   -0.000005    0.034711
|  6> O      0.738307   -0.064366   -0.877245
|  7> O      1.978654    0.098687   -0.135089
|  8> C     -1.568549   -0.139826   -0.926939
|  9> C     -0.342451   -1.161836    1.025628
| 10> C     -0.410298    1.351768    0.745235
| 11> H      2.385379   -0.765132   -0.282112
| 12> H     -1.561837    0.664179   -1.661962
| 13> H     -2.504086   -0.091572   -0.369874
| 14> H     -1.529057   -1.092846   -1.453933
| 15> H     -0.427183    2.162831    0.017417
| 16> H      0.469173    1.471463    1.374999
| 17> H     -1.297114    1.433058    1.375024
| 18> H     -0.300458   -2.114938    0.496791
| 19> H     -1.234525   -1.159418    1.652852
| 20> H      0.526087   -1.082798    1.677660
| 21> *
| 22>
| 23>                          ****END OF INPUT****

CARTESIAN COORDINATES (ANGSTROEM)
---------------------------------
  C     -0.389046   -0.000005    0.034711
  O      0.738307   -0.064366   -0.877245
  O      1.978654    0.098687   -0.135089
  C     -1.568549   -0.139826   -0.926939
  C     -0.342451   -1.161836    1.025628
  C     -0.410298    1.351768    0.745235
  H      2.385379   -0.765132   -0.282112
  H     -1.561837    0.664179   -1.661962
  H     -2.504086   -0.091572   -0.369874
  H     -1.529057   -1.092846   -1.453933
  H     -0.427183    2.162831    0.017417
  H      0.469173    1.471463    1.374999
  H     -1.297114    1.433058    1.375024
  H     -0.300458   -2.114938    0.496791
  H     -1.234525   -1.159418    1.652852
  H      0.526087   -1.082798    1.677660

 Total Charge           Charge          ....    0
 Multiplicity           Mult            ....    1
 Number of Electrons    NEL             ....   50
 Basis Dimension        Dim             ....  228

ORBITAL ENERGIES
----------------

  NO   OCC          E(Eh)            E(eV)
   0   2.0000     -20.624656      -561.2254
   1   2.0000     -20.624021      -561.2081
   2   2.0000     -11.297458      -307.4195
   3   2.0000     -11.224628      -305.4377
   4   2.0000     -11.223522      -305.4076
   5   2.0000     -11.217788      -305.2515
   6   2.0000      -1.465155       -39.8689
   7   2.0000      -1.230302       -33.4782
   8   2.0000      -1.057641       -28.7799
   9   2.0000      -0.945282       -25.7224
  10   2.0000      -0.942848       -25.6562
  11   2.0000      -0.765743       -20.8369
  12   2.0000      -0.706897       -19.2356
  13   2.0000      -0.655562       -17.8388
  14   2.0000      -0.642310       -17.4782
  15   2.0000      -0.609790       -16.5932
  16   2.0000      -0.577473       -15.7138
  17   2.0000      -0.550348       -14.9757
  18   2.0000      -0.544483       -14.8161
  19   2.0000      -0.532418       -14.4878
  20   2.0000      -0.519163       -14.1271
  21   2.0000      -0.505840       -13.7646
  22   2.0000      -0.482251       -13.1227
  23   2.0000      -0.461975       -12.5710
  24   2.0000      -0.435739       -11.8571
  25   0.0000       0.035290         0.9603
  26   0.0000       0.044012         1.1976
  27   0.0000       0.048524         1.3204
  28   0.0000       0.050762         1.3813
  29   0.0000       0.067582         1.8390

MULLIKEN ATOMIC CHARGES
-----------------------
   0 C :   -2.088232
   1 O :   -0.674365
   2 O :   -0.284734
   3 C :    0.859294
   4 C :    0.994089
   5 C :    0.988123
   6 H :    0.209186
   7 H :   -0.027029
   8 H :    0.054872
   9 H :   -0.035569
  10 H :    0.000977
  11 H :   -0.016824
  12 H :    0.033304
  13 H :    0.000760
  14 H :    0.018937
  15 H :   -0.032788
Sum of atomic charges:    0.0000000

LOEWDIN ATOMIC CHARGES
----------------------
   0 C :   -0.517340
   1 O :    0.025575
   2 O :    0.119992
   3 C :    0.173456
   4 C :    0.173519
   5 C :    0.175502
   6 H :   -0.075537
   7 H :   -0.006925
   8 H :   -0.004185
   9 H :   -0.008198
  10 H :   -0.003764
  11 H :   -0.015699
  12 H :   -0.007272
  13 H :   -0.006373
  14 H :   -0.006710
  15 H :   -0.016040

  Mayer bond orders larger than 0.100000
B(  0-C ,  1-O ) :  -0.1737 B(  0-C ,  2-O ) :  -0.2876 B(  0-C ,  3-C ) :   1.5181
B(  0-C ,  4-C ) :   1.3412 B(  0-C ,  5-C ) :   1.3522 B(  0-C ,  7-H ) :   0.2574
B(  0-C ,  8-H ) :   0.1192 B(  0-C ,  9-H ) :   0.2793 B(  0-C , 10-H ) :   0.1888
B(  0-C , 11-H ) :   0.2407 B(  0-C , 12-H ) :   0.1163 B(  0-C , 13-H ) :   0.1678
B(  0-C , 14-H ) :   0.1176 B(  0-C , 15-H ) :   0.2302 B(  1-O ,  2-O ) :   0.9343
B(  1-O ,  4-C ) :   0.1021 B(  2-O ,  6-H ) :   0.9851 B(  3-C ,  4-C ) :  -0.1513
B(  3-C ,  5-C ) :  -0.1591 B(  3-C ,  7-H ) :   0.7527 B(  3-C ,  8-H ) :   0.8420
B(  3-C ,  9-H ) :   0.7425 B(  4-C , 13-H ) :   0.7394 B(  4-C , 14-H ) :   0.7924
B(  4-C , 15-H ) :   0.7896 B(  5-C , 10-H ) :   0.7290 B(  5-C , 11-H ) :   0.7783
B(  5-C , 12-H ) :   0.8231 B(  7-H ,  9-H ) :  -0.1086 B( 10-H , 11-H ) :  -0.1067
B( 13-H , 15-H ) :  -0.1115

MP2 TOTAL ENERGY:     -307.972434961 Eh
FINAL SINGLE POINT ENERGY      -307.972434960953

DIPOLE MOMENT
-------------
                                X             Y             Z
Electronic contribution:      5.29656       0.08037      -2.55774
Nuclear contribution   :     -5.65868      -0.59874       2.92885
                        -----------------------------------------
Total Dipole Moment    :     -0.36211      -0.51838       0.37112
                        -----------------------------------------
Magnitude (a.u.)       :      0.73319
Magnitude (Debye)      :      1.86363

Rotational constants in cm-1:     0.148264     0.091820     0.091733
Rotational constants in MHz :  4444.856361  2752.702924  2750.097739

                             ****ORCA TERMINATED NORMALLY****
TOTAL RUN TIME: 0 days 0 hours 0 minutes 52 seconds 413 msec
