                         Program Version 5.0.3 -  RELEASE  -
|  1> !ri-mp2 aug-cc-pvdz aug-cc-pvdz/c tightscf
|  2> %pal nprocs 16 end
|  3>
|  4> * xyz 0 1
|  5> C     0.000000     0.000000   -0.255900
|  6> S     0.000000     0.000000    1.375571
|  7> C     0.000000     1.266131   -1.062046
|  8> C     0.000000    -1.266131   -1.062046
|  9> H     0.000000     2.147096   -0.427764
| 10> H     0.000000    -2.147096   -0.427764
| 11> H     0.875313     1.291889   -1.718417
| 12> H    -0.875313     1.291889   -1.718417
| 13> H    -0.875313    -1.291889   -1.718417
| 14> H     0.875313    -1.291889   -1.718417
| 15> *
| 16>
| 17>                          ****END OF INPUT****

CARTESIAN COORDINATES (ANGSTROEM)
---------------------------------
  C      0.000000    0.000000   -0.255900
  S      0.000000    0.000000    1.375571
  C      0.000000    1.266131   -1.062046
  C      0.000000   -1.266131   -1.062046
  H      0.000000    2.147096   -0.427764
  H      0.000000   -2.147096   -0.427764
  H      0.875313    1.291889   -1.718417
  H     -0.875313    1.291889   -1.718417
  H     -0.875313   -1.291889   -1.718417
  H      0.875313   -1.291889   -1.718417

 Total Charge           Charge          ....    0
 Multiplicity           Mult            ....    1
 Number of Electrons    NEL             ....   40
 Basis Dimension        Dim             ....  150

ORBITAL ENERGIES
----------------

  NO   OCC          E(Eh)            E(eV)
   0   2.0000     -91.929892     -2501.5395
   1   2.0000     -11.330570      -308.3205
   2   2.0000     -11.250211      -306.1338
   3   2.0000     -11.250188      -306.1332
   4   2.0000      -8.933059      -243.0809
   5   2.0000      -6.614836      -179.9988
   6   2.0000      -6.613351      -179.9584
   7   2.0000      -6.611135      -179.8981
   8   2.0000      -1.121736       -30.5240
   9   2.0000      -0.970225       -26.4012
  10   2.0000      -0.949797       -25.8453
  11   2.0000      -0.721043       -19.6206
  12   2.0000      -0.615913       -16.7599
  13   2.0000      -0.610608       -16.6155
  14   2.0000      -0.610175       -16.6037
  15   2.0000      -0.559535       -15.2257
  16   2.0000      -0.529650       -14.4125
  17   2.0000      -0.494804       -13.4643
  18   2.0000      -0.381602       -10.3839
  19   2.0000      -0.333229        -9.0676
  20   0.0000       0.031078         0.8457
  21   0.0000       0.043918         1.1951
  22   0.0000       0.047585         1.2949
  23   0.0000       0.061029         1.6607
  24   0.0000       0.071837         1.9548

MULLIKEN ATOMIC CHARGES
-----------------------
   0 C :   -0.737538
   1 S :   -0.000801
   2 C :    0.325915
   3 C :    0.325915
   4 H :   -0.056613
   5 H :   -0.056613
   6 H :    0.049934
   7 H :    0.049934
   8 H :    0.049934
   9 H :    0.049934
Sum of atomic charges:   -0.0000000

LOEWDIN ATOMIC CHARGES
----------------------
   0 C :   -0.744050
   1 S :    0.619994
   2 C :    0.098356
   3 C :    0.098356
   4 H :   -0.024202
   5 H :   -0.024202
   6 H :   -0.006063
   7 H :   -0.006063
   8 H :   -0.006063
   9 H :   -0.006063

  Mayer bond orders larger than 0.100000
B(  0-C ,  1-S ) :   1.9913 B(  0-C ,  2-C ) :   1.3257 B(  0-C ,  3-C ) :   1.3257
B(  2-C ,  3-C ) :  -0.1285 B(  2-C ,  4-H ) :   0.8869 B(  2-C ,  6-H ) :   0.8923
B(  2-C ,  7-H ) :   0.8923 B(  3-C ,  5-H ) :   0.8869 B(  3-C ,  8-H ) :   0.8923
B(  3-C ,  9-H ) :   0.8923

MP2 TOTAL ENERGY:     -515.207042427 Eh
FINAL SINGLE POINT ENERGY      -515.207042427319

DIPOLE MOMENT
-------------
                                X             Y             Z
Electronic contribution:      0.00000      -0.00000       6.52987
Nuclear contribution   :      0.00000       0.00000      -7.87457
                        -----------------------------------------
Total Dipole Moment    :      0.00000      -0.00000      -1.34469
                        -----------------------------------------
Magnitude (a.u.)       :      1.34469
Magnitude (Debye)      :      3.41794

Rotational constants in cm-1:     0.292557     0.163499     0.109076
Rotational constants in MHz :  8770.644975  4901.574165  3270.031122

                             ****ORCA TERMINATED NORMALLY****
TOTAL RUN TIME: 0 days 0 hours 0 minutes 41 seconds 214 msec
