                         Program Version 5.0.3 -  RELEASE  -
|  1> !ri-mp2 aug-cc-pvdz aug-cc-pvdz/c tightscf
|  2> %pal nprocs 16 end
|  3>
|  4> * xyz 0 1
|  5> S     0.000000     0.000000    0.871858
|  6> C     0.000000     0.738462   -0.803990
|  7> C     0.000000    -0.738462   -0.803990
|  8> H    -0.912020     1.251798   -1.075460
|  9> H     0.912020     1.251798   -1.075460
| 10> H     0.912020    -1.251798   -1.075460
| 11> H    -0.912020    -1.251798   -1.075460
| 12> *
| 13>
| 14>                          ****END OF INPUT****

CARTESIAN COORDINATES (ANGSTROEM)
---------------------------------
  S      0.000000    0.000000    0.871858
  C      0.000000    0.738462   -0.803990
  C      0.000000   -0.738462   -0.803990
  H     -0.912020    1.251798   -1.075460
  H      0.912020    1.251798   -1.075460
  H      0.912020   -1.251798   -1.075460
  H     -0.912020   -1.251798   -1.075460

 Total Charge           Charge          ....    0
 Multiplicity           Mult            ....    1
 Number of Electrons    NEL             ....   32
 Basis Dimension        Dim             ....  109

ORBITAL ENERGIES
----------------

  NO   OCC          E(Eh)            E(eV)
   0   2.0000     -91.946799     -2501.9996
   1   2.0000     -11.284030      -307.0541
   2   2.0000     -11.283255      -307.0330
   3   2.0000      -8.948385      -243.4979
   4   2.0000      -6.630218      -180.4174
   5   2.0000      -6.628340      -180.3663
   6   2.0000      -6.626143      -180.3065
   7   2.0000      -1.142662       -31.0934
   8   2.0000      -0.847764       -23.0688
   9   2.0000      -0.835298       -22.7296
  10   2.0000      -0.672478       -18.2991
  11   2.0000      -0.612056       -16.6549
  12   2.0000      -0.544669       -14.8212
  13   2.0000      -0.442861       -12.0509
  14   2.0000      -0.423425       -11.5220
  15   2.0000      -0.345816        -9.4101
  16   0.0000       0.037025         1.0075
  17   0.0000       0.046492         1.2651
  18   0.0000       0.048531         1.3206
  19   0.0000       0.069574         1.8932
  20   0.0000       0.070745         1.9251

MULLIKEN ATOMIC CHARGES
-----------------------
   0 S :    0.097886
   1 C :    0.455221
   2 C :    0.455221
   3 H :   -0.252082
   4 H :   -0.252082
   5 H :   -0.252082
   6 H :   -0.252082
Sum of atomic charges:   -0.0000000

LOEWDIN ATOMIC CHARGES
----------------------
   0 S :    0.686961
   1 C :   -0.255486
   2 C :   -0.255486
   3 H :   -0.043997
   4 H :   -0.043997
   5 H :   -0.043997
   6 H :   -0.043997

  Mayer bond orders larger than 0.100000
B(  0-S ,  1-C ) :   0.9847 B(  0-S ,  2-C ) :   0.9847 B(  1-C ,  2-C ) :   1.0431
B(  1-C ,  3-H ) :   0.9259 B(  1-C ,  4-H ) :   0.9259 B(  2-C ,  5-H ) :   0.9259
B(  2-C ,  6-H ) :   0.9259

MP2 TOTAL ENERGY:     -476.009431118 Eh
FINAL SINGLE POINT ENERGY      -476.009431118284

DIPOLE MOMENT
-------------
                                X             Y             Z
Electronic contribution:      0.00000      -0.00000       3.41563
Nuclear contribution   :      0.00000       0.00000      -4.32762
                        -----------------------------------------
Total Dipole Moment    :      0.00000      -0.00000      -0.91198
                        -----------------------------------------
Magnitude (a.u.)       :      0.91198
Magnitude (Debye)      :      2.31808

Rotational constants in cm-1:     0.740289     0.354099     0.264760
Rotational constants in MHz : 22193.313659 10615.627938  7937.314616

                             ****ORCA TERMINATED NORMALLY****
TOTAL RUN TIME: 0 days 0 hours 0 minutes 47 seconds 387 msec
