                         Program Version 5.0.3 -  RELEASE  -
|  1> !ri-mp2 aug-cc-pvdz aug-cc-pvdz/c tightscf
|  2> %pal nprocs 16 end
|  3> %maxcore 3800
|  4>
|  5> * xyz 0 1
|  6> N      2.144383    0.943689    1.387392
|  7> C      1.971739   -0.048913    0.317057
|  8> C      3.347538   -0.585408   -0.126533
|  9> O      3.499669   -1.288634   -1.089817
| 10> O      4.357944   -0.224123    0.675223
| 11> H      3.948061    0.342244    1.365987
| 12> C      1.161509    0.438981   -0.901876
| 13> C     -0.257433    0.783250   -0.580119
| 14> C     -0.805706    2.035533   -0.532908
| 15> N     -2.138822    1.958860   -0.185729
| 16> C     -2.481917    0.638427   -0.006198
| 17> C     -1.318044   -0.133672   -0.246754
| 18> C     -1.401983   -1.529651   -0.146912
| 19> C     -2.612554   -2.107991    0.190616
| 20> C     -3.751206   -1.320897    0.431315
| 21> C     -3.702578    0.059180    0.334532
| 22> H      1.461495   -0.911416    0.750748
| 23> H      1.667652    1.311632   -1.324861
| 24> H      1.212237   -0.340971   -1.662152
| 25> H     -0.349483    2.989906   -0.737807
| 26> H     -2.764965    2.739256   -0.115895
| 27> H     -0.538307   -2.151734   -0.341881
| 28> H     -2.688793   -3.183992    0.266850
| 29> H     -4.683614   -1.802505    0.692328
| 30> H     -4.582950    0.662376    0.513597
| 31> H      2.105789    1.887369    1.020285
| 32> H      1.416855    0.869019    2.084595
| 33> *
| 34>
| 35>                          ****END OF INPUT****

CARTESIAN COORDINATES (ANGSTROEM)
---------------------------------
  N      2.144383    0.943689    1.387392
  C      1.971739   -0.048913    0.317057
  C      3.347538   -0.585408   -0.126533
  O      3.499669   -1.288634   -1.089817
  O      4.357944   -0.224123    0.675223
  H      3.948061    0.342244    1.365987
  C      1.161509    0.438981   -0.901876
  C     -0.257433    0.783250   -0.580119
  C     -0.805706    2.035533   -0.532908
  N     -2.138822    1.958860   -0.185729
  C     -2.481917    0.638427   -0.006198
  C     -1.318044   -0.133672   -0.246754
  C     -1.401983   -1.529651   -0.146912
  C     -2.612554   -2.107991    0.190616
  C     -3.751206   -1.320897    0.431315
  C     -3.702578    0.059180    0.334532
  H      1.461495   -0.911416    0.750748
  H      1.667652    1.311632   -1.324861
  H      1.212237   -0.340971   -1.662152
  H     -0.349483    2.989906   -0.737807
  H     -2.764965    2.739256   -0.115895
  H     -0.538307   -2.151734   -0.341881
  H     -2.688793   -3.183992    0.266850
  H     -4.683614   -1.802505    0.692328
  H     -4.582950    0.662376    0.513597
  H      2.105789    1.887369    1.020285
  H      1.416855    0.869019    2.084595

 Total Charge           Charge          ....    0
 Multiplicity           Mult            ....    1
 Number of Electrons    NEL             ....  108
 Basis Dimension        Dim             ....  453

ORBITAL ENERGIES
----------------

  NO   OCC          E(Eh)            E(eV)
   0   2.0000     -20.601628      -560.5988
   1   2.0000     -20.543456      -559.0159
   2   2.0000     -15.620259      -425.0488
   3   2.0000     -15.586917      -424.1416
   4   2.0000     -11.380371      -309.6756
   5   2.0000     -11.295805      -307.3745
   6   2.0000     -11.285930      -307.1058
   7   2.0000     -11.282315      -307.0074
   8   2.0000     -11.251505      -306.1690
   9   2.0000     -11.246636      -306.0365
  10   2.0000     -11.246030      -306.0200
  11   2.0000     -11.244285      -305.9725
  12   2.0000     -11.241356      -305.8928
  13   2.0000     -11.240208      -305.8616
  14   2.0000     -11.235902      -305.7444
  15   2.0000      -1.452307       -39.5193
  16   2.0000      -1.357068       -36.9277
  17   2.0000      -1.311659       -35.6921
  18   2.0000      -1.221917       -33.2501
  19   2.0000      -1.145995       -31.1841
  20   2.0000      -1.095624       -29.8135
  21   2.0000      -1.026512       -27.9328
  22   2.0000      -1.010399       -27.4944
  23   2.0000      -0.987582       -26.8735
  24   2.0000      -0.906258       -24.6605
  25   2.0000      -0.856155       -23.2972
  26   2.0000      -0.821716       -22.3600
  27   2.0000      -0.803853       -21.8740
  28   2.0000      -0.774674       -21.0799
  29   2.0000      -0.738923       -20.1071
  30   2.0000      -0.734764       -19.9939
  31   2.0000      -0.689719       -18.7682
  32   2.0000      -0.677019       -18.4226
  33   2.0000      -0.664964       -18.0946
  34   2.0000      -0.657176       -17.8827
  35   2.0000      -0.629342       -17.1253
  36   2.0000      -0.614411       -16.7190
  37   2.0000      -0.612464       -16.6660
  38   2.0000      -0.607325       -16.5262
  39   2.0000      -0.600381       -16.3372
  40   2.0000      -0.590123       -16.0581
  41   2.0000      -0.568203       -15.4616
  42   2.0000      -0.553723       -15.0676
  43   2.0000      -0.536795       -14.6069
  44   2.0000      -0.530357       -14.4317
  45   2.0000      -0.508783       -13.8447
  46   2.0000      -0.487409       -13.2631
  47   2.0000      -0.476893       -12.9769
  48   2.0000      -0.463401       -12.6098
  49   2.0000      -0.460493       -12.5307
  50   2.0000      -0.419651       -11.4193
  51   2.0000      -0.387785       -10.5522
  52   2.0000      -0.312095        -8.4925
  53   2.0000      -0.294471        -8.0130
  54   0.0000       0.020058         0.5458
  55   0.0000       0.031637         0.8609
  56   0.0000       0.035821         0.9747
  57   0.0000       0.043677         1.1885
  58   0.0000       0.048320         1.3149

MULLIKEN ATOMIC CHARGES
-----------------------
   0 N :   -0.560579
   1 C :   -0.175256
   2 C :    1.362973
   3 O :   -0.778425
   4 O :   -0.723206
   5 H :    0.294287
   6 C :    0.568880
   7 C :    0.454065
   8 C :    1.112972
   9 N :   -0.940511
  10 C :   -0.588094
  11 C :   -0.029238
  12 C :    1.285083
  13 C :   -0.036948
  14 C :    0.569613
  15 C :    1.072351
  16 H :   -0.075457
  17 H :   -0.139983
  18 H :   -0.077224
  19 H :   -0.448414
  20 H :   -0.146105
  21 H :   -0.622911
  22 H :   -0.515575
  23 H :   -0.483111
  24 H :   -0.531898
  25 H :    0.070438
  26 H :    0.082272
Sum of atomic charges:    0.0000000

LOEWDIN ATOMIC CHARGES
----------------------
   0 N :    0.228674
   1 C :   -0.147972
   2 C :   -0.310821
   3 O :    0.046342
   4 O :    0.212907
   5 H :   -0.094766
   6 C :    0.048767
   7 C :   -0.148711
   8 C :    0.083767
   9 N :    0.112428
  10 C :   -0.140324
  11 C :   -0.109971
  12 C :    0.059865
  13 C :    0.002476
  14 C :    0.005985
  15 C :    0.060072
  16 H :    0.048271
  17 H :    0.030719
  18 H :    0.025410
  19 H :    0.009408
  20 H :    0.025987
  21 H :    0.006303
  22 H :   -0.004590
  23 H :   -0.001846
  24 H :    0.002522
  25 H :   -0.024916
  26 H :   -0.025985

  Mayer bond orders larger than 0.100000
B(  0-N ,  1-C ) :   0.6800 B(  0-N , 25-H ) :   1.0963 B(  0-N , 26-H ) :   1.0234
B(  1-C ,  2-C ) :   1.0239 B(  1-C ,  3-O ) :   0.1154 B(  1-C ,  4-O ) :   0.2091
B(  1-C ,  6-C ) :   1.1024 B(  1-C , 16-H ) :   0.9017 B(  1-C , 17-H ) :   0.1214
B(  2-C ,  3-O ) :   1.4164 B(  2-C ,  4-O ) :   0.3656 B(  4-O ,  5-H ) :   0.9301
B(  6-C ,  7-C ) :   0.8976 B(  6-C , 10-C ) :  -0.1701 B(  6-C , 11-C ) :   0.1639
B(  6-C , 12-C ) :  -0.1259 B(  6-C , 13-C ) :   0.1566 B(  6-C , 15-C ) :   0.1665
B(  6-C , 17-H ) :   0.6897 B(  6-C , 18-H ) :   0.8235 B(  6-C , 19-H ) :   0.1928
B(  7-C ,  8-C ) :   1.2426 B(  7-C ,  9-N ) :   0.1702 B(  7-C , 10-C ) :  -0.3433
B(  7-C , 11-C ) :   1.8370 B(  7-C , 12-C ) :  -0.6722 B(  7-C , 13-C ) :   0.2638
B(  7-C , 14-C ) :   0.1259 B(  7-C , 19-H ) :   0.2946 B(  8-C ,  9-N ) :   0.7812
B(  8-C , 12-C ) :   0.1493 B(  8-C , 20-H ) :  -0.2022 B(  9-N , 10-C ) :   0.8677
B(  9-N , 15-C ) :  -0.2024 B(  9-N , 20-H ) :   1.2920 B(  9-N , 24-H ) :  -0.1216
B( 10-C , 11-C ) :   1.7697 B( 10-C , 12-C ) :  -0.4550 B( 10-C , 13-C ) :  -0.1506
B( 10-C , 15-C ) :   1.0570 B( 10-C , 20-H ) :  -0.1099 B( 10-C , 21-H ) :  -0.2159
B( 10-C , 24-H ) :   1.4506 B( 11-C , 12-C ) :   1.6324 B( 11-C , 13-C ) :  -0.2611
B( 11-C , 14-C ) :   0.2457 B( 11-C , 15-C ) :  -0.3622 B( 11-C , 18-H ) :   0.1239
B( 11-C , 19-H ) :   0.1007 B( 11-C , 21-H ) :   1.0127 B( 11-C , 22-H ) :   0.1033
B( 12-C , 13-C ) :   1.2665 B( 12-C , 14-C ) :  -0.2068 B( 12-C , 15-C ) :  -0.1247
B( 12-C , 21-H ) :  -1.0038 B( 12-C , 22-H ) :   0.4372 B( 13-C , 14-C ) :   1.7961
B( 13-C , 15-C ) :   0.4064 B( 13-C , 21-H ) :   0.5977 B( 13-C , 23-H ) :   0.2917
B( 13-C , 24-H ) :  -0.1678 B( 14-C , 15-C ) :   1.6837 B( 14-C , 21-H ) :  -0.1184
B( 14-C , 22-H ) :   0.1853 B( 14-C , 23-H ) :   0.1737 B( 15-C , 21-H ) :   0.1190
B( 15-C , 23-H ) :   0.2153 B( 15-C , 24-H ) :  -0.6785 B( 17-H , 18-H ) :  -0.1094

MP2 TOTAL ENERGY:     -684.522777888 Eh
FINAL SINGLE POINT ENERGY      -684.522777887522

DIPOLE MOMENT
-------------
                                X             Y             Z
Electronic contribution:      1.73056      -0.46083      -1.50746
Nuclear contribution   :     -3.64700       2.38792       2.49512
                        -----------------------------------------
Total Dipole Moment    :     -1.91644       1.92710       0.98767
                        -----------------------------------------
Magnitude (a.u.)       :      2.89170
Magnitude (Debye)      :      7.35012

Rotational constants in cm-1:     0.042335     0.010896     0.009563
Rotational constants in MHz :  1269.172289   326.646243   286.684196

                             ****ORCA TERMINATED NORMALLY****
TOTAL RUN TIME: 0 days 0 hours 5 minutes 6 seconds 213 msec
