                         Program Version 5.0.3 -  RELEASE  -
|  1> !ri-mp2 aug-cc-pvdz aug-cc-pvdz/c tightscf
|  2> %pal nprocs 16 end
|  3> %maxcore 3800
|  4>
|  5> * xyz 0 1
|  6> C     -0.176910   -0.999418    0.000000
|  7> C      0.539789    0.364342    0.000000
|  8> C      0.254060   -1.777499    1.254087
|  9> C     -1.706916   -0.860851    0.000000
| 10> C      0.254060    1.442946    1.082409
| 11> C      0.254060   -1.777499   -1.254087
| 12> C      0.486107    2.526258    0.000000
| 13> H     -0.178689    3.388865    0.000000
| 14> H      0.895719    1.457716    1.962608
| 15> C      0.254060    1.442946   -1.082409
| 16> H      0.895719    1.457716   -1.962608
| 17> H     -2.173656   -1.847725    0.000000
| 18> H     -0.206452   -2.767279   -1.276969
| 19> H     -0.785006    1.429853    1.411389
| 20> H     -0.785006    1.429853   -1.411389
| 21> H      1.615876    0.164339    0.000000
| 22> H     -0.038955   -1.254061   -2.165956
| 23> H     -2.067434   -0.330830    0.882403
| 24> H     -2.067434   -0.330830   -0.882403
| 25> H     -0.206452   -2.767279    1.276969
| 26> H      1.337322   -1.913005   -1.279707
| 27> H      1.516228    2.882374    0.000000
| 28> H      1.337322   -1.913005    1.279707
| 29> H     -0.038955   -1.254061    2.165956
| 30> *
| 31>
| 32>                          ****END OF INPUT****

CARTESIAN COORDINATES (ANGSTROEM)
---------------------------------
  C     -0.176910   -0.999418    0.000000
  C      0.539789    0.364342    0.000000
  C      0.254060   -1.777499    1.254087
  C     -1.706916   -0.860851    0.000000
  C      0.254060    1.442946    1.082409
  C      0.254060   -1.777499   -1.254087
  C      0.486107    2.526258    0.000000
  H     -0.178689    3.388865    0.000000
  H      0.895719    1.457716    1.962608
  C      0.254060    1.442946   -1.082409
  H      0.895719    1.457716   -1.962608
  H     -2.173656   -1.847725    0.000000
  H     -0.206452   -2.767279   -1.276969
  H     -0.785006    1.429853    1.411389
  H     -0.785006    1.429853   -1.411389
  H      1.615876    0.164339    0.000000
  H     -0.038955   -1.254061   -2.165956
  H     -2.067434   -0.330830    0.882403
  H     -2.067434   -0.330830   -0.882403
  H     -0.206452   -2.767279    1.276969
  H      1.337322   -1.913005   -1.279707
  H      1.516228    2.882374    0.000000
  H      1.337322   -1.913005    1.279707
  H     -0.038955   -1.254061    2.165956

 Total Charge           Charge          ....    0
 Multiplicity           Mult            ....    1
 Number of Electrons    NEL             ....   64
 Basis Dimension        Dim             ....  328

ORBITAL ENERGIES
----------------

  NO   OCC          E(Eh)            E(eV)
   0   2.0000     -11.232705      -305.6574
   1   2.0000     -11.222599      -305.3824
   2   2.0000     -11.219591      -305.3006
   3   2.0000     -11.217521      -305.2443
   4   2.0000     -11.217420      -305.2415
   5   2.0000     -11.212444      -305.1061
   6   2.0000     -11.212424      -305.1056
   7   2.0000     -11.211977      -305.0934
   8   2.0000      -1.138114       -30.9697
   9   2.0000      -1.074192       -29.2302
  10   2.0000      -0.929967       -25.3057
  11   2.0000      -0.928645       -25.2697
  12   2.0000      -0.890324       -24.2269
  13   2.0000      -0.889888       -24.2151
  14   2.0000      -0.772801       -21.0290
  15   2.0000      -0.716402       -19.4943
  16   2.0000      -0.645633       -17.5686
  17   2.0000      -0.640525       -17.4296
  18   2.0000      -0.595106       -16.1936
  19   2.0000      -0.594250       -16.1704
  20   2.0000      -0.560582       -15.2542
  21   2.0000      -0.545181       -14.8351
  22   2.0000      -0.532164       -14.4809
  23   2.0000      -0.530217       -14.4279
  24   2.0000      -0.506570       -13.7845
  25   2.0000      -0.493280       -13.4228
  26   2.0000      -0.481947       -13.1145
  27   2.0000      -0.465700       -12.6723
  28   2.0000      -0.457255       -12.4425
  29   2.0000      -0.433761       -11.8032
  30   2.0000      -0.419161       -11.4060
  31   2.0000      -0.409077       -11.1316
  32   0.0000       0.036870         1.0033
  33   0.0000       0.042852         1.1661
  34   0.0000       0.044831         1.2199
  35   0.0000       0.045490         1.2378
  36   0.0000       0.059540         1.6202

MULLIKEN ATOMIC CHARGES
-----------------------
   0 C :   -4.049984
   1 C :    0.495454
   2 C :    1.296844
   3 C :    1.374178
   4 C :    0.676770
   5 C :    1.296844
   6 C :    0.677419
   7 H :   -0.258895
   8 H :   -0.238849
   9 C :    0.676770
  10 H :   -0.238849
  11 H :   -0.066203
  12 H :   -0.044762
  13 H :   -0.270204
  14 H :   -0.270204
  15 H :   -0.434418
  16 H :   -0.045401
  17 H :   -0.066058
  18 H :   -0.066058
  19 H :   -0.044762
  20 H :   -0.042639
  21 H :   -0.268954
  22 H :   -0.042639
  23 H :   -0.045401
Sum of atomic charges:   -0.0000000

LOEWDIN ATOMIC CHARGES
----------------------
   0 C :   -0.470893
   1 C :   -0.138199
   2 C :    0.176671
   3 C :    0.177544
   4 C :    0.043649
   5 C :    0.176671
   6 C :    0.024531
   7 H :   -0.003073
   8 H :    0.002757
   9 C :    0.043649
  10 H :    0.002757
  11 H :   -0.007328
  12 H :   -0.008355
  13 H :   -0.000370
  14 H :   -0.000370
  15 H :    0.041946
  16 H :   -0.007740
  17 H :   -0.014361
  18 H :   -0.014361
  19 H :   -0.008355
  20 H :   -0.006102
  21 H :    0.003172
  22 H :   -0.006102
  23 H :   -0.007740

  Mayer bond orders larger than 0.100000
B(  0-C ,  1-C ) :   0.1166 B(  0-C ,  2-C ) :   1.3863 B(  0-C ,  3-C ) :   1.0862
B(  0-C ,  4-C ) :   0.2032 B(  0-C ,  5-C ) :   1.3863 B(  0-C ,  9-C ) :   0.2032
B(  0-C , 11-H ) :   0.2565 B(  0-C , 12-H ) :   0.2634 B(  0-C , 15-H ) :   0.4299
B(  0-C , 16-H ) :   0.2128 B(  0-C , 17-H ) :   0.1686 B(  0-C , 18-H ) :   0.1686
B(  0-C , 19-H ) :   0.2634 B(  0-C , 20-H ) :   0.1388 B(  0-C , 22-H ) :   0.1388
B(  0-C , 23-H ) :   0.2128 B(  1-C ,  4-C ) :   1.1253 B(  1-C ,  8-H ) :   0.2379
B(  1-C ,  9-C ) :   1.1253 B(  1-C , 10-H ) :   0.2379 B(  1-C , 13-H ) :   0.1780
B(  1-C , 14-H ) :   0.1780 B(  1-C , 15-H ) :  -0.1097 B(  1-C , 21-H ) :   0.1277
B(  2-C ,  3-C ) :  -0.1195 B(  2-C ,  5-C ) :  -0.1159 B(  2-C , 19-H ) :   0.6654
B(  2-C , 22-H ) :   0.7095 B(  2-C , 23-H ) :   0.7107 B(  3-C ,  5-C ) :  -0.1195
B(  3-C , 11-H ) :   0.6259 B(  3-C , 17-H ) :   0.7113 B(  3-C , 18-H ) :   0.7113
B(  4-C ,  6-C ) :   1.1920 B(  4-C ,  8-H ) :   0.6587 B(  4-C ,  9-C ) :  -0.1575
B(  4-C , 13-H ) :   0.6431 B(  4-C , 15-H ) :   0.1441 B(  5-C , 12-H ) :   0.6654
B(  5-C , 16-H ) :   0.7107 B(  5-C , 20-H ) :   0.7095 B(  6-C ,  7-H ) :   0.7128
B(  6-C ,  9-C ) :   1.1920 B(  6-C , 21-H ) :   0.6625 B(  7-H , 21-H ) :  -0.1877
B(  8-H , 13-H ) :  -0.1751 B(  9-C , 10-H ) :   0.6587 B(  9-C , 14-H ) :   0.6431
B(  9-C , 15-H ) :   0.1441 B( 10-H , 14-H ) :  -0.1751 B( 11-H , 17-H ) :  -0.1202
B( 11-H , 18-H ) :  -0.1202 B( 12-H , 16-H ) :  -0.1090 B( 12-H , 20-H ) :  -0.1085
B( 16-H , 20-H ) :  -0.1087 B( 17-H , 18-H ) :  -0.1053 B( 19-H , 22-H ) :  -0.1085
B( 19-H , 23-H ) :  -0.1090 B( 22-H , 23-H ) :  -0.1087

MP2 TOTAL ENERGY:     -313.465736552 Eh
FINAL SINGLE POINT ENERGY      -313.465736552266

DIPOLE MOMENT
-------------
                                X             Y             Z
Electronic contribution:      1.03308       2.31909      -0.00000
Nuclear contribution   :     -1.01741      -2.32150      -0.00000
                        -----------------------------------------
Total Dipole Moment    :      0.01567      -0.00240      -0.00000
                        -----------------------------------------
Magnitude (a.u.)       :      0.01585
Magnitude (Debye)      :      0.04030

Rotational constants in cm-1:     0.107025     0.047787     0.043684
Rotational constants in MHz :  3208.539777  1432.613099  1309.608069

                             ****ORCA TERMINATED NORMALLY****
TOTAL RUN TIME: 0 days 0 hours 1 minutes 53 seconds 814 msec
