                         Program Version 5.0.3 -  RELEASE  -
|  1> !ri-mp2 aug-cc-pvdz aug-cc-pvdz/c tightscf
|  2> %pal nprocs 16 end
|  3>
|  4> * xyz 0 1
|  5> C      0.000002   -0.367307    0.256085
|  6> O     -0.000002    0.965131    0.702169
|  7> C     -0.000007    1.956470   -0.327711
|  8> O     -1.098087   -0.677695   -0.536994
|  9> C     -2.334659   -0.671033    0.163443
| 10> O      1.098092   -0.677688   -0.536995
| 11> C      2.334663   -0.671026    0.163443
| 12> H      0.000003   -0.955286    1.185152
| 13> H     -0.000019    2.916553    0.181998
| 14> H      0.887101    1.876333   -0.957416
| 15> H     -0.887109    1.876316   -0.957423
| 16> H     -2.319311   -1.383477    0.994703
| 17> H     -2.574558    0.320771    0.552376
| 18> H     -3.094725   -0.974563   -0.551733
| 19> H      2.574558    0.320777    0.552383
| 20> H      2.319318   -1.383476    0.994698
| 21> H      3.094731   -0.974549   -0.551734
| 22> *
| 23>
| 24>                          ****END OF INPUT****

CARTESIAN COORDINATES (ANGSTROEM)
---------------------------------
  C      0.000002   -0.367307    0.256085
  O     -0.000002    0.965131    0.702169
  C     -0.000007    1.956470   -0.327711
  O     -1.098087   -0.677695   -0.536994
  C     -2.334659   -0.671033    0.163443
  O      1.098092   -0.677688   -0.536995
  C      2.334663   -0.671026    0.163443
  H      0.000003   -0.955286    1.185152
  H     -0.000019    2.916553    0.181998
  H      0.887101    1.876333   -0.957416
  H     -0.887109    1.876316   -0.957423
  H     -2.319311   -1.383477    0.994703
  H     -2.574558    0.320771    0.552376
  H     -3.094725   -0.974563   -0.551733
  H      2.574558    0.320777    0.552383
  H      2.319318   -1.383476    0.994698
  H      3.094731   -0.974549   -0.551734

 Total Charge           Charge          ....    0
 Multiplicity           Mult            ....    1
 Number of Electrons    NEL             ....   58
 Basis Dimension        Dim             ....  251

ORBITAL ENERGIES
----------------

  NO   OCC          E(Eh)            E(eV)
   0   2.0000     -20.575546      -559.8891
   1   2.0000     -20.575530      -559.8886
   2   2.0000     -20.573586      -559.8357
   3   2.0000     -11.390314      -309.9462
   4   2.0000     -11.282570      -307.0143
   5   2.0000     -11.282568      -307.0143
   6   2.0000     -11.275004      -306.8084
   7   2.0000      -1.458649       -39.6918
   8   2.0000      -1.359583       -36.9961
   9   2.0000      -1.352794       -36.8114
  10   2.0000      -0.994240       -27.0546
  11   2.0000      -0.946417       -25.7533
  12   2.0000      -0.918723       -24.9997
  13   2.0000      -0.824451       -22.4345
  14   2.0000      -0.721089       -19.6218
  15   2.0000      -0.707491       -19.2518
  16   2.0000      -0.700147       -19.0520
  17   2.0000      -0.640960       -17.4414
  18   2.0000      -0.615684       -16.7536
  19   2.0000      -0.602782       -16.4025
  20   2.0000      -0.592793       -16.1307
  21   2.0000      -0.570076       -15.5126
  22   2.0000      -0.555986       -15.1292
  23   2.0000      -0.532118       -14.4797
  24   2.0000      -0.515896       -14.0383
  25   2.0000      -0.468480       -12.7480
  26   2.0000      -0.452510       -12.3134
  27   2.0000      -0.444449       -12.0941
  28   2.0000      -0.443994       -12.0817
  29   0.0000       0.035818         0.9747
  30   0.0000       0.043793         1.1917
  31   0.0000       0.045548         1.2394
  32   0.0000       0.051411         1.3990
  33   0.0000       0.065700         1.7878

MULLIKEN ATOMIC CHARGES
-----------------------
   0 C :    1.931678
   1 O :   -0.970010
   2 C :    0.787802
   3 O :   -0.874729
   4 C :    0.744709
   5 O :   -0.874727
   6 C :    0.744707
   7 H :   -0.439566
   8 H :   -0.220056
   9 H :   -0.067529
  10 H :   -0.067527
  11 H :   -0.043407
  12 H :   -0.045082
  13 H :   -0.258888
  14 H :   -0.045079
  15 H :   -0.043407
  16 H :   -0.258889
Sum of atomic charges:    0.0000000

LOEWDIN ATOMIC CHARGES
----------------------
   0 C :   -0.287707
   1 O :   -0.007042
   2 C :    0.150265
   3 O :    0.016385
   4 C :    0.148617
   5 O :    0.016385
   6 C :    0.148617
   7 H :    0.030888
   8 H :   -0.026670
   9 H :   -0.025006
  10 H :   -0.025006
  11 H :   -0.021446
  12 H :   -0.023362
  13 H :   -0.025055
  14 H :   -0.023361
  15 H :   -0.021446
  16 H :   -0.025055

  Mayer bond orders larger than 0.100000
B(  0-C ,  1-O ) :   0.5918 B(  0-C ,  3-O ) :   0.5326 B(  0-C ,  5-O ) :   0.5326
B(  0-C ,  7-H ) :   0.8147 B(  1-O ,  2-C ) :   0.6817 B(  2-C ,  8-H ) :   1.0101
B(  2-C ,  9-H ) :   0.9609 B(  2-C , 10-H ) :   0.9609 B(  3-O ,  4-C ) :   0.7454
B(  4-C , 11-H ) :   0.9521 B(  4-C , 12-H ) :   0.9346 B(  4-C , 13-H ) :   1.0527
B(  5-O ,  6-C ) :   0.7454 B(  6-C , 14-H ) :   0.9346 B(  6-C , 15-H ) :   0.9521
B(  6-C , 16-H ) :   1.0527

MP2 TOTAL ENERGY:     -383.085726123 Eh
FINAL SINGLE POINT ENERGY      -383.085726123065

DIPOLE MOMENT
-------------
                                X             Y             Z
Electronic contribution:      0.00001      -1.51139      -1.00539
Nuclear contribution   :     -0.00001       1.67645       1.47516
                        -----------------------------------------
Total Dipole Moment    :     -0.00000       0.16506       0.46976
                        -----------------------------------------
Magnitude (a.u.)       :      0.49792
Magnitude (Debye)      :      1.26561

Rotational constants in cm-1:     0.123143     0.070063     0.051785
Rotational constants in MHz :  3691.745095  2100.440576  1552.489351

                             ****ORCA TERMINATED NORMALLY****
TOTAL RUN TIME: 0 days 0 hours 0 minutes 57 seconds 961 msec
