                         Program Version 5.0.3 -  RELEASE  -
|  1> !ri-mp2 aug-cc-pvdz aug-cc-pvdz/c tightscf
|  2> %pal nprocs 16 end
|  3>
|  4> * xyz 0 1
|  5> C      0.038452    0.035580    0.000000
|  6> C      0.922994   -1.233024    0.000000
|  7> O      0.496614   -2.344783    0.000000
|  8> Cl    -1.683707   -0.338809    0.000000
|  9> Cl     0.496614    0.961332    1.470611
| 10> Cl     0.496614    0.961332   -1.470611
| 11> H      1.996540   -0.982605    0.000000
| 12> *
| 13>
| 14>                          ****END OF INPUT****

CARTESIAN COORDINATES (ANGSTROEM)
---------------------------------
  C      0.038452    0.035580    0.000000
  C      0.922994   -1.233024    0.000000
  O      0.496614   -2.344783    0.000000
  Cl    -1.683707   -0.338809    0.000000
  Cl     0.496614    0.961332    1.470611
  Cl     0.496614    0.961332   -1.470611
  H      1.996540   -0.982605    0.000000

 Total Charge           Charge          ....    0
 Multiplicity           Mult            ....    1
 Number of Electrons    NEL             ....   72
 Basis Dimension        Dim             ....  159

ORBITAL ENERGIES
----------------

  NO   OCC          E(Eh)            E(eV)
   0   2.0000    -104.882124     -2853.9877
   1   2.0000    -104.882123     -2853.9877
   2   2.0000    -104.875063     -2853.7956
   3   2.0000     -20.618828      -561.0668
   4   2.0000     -11.462624      -311.9139
   5   2.0000     -11.394086      -310.0488
   6   2.0000     -10.608002      -288.6584
   7   2.0000     -10.607985      -288.6579
   8   2.0000     -10.601246      -288.4746
   9   2.0000      -8.075625      -219.7489
  10   2.0000      -8.075623      -219.7489
  11   2.0000      -8.072007      -219.6505
  12   2.0000      -8.072006      -219.6504
  13   2.0000      -8.071939      -219.6486
  14   2.0000      -8.071938      -219.6486
  15   2.0000      -8.069016      -219.5691
  16   2.0000      -8.065208      -219.4655
  17   2.0000      -8.065124      -219.4632
  18   2.0000      -1.456944       -39.6455
  19   2.0000      -1.258933       -34.2573
  20   2.0000      -1.130822       -30.7712
  21   2.0000      -1.129883       -30.7457
  22   2.0000      -0.964046       -26.2330
  23   2.0000      -0.809937       -22.0395
  24   2.0000      -0.719527       -19.5793
  25   2.0000      -0.695759       -18.9326
  26   2.0000      -0.654485       -17.8094
  27   2.0000      -0.626337       -17.0435
  28   2.0000      -0.568643       -15.4736
  29   2.0000      -0.524221       -14.2648
  30   2.0000      -0.515252       -14.0207
  31   2.0000      -0.512645       -13.9498
  32   2.0000      -0.479878       -13.0582
  33   2.0000      -0.478026       -13.0078
  34   2.0000      -0.464515       -12.6401
  35   2.0000      -0.455754       -12.4017
  36   0.0000       0.039157         1.0655
  37   0.0000       0.065329         1.7777
  38   0.0000       0.065999         1.7959
  39   0.0000       0.081178         2.2090
  40   0.0000       0.093853         2.5539

MULLIKEN ATOMIC CHARGES
-----------------------
   0 C :   -1.047843
   1 C :    1.269349
   2 O :   -0.555136
   3 Cl:    0.113329
   4 Cl:    0.111792
   5 Cl:    0.111792
   6 H :   -0.003283
Sum of atomic charges:   -0.0000000

LOEWDIN ATOMIC CHARGES
----------------------
   0 C :   -1.374467
   1 C :   -0.234165
   2 O :    0.049944
   3 Cl:    0.546523
   4 Cl:    0.505096
   5 Cl:    0.505096
   6 H :    0.001973

  Mayer bond orders larger than 0.100000
B(  0-C ,  1-C ) :   0.7758 B(  0-C ,  3-Cl) :   1.2453 B(  0-C ,  4-Cl) :   1.2063
B(  0-C ,  5-Cl) :   1.2063 B(  1-C ,  2-O ) :   1.6945 B(  1-C ,  6-H ) :   0.8743

MP2 TOTAL ENERGY:    -1530.593341055 Eh
FINAL SINGLE POINT ENERGY     -1530.593341055024

DIPOLE MOMENT
-------------
                                X             Y             Z
Electronic contribution:     -2.24380       3.54549      -0.00000
Nuclear contribution   :      2.74520      -3.01430       0.00000
                        -----------------------------------------
Total Dipole Moment    :      0.50140       0.53119      -0.00000
                        -----------------------------------------
Magnitude (a.u.)       :      0.73045
Magnitude (Debye)      :      1.85666

Rotational constants in cm-1:     0.059911     0.053878     0.049845
Rotational constants in MHz :  1796.080718  1615.231745  1494.317491

                             ****ORCA TERMINATED NORMALLY****
TOTAL RUN TIME: 0 days 0 hours 0 minutes 44 seconds 92 msec
