                         Program Version 5.0.3 -  RELEASE  -
|  1> !ri-mp2 aug-cc-pvdz aug-cc-pvdz/c tightscf
|  2> %pal nprocs 16 end
|  3>
|  4> * xyz 0 1
|  5> C      0.000000    0.000000    0.660447
|  6> C      0.000000    0.000000   -0.660447
|  7> F      0.000000    1.100779    1.387647
|  8> F      0.000000   -1.100779    1.387647
|  9> F      0.000000   -1.100779   -1.387647
| 10> F      0.000000    1.100779   -1.387647
| 11> *
| 12>
| 13>                          ****END OF INPUT****

CARTESIAN COORDINATES (ANGSTROEM)
---------------------------------
  C      0.000000    0.000000    0.660447
  C      0.000000    0.000000   -0.660447
  F      0.000000    1.100779    1.387647
  F      0.000000   -1.100779    1.387647
  F      0.000000   -1.100779   -1.387647
  F      0.000000    1.100779   -1.387647

 Total Charge           Charge          ....    0
 Multiplicity           Mult            ....    1
 Number of Electrons    NEL             ....   48
 Basis Dimension        Dim             ....  138

ORBITAL ENERGIES
----------------

  NO   OCC          E(Eh)            E(eV)
   0   2.0000     -26.384019      -717.9457
   1   2.0000     -26.384015      -717.9455
   2   2.0000     -26.384004      -717.9452
   3   2.0000     -26.383999      -717.9451
   4   2.0000     -11.459097      -311.8179
   5   2.0000     -11.457366      -311.7708
   6   2.0000      -1.737153       -47.2703
   7   2.0000      -1.722045       -46.8592
   8   2.0000      -1.675161       -45.5834
   9   2.0000      -1.665019       -45.3075
  10   2.0000      -1.108967       -30.1765
  11   2.0000      -0.923751       -25.1365
  12   2.0000      -0.869206       -23.6523
  13   2.0000      -0.847700       -23.0671
  14   2.0000      -0.807430       -21.9713
  15   2.0000      -0.794316       -21.6144
  16   2.0000      -0.765785       -20.8381
  17   2.0000      -0.742020       -20.1914
  18   2.0000      -0.718452       -19.5501
  19   2.0000      -0.711834       -19.3700
  20   2.0000      -0.698654       -19.0113
  21   2.0000      -0.683059       -18.5870
  22   2.0000      -0.679162       -18.4809
  23   2.0000      -0.407588       -11.0910
  24   0.0000       0.066591         1.8120
  25   0.0000       0.069367         1.8876
  26   0.0000       0.091335         2.4854
  27   0.0000       0.094672         2.5762
  28   0.0000       0.119217         3.2441

MULLIKEN ATOMIC CHARGES
-----------------------
   0 C :    1.136228
   1 C :    1.136228
   2 F :   -0.568114
   3 F :   -0.568114
   4 F :   -0.568114
   5 F :   -0.568114
Sum of atomic charges:   -0.0000000

LOEWDIN ATOMIC CHARGES
----------------------
   0 C :   -0.201638
   1 C :   -0.201638
   2 F :    0.100819
   3 F :    0.100819
   4 F :    0.100819
   5 F :    0.100819

  Mayer bond orders larger than 0.100000
B(  0-C ,  1-C ) :   1.9737 B(  0-C ,  2-F ) :   0.3065 B(  0-C ,  3-F ) :   0.3065
B(  0-C ,  4-F ) :   0.2048 B(  0-C ,  5-F ) :   0.2048 B(  1-C ,  2-F ) :   0.2048
B(  1-C ,  3-F ) :   0.2048 B(  1-C ,  4-F ) :   0.3065 B(  1-C ,  5-F ) :   0.3065

MP2 TOTAL ENERGY:     -474.540528320 Eh
FINAL SINGLE POINT ENERGY      -474.540528319515

DIPOLE MOMENT
-------------
                                X             Y             Z
Electronic contribution:     -0.00000       0.00000      -0.00000
Nuclear contribution   :      0.00000       0.00000       0.00000
                        -----------------------------------------
Total Dipole Moment    :     -0.00000       0.00000      -0.00000
                        -----------------------------------------
Magnitude (a.u.)       :      0.00000
Magnitude (Debye)      :      0.00000

Rotational constants in cm-1:     0.183075     0.107507     0.067732
Rotational constants in MHz :  5488.446785  3222.967563  2030.564183

                             ****ORCA TERMINATED NORMALLY****
TOTAL RUN TIME: 0 days 0 hours 0 minutes 39 seconds 238 msec
