                         Program Version 5.0.3 -  RELEASE  -
|  1> !ri-mp2 aug-cc-pvdz aug-cc-pvdz/c tightscf
|  2> %pal nprocs 16 end
|  3>
|  4> * xyz 0 1
|  5> C     1.233554    -2.804366    0.000000
|  6> H     1.251117    -3.456614    0.877469
|  7> H     1.251117    -3.456614   -0.877469
|  8> H     2.138991    -2.200941    0.000000
|  9> C    -1.233554     2.804366    0.000000
| 10> H    -1.251117     3.456614   -0.877469
| 11> H    -1.251117     3.456614    0.877469
| 12> H    -2.138991     2.200941    0.000000
| 13> C     0.001866    -1.946573    0.000000
| 14> H    -0.953142    -2.465454    0.000000
| 15> C    -0.001866     1.946573    0.000000
| 16> H     0.953142     2.465454    0.000000
| 17> C     0.001866     0.631609    0.000000
| 18> C    -0.001866    -0.631609    0.000000
| 19> *
| 20>
| 21>                          ****END OF INPUT****

CARTESIAN COORDINATES (ANGSTROEM)
---------------------------------
  C      1.233554   -2.804366    0.000000
  H      1.251117   -3.456614    0.877469
  H      1.251117   -3.456614   -0.877469
  H      2.138991   -2.200941    0.000000
  C     -1.233554    2.804366    0.000000
  H     -1.251117    3.456614   -0.877469
  H     -1.251117    3.456614    0.877469
  H     -2.138991    2.200941    0.000000
  C      0.001866   -1.946573    0.000000
  H     -0.953142   -2.465454    0.000000
  C     -0.001866    1.946573    0.000000
  H      0.953142    2.465454    0.000000
  C      0.001866    0.631609    0.000000
  C     -0.001866   -0.631609    0.000000

 Total Charge           Charge          ....    0
 Multiplicity           Mult            ....    1
 Number of Electrons    NEL             ....   44
 Basis Dimension        Dim             ....  210

ORBITAL ENERGIES
----------------

  NO   OCC          E(Eh)            E(eV)
   0   2.0000     -11.256991      -306.3183
   1   2.0000     -11.256976      -306.3179
   2   2.0000     -11.248839      -306.0965
   3   2.0000     -11.246413      -306.0304
   4   2.0000     -11.234946      -305.7184
   5   2.0000     -11.234945      -305.7184
   6   2.0000      -1.101608       -29.9763
   7   2.0000      -1.058822       -28.8120
   8   2.0000      -0.980526       -26.6815
   9   2.0000      -0.905702       -24.6454
  10   2.0000      -0.836461       -22.7613
  11   2.0000      -0.683325       -18.5942
  12   2.0000      -0.655365       -17.8334
  13   2.0000      -0.587762       -15.9938
  14   2.0000      -0.574827       -15.6418
  15   2.0000      -0.569918       -15.5083
  16   2.0000      -0.567298       -15.4370
  17   2.0000      -0.531294       -14.4572
  18   2.0000      -0.525589       -14.3020
  19   2.0000      -0.452526       -12.3138
  20   2.0000      -0.363299        -9.8859
  21   2.0000      -0.308228        -8.3873
  22   0.0000       0.035162         0.9568
  23   0.0000       0.039978         1.0878
  24   0.0000       0.046928         1.2770
  25   0.0000       0.057796         1.5727
  26   0.0000       0.057915         1.5760

MULLIKEN ATOMIC CHARGES
-----------------------
   0 C :    0.208819
   1 H :    0.019068
   2 H :    0.019068
   3 H :   -0.175756
   4 C :    0.208819
   5 H :    0.019068
   6 H :    0.019068
   7 H :   -0.175756
   8 C :    0.256046
   9 H :   -0.351443
  10 C :    0.256046
  11 H :   -0.351443
  12 C :    0.024198
  13 C :    0.024198
Sum of atomic charges:   -0.0000000

LOEWDIN ATOMIC CHARGES
----------------------
   0 C :    0.135246
   1 H :   -0.016457
   2 H :   -0.016457
   3 H :   -0.016167
   4 C :    0.135246
   5 H :   -0.016457
   6 H :   -0.016457
   7 H :   -0.016167
   8 C :   -0.041230
   9 H :   -0.004953
  10 C :   -0.041230
  11 H :   -0.004953
  12 C :   -0.039981
  13 C :   -0.039981

  Mayer bond orders larger than 0.100000
B(  0-C ,  1-H ) :   0.9524 B(  0-C ,  2-H ) :   0.9524 B(  0-C ,  3-H ) :   0.9535
B(  0-C ,  8-C ) :   1.1113 B(  0-C , 13-C ) :  -0.1008 B(  3-H ,  8-C ) :   0.1399
B(  3-H , 13-C ) :  -0.2185 B(  4-C ,  5-H ) :   0.9524 B(  4-C ,  6-H ) :   0.9524
B(  4-C ,  7-H ) :   0.9535 B(  4-C , 10-C ) :   1.1113 B(  4-C , 12-C ) :  -0.1008
B(  7-H , 10-C ) :   0.1399 B(  7-H , 12-C ) :  -0.2185 B(  8-C ,  9-H ) :   0.6481
B(  8-C , 10-C ) :   0.2997 B(  8-C , 12-C ) :   0.1483 B(  8-C , 13-C ) :   1.9640
B(  9-H , 13-C ) :   0.2216 B( 10-C , 11-H ) :   0.6481 B( 10-C , 12-C ) :   1.9640
B( 10-C , 13-C ) :   0.1483 B( 11-H , 12-C ) :   0.2216 B( 12-C , 13-C ) :   1.9912

MP2 TOTAL ENERGY:     -232.621727589 Eh
FINAL SINGLE POINT ENERGY      -232.621727588866

DIPOLE MOMENT
-------------
                                X             Y             Z
Electronic contribution:      0.00000       0.00000       0.00000
Nuclear contribution   :     -0.00000       0.00000       0.00000
                        -----------------------------------------
Total Dipole Moment    :      0.00000       0.00000       0.00000
                        -----------------------------------------
Magnitude (a.u.)       :      0.00000
Magnitude (Debye)      :      0.00000

Rotational constants in cm-1:     0.695309     0.042612     0.040754
Rotational constants in MHz : 20844.827452  1277.484330  1221.782333

                             ****ORCA TERMINATED NORMALLY****
TOTAL RUN TIME: 0 days 0 hours 0 minutes 51 seconds 354 msec
