                         Program Version 5.0.3 -  RELEASE  -
|  1> !ri-mp2 aug-cc-pvdz aug-cc-pvdz/c tightscf
|  2> %pal nprocs 16 end
|  3> %maxcore 3800
|  4>
|  5> * xyz 0 1
|  6> C      1.016390    2.717163    0.000000
|  7> C      1.881445    1.628485    0.000000
|  8> C     -0.351319    2.489477    0.000000
|  9> C      1.378116    0.335664    0.000000
| 10> C     -0.850314    1.189521    0.000000
| 11> C      0.000795    0.083541    0.000000
| 12> C      0.000795   -2.093932    1.258284
| 13> C      0.000795   -2.093932   -1.258284
| 14> C     -2.048330   -1.439541    0.000000
| 15> C     -0.514092   -1.363859    0.000000
| 16> H      1.405258    3.726594    0.000000
| 17> H      2.952226    1.785794    0.000000
| 18> H     -1.040642    3.323885    0.000000
| 19> H      2.076582   -0.490211    0.000000
| 20> H     -1.921023    1.051194    0.000000
| 21> H     -0.357843   -3.125177    1.270861
| 22> H      1.089525   -2.120203    1.294620
| 23> H     -0.351283   -1.601521    2.165820
| 24> H      1.089525   -2.120203   -1.294620
| 25> H     -0.357843   -3.125177   -1.270861
| 26> H     -0.351283   -1.601521   -2.165820
| 27> H     -2.361319   -2.484481    0.000000
| 28> H     -2.478782   -0.967247    0.883628
| 29> H     -2.478782   -0.967247   -0.883628
| 30> *
| 31>
| 32>                          ****END OF INPUT****

CARTESIAN COORDINATES (ANGSTROEM)
---------------------------------
  C      1.016390    2.717163    0.000000
  C      1.881445    1.628485    0.000000
  C     -0.351319    2.489477    0.000000
  C      1.378116    0.335664    0.000000
  C     -0.850314    1.189521    0.000000
  C      0.000795    0.083541    0.000000
  C      0.000795   -2.093932    1.258284
  C      0.000795   -2.093932   -1.258284
  C     -2.048330   -1.439541    0.000000
  C     -0.514092   -1.363859    0.000000
  H      1.405258    3.726594    0.000000
  H      2.952226    1.785794    0.000000
  H     -1.040642    3.323885    0.000000
  H      2.076582   -0.490211    0.000000
  H     -1.921023    1.051194    0.000000
  H     -0.357843   -3.125177    1.270861
  H      1.089525   -2.120203    1.294620
  H     -0.351283   -1.601521    2.165820
  H      1.089525   -2.120203   -1.294620
  H     -0.357843   -3.125177   -1.270861
  H     -0.351283   -1.601521   -2.165820
  H     -2.361319   -2.484481    0.000000
  H     -2.478782   -0.967247    0.883628
  H     -2.478782   -0.967247   -0.883628

 Total Charge           Charge          ....    0
 Multiplicity           Mult            ....    1
 Number of Electrons    NEL             ....   74
 Basis Dimension        Dim             ....  356

ORBITAL ENERGIES
----------------

  NO   OCC          E(Eh)            E(eV)
   0   2.0000     -11.248082      -306.0759
   1   2.0000     -11.241029      -305.8840
   2   2.0000     -11.235948      -305.7457
   3   2.0000     -11.235381      -305.7303
   4   2.0000     -11.232328      -305.6472
   5   2.0000     -11.231450      -305.6233
   6   2.0000     -11.230868      -305.6075
   7   2.0000     -11.219021      -305.2851
   8   2.0000     -11.218809      -305.2793
   9   2.0000     -11.218792      -305.2789
  10   2.0000      -1.159521       -31.5522
  11   2.0000      -1.099212       -29.9111
  12   2.0000      -1.013735       -27.5851
  13   2.0000      -0.999664       -27.2022
  14   2.0000      -0.934805       -25.4373
  15   2.0000      -0.933114       -25.3913
  16   2.0000      -0.835978       -22.7481
  17   2.0000      -0.820276       -22.3208
  18   2.0000      -0.750535       -20.4231
  19   2.0000      -0.695455       -18.9243
  20   2.0000      -0.631431       -17.1821
  21   2.0000      -0.629178       -17.1208
  22   2.0000      -0.614180       -16.7127
  23   2.0000      -0.600801       -16.3486
  24   2.0000      -0.586351       -15.9554
  25   2.0000      -0.578037       -15.7292
  26   2.0000      -0.546720       -14.8770
  27   2.0000      -0.530996       -14.4491
  28   2.0000      -0.523357       -14.2413
  29   2.0000      -0.514590       -14.0027
  30   2.0000      -0.497782       -13.5454
  31   2.0000      -0.495101       -13.4724
  32   2.0000      -0.463945       -12.6246
  33   2.0000      -0.458576       -12.4785
  34   2.0000      -0.451577       -12.2880
  35   2.0000      -0.332518        -9.0483
  36   2.0000      -0.323324        -8.7981
  37   0.0000       0.034567         0.9406
  38   0.0000       0.039507         1.0750
  39   0.0000       0.041471         1.1285
  40   0.0000       0.050468         1.3733
  41   0.0000       0.053805         1.4641

MULLIKEN ATOMIC CHARGES
-----------------------
   0 C :    0.585008
   1 C :    0.160425
   2 C :    0.164278
   3 C :    0.523234
   4 C :    0.611579
   5 C :    1.745459
   6 C :    1.035858
   7 C :    1.035858
   8 C :    1.215060
   9 C :   -3.497719
  10 H :   -0.454907
  11 H :   -0.479541
  12 H :   -0.477750
  13 H :   -0.743209
  14 H :   -0.802216
  15 H :   -0.057962
  16 H :   -0.120049
  17 H :   -0.073865
  18 H :   -0.120049
  19 H :   -0.057962
  20 H :   -0.073865
  21 H :   -0.148938
  22 H :    0.015638
  23 H :    0.015638
Sum of atomic charges:    0.0000000

LOEWDIN ATOMIC CHARGES
----------------------
   0 C :    0.002930
   1 C :    0.011171
   2 C :    0.011980
   3 C :    0.044209
   4 C :    0.045368
   5 C :   -0.118841
   6 C :    0.181606
   7 C :    0.181606
   8 C :    0.162096
   9 C :   -0.442995
  10 H :   -0.002269
  11 H :    0.000404
  12 H :    0.000208
  13 H :   -0.000144
  14 H :   -0.010101
  15 H :   -0.007703
  16 H :   -0.015969
  17 H :   -0.001644
  18 H :   -0.015969
  19 H :   -0.007703
  20 H :   -0.001644
  21 H :   -0.007820
  22 H :   -0.004389
  23 H :   -0.004389

  Mayer bond orders larger than 0.100000
B(  0-C ,  1-C ) :   1.7596 B(  0-C ,  2-C ) :   1.8321 B(  0-C ,  9-C ) :   0.1133
B(  0-C , 10-H ) :   0.2020 B(  0-C , 11-H ) :   0.1066 B(  1-C ,  3-C ) :   1.7608
B(  1-C ,  5-C ) :  -0.7305 B(  1-C ,  6-C ) :   0.1344 B(  1-C ,  7-C ) :   0.1344
B(  1-C ,  9-C ) :   0.3096 B(  1-C , 10-H ) :   0.2661 B(  1-C , 11-H ) :   0.1262
B(  1-C , 12-H ) :  -0.1256 B(  1-C , 13-H ) :   0.3547 B(  2-C ,  4-C ) :   1.6546
B(  2-C ,  5-C ) :  -0.3834 B(  2-C , 10-H ) :   0.2378 B(  2-C , 11-H ) :  -0.1343
B(  2-C , 14-H ) :   0.4846 B(  3-C ,  4-C ) :  -0.4372 B(  3-C ,  5-C ) :   0.9931
B(  3-C ,  8-C ) :  -0.1621 B(  3-C ,  9-C ) :  -0.1448 B(  3-C , 11-H ) :   0.4860
B(  3-C , 13-H ) :  -0.4996 B(  3-C , 14-H ) :  -0.1142 B(  4-C ,  5-C ) :   2.2901
B(  4-C ,  9-C ) :  -0.3907 B(  4-C , 11-H ) :   0.1044 B(  4-C , 12-H ) :   0.6122
B(  4-C , 14-H ) :  -0.9344 B(  5-C ,  9-C ) :   0.3661 B(  5-C , 13-H ) :   0.7372
B(  5-C , 14-H ) :   0.7162 B(  6-C ,  7-C ) :  -0.2078 B(  6-C ,  8-C ) :  -0.1356
B(  6-C ,  9-C ) :   1.3808 B(  6-C , 15-H ) :   0.7062 B(  6-C , 16-H ) :   0.8053
B(  6-C , 17-H ) :   0.7977 B(  7-C ,  8-C ) :  -0.1356 B(  7-C ,  9-C ) :   1.3808
B(  7-C , 18-H ) :   0.8053 B(  7-C , 19-H ) :   0.7062 B(  7-C , 20-H ) :   0.7977
B(  8-C ,  9-C ) :   1.6357 B(  8-C , 21-H ) :   0.6137 B(  8-C , 22-H ) :   0.6972
B(  8-C , 23-H ) :   0.6972 B(  9-C , 13-H ) :  -0.1999 B(  9-C , 14-H ) :   0.1769
B(  9-C , 15-H ) :   0.2633 B(  9-C , 16-H ) :   0.1688 B(  9-C , 17-H ) :   0.1637
B(  9-C , 18-H ) :   0.1688 B(  9-C , 19-H ) :   0.2633 B(  9-C , 20-H ) :   0.1637
B(  9-C , 21-H ) :   0.3157 B(  9-C , 22-H ) :   0.1274 B(  9-C , 23-H ) :   0.1274
B( 15-H , 16-H ) :  -0.1110 B( 15-H , 17-H ) :  -0.1130 B( 18-H , 19-H ) :  -0.1110
B( 19-H , 20-H ) :  -0.1130 B( 21-H , 22-H ) :  -0.1217 B( 21-H , 23-H ) :  -0.1217
B( 22-H , 23-H ) :  -0.1266

MP2 TOTAL ENERGY:     -388.302261347 Eh
FINAL SINGLE POINT ENERGY      -388.302261346890

DIPOLE MOMENT
-------------
                                X             Y             Z
Electronic contribution:      3.13754       8.85593       0.00000
Nuclear contribution   :     -3.19501      -9.02431      -0.00000
                        -----------------------------------------
Total Dipole Moment    :     -0.05747      -0.16838       0.00000
                        -----------------------------------------
Magnitude (a.u.)       :      0.17791
Magnitude (Debye)      :      0.45222

Rotational constants in cm-1:     0.085556     0.031584     0.027217
Rotational constants in MHz :  2564.894076   946.865200   815.946056

                             ****ORCA TERMINATED NORMALLY****
TOTAL RUN TIME: 0 days 0 hours 2 minutes 33 seconds 852 msec
