                         Program Version 5.0.3 -  RELEASE  -
|  1> !ri-mp2 aug-cc-pvdz aug-cc-pvdz/c tightscf
|  2> %pal nprocs 16 end
|  3> %maxcore 3800
|  4>
|  5> * xyz 0 1
|  6> C     0.413406    2.700298   -1.134720
|  7> C     0.000000    3.315092    0.199170
|  8> C    -0.395103    1.934856   -0.158726
|  9> C    -1.657201    1.128232   -0.172530
| 10> C    -0.395289    0.613063    0.456739
| 11> C     0.000000    0.000000    1.767022
| 12> C     0.395289   -0.613063    0.456739
| 13> C     1.657201   -1.128232   -0.172530
| 14> C     0.395103   -1.934856   -0.158726
| 15> C     0.000000   -3.315092    0.199170
| 16> C    -0.413406   -2.700298   -1.134720
| 17> H    -0.070461    3.069979   -2.029417
| 18> H     1.454651    2.435395   -1.262890
| 19> H     0.769193    3.453264    0.948163
| 20> H    -0.755429    4.089910    0.182539
| 21> H    -2.465963    1.433064    0.481413
| 22> H    -1.971867    0.689861   -1.112222
| 23> H     0.765446    0.497373    2.351754
| 24> H    -0.765446   -0.497373    2.351754
| 25> H     1.971867   -0.689861   -1.112222
| 26> H     2.465963   -1.433064    0.481413
| 27> H    -0.769193   -3.453264    0.948163
| 28> H     0.755429   -4.089910    0.182539
| 29> H    -1.454651   -2.435395   -1.262890
| 30> H     0.070461   -3.069979   -2.029417
| 31> *
| 32>
| 33>                          ****END OF INPUT****

CARTESIAN COORDINATES (ANGSTROEM)
---------------------------------
  C      0.413406    2.700298   -1.134720
  C      0.000000    3.315092    0.199170
  C     -0.395103    1.934856   -0.158726
  C     -1.657201    1.128232   -0.172530
  C     -0.395289    0.613063    0.456739
  C      0.000000    0.000000    1.767022
  C      0.395289   -0.613063    0.456739
  C      1.657201   -1.128232   -0.172530
  C      0.395103   -1.934856   -0.158726
  C      0.000000   -3.315092    0.199170
  C     -0.413406   -2.700298   -1.134720
  H     -0.070461    3.069979   -2.029417
  H      1.454651    2.435395   -1.262890
  H      0.769193    3.453264    0.948163
  H     -0.755429    4.089910    0.182539
  H     -2.465963    1.433064    0.481413
  H     -1.971867    0.689861   -1.112222
  H      0.765446    0.497373    2.351754
  H     -0.765446   -0.497373    2.351754
  H      1.971867   -0.689861   -1.112222
  H      2.465963   -1.433064    0.481413
  H     -0.769193   -3.453264    0.948163
  H      0.755429   -4.089910    0.182539
  H     -1.454651   -2.435395   -1.262890
  H      0.070461   -3.069979   -2.029417

 Total Charge           Charge          ....    0
 Multiplicity           Mult            ....    1
 Number of Electrons    NEL             ....   80
 Basis Dimension        Dim             ....  379

ORBITAL ENERGIES
----------------

  NO   OCC          E(Eh)            E(eV)
   0   2.0000     -11.241513      -305.8971
   1   2.0000     -11.240778      -305.8771
   2   2.0000     -11.239691      -305.8475
   3   2.0000     -11.239609      -305.8453
   4   2.0000     -11.229780      -305.5778
   5   2.0000     -11.229775      -305.5777
   6   2.0000     -11.229550      -305.5716
   7   2.0000     -11.229496      -305.5701
   8   2.0000     -11.229496      -305.5701
   9   2.0000     -11.228904      -305.5540
  10   2.0000     -11.228904      -305.5540
  11   2.0000      -1.203852       -32.7585
  12   2.0000      -1.166312       -31.7370
  13   2.0000      -1.110574       -30.2203
  14   2.0000      -1.050626       -28.5890
  15   2.0000      -1.002227       -27.2720
  16   2.0000      -0.825857       -22.4727
  17   2.0000      -0.823974       -22.4215
  18   2.0000      -0.791418       -21.5356
  19   2.0000      -0.787373       -21.4255
  20   2.0000      -0.747085       -20.3292
  21   2.0000      -0.697912       -18.9911
  22   2.0000      -0.674960       -18.3666
  23   2.0000      -0.639841       -17.4109
  24   2.0000      -0.639337       -17.3973
  25   2.0000      -0.613031       -16.6814
  26   2.0000      -0.609965       -16.5980
  27   2.0000      -0.597094       -16.2478
  28   2.0000      -0.534698       -14.5499
  29   2.0000      -0.513478       -13.9725
  30   2.0000      -0.511170       -13.9097
  31   2.0000      -0.493960       -13.4413
  32   2.0000      -0.468961       -12.7611
  33   2.0000      -0.452168       -12.3041
  34   2.0000      -0.429020       -11.6742
  35   2.0000      -0.420748       -11.4491
  36   2.0000      -0.406094       -11.0504
  37   2.0000      -0.369536       -10.0556
  38   2.0000      -0.368812       -10.0359
  39   2.0000      -0.365732        -9.9521
  40   0.0000       0.037228         1.0130
  41   0.0000       0.039620         1.0781
  42   0.0000       0.042671         1.1611
  43   0.0000       0.043026         1.1708
  44   0.0000       0.054176         1.4742

MULLIKEN ATOMIC CHARGES
-----------------------
   0 C :    0.826018
   1 C :    0.835329
   2 C :   -0.336563
   3 C :    0.722275
   4 C :   -0.351968
   5 C :    0.556147
   6 C :   -0.351968
   7 C :    0.722275
   8 C :   -0.336563
   9 C :    0.835329
  10 C :    0.826018
  11 H :   -0.290117
  12 H :   -0.320287
  13 H :   -0.311820
  14 H :   -0.291311
  15 H :   -0.251518
  16 H :   -0.262488
  17 H :   -0.245622
  18 H :   -0.245622
  19 H :   -0.262488
  20 H :   -0.251518
  21 H :   -0.311820
  22 H :   -0.291311
  23 H :   -0.320287
  24 H :   -0.290117
Sum of atomic charges:    0.0000000

LOEWDIN ATOMIC CHARGES
----------------------
   0 C :    0.108591
   1 C :    0.107968
   2 C :   -0.298632
   3 C :    0.174660
   4 C :   -0.222046
   5 C :    0.180457
   6 C :   -0.222046
   7 C :    0.174660
   8 C :   -0.298632
   9 C :    0.107968
  10 C :    0.108591
  11 H :    0.001906
  12 H :    0.000988
  13 H :    0.001996
  14 H :    0.001847
  15 H :    0.011052
  16 H :    0.010003
  17 H :    0.011437
  18 H :    0.011437
  19 H :    0.010003
  20 H :    0.011052
  21 H :    0.001996
  22 H :    0.001847
  23 H :    0.000988
  24 H :    0.001906

  Mayer bond orders larger than 0.100000
B(  0-C ,  1-C ) :   1.2565 B(  0-C ,  2-C ) :   0.8619 B(  0-C ,  4-C ) :  -0.1862
B(  0-C , 11-H ) :   0.5231 B(  0-C , 12-H ) :   0.6397 B(  1-C ,  2-C ) :   0.7747
B(  1-C , 13-H ) :   0.6358 B(  1-C , 14-H ) :   0.5250 B(  2-C ,  3-C ) :   1.0600
B(  2-C ,  4-C ) :   0.3850 B(  2-C , 11-H ) :   0.1187 B(  3-C ,  4-C ) :   0.7988
B(  3-C ,  7-C ) :   0.1506 B(  3-C , 15-H ) :   0.5185 B(  3-C , 16-H ) :   0.5943
B(  4-C ,  5-C ) :   0.9633 B(  4-C ,  6-C ) :   0.6321 B(  4-C , 11-H ) :   0.2150
B(  4-C , 14-H ) :   0.1992 B(  4-C , 15-H ) :   0.1297 B(  4-C , 16-H ) :   0.1203
B(  4-C , 17-H ) :   0.1306 B(  4-C , 20-H ) :   0.1625 B(  5-C ,  6-C ) :   0.9633
B(  5-C , 17-H ) :   0.5912 B(  5-C , 18-H ) :   0.5912 B(  6-C ,  7-C ) :   0.7988
B(  6-C ,  8-C ) :   0.3850 B(  6-C , 10-C ) :  -0.1862 B(  6-C , 15-H ) :   0.1625
B(  6-C , 18-H ) :   0.1306 B(  6-C , 19-H ) :   0.1203 B(  6-C , 20-H ) :   0.1297
B(  6-C , 22-H ) :   0.1992 B(  6-C , 24-H ) :   0.2150 B(  7-C ,  8-C ) :   1.0600
B(  7-C , 19-H ) :   0.5943 B(  7-C , 20-H ) :   0.5185 B(  8-C ,  9-C ) :   0.7747
B(  8-C , 10-C ) :   0.8619 B(  8-C , 24-H ) :   0.1187 B(  9-C , 10-C ) :   1.2565
B(  9-C , 21-H ) :   0.6358 B(  9-C , 22-H ) :   0.5250 B( 10-C , 23-H ) :   0.6397
B( 10-C , 24-H ) :   0.5231 B( 11-H , 12-H ) :  -0.2001 B( 13-H , 14-H ) :  -0.1984
B( 15-H , 16-H ) :  -0.2202 B( 17-H , 18-H ) :  -0.2411 B( 19-H , 20-H ) :  -0.2202
B( 21-H , 22-H ) :  -0.1984 B( 23-H , 24-H ) :  -0.2001

MP2 TOTAL ENERGY:     -426.078833849 Eh
FINAL SINGLE POINT ENERGY      -426.078833849327

DIPOLE MOMENT
-------------
                                X             Y             Z
Electronic contribution:      0.00000       0.00000       0.89534
Nuclear contribution   :      0.00000       0.00000      -0.90551
                        -----------------------------------------
Total Dipole Moment    :      0.00000       0.00000      -0.01017
                        -----------------------------------------
Magnitude (a.u.)       :      0.01017
Magnitude (Debye)      :      0.02585

Rotational constants in cm-1:     0.082231     0.021936     0.021895
Rotational constants in MHz :  2465.221897   657.624921   656.395814

                             ****ORCA TERMINATED NORMALLY****
TOTAL RUN TIME: 0 days 0 hours 2 minutes 53 seconds 930 msec
