                         Program Version 5.0.3 -  RELEASE  -
|  1> !ri-mp2 aug-cc-pvdz aug-cc-pvdz/c tightscf
|  2> %pal nprocs 16 end
|  3>
|  4> * xyz 0 1
|  5> H      0.727709    2.103092    0.342737
|  6> H     -0.986957    1.809222    0.025908
|  7> C      0.000000    1.349368    0.050917
|  8> H      1.422074    0.557865   -1.364380
|  9> H      0.016317    1.302538   -2.122147
| 10> C      0.340403    0.685094   -1.282406
| 11> H     -0.016317   -1.302538   -2.122147
| 12> H     -1.422074   -0.557865   -1.364380
| 13> C     -0.340403   -0.685094   -1.282406
| 14> H      0.986957   -1.809222    0.025908
| 15> H     -0.727709   -2.103092    0.342737
| 16> C      0.000000   -1.349368    0.050917
| 17> S      0.000000    0.000000    1.313352
| 18> *
| 19>
| 20>                          ****END OF INPUT****

CARTESIAN COORDINATES (ANGSTROEM)
---------------------------------
  H      0.727709    2.103092    0.342737
  H     -0.986957    1.809222    0.025908
  C      0.000000    1.349368    0.050917
  H      1.422074    0.557865   -1.364380
  H      0.016317    1.302538   -2.122147
  C      0.340403    0.685094   -1.282406
  H     -0.016317   -1.302538   -2.122147
  H     -1.422074   -0.557865   -1.364380
  C     -0.340403   -0.685094   -1.282406
  H      0.986957   -1.809222    0.025908
  H     -0.727709   -2.103092    0.342737
  C      0.000000   -1.349368    0.050917
  S      0.000000    0.000000    1.313352

 Total Charge           Charge          ....    0
 Multiplicity           Mult            ....    1
 Number of Electrons    NEL             ....   48
 Basis Dimension        Dim             ....  191

ORBITAL ENERGIES
----------------

  NO   OCC          E(Eh)            E(eV)
   0   2.0000     -91.936235     -2501.7122
   1   2.0000     -11.258841      -306.3686
   2   2.0000     -11.258828      -306.3683
   3   2.0000     -11.239277      -305.8363
   4   2.0000     -11.238674      -305.8199
   5   2.0000      -8.937837      -243.2109
   6   2.0000      -6.619632      -180.1293
   7   2.0000      -6.618521      -180.0991
   8   2.0000      -6.616428      -180.0422
   9   2.0000      -1.124895       -30.6100
  10   2.0000      -0.985791       -26.8247
  11   2.0000      -0.964616       -26.2485
  12   2.0000      -0.794375       -21.6160
  13   2.0000      -0.782626       -21.2963
  14   2.0000      -0.655331       -17.8324
  15   2.0000      -0.636918       -17.3314
  16   2.0000      -0.597946       -16.2709
  17   2.0000      -0.545775       -14.8513
  18   2.0000      -0.504586       -13.7305
  19   2.0000      -0.491572       -13.3763
  20   2.0000      -0.479999       -13.0614
  21   2.0000      -0.472638       -12.8611
  22   2.0000      -0.418378       -11.3847
  23   2.0000      -0.329368        -8.9626
  24   0.0000       0.035093         0.9549
  25   0.0000       0.044957         1.2233
  26   0.0000       0.046642         1.2692
  27   0.0000       0.052187         1.4201
  28   0.0000       0.067632         1.8404

MULLIKEN ATOMIC CHARGES
-----------------------
   0 H :   -0.065957
   1 H :   -0.103315
   2 C :   -0.013891
   3 H :   -0.173880
   4 H :   -0.078457
   5 C :    0.215441
   6 H :   -0.078457
   7 H :   -0.173880
   8 C :    0.215441
   9 H :   -0.103315
  10 H :   -0.065957
  11 C :   -0.013891
  12 S :    0.440119
Sum of atomic charges:   -0.0000000

LOEWDIN ATOMIC CHARGES
----------------------
   0 H :   -0.038025
   1 H :   -0.037907
   2 C :   -0.263190
   3 H :    0.013839
   4 H :    0.012700
   5 C :   -0.088786
   6 H :    0.012700
   7 H :    0.013839
   8 C :   -0.088786
   9 H :   -0.037907
  10 H :   -0.038025
  11 C :   -0.263190
  12 S :    0.802738

  Mayer bond orders larger than 0.100000
B(  0-H ,  1-H ) :  -0.1083 B(  0-H ,  2-C ) :   0.8919 B(  1-H ,  2-C ) :   0.8821
B(  1-H ,  5-C ) :   0.1011 B(  2-C ,  5-C ) :   1.2770 B(  2-C , 11-C ) :   0.1257
B(  2-C , 12-S ) :   1.0780 B(  3-H ,  4-H ) :  -0.1117 B(  3-H ,  5-C ) :   0.8219
B(  4-H ,  5-C ) :   0.8356 B(  5-C ,  8-C ) :   1.1988 B(  6-H ,  7-H ) :  -0.1117
B(  6-H ,  8-C ) :   0.8356 B(  7-H ,  8-C ) :   0.8219 B(  8-C ,  9-H ) :   0.1011
B(  8-C , 11-C ) :   1.2770 B(  9-H , 10-H ) :  -0.1083 B(  9-H , 11-C ) :   0.8821
B( 10-H , 11-C ) :   0.8919 B( 11-C , 12-S ) :   1.0780

MP2 TOTAL ENERGY:     -554.412235898 Eh
FINAL SINGLE POINT ENERGY      -554.412235897863

DIPOLE MOMENT
-------------
                                X             Y             Z
Electronic contribution:      0.00000       0.00000       5.50034
Nuclear contribution   :     -0.00000       0.00000      -6.41720
                        -----------------------------------------
Total Dipole Moment    :      0.00000       0.00000      -0.91686
                        -----------------------------------------
Magnitude (a.u.)       :      0.91686
Magnitude (Debye)      :      2.33048

Rotational constants in cm-1:     0.199570     0.144457     0.092236
Rotational constants in MHz :  5982.963851  4330.716241  2765.156215

                             ****ORCA TERMINATED NORMALLY****
TOTAL RUN TIME: 0 days 0 hours 0 minutes 55 seconds 278 msec
