                         Program Version 5.0.3 -  RELEASE  -
|  1> !ri-mp2 aug-cc-pvdz aug-cc-pvdz/c tightscf
|  2> %pal nprocs 16 end
|  3> %maxcore 3800
|  4>
|  5> * xyz 0 1
|  6> C     0.000000     0.851770    0.000000
|  7> C     0.737655    -0.425885    0.000000
|  8> C    -0.737655    -0.425885    0.000000
|  9> C     1.836386    -1.060238    0.763078
| 10> C     1.836386    -1.060238   -0.763078
| 11> C     0.000000     2.120476   -0.763078
| 12> C     0.000000     2.120476    0.763078
| 13> C    -1.836386    -1.060238   -0.763078
| 14> C    -1.836386    -1.060238    0.763078
| 15> H     2.551440    -0.422252    1.266347
| 16> H     1.641401    -1.998486    1.266347
| 17> H     1.641401    -1.998486   -1.266347
| 18> H     2.551440    -0.422252   -1.266347
| 19> H    -0.910039     2.420738   -1.266347
| 20> H     0.910039     2.420738   -1.266347
| 21> H     0.910039     2.420738    1.266347
| 22> H    -0.910039     2.420738    1.266347
| 23> H    -2.551440    -0.422252   -1.266347
| 24> H    -1.641401    -1.998486   -1.266347
| 25> H    -1.641401    -1.998486    1.266347
| 26> H    -2.551440    -0.422252    1.266347
| 27> *
| 28>
| 29>                          ****END OF INPUT****

CARTESIAN COORDINATES (ANGSTROEM)
---------------------------------
  C      0.000000    0.851770    0.000000
  C      0.737655   -0.425885    0.000000
  C     -0.737655   -0.425885    0.000000
  C      1.836386   -1.060238    0.763078
  C      1.836386   -1.060238   -0.763078
  C      0.000000    2.120476   -0.763078
  C      0.000000    2.120476    0.763078
  C     -1.836386   -1.060238   -0.763078
  C     -1.836386   -1.060238    0.763078
  H      2.551440   -0.422252    1.266347
  H      1.641401   -1.998486    1.266347
  H      1.641401   -1.998486   -1.266347
  H      2.551440   -0.422252   -1.266347
  H     -0.910039    2.420738   -1.266347
  H      0.910039    2.420738   -1.266347
  H      0.910039    2.420738    1.266347
  H     -0.910039    2.420738    1.266347
  H     -2.551440   -0.422252   -1.266347
  H     -1.641401   -1.998486   -1.266347
  H     -1.641401   -1.998486    1.266347
  H     -2.551440   -0.422252    1.266347

 Total Charge           Charge          ....    0
 Multiplicity           Mult            ....    1
 Number of Electrons    NEL             ....   66
 Basis Dimension        Dim             ....  315

ORBITAL ENERGIES
----------------

  NO   OCC          E(Eh)            E(eV)
   0   2.0000     -11.241194      -305.8884
   1   2.0000     -11.240100      -305.8587
   2   2.0000     -11.240100      -305.8587
   3   2.0000     -11.229820      -305.5789
   4   2.0000     -11.229820      -305.5789
   5   2.0000     -11.229820      -305.5789
   6   2.0000     -11.229245      -305.5633
   7   2.0000     -11.229245      -305.5633
   8   2.0000     -11.229236      -305.5630
   9   2.0000      -1.202572       -32.7236
  10   2.0000      -1.117497       -30.4086
  11   2.0000      -1.117497       -30.4086
  12   2.0000      -0.990616       -26.9560
  13   2.0000      -0.835728       -22.7413
  14   2.0000      -0.817908       -22.2564
  15   2.0000      -0.817908       -22.2564
  16   2.0000      -0.723316       -19.6824
  17   2.0000      -0.723315       -19.6824
  18   2.0000      -0.671159       -18.2632
  19   2.0000      -0.652393       -17.7525
  20   2.0000      -0.652393       -17.7525
  21   2.0000      -0.620709       -16.8904
  22   2.0000      -0.534192       -14.5361
  23   2.0000      -0.515967       -14.0402
  24   2.0000      -0.515967       -14.0402
  25   2.0000      -0.507939       -13.8217
  26   2.0000      -0.500799       -13.6274
  27   2.0000      -0.500799       -13.6274
  28   2.0000      -0.434877       -11.8336
  29   2.0000      -0.386337       -10.5128
  30   2.0000      -0.386337       -10.5128
  31   2.0000      -0.375663       -10.2223
  32   2.0000      -0.375663       -10.2223
  33   0.0000       0.037659         1.0248
  34   0.0000       0.042037         1.1439
  35   0.0000       0.042037         1.1439
  36   0.0000       0.046264         1.2589
  37   0.0000       0.060744         1.6529

MULLIKEN ATOMIC CHARGES
-----------------------
   0 C :   -0.410519
   1 C :   -0.410540
   2 C :   -0.410541
   3 C :    0.768421
   4 C :    0.768421
   5 C :    0.768419
   6 C :    0.768419
   7 C :    0.768422
   8 C :    0.768422
   9 H :   -0.281577
  10 H :   -0.281577
  11 H :   -0.281577
  12 H :   -0.281577
  13 H :   -0.281577
  14 H :   -0.281578
  15 H :   -0.281578
  16 H :   -0.281577
  17 H :   -0.281577
  18 H :   -0.281577
  19 H :   -0.281577
  20 H :   -0.281577
Sum of atomic charges:    0.0000000

LOEWDIN ATOMIC CHARGES
----------------------
   0 C :   -0.236960
   1 C :   -0.236960
   2 C :   -0.236960
   3 C :    0.114122
   4 C :    0.114122
   5 C :    0.114122
   6 C :    0.114122
   7 C :    0.114122
   8 C :    0.114122
   9 H :    0.002179
  10 H :    0.002179
  11 H :    0.002179
  12 H :    0.002179
  13 H :    0.002179
  14 H :    0.002179
  15 H :    0.002179
  16 H :    0.002179
  17 H :    0.002179
  18 H :    0.002179
  19 H :    0.002179
  20 H :    0.002179

  Mayer bond orders larger than 0.100000
B(  0-C ,  1-C ) :   0.7944 B(  0-C ,  2-C ) :   0.7944 B(  0-C ,  5-C ) :   0.7759
B(  0-C ,  6-C ) :   0.7759 B(  0-C , 10-H ) :   0.1073 B(  0-C , 11-H ) :   0.1073
B(  0-C , 18-H ) :   0.1073 B(  0-C , 19-H ) :   0.1073 B(  1-C ,  2-C ) :   0.7944
B(  1-C ,  3-C ) :   0.7759 B(  1-C ,  4-C ) :   0.7759 B(  1-C , 13-H ) :   0.1073
B(  1-C , 16-H ) :   0.1073 B(  1-C , 17-H ) :   0.1073 B(  1-C , 20-H ) :   0.1073
B(  2-C ,  7-C ) :   0.7759 B(  2-C ,  8-C ) :   0.7759 B(  2-C ,  9-H ) :   0.1073
B(  2-C , 12-H ) :   0.1073 B(  2-C , 14-H ) :   0.1073 B(  2-C , 15-H ) :   0.1073
B(  3-C ,  4-C ) :   1.3026 B(  3-C ,  9-H ) :   0.6249 B(  3-C , 10-H ) :   0.6249
B(  4-C , 11-H ) :   0.6249 B(  4-C , 12-H ) :   0.6249 B(  5-C ,  6-C ) :   1.3026
B(  5-C , 13-H ) :   0.6249 B(  5-C , 14-H ) :   0.6249 B(  6-C , 15-H ) :   0.6249
B(  6-C , 16-H ) :   0.6249 B(  7-C ,  8-C ) :   1.3026 B(  7-C , 17-H ) :   0.6249
B(  7-C , 18-H ) :   0.6249 B(  8-C , 19-H ) :   0.6249 B(  8-C , 20-H ) :   0.6249
B(  9-H , 10-H ) :  -0.2227 B( 11-H , 12-H ) :  -0.2227 B( 13-H , 14-H ) :  -0.2227
B( 15-H , 16-H ) :  -0.2227 B( 17-H , 18-H ) :  -0.2227 B( 19-H , 20-H ) :  -0.2227

MP2 TOTAL ENERGY:     -348.936967446 Eh
FINAL SINGLE POINT ENERGY      -348.936967445914

DIPOLE MOMENT
-------------
                                X             Y             Z
Electronic contribution:     -0.00000       0.00000      -0.00000
Nuclear contribution   :     -0.00000       0.00000       0.00000
                        -----------------------------------------
Total Dipole Moment    :     -0.00000       0.00000      -0.00000
                        -----------------------------------------
Magnitude (a.u.)       :      0.00000
Magnitude (Debye)      :      0.00000

Rotational constants in cm-1:     0.060880     0.060880     0.039106
Rotational constants in MHz :  1825.125221  1825.125218  1172.353717

                             ****ORCA TERMINATED NORMALLY****
TOTAL RUN TIME: 0 days 0 hours 1 minutes 45 seconds 650 msec
