                         Program Version 5.0.3 -  RELEASE  -
|  1> !ri-mp2 aug-cc-pvdz aug-cc-pvdz/c tightscf
|  2> %pal nprocs 16 end
|  3> %maxcore 3800
|  4>
|  5> * xyz 0 1
|  6> C    -0.225728     0.731655    2.543314
|  7> C     0.225728    -0.731655    2.543314
|  8> C     0.225728     1.456661    1.272775
|  9> C    -0.225728    -1.456661    1.272775
| 10> C    -0.231499     0.735086    0.000000
| 11> C     0.231499    -0.735086    0.000000
| 12> C     0.225728     1.456661   -1.272775
| 13> C    -0.225728     0.731655   -2.543314
| 14> C     0.225728    -0.731655   -2.543314
| 15> C    -0.225728    -1.456661   -1.272775
| 16> H     0.156998     1.245982   -3.427820
| 17> H    -0.156998    -1.245982    3.427820
| 18> H     0.150668    -2.483241   -1.270085
| 19> H    -0.156998    -1.245982   -3.427820
| 20> H     1.318123    -0.770907   -2.610688
| 21> H    -0.150668     2.483241    1.270085
| 22> H     0.156998     1.245982    3.427820
| 23> H    -0.150668     2.483241   -1.270085
| 24> H     0.150668    -2.483241    1.270085
| 25> H    -1.318123     0.770907    2.610688
| 26> H     1.319276     1.529769   -1.266570
| 27> H     1.319276     1.529769    1.266570
| 28> H     1.318123    -0.770907    2.610688
| 29> H    -1.318123     0.770907   -2.610688
| 30> H    -1.319276    -1.529769    1.266570
| 31> H    -1.319276    -1.529769   -1.266570
| 32> H    -1.330699     0.726592    0.000000
| 33> H     1.330699    -0.726592    0.000000
| 34> *
| 35>
| 36>                          ****END OF INPUT****

CARTESIAN COORDINATES (ANGSTROEM)
---------------------------------
  C     -0.225728    0.731655    2.543314
  C      0.225728   -0.731655    2.543314
  C      0.225728    1.456661    1.272775
  C     -0.225728   -1.456661    1.272775
  C     -0.231499    0.735086    0.000000
  C      0.231499   -0.735086    0.000000
  C      0.225728    1.456661   -1.272775
  C     -0.225728    0.731655   -2.543314
  C      0.225728   -0.731655   -2.543314
  C     -0.225728   -1.456661   -1.272775
  H      0.156998    1.245982   -3.427820
  H     -0.156998   -1.245982    3.427820
  H      0.150668   -2.483241   -1.270085
  H     -0.156998   -1.245982   -3.427820
  H      1.318123   -0.770907   -2.610688
  H     -0.150668    2.483241    1.270085
  H      0.156998    1.245982    3.427820
  H     -0.150668    2.483241   -1.270085
  H      0.150668   -2.483241    1.270085
  H     -1.318123    0.770907    2.610688
  H      1.319276    1.529769   -1.266570
  H      1.319276    1.529769    1.266570
  H      1.318123   -0.770907    2.610688
  H     -1.318123    0.770907   -2.610688
  H     -1.319276   -1.529769    1.266570
  H     -1.319276   -1.529769   -1.266570
  H     -1.330699    0.726592    0.000000
  H      1.330699   -0.726592    0.000000

 Total Charge           Charge          ....    0
 Multiplicity           Mult            ....    1
 Number of Electrons    NEL             ....   78
 Basis Dimension        Dim             ....  392

ORBITAL ENERGIES
----------------

  NO   OCC          E(Eh)            E(eV)
   0   2.0000     -11.218621      -305.2742
   1   2.0000     -11.218050      -305.2587
   2   2.0000     -11.216807      -305.2248
   3   2.0000     -11.216804      -305.2248
   4   2.0000     -11.216234      -305.2092
   5   2.0000     -11.216229      -305.2091
   6   2.0000     -11.214809      -305.1705
   7   2.0000     -11.214793      -305.1700
   8   2.0000     -11.214752      -305.1689
   9   2.0000     -11.214721      -305.1681
  10   2.0000      -1.135311       -30.8934
  11   2.0000      -1.072917       -29.1955
  12   2.0000      -1.027537       -27.9607
  13   2.0000      -0.992289       -27.0016
  14   2.0000      -0.961212       -26.1559
  15   2.0000      -0.853248       -23.2180
  16   2.0000      -0.822292       -22.3757
  17   2.0000      -0.805867       -21.9288
  18   2.0000      -0.756232       -20.5781
  19   2.0000      -0.749734       -20.4013
  20   2.0000      -0.633871       -17.2485
  21   2.0000      -0.624837       -17.0027
  22   2.0000      -0.613546       -16.6954
  23   2.0000      -0.592074       -16.1111
  24   2.0000      -0.590003       -16.0548
  25   2.0000      -0.579788       -15.7768
  26   2.0000      -0.564139       -15.3510
  27   2.0000      -0.519194       -14.1280
  28   2.0000      -0.512207       -13.9379
  29   2.0000      -0.495109       -13.4726
  30   2.0000      -0.492801       -13.4098
  31   2.0000      -0.486521       -13.2389
  32   2.0000      -0.473776       -12.8921
  33   2.0000      -0.462858       -12.5950
  34   2.0000      -0.456640       -12.4258
  35   2.0000      -0.448136       -12.1944
  36   2.0000      -0.440397       -11.9838
  37   2.0000      -0.404519       -11.0075
  38   2.0000      -0.399675       -10.8757
  39   0.0000       0.037509         1.0207
  40   0.0000       0.039264         1.0684
  41   0.0000       0.041088         1.1181
  42   0.0000       0.042331         1.1519
  43   0.0000       0.053994         1.4693

MULLIKEN ATOMIC CHARGES
-----------------------
   0 C :    0.475899
   1 C :    0.475899
   2 C :    0.655749
   3 C :    0.655749
   4 C :   -0.729294
   5 C :   -0.729294
   6 C :    0.655749
   7 C :    0.475899
   8 C :    0.475899
   9 C :    0.655749
  10 H :   -0.131440
  11 H :   -0.131440
  12 H :   -0.206055
  13 H :   -0.131440
  14 H :   -0.134444
  15 H :   -0.206055
  16 H :   -0.131440
  17 H :   -0.206055
  18 H :   -0.206055
  19 H :   -0.134444
  20 H :   -0.129217
  21 H :   -0.129217
  22 H :   -0.134444
  23 H :   -0.134444
  24 H :   -0.129217
  25 H :   -0.129217
  26 H :   -0.331689
  27 H :   -0.331689
Sum of atomic charges:   -0.0000000

LOEWDIN ATOMIC CHARGES
----------------------
   0 C :   -0.019225
   1 C :   -0.019225
   2 C :    0.005851
   3 C :    0.005851
   4 C :   -0.179165
   5 C :   -0.179165
   6 C :    0.005851
   7 C :   -0.019225
   8 C :   -0.019225
   9 C :    0.005851
  10 H :    0.013948
  11 H :    0.013948
  12 H :    0.019486
  13 H :    0.013948
  14 H :    0.018388
  15 H :    0.019486
  16 H :    0.013948
  17 H :    0.019486
  18 H :    0.019486
  19 H :    0.018388
  20 H :    0.024486
  21 H :    0.024486
  22 H :    0.018388
  23 H :    0.018388
  24 H :    0.024486
  25 H :    0.024486
  26 H :    0.053297
  27 H :    0.053297

  Mayer bond orders larger than 0.100000
B(  0-C ,  1-C ) :   1.2809 B(  0-C ,  2-C ) :   1.2160 B(  0-C , 16-H ) :   0.7077
B(  0-C , 19-H ) :   0.7556 B(  1-C ,  3-C ) :   1.2160 B(  1-C , 11-H ) :   0.7077
B(  1-C , 22-H ) :   0.7556 B(  2-C ,  4-C ) :   1.0452 B(  2-C ,  6-C ) :  -0.1156
B(  2-C , 15-H ) :   0.5910 B(  2-C , 16-H ) :   0.1293 B(  2-C , 21-H ) :   0.7329
B(  3-C ,  5-C ) :   1.0452 B(  3-C ,  9-C ) :  -0.1156 B(  3-C , 11-H ) :   0.1293
B(  3-C , 18-H ) :   0.5910 B(  3-C , 24-H ) :   0.7329 B(  4-C ,  5-C ) :   1.1461
B(  4-C ,  6-C ) :   1.0452 B(  4-C , 15-H ) :   0.2331 B(  4-C , 17-H ) :   0.2331
B(  4-C , 20-H ) :   0.1502 B(  4-C , 21-H ) :   0.1502 B(  4-C , 26-H ) :   0.2291
B(  4-C , 27-H ) :   0.2737 B(  5-C ,  9-C ) :   1.0452 B(  5-C , 12-H ) :   0.2331
B(  5-C , 18-H ) :   0.2331 B(  5-C , 24-H ) :   0.1502 B(  5-C , 25-H ) :   0.1502
B(  5-C , 26-H ) :   0.2737 B(  5-C , 27-H ) :   0.2291 B(  6-C ,  7-C ) :   1.2160
B(  6-C , 10-H ) :   0.1293 B(  6-C , 17-H ) :   0.5910 B(  6-C , 20-H ) :   0.7329
B(  7-C ,  8-C ) :   1.2809 B(  7-C , 10-H ) :   0.7077 B(  7-C , 23-H ) :   0.7556
B(  8-C ,  9-C ) :   1.2160 B(  8-C , 13-H ) :   0.7077 B(  8-C , 14-H ) :   0.7556
B(  9-C , 12-H ) :   0.5910 B(  9-C , 13-H ) :   0.1293 B(  9-C , 25-H ) :   0.7329
B( 10-H , 23-H ) :  -0.1530 B( 11-H , 22-H ) :  -0.1530 B( 12-H , 25-H ) :  -0.1643
B( 13-H , 14-H ) :  -0.1530 B( 15-H , 21-H ) :  -0.1643 B( 16-H , 19-H ) :  -0.1530
B( 17-H , 20-H ) :  -0.1643 B( 18-H , 24-H ) :  -0.1643

MP2 TOTAL ENERGY:     -390.701484768 Eh
FINAL SINGLE POINT ENERGY      -390.701484768366

DIPOLE MOMENT
-------------
                                X             Y             Z
Electronic contribution:     -0.00000      -0.00000       0.00000
Nuclear contribution   :      0.00000       0.00000       0.00000
                        -----------------------------------------
Total Dipole Moment    :     -0.00000      -0.00000       0.00000
                        -----------------------------------------
Magnitude (a.u.)       :      0.00000
Magnitude (Debye)      :      0.00000

Rotational constants in cm-1:     0.080802     0.033700     0.025493
Rotational constants in MHz :  2422.394258  1010.292934   764.274807

                             ****ORCA TERMINATED NORMALLY****
TOTAL RUN TIME: 0 days 0 hours 2 minutes 47 seconds 640 msec
